Membrane in water
40347
    1TMC1    C1    1   1.679   3.681  11.483 -0.3590 -0.6346 -0.2514
    1TMC1    C2    2   1.679   3.745  11.605  0.3496 -0.7043 -0.0149
    1TMC1    C3    3   1.709   3.872  11.606  0.9866 -0.7890 -0.2183
    1TMC1    C4    4   1.676   3.756  11.363 -0.2087  0.5195 -0.0615
    1TMC1    C5    5   1.700   3.891  11.370  0.4608  0.5649 -0.3276
    1TMC1    C6    6   1.730   3.947  11.488  0.7127 -0.4498 -0.7871
    1TMC1     C    7   1.603   3.556  11.481 -0.3624 -1.0013  0.1414
    1TMC1     O    8   1.484   3.560  11.455 -0.3037  0.4854 -0.0282
    1TMC1     H    9   1.672   3.672  11.685 -1.6198  2.9769  3.1866
    1TMC1    H1   10   1.657   3.699  11.272 -0.8960  1.4136 -0.4695
    1TMC1    H2   11   1.773   4.046  11.495  1.4870 -0.8959  0.7115
    1TMC1    C7   12   1.781   3.939  11.256 -0.9861 -0.7046 -0.6060
    1TMC1    C8   13   1.770   3.924  11.727 -0.5146 -0.0972  0.1533
    1TMC1    O1   14   1.751   3.926  11.137 -0.5404 -0.5476  0.0692
    1TMC1    O2   15   1.854   4.012  11.725  0.0675  0.1488 -0.2626
    1TMC1    O3   16   1.910   3.947  11.304  0.1698  0.0078  0.1959
    1TMC1    H3   17   1.910   3.890  11.384  1.2053 -0.9177 -0.4629
    1TMC1    O5   18   1.730   3.858  11.831 -0.4594  0.4509  0.2362
    1TMC1    H5   19   1.658   3.795  11.811  0.5808 -1.2854  1.8848
    2MPD2     C   20   1.589   3.043  11.466  0.1488  0.5561  0.1729
    2MPD2    C1   21   1.491   3.141  11.476  0.4994  0.7361  0.2134
    2MPD2    C2   22   1.517   3.274  11.488  0.1330  0.0277  0.0308
    2MPD2    C3   23   1.652   3.312  11.494  0.0724 -0.2769  0.0573
    2MPD2    C4   24   1.748   3.218  11.494  0.7305  0.1490 -0.6151
    2MPD2    C5   25   1.719   3.083  11.469  0.5777 -0.8906  0.1203
    2MPD2     H   26   1.426   3.331  11.504 -0.5044 -0.9219 -0.1999
    2MPD2    H1   27   1.852   3.249  11.500  0.7804  0.1503 -1.4387
    2MPD2    H2   28   1.557   2.941  11.448 -0.4659  0.3331  2.5881
    2MPD2    H3   29   1.799   3.011  11.454  0.0380 -1.5703  0.4660
    2MPD2     N   30   1.690   3.452  11.499 -0.6358 -0.4599  0.0757
    2MPD2    H5   31   1.788   3.474  11.482 -0.2101 -1.9134  0.6058
    2MPD2    N1   32   1.351   3.116  11.467  0.4730  0.0533 -0.6021
    2MPD2    H7   33   1.295   3.200  11.461  0.6366  0.2151  0.0873
    3TMC1    C1   34   0.560   4.263  10.163  0.9434  0.6332 -0.0949
    3TMC1    C2   35   0.474   4.190  10.084  0.1432  0.5834  0.1028
    3TMC1    C3   36   0.516   4.156   9.958  0.8361  0.8540 -0.1936
    3TMC1    C4   37   0.680   4.311  10.116  0.3705  0.4958  0.0376
    3TMC1    C5   38   0.708   4.285   9.991 -0.8497  0.1181 -0.4498
    3TMC1    C6   39   0.627   4.221   9.908  0.4197  0.7908  0.1464
    3TMC1     C   40   0.524   4.291  10.300  0.2006 -0.2231  0.0756
    3TMC1     O   41   0.436   4.223  10.348  0.3493  0.7068  0.5112
    3TMC1     H   42   0.374   4.169  10.120 -0.3435  0.8541 -1.0785
    3TMC1    H1   43   0.741   4.381  10.173  1.6280 -1.8554  1.5795
    3TMC1    H2   44   0.646   4.216   9.802  0.1226  0.9183  0.0898
    3TMC1    C7   45   0.804   4.365   9.924 -0.2099  0.4139  1.0603
    3TMC1    C8   46   0.423   4.096   9.867  0.1426  0.1918  0.4360
    3TMC1    O1   47   0.840   4.474   9.976  0.3214 -0.0729  0.1741
    3TMC1    O2   48   0.407   4.149   9.758  0.3390  0.8656 -0.4272
    3TMC1    O3   49   0.892   4.277   9.860  0.3648  0.3087 -0.2595
    3TMC1    H3   50   0.862   4.188   9.830 -1.5191  0.7543  0.2936
    3TMC1    O5   51   0.343   4.005   9.931  0.1041 -0.0429  0.0088
    3TMC1    H5   52   0.401   3.967  10.000 -1.4461  0.2732  1.4803
    4MPD2     C   53   0.603   4.509  10.756  0.2178 -0.0454 -0.1254
    4MPD2    C1   54   0.665   4.591  10.667  0.0543 -0.7042 -0.3539
    4MPD2    C2   55   0.659   4.548  10.533  0.2776 -0.3895 -0.8232
    4MPD2    C3   56   0.590   4.433  10.493 -0.2403 -0.3020  0.2726
    4MPD2    C4   57   0.529   4.357  10.591  0.5913 -0.2291 -0.3370
    4MPD2    C5   58   0.535   4.400  10.721  0.1359  0.4376 -0.2421
    4MPD2     H   59   0.701   4.620  10.463  1.3663  0.1475  0.3835
    4MPD2    H1   60   0.473   4.264  10.579 -0.4136  0.1373  1.4670
    4MPD2    H2   61   0.605   4.521  10.864 -0.9711 -1.6613  0.0780
    4MPD2    H3   62   0.491   4.341  10.801  0.4482  3.1252  1.8781
    4MPD2     N   63   0.588   4.397  10.355  0.0942 -0.1294 -0.4065
    4MPD2    H5   64   0.632   4.447  10.279  0.3192  0.9236  0.4218
    4MPD2    N1   65   0.731   4.710  10.703  0.1400 -0.1484  0.5175
    4MPD2    H7   66   0.784   0.022  10.633 -0.3607  0.8500  0.8713
    5TCq1    O1   67   2.538   0.976  11.784 -0.4878  0.0943 -0.5522
    5TCq1    C1   68   2.482   0.967  11.910  0.0787  0.0487  0.1055
    5TCq1    O2   69   2.522   0.900  12.005  0.0396 -0.1140  0.0208
    5TCq1    C2   70   2.376   1.073  11.919 -0.1200 -0.0596  0.1036
    5TCq1    C3   71   2.365   1.148  12.036  0.8762  0.0762 -0.7822
    5TCq1    C4   72   2.262   1.240  12.040  0.0278  0.4842 -0.3168
    5TCq1    C5   73   2.176   1.255  11.933 -0.4943  0.3345  0.3995
    5TCq1    C6   74   2.189   1.176  11.819 -0.3797 -0.7974 -0.1792
    5TCq1    C7   75   2.294   1.095  11.812 -0.1722  0.5946 -0.0693
    5TCq1    C8   76   2.128   1.214  11.691  0.4327  0.0260  0.2345
    5TCq1    O4   77   2.152   1.140  11.595  0.3153 -0.2020  0.1033
    5TCq1    C9   78   2.242   1.333  12.150  0.5509 -0.7445  0.2270
    5TCq1    O5   79   2.150   1.427  12.136 -0.3326  0.0132 -0.2875
    5TCq1    O6   80   2.327   1.334  12.244 -0.0662  0.3316 -0.7393
    5TCq1    H1   81   2.507   1.053  11.731 -0.2793  0.2437 -0.4601
    5TCq1    H2   82   2.429   1.131  12.121 -1.3688 -1.2266  0.6499
    5TCq1    H3   83   2.102   1.333  11.947 -1.7604 -1.0048  1.1016
    5TCq1    H4   84   2.298   1.020  11.734 -2.4642  1.8072 -1.3508
    6MPD2     C   85   1.865   1.473  11.648  0.2704 -0.2324  0.0768
    6MPD2    C1   86   1.952   1.371  11.608  0.4467  0.0086 -0.6164
    6MPD2    C2   87   1.944   1.324  11.476  0.0499 -0.3739 -0.3138
    6MPD2    C3   88   1.866   1.389  11.381 -0.0090 -0.4570  0.3010
    6MPD2    C4   89   1.777   1.479  11.426  0.5960 -0.3585  0.2918
    6MPD2    C5   90   1.778   1.522  11.557 -0.2617  0.2938 -0.0667
    6MPD2     H   91   1.998   1.240  11.434  2.8607  1.3089 -0.0357
    6MPD2    H1   92   1.713   1.531  11.356 -0.3011 -1.5990  0.1983
    6MPD2    H2   93   1.872   1.512  11.749 -2.3238 -0.2929  0.2752
    6MPD2    H3   94   1.707   1.599  11.585  0.5152  1.4902 -1.4078
    6MPD2     N   95   1.858   1.329  11.253  0.6064  0.2267 -0.3996
    6MPD2    H5   96   1.921   1.250  11.243  0.5903  0.0779  0.6737
    6MPD2    N1   97   2.035   1.319  11.707  0.4140 -0.4274 -0.1349
    6MPD2    H7   98   2.035   1.368  11.796  1.0960 -0.2787 -0.2147
    7TCq1    O1   99   4.231   0.542  12.942  0.4571 -0.5397  0.1305
    7TCq1    C1  100   4.152   0.568  12.840 -0.3494  0.2322 -0.1933
    7TCq1    O2  101   4.186   0.636  12.744  0.4088 -0.0807 -1.0869
    7TCq1    C2  102   4.086   0.435  12.828 -0.5977 -0.5981 -0.0839
    7TCq1    C3  103   4.063   0.395  12.697  0.3863 -0.5601  0.2612
    7TCq1    C4  104   3.992   0.283  12.672 -1.0136 -0.1620  0.2034
    7TCq1    C5  105   3.946   0.213  12.779 -0.4927  0.4195  0.7584
    7TCq1    C6  106   3.966   0.255  12.906 -0.4810  0.0463 -0.9991
    7TCq1    C7  107   4.034   0.369  12.933 -0.2571  0.2950 -0.7233
    7TCq1    C8  108   3.944   0.172  13.024 -0.1223  0.4675 -0.2929
    7TCq1    O4  109   3.985   0.205  13.132 -0.1503 -0.2589  0.2591
    7TCq1    C9  110   3.951   0.239  12.537 -0.3222 -0.5395  0.5622
    7TCq1    O5  111   3.995   0.310  12.437  0.3262 -0.7261 -0.0525
    7TCq1    O6  112   3.845   0.169  12.536 -0.1899 -0.6251  0.0214
    7TCq1    H1  113   4.190   0.486  13.011  0.7587 -2.8137 -1.4841
    7TCq1    H2  114   4.099   0.444  12.607  1.1979 -2.4499 -0.4415
    7TCq1    H3  115   3.906   0.117  12.749 -2.8117  2.0310 -1.3084
    7TCq1    H4  116   4.039   0.395  13.039  1.0136  0.0526 -0.7244
    8MPD2     C  117   3.728   4.484  13.199  0.6598 -0.9608 -0.3707
    8MPD2    C1  118   3.826   4.559  13.257  0.1002  0.5978  0.5378
    8MPD2    C2  119   3.874   4.670  13.185 -0.1678  0.1311 -0.1886
    8MPD2    C3  120   3.814   4.703  13.063 -0.1802  0.3548  0.0039
    8MPD2    C4  121   3.713   4.628  13.017  0.3545  0.7743 -0.0771
    8MPD2    C5  122   3.668   4.523  13.083  0.1089 -0.4577  0.6642
    8MPD2     H  123   3.946   4.735  13.232 -0.6957  1.0986 -0.7056
    8MPD2    H1  124   3.665   4.643  12.921 -0.2407  1.6163  0.3586
    8MPD2    H2  125   3.685   4.399  13.251 -1.6585  0.0387 -0.6652
    8MPD2    H3  126   3.586   4.466  13.041 -0.3817 -1.0922  2.5115
    8MPD2     N  127   3.858   0.070  12.983  0.6213 -0.0389  0.4301
    8MPD2    H5  128   3.804   0.083  12.898 -1.9346 -3.0236  1.6066
    8MPD2    N1  129   3.881   4.520  13.382 -0.0644 -0.3327  0.3083
    8MPD2    H7  130   3.863   4.428  13.422 -0.9433 -0.3305 -0.0891
    9TMC1    C1  131   1.289   4.279  10.582 -0.0809  0.0788  0.7506
    9TMC1    C2  132   1.237   4.394  10.639  0.1512  0.1299  0.6926
    9TMC1    C3  133   1.238   4.511  10.574 -0.0175  0.6409 -0.1099
    9TMC1    C4  134   1.353   4.279  10.461 -0.2362  0.2206  0.2332
    9TMC1    C5  135   1.341   4.393  10.389 -0.0831 -0.2509  0.0138
    9TMC1    C6  136   1.277   4.506  10.443 -0.1881 -0.3802  0.2392
    9TMC1     C  137   1.237   4.149  10.625  0.3269 -0.2168  0.9738
    9TMC1     O  138   1.246   4.055  10.550  0.7089 -0.2402  0.0286
    9TMC1     H  139   1.181   4.399  10.731 -0.6422  1.6569  0.1377
    9TMC1    H1  140   1.401   4.187  10.429 -0.3710 -0.5986  2.4247
    9TMC1    H2  141   1.280   4.596  10.382  1.6287 -1.3423 -1.0934
    9TMC1    C7  142   1.410   4.401  10.256 -0.2749  0.6509  0.6398
    9TMC1    C8  143   1.136   4.606  10.606  0.1224  0.4123  0.2282
    9TMC1    O1  144   1.378   4.487  10.177 -0.6298  0.0193 -0.0642
    9TMC1    O2  145   1.047   4.580  10.692 -0.0602 -0.0014  0.6413
    9TMC1    O3  146   1.532   4.338  10.269  0.5615 -0.5299  0.1332
    9TMC1    H3  147   1.559   4.287  10.348  1.4623  0.0474  0.2002
    9TMC1    O5  148   1.165   4.731  10.574 -0.1842 -0.4609  0.7699
    9TMC1    H5  149   1.244   0.011  10.518 -0.8449 -0.8584 -0.3073
   10MPD2     C  150   1.076   3.957  10.774 -0.1121  0.4138  0.1491
   10MPD2    C1  151   1.136   4.064  10.833 -0.2617  0.6875  0.6398
   10MPD2    C2  152   1.135   4.089  10.972 -0.9321  0.8057  0.4480
   10MPD2    C3  153   1.073   3.994  11.049 -0.1301  0.9944 -0.3878
   10MPD2    C4  154   1.004   3.889  10.993 -0.1727 -0.5717 -0.6184
   10MPD2    C5  155   1.012   3.866  10.856  0.9971 -0.5211 -0.0134
   10MPD2     H  156   1.188   4.174  11.015 -3.4951  2.8856 -0.5073
   10MPD2    H1  157   0.948   3.824  11.059 -0.8563 -0.0354 -0.6673
   10MPD2    H2  158   1.080   3.936  10.667  0.0999 -0.8257  0.3992
   10MPD2    H3  159   0.955   3.783  10.815  2.3036 -0.6391 -1.6250
   10MPD2     N  160   1.066   4.007  11.191 -0.3724  0.4117  0.0229
   10MPD2    H5  161   1.023   3.934  11.247 -0.4269  1.0369  0.7840
   10MPD2    N1  162   1.209   4.157  10.758  0.5534 -0.0499  0.0744
   10MPD2    H7  163   1.236   4.244  10.804 -0.2308  1.6562 -2.6543
   11TCq1    O1  164   2.564   3.810  14.407 -0.5129 -0.3396  0.4794
   11TCq1    C1  165   2.441   3.789  14.356 -0.0323  0.5300  0.9976
   11TCq1    O2  166   2.410   3.696  14.285 -0.1001  0.0190  0.3911
   11TCq1    C2  167   2.376   3.913  14.363  0.5392 -0.2945  0.2719
   11TCq1    C3  168   2.398   3.986  14.477  0.5996  0.1863  0.1756
   11TCq1    C4  169   2.337   4.108  14.480  0.6277 -0.2687  1.0518
   11TCq1    C5  170   2.255   4.158  14.372 -0.6163 -0.3411 -0.3849
   11TCq1    C6  171   2.242   4.080  14.264 -0.7378  0.4907  0.0596
   11TCq1    C7  172   2.316   3.959  14.250 -0.4825 -0.1457 -0.0665
   11TCq1    C8  173   2.142   4.118  14.166 -0.0699  0.0421 -0.2036
   11TCq1    O4  174   2.083   4.227  14.182  0.0782  0.4183 -0.2794
   11TCq1    C9  175   2.346   4.184  14.595  0.5115  0.1289  0.8932
   11TCq1    O5  176   2.270   4.290  14.607 -0.0723  0.3461 -0.1650
   11TCq1    O6  177   2.424   4.148  14.686 -0.4046 -0.0245  0.0695
   11TCq1    H1  178   2.574   3.908  14.404  1.5277 -0.5655 -0.4272
   11TCq1    H2  179   2.427   3.940  14.570  0.0042 -1.2028 -0.3265
   11TCq1    H3  180   2.203   4.253  14.383 -1.2283 -0.9961  2.3216
   11TCq1    H4  181   2.330   3.903  14.159  0.0084  1.1697 -0.7846
   12MPD2     C  182   1.907   4.094  13.987 -0.6040  0.5597 -0.2865
   12MPD2    C1  183   2.013   4.002  13.982  0.2910 -0.6621 -0.9979
   12MPD2    C2  184   2.007   3.899  13.894  0.8222  0.3189  0.6301
   12MPD2    C3  185   1.905   3.881  13.800  0.4915  0.2148  0.0281
   12MPD2    C4  186   1.803   3.976  13.798  0.8831 -0.1327  0.4180
   12MPD2    C5  187   1.800   4.075  13.895 -0.2206 -0.3525 -0.3129
   12MPD2     H  188   2.085   3.824  13.892  0.5834  0.0748  0.5060
   12MPD2    H1  189   1.718   3.962  13.731 -0.5608  2.2169  1.7655
   12MPD2    H2  190   1.895   4.160  14.072  2.0639 -1.9365  2.0218
   12MPD2    H3  191   1.715   4.142  13.892  0.1348  0.0811 -0.6777
   12MPD2     N  192   1.875   3.761  13.728 -0.3588 -0.0342  0.6141
   12MPD2    H5  193   1.786   3.753  13.681 -0.9217 -0.4612  1.7601
   12MPD2    N1  194   2.116   4.012  14.077  0.9868 -0.3066  0.1424
   12MPD2    H7  195   2.180   3.934  14.076  0.9724 -0.3217  0.4029
   13TCq1    O1  196   1.329   0.351  10.020 -0.8410 -0.1001  0.2705
   13TCq1    C1  197   1.237   0.299  10.110  0.1618  0.3291 -0.5973
   13TCq1    O2  198   1.146   0.351  10.178  0.0895 -0.7397  0.0105
   13TCq1    C2  199   1.221   0.165  10.068  1.1082 -0.1147  0.4588
   13TCq1    C3  200   1.233   0.124   9.938  0.4320  0.1484  0.6680
   13TCq1    C4  201   1.180   0.004   9.897 -0.1370 -0.1218 -0.4969
   13TCq1    C5  202   1.128   4.655   9.985 -0.5842 -0.0827 -0.2943
   13TCq1    C6  203   1.116   4.695  10.115  0.3596 -0.1180 -0.1016
   13TCq1    C7  204   1.171   0.077  10.156 -0.9002 -0.3260  0.2394
   13TCq1    C8  205   1.054   4.618  10.221  0.0003 -0.3650 -0.4412
   13TCq1    O4  206   1.039   4.665  10.329  0.3751 -0.1662  0.1689
   13TCq1    C9  207   1.165   4.724   9.759 -0.2868 -0.1460 -0.6876
   13TCq1    O5  208   1.173   0.086   9.690 -0.4949 -0.5277  0.0477
   13TCq1    O6  209   1.104   4.618   9.722  0.3081  0.3320  0.4133
   13TCq1    H1  210   1.377   0.275   9.980 -0.4381 -0.1079  0.7700
   13TCq1    H2  211   1.279   0.188   9.863  0.7243 -1.9554 -0.9501
   13TCq1    H3  212   1.077   4.569   9.945  0.4812 -2.2314  3.0001
   13TCq1    H4  213   1.170   0.105  10.261 -1.0728  0.5125  0.0149
   14MPD2     C  214   1.008   4.251  10.205 -0.5356 -0.0367  0.3296
   14MPD2    C1  215   1.001   4.373  10.266 -0.8185 -0.1447  0.2263
   14MPD2    C2  216   0.959   4.379  10.396  0.3059  0.3544  0.6459
   14MPD2    C3  217   0.928   4.266  10.471 -0.4121  0.2131 -0.7069
   14MPD2    C4  218   0.948   4.143  10.409  0.4482 -0.2279 -0.3779
   14MPD2    C5  219   0.985   4.134  10.284  0.0195  0.0609 -0.2214
   14MPD2     H  220   0.935   4.470  10.450  0.8081  0.0543  1.3702
   14MPD2    H1  221   0.930   4.049  10.459 -0.5906 -0.1489 -0.5935
   14MPD2    H2  222   1.028   4.237  10.099 -0.0668  0.4404  0.3533
   14MPD2    H3  223   0.997   4.039  10.232 -1.3475 -0.1275 -0.1747
   14MPD2     N  224   0.896   4.284  10.604  0.1879 -0.1009 -0.0752
   14MPD2    H5  225   0.886   4.372  10.654  0.5080  0.7376 -1.4929
   14MPD2    N1  226   1.039   4.483  10.187  0.0265  0.4080 -0.2611
   14MPD2    H7  227   1.071   4.470  10.092 -0.7374 -0.4161 -0.4069
   15TCq1    O1  228   0.820   3.152   1.784  0.4238 -0.3372  0.6450
   15TCq1    C1  229   0.712   3.081   1.823 -0.4461 -0.4562  0.3751
   15TCq1    O2  230   0.719   2.970   1.872  0.1058  0.1415  0.4395
   15TCq1    C2  231   0.589   3.140   1.769 -0.4326  0.0967 -0.5967
   15TCq1    C3  232   0.573   3.272   1.758 -0.7616 -0.2244  0.8030
   15TCq1    C4  233   0.468   3.319   1.684 -0.1601 -0.3985  0.3413
   15TCq1    C5  234   0.384   3.241   1.608  0.3725  0.0834 -0.3070
   15TCq1    C6  235   0.396   3.104   1.638  0.3742 -0.0320 -0.0998
   15TCq1    C7  236   0.497   3.049   1.716 -0.0062 -0.3428 -0.0639
   15TCq1    C8  237   0.323   3.008   1.555 -0.3455 -0.6564 -0.2732
   15TCq1    O4  238   0.371   2.902   1.524 -0.2632  0.1373 -0.4120
   15TCq1    C9  239   0.444   3.462   1.683 -0.1304 -0.5793 -0.2362
   15TCq1    O5  240   0.365   3.514   1.599 -0.5814 -0.0631 -0.9579
   15TCq1    O6  241   0.480   3.522   1.787 -0.2663 -0.1985 -0.0776
   15TCq1    H1  242   0.796   3.238   1.744  0.6550 -0.0546  1.1197
   15TCq1    H2  243   0.646   3.341   1.800 -0.0848 -0.6518  0.3228
   15TCq1    H3  244   0.311   3.279   1.537  1.0985  1.1573 -0.4722
   15TCq1    H4  245   0.501   2.943   1.739 -0.7202 -0.2943  0.2815
   16MPD2     C  246   0.011   3.076   1.365 -0.7425  0.4341  0.2537
   16MPD2    C1  247   0.124   3.008   1.398  0.8645 -0.5255  0.2836
   16MPD2    C2  248   0.162   2.888   1.331  0.9820  0.1634 -0.1500
   16MPD2    C3  249   0.087   2.847   1.225  0.5253 -0.1711  0.1768
   16MPD2    C4  250   4.712   2.923   1.183  0.2325 -0.2797  0.6413
   16MPD2    C5  251   4.672   3.030   1.255  0.8237 -0.0197  0.3330
   16MPD2     H  252   0.250   2.829   1.353  1.2012  0.2388 -0.7985
   16MPD2    H1  253   4.649   2.888   1.103  1.9494 -1.3743 -0.2278
   16MPD2    H2  254   4.731   3.172   1.411  3.7612 -0.2190  3.4691
   16MPD2    H3  255   4.586   3.088   1.225  1.9209  0.8891 -1.0225
   16MPD2     N  256   0.114   2.729   1.163  0.7155 -0.6335  0.7378
   16MPD2    H5  257   0.177   2.668   1.214  2.1447  0.7917  0.6997
   16MPD2    N1  258   0.206   3.061   1.505  0.2405  0.2151 -0.2640
   16MPD2    H7  259   0.177   3.153   1.539  0.1921  0.0014  0.2755
   17TMC1    C1  260   0.658   3.466  10.197 -0.3553  0.4511  0.1199
   17TMC1    C2  261   0.659   3.594  10.205  0.0224  0.0029  0.6988
   17TMC1    C3  262   0.599   3.665  10.107 -0.0692  0.4182  0.7820
   17TMC1    C4  263   0.598   3.401  10.093 -0.9977 -0.0414  0.4863
   17TMC1    C5  264   0.552   3.474   9.985  0.4714 -0.6484 -0.2645
   17TMC1    C6  265   0.545   3.609   9.993  0.0242 -0.0900  0.0418
   17TMC1     C  266   0.699   3.382  10.307 -0.3086  0.4117  1.3497
   17TMC1     O  267   0.639   3.277  10.323 -0.2118  0.9709  0.3430
   17TMC1     H  268   0.685   3.643  10.298 -0.8104  0.6532  0.5916
   17TMC1    H1  269   0.601   3.292  10.092  1.3540  0.0362 -0.4516
   17TMC1    H2  270   0.500   3.674   9.919 -1.1682 -0.9881 -0.0033
   17TMC1    C7  271   0.495   3.422   9.861 -0.5249  0.6590  0.2193
   17TMC1    C8  272   0.618   3.807  10.112  0.3347  0.4151 -0.3665
   17TMC1    O1  273   0.415   3.330   9.867  0.3230  0.3657 -0.4982
   17TMC1    O2  274   0.533   3.875  10.061  0.3323  0.3317 -0.2173
   17TMC1    O3  275   0.586   3.432   9.758 -0.3007  0.7166 -0.0472
   17TMC1    H3  276   0.666   3.484   9.780 -0.7636  0.4927  2.1687
   17TMC1    O5  277   0.751   3.815  10.104  0.0051 -0.0334  0.1223
   17TMC1    H5  278   0.807   3.752  10.154 -0.3046  0.5436  1.1881
   18MPD2     C  279   0.832   3.265  10.543 -0.1794 -0.1209 -0.2139
   18MPD2    C1  280   0.851   3.393  10.495  0.4589  0.4567  0.0973
   18MPD2    C2  281   0.962   3.468  10.552  0.6318  0.0540  0.0755
   18MPD2    C3  282   1.035   3.417  10.655 -0.3556  0.2486  0.1240
   18MPD2    C4  283   0.996   3.296  10.712 -0.0728  0.1302 -0.0644
   18MPD2    C5  284   0.893   3.229  10.659 -0.5315  0.0473 -0.2077
   18MPD2     H  285   0.984   3.567  10.512 -0.1937 -0.2556 -1.1532
   18MPD2    H1  286   1.044   3.239  10.791  0.6986  1.4255  0.3914
   18MPD2    H2  287   0.764   3.196  10.495 -0.7005  0.5916 -0.5048
   18MPD2    H3  288   0.855   3.135  10.698  0.9236 -0.0082  1.0971
   18MPD2     N  289   1.148   3.482  10.716  0.0832 -0.2713 -0.1587
   18MPD2    H5  290   1.183   3.452  10.807 -1.0242 -1.1607 -0.0230
   18MPD2    N1  291   0.792   3.451  10.380 -0.2022 -0.9799  0.4929
   18MPD2    H7  292   0.831   3.540  10.349 -1.0799 -0.8126 -0.1252
   19TMC2    C1  293   3.195   3.781  13.820  0.0341  0.6425 -1.2716
   19TMC2    C2  294   3.112   3.883  13.774  0.9116 -0.1287  0.1869
   19TMC2    C3  295   2.986   3.871  13.807  0.1800 -0.3456  0.4519
   19TMC2    C4  296   3.141   3.675  13.887 -0.0928 -0.3028 -0.4002
   19TMC2    C5  297   3.008   3.670  13.915  0.0951 -0.1510 -0.5093
   19TMC2    C6  298   2.933   3.772  13.880 -0.2947 -0.1917 -0.0419
   19TMC2     C  299   3.339   3.802  13.801  0.8086  0.4448  0.4269
   19TMC2     O  300   3.367   3.878  13.706 -0.3945  0.3968  0.0639
   19TMC2     H  301   3.141   3.963  13.708 -2.2257 -1.1210 -2.3981
   19TMC2    H1  302   3.194   3.583  13.907  1.5387  1.0621  1.6472
   19TMC2    H2  303   2.825   3.771  13.883 -0.3041  0.1227 -0.2064
   19TMC2    C7  304   2.953   3.554  13.976 -1.0283  0.5127  0.2230
   19TMC2    C8  305   2.898   3.972  13.749  0.6296 -0.3797 -0.0675
   19TMC2    O1  306   3.016   3.453  13.998 -0.2362 -0.2811 -0.0623
   19TMC2    O2  307   2.812   4.034  13.806  0.4873 -0.1260  0.4089
   19TMC2    O5  308   2.926   3.978  13.617  0.1161  0.5500  0.0804
   19TMC2    H5  309   2.991   3.918  13.576  0.3574 -0.2800  1.7043
   20MPD2     C  310   3.633   3.832  13.821 -0.2085 -0.0369 -0.7840
   20MPD2    C1  311   3.556   3.757  13.906  0.9833  0.2752 -0.5689
   20MPD2    C2  312   3.613   3.695  14.013  0.4373 -0.1943 -0.7785
   20MPD2    C3  313   3.746   3.707  14.039 -0.3540 -1.1927  0.1090
   20MPD2    C4  314   3.821   3.795  13.955 -0.3755  0.8298 -0.2328
   20MPD2    C5  315   3.765   3.847  13.848 -1.1290  0.7335 -0.3469
   20MPD2     H  316   3.547   3.641  14.079 -0.0620  0.6407 -0.5929
   20MPD2    H1  317   3.928   3.806  13.968 -0.4305 -0.6029  1.4455
   20MPD2    H2  318   3.589   3.885  13.737  0.2088  1.0568 -0.3044
   20MPD2    H3  319   3.825   3.919  13.793 -0.0606  0.1136  0.0179
   20MPD2     N  320   3.815   3.627  14.128 -0.2572 -0.1857 -0.0537
   20MPD2    H5  321   3.916   3.625  14.133 -0.2024  0.2503 -0.9769
   20MPD2    N1  322   3.421   3.739  13.892 -0.8959  0.4444 -0.5324
   20MPD2    H7  323   3.373   3.675  13.955  0.2689 -0.9185 -1.0161
   21TMC2    C1  324   0.982   3.832  14.730 -0.4569  0.6639 -0.1586
   21TMC2    C2  325   0.979   3.729  14.829  0.0731 -0.2907  0.0061
   21TMC2    C3  326   0.904   3.758  14.940  0.7854  0.2779 -0.0298
   21TMC2    C4  327   0.905   3.947  14.739 -0.1492 -0.1289 -0.3709
   21TMC2    C5  328   0.844   3.967  14.857  0.7672  0.0667  0.1589
   21TMC2    C6  329   0.836   3.873  14.957  0.3339 -0.1056 -0.3451
   21TMC2     C  330   1.070   3.818  14.616  0.1369 -0.1201  0.1477
   21TMC2     O  331   1.178   3.756  14.642  0.2056  0.1161  0.1348
   21TMC2     H  332   1.046   3.644  14.826 -0.4311 -0.6494 -1.3733
   21TMC2    H1  333   0.912   4.027  14.666 -1.8475 -0.2758 -0.6782
   21TMC2    H2  334   0.791   3.887  15.054 -0.3029  0.0976 -0.6706
   21TMC2    C7  335   0.785   4.098  14.884 -0.0836 -1.1798 -0.0495
   21TMC2    C8  336   0.887   3.642  15.034  0.3418  0.4451  0.1975
   21TMC2    O1  337   0.754   4.119  15.001 -0.7758 -0.3330 -0.1696
   21TMC2    O2  338   0.905   3.527  14.995 -0.0324  0.2896  0.2104
   21TMC2    O5  339   0.915   3.682  15.162  0.4478  0.6883  0.1939
   21TMC2    H5  340   0.896   3.778  15.156  2.4434  1.0231 -0.8120
   22MPD2     C  341   1.156   3.851  14.120 -0.6303 -0.1458 -0.3953
   22MPD2    C1  342   1.248   3.846  14.217 -0.2464 -0.2840  0.1193
   22MPD2    C2  343   1.206   3.852  14.350  0.3061  0.4747 -0.6363
   22MPD2    C3  344   1.068   3.847  14.371 -0.5034  0.1969  0.3822
   22MPD2    C4  345   0.975   3.861  14.270  0.2131  0.5911  0.3393
   22MPD2    C5  346   1.019   3.863  14.142 -0.0463 -0.0708 -0.4422
   22MPD2     H  347   1.284   3.853  14.424  0.4496 -1.4458 -0.7521
   22MPD2    H1  348   0.870   3.877  14.288 -0.2909 -1.7426 -0.4432
   22MPD2    H2  349   1.189   3.853  14.017 -0.2937  0.2237 -0.2773
   22MPD2    H3  350   0.946   3.877  14.063  0.0804  0.1223 -0.5236
   22MPD2     N  351   1.018   3.867  14.501 -0.1365 -0.2399  0.0436
   22MPD2    H5  352   0.920   3.890  14.509 -0.3387 -0.1789 -2.6215
   22MPD2    N1  353   1.393   3.852  14.196  0.1187  0.3102 -0.2545
   22MPD2    H7  354   1.453   3.843  14.277 -1.5132 -1.7483  0.7253
   23TMC2    C1  355   2.069   0.967  14.759  0.1001 -0.6085  0.6116
   23TMC2    C2  356   1.982   1.052  14.825  0.5911  0.5401  0.3362
   23TMC2    C3  357   1.874   1.103  14.764  0.9635 -0.3695  0.5063
   23TMC2    C4  358   2.047   0.940  14.632 -0.4700  0.1382  0.2089
   23TMC2    C5  359   1.937   0.991  14.568 -0.1719 -0.1796 -0.1793
   23TMC2    C6  360   1.843   1.071  14.631  0.6035  0.0594  0.1868
   23TMC2     C  361   2.176   0.914  14.837  0.2180  0.7237  0.3196
   23TMC2     O  362   2.154   0.916  14.956 -0.4065 -0.0148 -0.2733
   23TMC2     H  363   2.001   1.074  14.929  0.3605  4.0635 -0.3787
   23TMC2    H1  364   2.117   0.870  14.587 -3.0443 -2.5296  0.3842
   23TMC2    H2  365   1.757   1.112  14.580  2.1862  1.5694 -1.2712
   23TMC2    C7  366   1.905   0.911  14.452 -0.5334  0.1614 -0.1548
   23TMC2    C8  367   1.781   1.186  14.834  0.5153 -0.3373 -0.2795
   23TMC2    O1  368   2.003   0.870  14.389  0.5315  0.6603  0.2277
   23TMC2    O2  369   1.673   1.213  14.785 -0.3661  0.5157  0.1706
   23TMC2    O5  370   1.853   1.274  14.905 -0.4370  0.4522 -0.0790
   23TMC2    H5  371   1.948   1.249  14.894 -0.8156 -1.9393  1.9066
   24MPD2     C  372   2.658   0.740  14.861 -0.0410 -0.3286  0.1690
   24MPD2    C1  373   2.545   0.716  14.935  0.3672  0.3463  0.1531
   24MPD2    C2  374   2.428   0.780  14.904 -0.3907 -0.3113 -0.3115
   24MPD2    C3  375   2.416   0.854  14.795 -0.3979  0.0895  0.0251
   24MPD2    C4  376   2.529   0.869  14.716  0.0193 -0.1856  0.2712
   24MPD2    C5  377   2.649   0.818  14.751  0.2025  0.4873 -1.2939
   24MPD2     H  378   2.342   0.768  14.969  0.2213 -2.8513  0.0585
   24MPD2    H1  379   2.531   0.932  14.628  1.4829  2.4198  2.1683
   24MPD2    H2  380   2.755   0.692  14.875  0.6814  1.1766  0.2735
   24MPD2    H3  381   2.737   0.846  14.696  0.7192 -0.4268 -0.9416
   24MPD2     N  382   2.289   0.898  14.754 -0.2110 -0.4352  0.1292
   24MPD2    H5  383   2.289   0.939  14.661 -0.2724  1.3803  0.9335
   24MPD2    N1  384   2.559   0.644  15.062  0.0093 -0.7881  0.6280
   24MPD2    H7  385   2.479   0.597  15.101 -0.2855 -0.3304  0.5751
   25TMC2    C1  386   0.491   2.808  11.170 -0.6550 -0.8224 -0.1303
   25TMC2    C2  387   0.497   2.943  11.189  0.0446 -0.9137  0.1508
   25TMC2    C3  388   0.473   2.993  11.315  0.8504  0.1510  0.5378
   25TMC2    C4  389   0.466   2.722  11.274 -0.2842 -0.7099 -0.4052
   25TMC2    C5  390   0.461   2.775  11.397  0.6616 -0.2093 -0.1391
   25TMC2    C6  391   0.473   2.911  11.423 -0.0462 -0.5059 -0.5438
   25TMC2     C  392   0.469   2.766  11.034 -0.0009 -0.1920  0.1695
   25TMC2     O  393   0.454   2.862  10.958  0.6676  0.6706  0.2440
   25TMC2     H  394   0.512   3.009  11.104  1.5938 -1.0375  0.3333
   25TMC2    H1  395   0.436   2.621  11.251  0.2918 -0.6466 -1.4410
   25TMC2    H2  396   0.468   2.951  11.523  0.8261 -0.1134 -0.6558
   25TMC2    C7  397   0.461   2.689  11.515  0.9313  0.6758  0.3212
   25TMC2    C8  398   0.524   3.126  11.349 -0.0471  0.1335  0.3284
   25TMC2    O1  399   0.445   2.735  11.630  0.0856  0.2581 -0.7004
   25TMC2    O2  400   0.459   3.211  11.403 -0.2801  0.7169  0.0104
   25TMC2    O5  401   0.655   3.094  11.372 -0.0249 -0.1951  0.8077
   25TMC2    H5  402   0.689   3.009  11.337  2.0695  0.9075  0.2064
   26MPD2     C  403   0.530   2.431  10.645 -0.1925 -0.4487 -0.3549
   26MPD2    C1  404   0.516   2.364  10.763  0.5147 -0.5422 -0.3410
   26MPD2    C2  405   0.515   2.437  10.881  0.0619  0.1084  0.6631
   26MPD2    C3  406   0.487   2.571  10.879  0.7753  0.0743 -0.2118
   26MPD2    C4  407   0.476   2.636  10.761 -0.3054  0.2921 -0.2782
   26MPD2    C5  408   0.496   2.563  10.640  0.3283  0.2171  0.0254
   26MPD2     H  409   0.524   2.390  10.978  1.4950 -0.2988  0.3327
   26MPD2    H1  410   0.456   2.742  10.751 -0.9509  0.2908  0.9175
   26MPD2    H2  411   0.544   2.372  10.556  2.4741 -1.3946  0.7137
   26MPD2    H3  412   0.491   2.615  10.545 -2.6960 -0.2061 -0.0505
   26MPD2     N  413   0.489   2.633  11.005 -0.3906  0.3030 -0.2165
   26MPD2    H5  414   0.507   2.569  11.081  2.8172  1.8329  0.3104
   26MPD2    N1  415   0.525   2.221  10.756  0.9306 -0.1597 -0.1187
   26MPD2    H7  416   0.559   2.179  10.671  1.1539 -1.4487  0.6075
   27TMC2    C1  417   0.125   0.176  11.921  0.2015 -1.0721  0.3275
   27TMC2    C2  418   0.166   0.293  11.872 -0.2256  0.2920 -0.1888
   27TMC2    C3  419   0.261   0.365  11.936  0.1770  0.4647  0.5131
   27TMC2    C4  420   0.179   0.128  12.040 -0.2510 -0.2291  0.8684
   27TMC2    C5  421   0.269   0.202  12.108 -0.2571  1.1041 -0.2545
   27TMC2    C6  422   0.313   0.323  12.056 -0.0411  0.3148  0.1643
   27TMC2     C  423   4.738   0.132  11.864  0.3176  0.3124  0.0732
   27TMC2     O  424   4.707   0.157  11.746 -0.1100  0.1568 -0.3525
   27TMC2     H  425   0.111   0.342  11.792  0.3662  0.0209 -0.7669
   27TMC2    H1  426   0.146   0.027  12.063 -0.4963 -0.1290  0.9603
   27TMC2    H2  427   0.381   0.393  12.104  1.2999 -1.4414  0.8167
   27TMC2    C7  428   0.301   0.162  12.242  0.5282  1.3584 -0.0618
   27TMC2    C8  429   0.257   0.507  11.920 -0.2468 -0.2719  0.0576
   27TMC2    O1  430   0.246   0.062  12.287 -0.5964  0.7334 -0.1873
   27TMC2    O2  431   0.357   0.575  11.956 -0.1536  0.4184  0.3977
   27TMC2    O5  432   0.133   0.542  11.959  0.5431 -0.1770 -0.6179
   27TMC2    H5  433   0.064   0.476  11.936  1.1223 -0.4815 -1.4646
   28MPD2     C  434   4.244   0.008  11.943  0.2721 -0.7282 -0.3766
   28MPD2    C1  435   4.308   4.739  12.065  0.8230  0.1882 -0.3487
   28MPD2    C2  436   4.447   0.021  12.069  0.1945 -0.5031 -0.1049
   28MPD2    C3  437   4.523   0.053  11.957  0.2616 -0.1985  0.0153
   28MPD2    C4  438   4.452   0.067  11.840  1.4289 -0.4299 -0.6583
   28MPD2    C5  439   4.312   0.039  11.833 -0.3294 -0.1865 -0.1528
   28MPD2     H  440   4.505   0.030  12.160  0.5191  3.2069 -0.6999
   28MPD2    H1  441   4.500   0.098  11.749  1.3281 -0.4755 -0.7273
   28MPD2    H2  442   4.139   4.721  11.938  0.3071 -0.1891 -4.0073
   28MPD2    H3  443   4.262   0.036  11.736  0.2870  0.5518 -0.4921
   28MPD2     N  444   4.661   0.082  11.964  0.1834  0.5117 -0.1617
   28MPD2    H5  445   4.699   0.082  12.058 -2.0361  0.8987  0.7523
   28MPD2    N1  446   4.230   4.702  12.179 -0.4002  0.6977 -0.7132
   28MPD2    H7  447   4.129   4.696  12.170 -0.1094 -1.3944 -2.7145
   29TMC2    C1  448   4.431   2.499  14.445  0.6815  0.0852 -1.0680
   29TMC2    C2  449   4.391   2.507  14.575  0.6097  0.6736  0.0599
   29TMC2    C3  450   4.424   2.619  14.650 -0.4814 -0.1509 -0.3118
   29TMC2    C4  451   4.484   2.617  14.389  0.0018 -0.0463  0.3942
   29TMC2    C5  452   4.520   2.725  14.472  0.4192 -0.5289 -0.2882
   29TMC2    C6  453   4.497   2.729  14.602 -0.9000 -0.0658 -0.3702
   29TMC2     C  454   4.397   2.384  14.367  0.0063  0.6224 -0.7978
   29TMC2     O  455   4.400   2.279  14.426 -0.0962  0.2383 -0.1227
   29TMC2     H  456   4.347   2.428  14.635  0.8550  0.8021  0.4096
   29TMC2    H1  457   4.520   2.614  14.286 -0.0239  1.9893  0.3177
   29TMC2    H2  458   4.531   2.809  14.667 -1.9571 -1.2974  1.6976
   29TMC2    C7  459   4.585   2.824  14.400  0.0603  0.6456 -0.6974
   29TMC2    C8  460   4.378   2.610  14.787  0.1237 -0.6456  0.2289
   29TMC2    O1  461   4.547   2.839  14.286 -0.4591  0.3212  0.2754
   29TMC2    O2  462   4.281   2.537  14.796  0.9170 -0.3437  0.7446
   29TMC2    O5  463   4.370   2.738  14.830  0.2208  0.2908 -0.9207
   29TMC2    H5  464   4.449   2.796  14.824 -0.1002  0.9086  0.6988
   30MPD2     C  465   4.306   2.120  13.922 -0.7722 -0.4008  0.0410
   30MPD2    C1  466   4.354   2.079  14.045 -0.5579  0.7387  0.1150
   30MPD2    C2  467   4.386   2.169  14.147  0.9433 -0.4928 -0.2049
   30MPD2    C3  468   4.373   2.311  14.125  0.2153 -0.4109  0.2273
   30MPD2    C4  469   4.325   2.353  14.003  0.3668 -0.7548 -0.0491
   30MPD2    C5  470   4.304   2.256  13.900 -0.1697 -0.7003  0.7503
   30MPD2     H  471   4.423   2.132  14.242 -1.2829  0.5082  1.0436
   30MPD2    H1  472   4.315   2.460  13.989 -1.2500 -0.5440  2.7109
   30MPD2    H2  473   4.288   2.054  13.838 -0.0228  1.0102 -1.2319
   30MPD2    H3  474   4.271   2.286  13.802 -0.0067 -0.5726  0.7340
   30MPD2     N  475   4.385   2.407  14.233 -1.0504  0.0959  0.2159
   30MPD2    H5  476   4.390   2.505  14.206 -0.6459 -0.3469 -1.3105
   30MPD2    N1  477   4.381   1.938  14.067 -0.1869 -0.6712 -0.1613
   30MPD2    H7  478   4.426   1.919  14.156  0.5176 -2.1890 -0.8479
   31TMC2    C1  479   2.136   1.284  15.171  0.3931 -0.1974  0.2429
   31TMC2    C2  480   2.057   1.397  15.161 -0.5727  0.1763  0.1675
   31TMC2    C3  481   2.035   1.466  15.282  0.3009  0.0563 -0.3130
   31TMC2    C4  482   2.182   1.232  15.293  0.3030 -0.1101 -0.6834
   31TMC2    C5  483   2.143   1.302  15.400 -0.0191  0.1813 -0.2360
   31TMC2    C6  484   2.081   1.419  15.397  0.2226 -0.1804 -0.3369
   31TMC2     C  485   2.193   1.239  15.054  0.0872 -0.1450 -0.6203
   31TMC2     O  486   2.129   1.275  14.953 -0.9084 -0.3791  0.4114
   31TMC2     H  487   2.019   1.445  15.071  1.7844  1.2165 -0.2801
   31TMC2    H1  488   2.231   1.136  15.306 -0.5358 -0.5809 -0.9794
   31TMC2    H2  489   2.061   1.477  15.486 -2.3760 -0.3844 -0.7862
   31TMC2    C7  490   2.163   1.243  15.533 -0.0015  0.1223 -0.0286
   31TMC2    C8  491   1.928   1.561  15.301 -0.0088  0.3142 -0.5605
   31TMC2    O1  492   2.147   1.123  15.544 -0.3956 -0.1975 -0.3466
   31TMC2    O2  493   1.870   1.562  15.406  0.4166 -0.4797 -0.5630
   31TMC2    O5  494   1.915   1.646  15.193 -0.5710  0.3654  0.1720
   31TMC2    H5  495   2.003   1.641  15.151  0.1860 -1.1284  1.9126
   32MPD2     C  496   2.638   1.191  14.782  0.1119  0.0229  0.2226
   32MPD2    C1  497   2.513   1.234  14.747  0.1048 -0.3312  0.1453
   32MPD2    C2  498   2.404   1.233  14.834  0.4452 -0.6119  0.4094
   32MPD2    C3  499   2.424   1.196  14.963 -0.1033 -0.6069 -0.7388
   32MPD2    C4  500   2.554   1.162  14.999  0.3037 -0.5122  1.3059
   32MPD2    C5  501   2.658   1.148  14.908  0.8640 -0.6651 -0.0191
   32MPD2     H  502   2.307   1.271  14.806 -0.3255 -2.4890  0.5326
   32MPD2    H1  503   2.589   1.119  15.091  0.5405 -0.4256  1.2576
   32MPD2    H2  504   2.721   1.189  14.712 -0.2955 -1.8315 -0.2104
   32MPD2    H3  505   2.752   1.106  14.942  1.4374  0.0924 -0.6655
   32MPD2     N  506   2.326   1.197  15.068  0.6362  0.0582 -0.2365
   32MPD2    H5  507   2.357   1.166  15.159 -0.3990 -1.3964 -0.3744
   32MPD2    N1  508   2.508   1.285  14.612  0.0959 -0.3468  0.2127
   32MPD2    H7  509   2.595   1.297  14.560 -0.5710  1.2014 -0.5266
   33TMC2    C1  510   1.703   4.534  10.470  0.4634 -0.0290  0.6540
   33TMC2    C2  511   1.598   4.617  10.469  0.6855 -0.5253  0.4808
   33TMC2    C3  512   1.574   4.694  10.358 -0.0527 -0.3750 -0.0859
   33TMC2    C4  513   1.784   4.521  10.363  0.4878 -0.2303 -0.4268
   33TMC2    C5  514   1.748   4.587  10.259 -0.5965 -0.1895  1.1299
   33TMC2    C6  515   1.658   4.686  10.253  0.1841  0.0609  0.3224
   33TMC2     C  516   1.694   4.422  10.560  0.1864  0.1207  0.3856
   33TMC2     O  517   1.668   4.315  10.507  0.1143  0.4291  0.1134
   33TMC2     H  518   1.525   4.612  10.548  0.0087 -0.0489 -0.1132
   33TMC2    H1  519   1.857   4.441  10.361  0.1548 -0.5582  0.7535
   33TMC2    H2  520   1.632   4.731  10.158  2.4729 -1.1960 -0.8845
   33TMC2    C7  521   1.841   4.572  10.151  1.1992 -0.1675  0.4582
   33TMC2    C8  522   1.459   0.046  10.358  0.5264  0.1842 -0.1230
   33TMC2    O1  523   1.951   4.532  10.183 -0.3862 -0.0074 -0.5479
   33TMC2    O2  524   1.383   0.052  10.451  0.0101  0.3171 -0.7577
   33TMC2    O5  525   1.464   0.116  10.245  0.6518  0.0952 -0.0514
   33TMC2    H5  526   1.557   0.140  10.222  0.3830 -2.3041 -3.5221
   34MPD2     C  527   1.576   4.246  11.021 -0.5419 -0.2746  0.3110
   34MPD2    C1  528   1.552   4.184  10.903 -0.5006 -0.2202  0.1206
   34MPD2    C2  529   1.591   4.254  10.794 -0.4900 -0.5690 -0.1463
   34MPD2    C3  530   1.636   4.384  10.801  0.1917 -0.7543  1.1037
   34MPD2    C4  531   1.645   4.448  10.923 -0.4144 -0.2479 -0.6890
   34MPD2    C5  532   1.627   4.370  11.032 -0.3946  0.3226  0.0588
   34MPD2     H  533   1.591   4.206  10.697 -0.7995  0.6447 -0.7398
   34MPD2    H1  534   1.678   4.550  10.942 -1.8260  0.3907 -1.7408
   34MPD2    H2  535   1.549   4.197  11.114 -0.6200  1.9235  1.4510
   34MPD2    H3  536   1.645   4.418  11.128  1.7650  0.1160 -0.2423
   34MPD2     N  537   1.679   4.470  10.691  0.4021 -0.3363 -0.5182
   34MPD2    H5  538   1.703   4.565  10.715  0.9031 -0.8096  0.8704
   34MPD2    N1  539   1.517   4.044  10.899 -0.0010 -0.4365  0.6589
   34MPD2    H7  540   1.474   4.018  10.987 -0.6355  0.6652  0.6685
   35TMC2    C1  541   2.750   0.266  11.513  0.1340  0.6688 -0.7553
   35TMC2    C2  542   2.650   0.341  11.452  0.4755 -0.1462 -0.3278
   35TMC2    C3  543   2.520   0.310  11.473  0.1388 -0.4079 -0.2806
   35TMC2    C4  544   2.724   0.158  11.598  0.2738 -0.3632 -1.0110
   35TMC2    C5  545   2.591   0.143  11.622  0.6239  0.0268 -1.1774
   35TMC2    C6  546   2.490   0.217  11.565 -0.4336  0.2947  0.8667
   35TMC2     C  547   2.873   0.286  11.442 -0.4200 -0.0331 -0.2117
   35TMC2     O  548   2.886   0.388  11.369  0.4754 -0.5185 -0.9810
   35TMC2     H  549   2.674   0.428  11.391 -0.2489 -0.0593 -0.4842
   35TMC2    H1  550   2.803   0.106  11.650 -0.2453 -0.4136 -0.2671
   35TMC2    H2  551   2.387   0.207  11.596 -0.5353  1.1832  0.8141
   35TMC2    C7  552   2.559   0.030  11.699  0.1469 -0.0201  0.4287
   35TMC2    C8  553   2.417   0.394  11.424 -0.5591  0.0236  0.4818
   35TMC2    O1  554   2.628   4.671  11.682  0.1059 -0.2788 -0.0078
   35TMC2    O2  555   2.320   0.424  11.488  0.2395  0.2259 -0.1398
   35TMC2    O5  556   2.457   0.472  11.320  0.1556  0.0724 -0.1969
   35TMC2    H5  557   2.521   0.423  11.264  1.2544 -1.6328  2.5781
   36MPD2     C  558   3.377   0.256  11.382 -0.4174 -1.2194 -0.3917
   36MPD2    C1  559   3.345   0.179  11.491  0.0281 -0.3760 -1.1639
   36MPD2    C2  560   3.211   0.156  11.521  0.2152 -0.7633 -0.0073
   36MPD2    C3  561   3.112   0.222  11.442 -0.2999  0.4489  0.2259
   36MPD2    C4  562   3.152   0.282  11.326  0.1457  0.0057  0.1591
   36MPD2    C5  563   3.278   0.303  11.306  0.4620 -0.0144  0.1554
   36MPD2     H  564   3.184   0.118  11.618  0.7318 -0.9552  0.0611
   36MPD2    H1  565   3.082   0.336  11.263  2.5633  2.0313 -0.7663
   36MPD2    H2  566   3.481   0.273  11.357  0.1761  1.4926  3.7683
   36MPD2    H3  567   3.297   0.342  11.207  2.1734  0.7184  0.7648
   36MPD2     N  568   2.976   0.208  11.490 -0.0094 -0.0392  0.3755
   36MPD2    H5  569   2.959   0.155  11.575  0.0624 -0.0042  0.4119
   36MPD2    N1  570   3.449   0.137  11.581 -1.3965  0.9409  0.2213
   36MPD2    H7  571   3.544   0.159  11.555 -0.1844 -2.0429  2.1530
   37TMC2    C1  572   0.504   0.574  11.391 -0.2342  0.3471 -0.0471
   37TMC2    C2  573   0.399   0.654  11.379 -0.8330  0.4720  0.0118
   37TMC2    C3  574   0.395   0.740  11.273 -0.4201  1.0515 -0.4816
   37TMC2    C4  575   0.613   0.583  11.306 -0.7060 -1.2422 -0.6629
   37TMC2    C5  576   0.601   0.667  11.197  0.2758 -0.3831 -0.7639
   37TMC2    C6  577   0.493   0.745  11.177 -0.4715 -0.9728  0.2949
   37TMC2     C  578   0.529   0.520  11.521 -0.3179 -0.0094  0.3027
   37TMC2     O  579   0.434   0.463  11.578 -0.1213  0.1652 -0.0538
   37TMC2     H  580   0.312   0.638  11.441 -0.6843  1.9113  0.5896
   37TMC2    H1  581   0.699   0.517  11.313  0.8208  0.9405  1.1805
   37TMC2    H2  582   0.491   0.809  11.089 -1.4135 -0.1736  0.9008
   37TMC2    C7  583   0.732   0.730  11.163 -0.8113  0.3043 -0.0933
   37TMC2    C8  584   0.263   0.764  11.220 -0.1615 -0.0506  0.1395
   37TMC2    O1  585   0.831   0.658  11.161 -0.0596 -0.1809 -0.7287
   37TMC2    O2  586   0.211   0.876  11.234 -0.6209  0.3346 -0.5541
   37TMC2    O5  587   0.195   0.646  11.226 -0.5931  0.4210  0.0925
   37TMC2    H5  588   0.252   0.567  11.225  0.6233  1.2871  0.7961
   38MPD2     C  589   0.819   0.539  11.961 -0.3905 -0.4341  0.7507
   38MPD2    C1  590   0.901   0.547  11.852  0.3321 -0.1528 -0.0826
   38MPD2    C2  591   0.846   0.547  11.722 -0.3989 -0.3725 -0.6999
   38MPD2    C3  592   0.706   0.534  11.700 -0.1478  0.5247 -0.0543
   38MPD2    C4  593   0.622   0.511  11.811 -1.2017 -0.4471  0.2088
   38MPD2    C5  594   0.685   0.512  11.935  0.1592 -0.4035  0.6686
   38MPD2     H  595   0.911   0.567  11.638  0.6417 -2.5616 -0.4251
   38MPD2    H1  596   0.519   0.480  11.806 -1.0586 -0.8182 -0.5058
   38MPD2    H2  597   0.855   0.560  12.061 -0.6712 -1.2211  1.0118
   38MPD2    H3  598   0.613   0.502  12.015 -1.4190 -1.8042 -0.9463
   38MPD2     N  599   0.656   0.537  11.566 -0.2429  0.9530 -0.4731
   38MPD2    H5  600   0.724   0.557  11.494  0.2701 -0.1767 -0.3059
   38MPD2    N1  601   1.042   0.567  11.861 -0.4234 -0.4264 -0.4011
   38MPD2    H7  602   1.095   0.588  11.778 -2.0257 -0.3418 -1.4029
   39TMC2    C1  603   0.480   2.561   1.501 -0.6125  0.5546  0.1500
   39TMC2    C2  604   0.506   2.485   1.610 -0.5745 -0.1521  0.5930
   39TMC2    C3  605   0.614   2.514   1.691  0.1668 -0.8757 -0.0984
   39TMC2    C4  606   0.546   2.684   1.479 -0.5669  0.7997  0.1604
   39TMC2    C5  607   0.659   2.704   1.549 -0.5256 -0.3304 -1.1845
   39TMC2    C6  608   0.698   2.617   1.657  0.4991  0.3137  0.5256
   39TMC2     C  609   0.378   2.514   1.413  0.2504  0.3336  0.3397
   39TMC2     O  610   0.296   2.585   1.360  0.5874  0.2850  0.5339
   39TMC2     H  611   0.462   2.387   1.623  0.0574 -0.8661 -2.4488
   39TMC2    H1  612   0.529   2.739   1.387  1.0176 -0.1007 -0.6625
   39TMC2    H2  613   0.792   2.624   1.710  0.4490  0.4107  0.6014
   39TMC2    C7  614   0.733   2.829   1.527  0.4810 -0.1316  0.0701
   39TMC2    C8  615   0.676   2.405   1.764 -0.5379 -0.6182 -0.4959
   39TMC2    O1  616   0.835   2.845   1.591  0.9253 -0.5571 -0.6298
   39TMC2    O2  617   0.780   2.354   1.729 -0.1733 -0.1096  0.3189
   39TMC2    O5  618   0.573   2.336   1.817 -0.5317  0.0308 -0.2985
   39TMC2    H5  619   0.495   2.387   1.845  0.2392  1.2119 -0.3119
   40MPD2     C  620   0.329   2.157   1.324  0.6348  0.3016  0.0965
   40MPD2    C1  621   0.288   2.287   1.350 -0.6257  0.8209  0.2155
   40MPD2    C2  622   0.156   2.328   1.324 -0.4940 -0.2852  0.4080
   40MPD2    C3  623   0.064   2.231   1.282  0.2231  0.4275  0.0188
   40MPD2    C4  624   0.105   2.095   1.259  0.6033 -0.0774  0.2623
   40MPD2    C5  625   0.239   2.065   1.268 -0.0249  0.0743  0.7683
   40MPD2     H  626   0.122   2.430   1.341 -1.2008 -0.3874 -0.3773
   40MPD2    H1  627   0.048   2.017   1.210  1.0956  0.0582 -0.5238
   40MPD2    H2  628   0.434   2.132   1.328  0.3409 -0.8906  0.1834
   40MPD2    H3  629   0.276   1.970   1.231 -1.1191  0.1789 -0.6072
   40MPD2     N  630   4.667   2.266   1.258 -0.7833 -0.2984  0.1922
   40MPD2    H5  631   4.610   2.183   1.242 -0.6684 -0.1411 -1.0199
   40MPD2    N1  632   0.390   2.380   1.405  0.3993  0.0052 -0.1210
   40MPD2    H7  633   0.480   2.338   1.426  0.2967  0.9256  2.0914
   41TMC2    C1  634   3.334   0.662  13.649  0.2090  0.3108 -0.0259
   41TMC2    C2  635   3.416   0.700  13.746 -0.1783  0.5764  0.1622
   41TMC2    C3  636   3.484   0.819  13.720  0.4903 -0.2188 -0.5569
   41TMC2    C4  637   3.335   0.709  13.518 -0.5875 -0.3565  0.5988
   41TMC2    C5  638   3.410   0.821  13.491  0.0252 -0.0120 -0.1770
   41TMC2    C6  639   3.480   0.882  13.596 -0.8153 -0.3382  0.5317
   41TMC2     C  640   3.248   0.542  13.667 -0.2869 -0.1555 -0.0781
   41TMC2     O  641   3.203   0.485  13.568  0.1899 -0.0260 -0.3815
   41TMC2     H  642   3.434   0.645  13.837  4.2768  0.5488 -0.7371
   41TMC2    H1  643   3.258   0.678  13.449  0.1354 -0.2476 -0.2493
   41TMC2    H2  644   3.522   0.980  13.578 -0.1153 -0.4847  1.3527
   41TMC2    C7  645   3.402   0.890  13.366 -0.3695 -0.3552 -0.0932
   41TMC2    C8  646   3.587   0.845  13.813 -0.2995 -0.4428 -0.3957
   41TMC2    O1  647   3.415   1.012  13.366  0.4066  0.3098 -0.8929
   41TMC2    O2  648   3.585   0.811  13.932 -0.2238 -0.6177 -0.8346
   41TMC2    O5  649   3.700   0.867  13.739  0.3588  0.3201  0.7706
   41TMC2    H5  650   3.682   0.895  13.646  0.8964 -0.0056  0.5663
   42MPD2     C  651   3.064   0.328  13.762 -0.6954 -0.1981 -0.9083
   42MPD2    C1  652   3.140   0.414  13.841  0.0400  0.0420  0.2204
   42MPD2    C2  653   3.156   0.389  13.977  0.2456 -0.1986  0.3072
   42MPD2    C3  654   3.087   0.289  14.040 -0.6220  1.0635  0.5219
   42MPD2    C4  655   3.018   0.202  13.962 -0.6400  0.4483  0.5931
   42MPD2    C5  656   3.004   0.219  13.823  0.1770 -0.5305 -0.7715
   42MPD2     H  657   3.226   0.453  14.030 -0.9421  1.4463 -0.1130
   42MPD2    H1  658   2.969   0.114  14.001 -1.6354  1.1178  0.8623
   42MPD2    H2  659   3.050   0.343  13.656  0.0762  1.1976 -0.8095
   42MPD2    H3  660   2.953   0.146  13.763  0.2654 -0.0926 -1.3810
   42MPD2     N  661   3.098   0.260  14.184  0.3262 -0.2086  0.1120
   42MPD2    H5  662   3.048   0.176  14.212  3.2367 -1.8340  0.3189
   42MPD2    N1  663   3.213   0.521  13.798 -0.2394 -0.1858  0.0447
   42MPD2    H7  664   3.257   0.572  13.874 -3.3079 -0.1142  1.7925
   43TMC2    C1  665   0.085   3.587   0.564 -0.5135  0.0179  0.0709
   43TMC2    C2  666   4.737   3.608   0.671 -0.1813  0.8773  0.0530
   43TMC2    C3  667   4.690   3.734   0.687  0.1390  0.2373  0.4643
   43TMC2    C4  668   0.135   3.687   0.494 -0.7061 -0.1060  0.2450
   43TMC2    C5  669   0.103   3.814   0.531  0.2432 -0.2343 -0.5647
   43TMC2    C6  670   4.736   3.840   0.615 -0.4672 -0.3307 -0.3763
   43TMC2     C  671   0.118   3.451   0.520  0.6940  0.3464  0.4694
   43TMC2     O  672   0.221   3.441   0.453  0.0135 -0.6515  0.5164
   43TMC2     H  673   4.705   3.525   0.733  1.7346 -1.2159 -1.7896
   43TMC2    H1  674   0.213   3.676   0.419  0.8207  1.4406  1.6189
   43TMC2    H2  675   4.695   3.939   0.630 -0.8289 -0.2026 -2.2624
   43TMC2    C7  676   0.168   3.929   0.463  0.8483  0.2790  0.2623
   43TMC2    C8  677   4.592   3.776   0.782 -0.0341 -0.8210 -0.7149
   43TMC2    O1  678   0.235   3.903   0.365 -0.6880  0.0860  0.0357
   43TMC2    O2  679   4.594   3.891   0.829  0.5364 -0.3210  0.2593
   43TMC2    O5  680   4.499   3.679   0.791 -0.3323 -0.4667 -0.1827
   43TMC2    H5  681   4.512   3.609   0.724  2.0009 -1.0119  0.8269
   44MPD2     C  682   0.045   2.950   0.498  0.4194  0.5566  0.5951
   44MPD2    C1  683   0.159   3.027   0.474  0.2533  0.0001  0.4682
   44MPD2    C2  684   0.158   3.165   0.497  0.6053 -1.1708 -0.6339
   44MPD2    C3  685   0.042   3.223   0.543  0.2302 -0.0720 -0.5690
   44MPD2    C4  686   4.673   3.144   0.577  0.7889  0.6303 -0.2755
   44MPD2    C5  687   4.674   3.007   0.551  0.5472  0.0172  0.1544
   44MPD2     H  688   0.252   3.217   0.485 -0.0212  0.2292  0.5020
   44MPD2    H1  689   4.587   3.178   0.633  0.2666 -3.3712  1.3931
   44MPD2    H2  690   0.045   2.843   0.484 -1.2614  0.3665  2.0409
   44MPD2    H3  691   4.600   2.932   0.576  0.1413  0.9850  1.8548
   44MPD2     N  692   0.030   3.366   0.559 -0.5027  0.3348  0.3763
   44MPD2    H5  693   4.693   3.405   0.614 -2.0237  1.3508 -2.4683
   44MPD2    N1  694   0.279   2.970   0.427  0.3751  0.2573  0.1313
   44MPD2    H7  695   0.362   3.028   0.430  0.4226  0.2468 -1.1464
   45TMC2    C1  696   4.568   0.405   9.586  0.1664 -0.3368  0.0693
   45TMC2    C2  697   4.626   0.294   9.534 -0.0502 -0.1042 -0.2755
   45TMC2    C3  698   0.022   0.293   9.524 -0.1921 -0.0919 -0.0819
   45TMC2    C4  699   4.644   0.516   9.620  0.2874  0.5577 -0.4039
   45TMC2    C5  700   0.042   0.511   9.592  0.0250 -0.1989  0.0940
   45TMC2    C6  701   0.107   0.398   9.554 -0.8207 -0.2696 -0.3401
   45TMC2     C  702   4.427   0.421   9.565 -0.0747  0.0119 -0.9362
   45TMC2     O  703   4.380   0.532   9.591  0.2300 -1.2385 -0.0210
   45TMC2     H  704   4.570   0.203   9.515  0.8776 -0.3671 -1.7022
   45TMC2    H1  705   4.600   0.605   9.663 -0.8157 -1.0003  1.6544
   45TMC2    H2  706   0.216   0.396   9.556 -0.7821  1.0726 -0.8695
   45TMC2    C7  707   0.113   0.631   9.591  0.6635 -0.4429  0.4469
   45TMC2    C8  708   0.089   0.175   9.481 -0.7382 -0.7980 -0.2597
   45TMC2    O1  709   0.033   0.727   9.607 -0.5959 -0.4244 -0.0208
   45TMC2    O2  710   0.032   0.067   9.471  0.2173  0.1330 -0.2001
   45TMC2    O5  711   0.175   0.221   9.386  0.3605  0.1799  0.0483
   45TMC2    H5  712   0.187   0.318   9.373  1.0102  0.2001  0.7903
   46MPD2     C  713   4.165   0.180   9.511  0.4137 -0.1174 -0.4294
   46MPD2    C1  714   4.225   0.307   9.497 -0.1358 -1.4815 -0.2131
   46MPD2    C2  715   4.147   0.415   9.472 -0.2558  0.3162  0.7848
   46MPD2    C3  716   4.007   0.409   9.467 -0.6465 -0.3223 -0.4690
   46MPD2    C4  717   3.945   0.285   9.481 -0.1509 -0.2969 -0.0532
   46MPD2    C5  718   4.021   0.173   9.495  0.7746 -0.6676 -0.1515
   46MPD2     H  719   4.193   0.513   9.460 -0.0816  0.2130  0.5976
   46MPD2    H1  720   3.839   0.268   9.491 -0.0057 -1.4223 -0.4630
   46MPD2    H2  721   4.226   0.091   9.512  0.4850 -0.0776 -0.8945
   46MPD2    H3  722   3.976   0.075   9.503  0.0309 -0.3542 -0.4856
   46MPD2     N  723   3.945   0.538   9.463  0.3017 -0.8164  0.3831
   46MPD2    H5  724   4.013   0.612   9.447 -0.0723 -0.7644 -0.9497
   46MPD2    N1  725   4.360   0.308   9.523  0.0296 -0.4022 -0.0993
   46MPD2    H7  726   4.406   0.219   9.540 -1.2208 -0.8584  0.8299
   47TMC2    C1  727   2.796   1.532   9.231 -0.0249  0.3216 -0.4730
   47TMC2    C2  728   2.831   1.445   9.127  0.6331 -0.4311  0.8520
   47TMC2    C3  729   2.729   1.395   9.051 -0.1962 -0.1932  1.2469
   47TMC2    C4  730   2.667   1.573   9.246  0.1743 -0.2382  0.0728
   47TMC2    C5  731   2.570   1.519   9.161 -0.0585 -0.5500  0.1388
   47TMC2    C6  732   2.600   1.432   9.062 -0.0670 -0.0628  0.4357
   47TMC2     C  733   2.871   1.533   9.350  0.3240  0.4330 -0.4027
   47TMC2     O  734   2.880   1.639   9.408  0.5127  0.6401  0.5147
   47TMC2     H  735   2.931   1.407   9.110  1.2401  1.7874 -0.5265
   47TMC2    H1  736   2.643   1.633   9.333  1.2950  2.8096 -1.7383
   47TMC2    H2  737   2.529   1.390   8.992  0.1404 -0.5567  0.5225
   47TMC2    C7  738   2.432   1.516   9.200  0.5291 -0.1595  0.2370
   47TMC2    C8  739   2.773   1.347   8.921  0.0636 -0.6401 -0.3595
   47TMC2    O1  740   2.372   1.425   9.152  1.1399  0.8496 -0.8522
   47TMC2    O2  741   2.888   1.361   8.882  0.3592 -0.1365 -0.7232
   47TMC2    O5  742   2.703   1.234   8.911 -0.2630 -0.5627  0.2231
   47TMC2    H5  743   2.629   1.229   8.976 -0.7179 -2.6649 -0.4324
   48MPD2     C  744   3.013   1.448   9.602 -0.1725  0.8827 -0.1934
   48MPD2    C1  745   2.951   1.365   9.512  0.4561  0.2591 -0.5521
   48MPD2    C2  746   2.925   1.234   9.554 -0.9940 -0.5720 -1.3214
   48MPD2    C3  747   2.982   1.180   9.665  0.3117  0.1642  0.4978
   48MPD2    C4  748   3.060   1.264   9.741 -0.3069  0.1215 -0.4225
   48MPD2    C5  749   3.074   1.397   9.711  0.5133 -0.0542  1.0166
   48MPD2     H  750   2.861   1.171   9.494 -2.5477 -2.9479  2.8332
   48MPD2    H1  751   3.107   1.228   9.832  2.4369 -2.0121 -2.6852
   48MPD2    H2  752   3.033   1.553   9.582  3.6668  0.0499 -0.8982
   48MPD2    H3  753   3.134   1.464   9.772  0.0004  0.1875  1.2605
   48MPD2     N  754   2.959   1.041   9.691  0.1689 -0.2909  0.4703
   48MPD2    H5  755   2.889   0.992   9.637  0.4472 -2.1086  1.7680
   48MPD2    N1  756   2.895   1.405   9.391 -0.5850 -0.0018  0.0406
   48MPD2    H7  757   2.853   1.328   9.340  0.2470 -0.2673 -0.2535
   49TMC2    C1  758   0.248   3.654  10.198  0.1963 -0.3269  0.5101
   49TMC2    C2  759   0.223   3.668  10.070 -0.3157 -0.4357  0.1413
   49TMC2    C3  760   0.191   3.561   9.985 -0.1027  0.0680 -0.5290
   49TMC2    C4  761   0.233   3.528  10.251  0.0677  0.3630 -0.4367
   49TMC2    C5  762   0.207   3.424  10.164  0.6125 -0.0423 -0.0707
   49TMC2    C6  763   0.177   3.436  10.028  0.0404 -0.2372 -0.5071
   49TMC2     C  764   0.271   3.767  10.281 -0.4181  0.1559  0.0069
   49TMC2     O  765   0.264   3.875  10.220 -0.1128 -0.4891  0.0823
   49TMC2     H  766   0.233   3.768  10.027 -2.9238  0.1758  0.9559
   49TMC2    H1  767   0.265   3.498  10.350 -0.2336 -0.2267 -0.5162
   49TMC2    H2  768   0.147   3.355   9.962 -2.2136  2.1755 -2.4770
   49TMC2    C7  769   0.244   3.295  10.223  0.8078  0.1982 -0.1074
   49TMC2    C8  770   0.192   3.585   9.840 -0.1404  0.0801  0.0327
   49TMC2    O1  771   0.212   3.275  10.337  0.0949  0.7353 -0.2443
   49TMC2    O2  772   0.259   3.672   9.790 -0.0607  0.5149  0.3543
   49TMC2    O5  773   0.081   3.538   9.781  0.3540 -0.4103 -0.0452
   49TMC2    H5  774   0.027   3.484   9.844 -0.5843  1.8023  1.0324
   50MPD2     C  775   0.293   3.965  10.510 -0.7433  0.2425  0.0977
   50MPD2    C1  776   0.298   3.831  10.520 -0.2359  0.5175  0.1403
   50MPD2    C2  777   0.311   3.779  10.653  0.0512 -0.3864  0.3376
   50MPD2    C3  778   0.304   3.867  10.760 -0.2006 -0.1031 -0.8340
   50MPD2    C4  779   0.305   4.003  10.741  0.0462  0.2831  0.4946
   50MPD2    C5  780   0.286   4.050  10.615 -0.3314  0.3105 -0.4885
   50MPD2     H  781   0.317   3.672  10.667  1.1446 -0.4837 -0.8892
   50MPD2    H1  782   0.310   4.078  10.820  3.5793  0.3176  0.2290
   50MPD2    H2  783   0.300   4.013  10.414  0.7834  1.4325  0.8007
   50MPD2    H3  784   0.296   4.155  10.589  0.6548  0.1164 -0.9003
   50MPD2     N  785   0.288   3.830  10.898 -0.0273 -0.3179  0.4104
   50MPD2    H5  786   0.287   3.908  10.963 -0.0771 -0.0294  0.0628
   50MPD2    N1  787   0.298   3.742  10.415  0.1018 -0.5007  0.0461
   50MPD2    H7  788   0.311   3.645  10.444 -0.5925 -0.8199 -0.6990
   51TMC2    C1  789   1.747   2.452   1.471 -0.2569 -0.5170 -0.4097
   51TMC2    C2  790   1.627   2.519   1.502  0.3487 -0.8129 -0.3781
   51TMC2    C3  791   1.617   2.640   1.434  0.4009 -0.0555 -0.0581
   51TMC2    C4  792   1.851   2.511   1.408 -0.6696  0.1717  0.2977
   51TMC2    C5  793   1.832   2.632   1.352 -0.2646 -0.1000 -0.4164
   51TMC2    C6  794   1.720   2.701   1.362 -0.0237 -0.3910  0.0166
   51TMC2     C  795   1.753   2.306   1.484 -0.1377  0.0073  0.5070
   51TMC2     O  796   1.866   2.261   1.450 -0.4527  0.0322 -0.2816
   51TMC2     H  797   1.550   2.474   1.564  2.8930 -2.1020  1.8540
   51TMC2    H1  798   1.946   2.460   1.396  1.1665  3.3134  1.5640
   51TMC2    H2  799   1.697   2.777   1.289  2.4518  1.1871  0.8727
   51TMC2    C7  800   1.940   2.684   1.267  0.5193  0.8303  0.0004
   51TMC2    C8  801   1.501   2.718   1.473 -0.4481  0.8331  0.3414
   51TMC2    O1  802   1.994   2.594   1.207  0.0414  0.3221  0.2547
   51TMC2    O2  803   1.415   2.664   1.540 -0.0047 -0.3549 -0.3244
   51TMC2    O5  804   1.532   2.842   1.459 -0.1312 -0.1373 -0.0540
   51TMC2    H5  805   1.614   2.873   1.416 -0.1753  0.9946  0.6877
   52MPD2     C  806   1.620   1.825   1.584 -0.0435 -0.6505 -1.4959
   52MPD2    C1  807   1.744   1.877   1.554 -0.3477 -0.0676 -0.0391
   52MPD2    C2  808   1.758   2.015   1.542 -0.1574  0.6239 -0.1737
   52MPD2    C3  809   1.644   2.092   1.540 -0.6587  0.0179 -0.5070
   52MPD2    C4  810   1.518   2.038   1.557  0.0332 -0.2105  0.4015
   52MPD2    C5  811   1.508   1.896   1.576 -0.2433  0.2246 -0.5872
   52MPD2     H  812   1.857   2.059   1.537  0.0909  0.1302  0.3475
   52MPD2    H1  813   1.433   2.106   1.558 -1.4812 -2.0542 -1.6856
   52MPD2    H2  814   1.615   1.717   1.601  0.7405 -0.1526  2.0120
   52MPD2    H3  815   1.418   1.838   1.593 -1.9307  2.8309 -0.6114
   52MPD2     N  816   1.643   2.232   1.531  0.0459 -0.5062 -0.1906
   52MPD2    H5  817   1.556   2.283   1.534  0.8122  0.8552 -1.2479
   52MPD2    N1  818   1.862   1.802   1.538  0.5142 -0.6958  0.4095
   52MPD2    H7  819   1.945   1.856   1.518 -0.8112  0.0158 -3.1260
   53TMC2    C1  820   1.428   0.990  11.250 -0.0833  0.8108  0.1256
   53TMC2    C2  821   1.556   1.005  11.193  0.1382 -0.5718 -0.2989
   53TMC2    C3  822   1.658   0.950  11.257  0.4328  0.1567  0.1454
   53TMC2    C4  823   1.412   0.928  11.369 -0.3240 -0.0584 -0.2157
   53TMC2    C5  824   1.516   0.878  11.435  0.1765  0.3376  0.4512
   53TMC2    C6  825   1.643   0.883  11.377  0.7559  0.7728  0.3021
   53TMC2     C  826   1.322   1.030  11.166  0.2231  0.8520  0.3760
   53TMC2     O  827   1.351   1.118  11.087 -0.4741 -0.0714 -0.8828
   53TMC2     H  828   1.570   1.041  11.092  0.4633 -1.5376 -0.6019
   53TMC2    H1  829   1.315   0.921  11.417 -0.5395 -0.2072 -0.6758
   53TMC2    H2  830   1.731   0.856  11.434  1.0856  3.3895  0.9908
   53TMC2    C7  831   1.502   0.870  11.586 -0.5497 -0.3281  0.0190
   53TMC2    C8  832   1.788   0.937  11.180  0.3867  0.1974  0.7351
   53TMC2    O1  833   1.402   0.922  11.637  0.0604 -0.5265  0.3066
   53TMC2    O2  834   1.878   1.014  11.205 -0.6463 -0.2284  0.1199
   53TMC2    O5  835   1.760   0.875  11.057  0.6996 -0.3679 -0.6685
   53TMC2    H5  836   1.685   0.814  11.073 -0.1909  1.4248  2.0149
   54MPD2     C  837   1.063   1.102  11.034 -0.4476 -0.0290 -0.3396
   54MPD2    C1  838   1.080   0.988  11.118  0.2825  0.4100 -0.0964
   54MPD2    C2  839   0.969   0.907  11.143 -0.3070 -0.2003  0.3148
   54MPD2    C3  840   0.844   0.938  11.097 -0.2043  0.0116  0.4616
   54MPD2    C4  841   0.832   1.052  11.014 -0.2417  0.1281 -0.0904
   54MPD2    C5  842   0.938   1.126  10.987  0.0262 -0.0212  0.3825
   54MPD2     H  843   0.987   0.817  11.201  1.1149  0.0049  0.2096
   54MPD2    H1  844   0.731   1.084  10.989  0.5499  1.3984 -1.6464
   54MPD2    H2  845   1.135   1.183  11.022  2.6480 -2.6083  0.7660
   54MPD2    H3  846   0.926   1.206  10.915  0.9079 -0.1065  0.1403
   54MPD2     N  847   0.728   0.864  11.134  0.2535 -0.2104  0.3247
   54MPD2    H5  848   0.635   0.903  11.122  0.5105  0.1116 -0.6605
   54MPD2    N1  849   1.206   0.962  11.178 -0.0583  0.1851 -0.4292
   54MPD2    H7  850   1.212   0.882  11.241 -4.0413  1.1654  1.1564
   55TMC2    C1  851   2.949   2.962  17.546  0.4180 -0.2636 -0.7373
   55TMC2    C2  852   2.985   2.890  17.433 -0.0938  0.1686  0.9385
   55TMC2    C3  853   3.017   2.753  17.449 -0.5995  0.6067 -0.5264
   55TMC2    C4  854   2.952   2.906  17.673 -0.7490 -0.2115 -0.1268
   55TMC2    C5  855   2.978   2.766  17.677  0.2584  0.9305 -0.5428
   55TMC2    C6  856   2.997   2.688  17.565 -0.2240  0.1952  0.0691
   55TMC2     C  857   2.890   3.095  17.532  0.8864  0.1704  0.6643
   55TMC2     O  858   2.883   3.161  17.633 -0.2769 -0.1652 -0.7604
   55TMC2     H  859   2.999   2.935  17.335 -1.5160  1.6923  1.4434
   55TMC2    H1  860   2.909   2.956   0.004  1.2306  1.9123 -0.3857
   55TMC2    H2  861   3.016   2.581  17.572 -2.3462 -0.0987  1.4714
   55TMC2    C7  862   3.027   2.717   0.048 -0.5452 -0.0112 -0.3130
   55TMC2    C8  863   3.047   2.676  17.331  0.4786 -0.1052 -0.4151
   55TMC2    O1  864   3.082   2.605   0.039 -0.0133  0.3089  0.2980
   55TMC2    O2  865   3.021   2.557  17.314  0.2867  0.2402  0.1142
   55TMC2    O5  866   3.135   2.744  17.258  0.0057  0.2835 -0.6103
   55TMC2    H5  867   3.152   2.831  17.299 -0.9247 -0.3842  1.2101
   56MPD2     C  868   2.742   3.262  17.238 -0.4976 -1.1629 -0.2735
   56MPD2    C1  869   2.785   3.249  17.371 -0.2634  0.0940  0.3610
   56MPD2    C2  870   2.786   3.359  17.456 -0.5011  0.0362 -0.2150
   56MPD2    C3  871   2.713   3.472  17.418 -0.5566 -0.0766 -0.3360
   56MPD2    C4  872   2.657   3.478  17.291 -0.7964  0.1519  0.3386
   56MPD2    C5  873   2.675   3.379  17.202  0.5845 -0.9619  0.1197
   56MPD2     H  874   2.832   3.352  17.554 -1.3783 -0.1369  0.1902
   56MPD2    H1  875   2.590   3.558  17.261  2.5422  3.0031  0.4769
   56MPD2    H2  876   2.754   3.184  17.164  0.8063 -0.1338 -1.1482
   56MPD2    H3  877   2.637   3.380  17.100  0.7143 -1.7902  0.0628
   56MPD2     N  878   2.695   3.567  17.521 -0.2370 -0.6444 -0.2235
   56MPD2    H5  879   2.742   3.545  17.609 -1.6588  0.0716  0.7056
   56MPD2    N1  880   2.852   3.127  17.402  0.0497 -0.3632  1.1803
   56MPD2    H7  881   2.857   3.055  17.331  0.0689  0.5537  0.2447
   57TMC2    C1  882   2.009   3.960  13.462 -0.4554 -0.5124  0.2749
   57TMC2    C2  883   2.095   4.034  13.540 -0.5534 -0.0418  0.3052
   57TMC2    C3  884   2.204   3.982  13.596  0.4648 -0.1934  1.1009
   57TMC2    C4  885   2.058   3.841  13.416 -0.1738 -0.0995 -0.0046
   57TMC2    C5  886   2.179   3.794  13.470  0.7422 -0.1406 -0.1794
   57TMC2    C6  887   2.252   3.860  13.562 -0.2047 -0.8582  0.2906
   57TMC2     C  888   1.880   4.020  13.427  0.1101  0.7665  0.3521
   57TMC2     O  889   1.849   4.111  13.497 -0.9306 -0.3753 -0.1855
   57TMC2     H  890   2.070   4.137  13.564  0.5591 -0.2514  2.3217
   57TMC2    H1  891   1.993   3.781  13.353 -0.0371  0.1981 -0.4312
   57TMC2    H2  892   2.341   3.817  13.606 -0.2543 -2.4547 -1.2078
   57TMC2    C7  893   2.220   3.658  13.432 -0.0015 -0.1677 -0.8758
   57TMC2    C8  894   2.270   4.071  13.686 -0.4920  0.0125  0.4284
   57TMC2    O1  895   2.295   3.610  13.513 -0.0371  0.1712  0.3577
   57TMC2    O2  896   2.283   4.189  13.684  0.0228  0.7500 -0.3958
   57TMC2    O5  897   2.290   3.994  13.792 -0.1074  0.2390  0.8257
   57TMC2    H5  898   2.259   3.901  13.789 -1.2493  0.6430  0.3247
   58MPD2     C  899   1.409   3.856  13.327 -0.1687  0.4174 -1.0107
   58MPD2    C1  900   1.459   3.930  13.429 -0.2445 -0.3293  1.0314
   58MPD2    C2  901   1.587   3.974  13.418  0.2507  0.4610 -0.2502
   58MPD2    C3  902   1.679   3.929  13.327 -1.3187 -0.0369  0.0965
   58MPD2    C4  903   1.625   3.852  13.221  0.4066 -0.4863  0.5645
   58MPD2    C5  904   1.494   3.814  13.226  0.4014  0.0913 -0.5444
   58MPD2     H  905   1.613   4.055  13.485  1.4936 -2.0859  2.3552
   58MPD2    H1  906   1.685   3.826  13.135  2.4375  2.4419  1.0868
   58MPD2    H2  907   1.307   3.824  13.312 -0.4542  0.1556  1.5208
   58MPD2    H3  908   1.454   3.755  13.144  0.3767 -0.4739 -0.1232
   58MPD2     N  909   1.818   3.949  13.330  0.1818 -0.2674 -0.6287
   58MPD2    H5  910   1.879   3.895  13.269 -1.0123 -1.8928 -0.3934
   58MPD2    N1  911   1.389   3.969  13.543 -0.3829  0.0450  0.1034
   58MPD2    H7  912   1.435   4.031  13.609 -1.0367 -0.2439  0.8232
   59TMC2    C1  913   4.193   4.127  12.543 -0.3005  0.2265 -0.2336
   59TMC2    C2  914   4.164   4.020  12.623  0.2117 -0.9268  0.4395
   59TMC2    C3  915   4.076   3.924  12.574 -0.0734  0.3512  0.2400
   59TMC2    C4  916   4.126   4.140  12.423 -0.2578  0.1973  0.6926
   59TMC2    C5  917   4.032   4.052  12.387 -0.6031 -0.6151  0.2188
   59TMC2    C6  918   4.001   3.939  12.465  0.4020 -0.4208  0.7402
   59TMC2     C  919   4.267   4.241  12.594 -0.0718 -0.4353 -0.2897
   59TMC2     O  920   4.285   4.335  12.519 -0.1112 -0.6081  0.3719
   59TMC2     H  921   4.216   3.999  12.716 -0.0588 -0.1934  0.7551
   59TMC2    H1  922   4.164   4.212  12.350 -0.7913  0.0684  0.2910
   59TMC2    H2  923   3.942   3.858  12.425 -0.0477  1.7858 -3.0687
   59TMC2    C7  924   3.994   4.044  12.248  0.2650  0.6574 -0.1988
   59TMC2    C8  925   4.026   3.821  12.663 -0.6158  0.2277 -0.5443
   59TMC2    O1  926   3.979   3.929  12.209 -0.2532  0.3583 -0.0237
   59TMC2    O2  927   3.910   3.788  12.670  0.2314  0.6950 -0.0231
   59TMC2    O5  928   4.132   3.772  12.731  0.0929 -0.0801 -0.2979
   59TMC2    H5  929   4.208   3.823  12.695  0.1326 -0.5577 -0.9061
   60MPD2     C  930   4.427   4.439  12.764  0.7585 -0.2741  0.2755
   60MPD2    C1  931   4.390   4.310  12.799  0.1877  0.0771 -0.3454
   60MPD2    C2  932   4.424   4.270  12.928  0.1561 -0.2438  0.2213
   60MPD2    C3  933   4.498   4.353  13.017  0.3231 -0.1998  0.3892
   60MPD2    C4  934   4.522   4.480  12.980  0.6409 -0.1837 -0.2635
   60MPD2    C5  935   4.490   4.518  12.850  0.3113 -0.0111  0.3770
   60MPD2     H  936   4.401   4.169  12.962  0.7661 -0.3884  0.1904
   60MPD2    H1  937   4.573   4.549  13.046 -0.8303  3.2707 -2.7662
   60MPD2    H2  938   4.387   4.481  12.672 -3.1408 -0.2893  1.9768
   60MPD2    H3  939   4.497   4.624  12.829 -0.6015  0.1309  0.7890
   60MPD2     N  940   4.548   4.315  13.142 -0.4133  0.1634  0.6091
   60MPD2    H5  941   4.580   4.392  13.200 -1.4006  1.7968 -1.0389
   60MPD2    N1  942   4.309   4.224  12.725 -0.3640 -0.1688  0.0048
   60MPD2    H7  943   4.285   4.137  12.771  0.7109 -1.0667 -1.1181
   61TMC2    C1  944   3.540   0.586  15.262 -0.4082 -1.0803 -0.0262
   61TMC2    C2  945   3.476   0.518  15.367  0.1443 -0.0118 -0.2629
   61TMC2    C3  946   3.412   0.598  15.458  0.2496  0.8448 -0.0778
   61TMC2    C4  947   3.537   0.724  15.251  0.1911  0.5574  0.0514
   61TMC2    C5  948   3.465   0.789  15.350  0.0790  0.4040 -0.4596
   61TMC2    C6  949   3.406   0.729  15.456  0.0330 -0.8627 -0.3929
   61TMC2     C  950   3.648   0.510  15.196  0.6094  0.3780  0.4344
   61TMC2     O  951   3.683   0.408  15.249  0.0978 -0.5080 -0.2475
   61TMC2     H  952   3.483   0.410  15.372 -0.7123 -0.1399 -2.0038
   61TMC2    H1  953   3.594   0.781  15.178  2.7632 -0.8405  0.9842
   61TMC2    H2  954   3.373   0.788  15.540 -0.0609 -0.2930 -0.8267
   61TMC2    C7  955   3.446   0.931  15.330 -0.1033 -0.0965  0.2590
   61TMC2    C8  956   3.387   0.540  15.591 -0.2619 -0.5056  0.2952
   61TMC2    O1  957   3.514   0.978  15.240  0.4864  0.1157  0.2405
   61TMC2    O2  958   3.437   0.431  15.624 -0.2701  0.4975 -0.4744
   61TMC2    O5  959   3.279   0.599  15.643 -0.2995  0.0716 -0.0437
   61TMC2    H5  960   3.250   0.676  15.590 -1.2262  0.7802  1.5131
   62MPD2     C  961   3.900   0.414  15.046  0.2858  0.4865 -0.3580
   62MPD2    C1  962   3.822   0.533  15.024  0.8082 -0.6144  0.1075
   62MPD2    C2  963   3.862   0.626  14.929 -0.2409  0.3765  0.0756
   62MPD2    C3  964   3.979   0.602  14.861 -0.7961 -0.7371 -0.8760
   62MPD2    C4  965   4.059   0.494  14.887 -0.4283  0.1191 -0.0914
   62MPD2    C5  966   4.018   0.398  14.985  1.1885 -0.0147  0.2359
   62MPD2     H  967   3.786   0.701  14.908  0.3890  1.0845  0.3693
   62MPD2    H1  968   4.161   0.487  14.848 -0.7677  0.5910 -1.0592
   62MPD2    H2  969   3.865   0.345  15.123  1.3870  0.0943 -0.2012
   62MPD2    H3  970   4.080   0.313  15.011  0.5217  0.3206  2.9021
   62MPD2     N  971   4.009   0.686  14.754  0.1120  0.1695 -0.0597
   62MPD2    H5  972   3.928   0.745  14.739  0.5151  1.5442  3.0439
   62MPD2    N1  973   3.705   0.570  15.088  0.5977  0.1016 -0.2685
   62MPD2    H7  974   3.667   0.657  15.054 -0.3839  0.5182  1.8785
   63TMC2    C1  975   2.440   1.454  10.528  0.1407  0.0041 -0.2726
   63TMC2    C2  976   2.361   1.565  10.537 -0.2741  0.2448 -0.4054
   63TMC2    C3  977   2.333   1.632  10.419  0.5742  0.0191 -0.6561
   63TMC2    C4  978   2.482   1.404  10.404  0.0180  0.3203  0.2782
   63TMC2    C5  979   2.461   1.487  10.297 -0.0726  0.6195  0.6870
   63TMC2    C6  980   2.383   1.594  10.295  0.2622 -1.4196 -0.4632
   63TMC2     C  981   2.439   1.367  10.647 -0.6746  0.3091  0.3352
   63TMC2     O  982   2.415   1.408  10.758 -0.8584  0.5722  0.5092
   63TMC2     H  983   2.319   1.588  10.634 -1.8397 -1.5348 -0.6569
   63TMC2    H1  984   2.543   1.315  10.397 -1.1184 -0.5786  1.8978
   63TMC2    H2  985   2.355   1.646  10.205  1.7553  0.0997 -0.0488
   63TMC2    C7  986   2.486   1.436  10.160  0.2832 -0.1547 -0.3299
   63TMC2    C8  987   2.235   1.740  10.424  1.0596  0.0222 -0.4028
   63TMC2    O1  988   2.459   1.319  10.144  0.0638  0.5373  0.5115
   63TMC2    O2  989   2.222   1.811  10.328 -0.4721 -0.5296 -0.4684
   63TMC2    O5  990   2.130   1.690  10.500  0.1877  0.8501 -0.1108
   63TMC2    H5  991   2.152   1.601  10.536  2.0124  0.5055 -2.0819
   64MPD2     C  992   2.534   0.915  10.858  0.2018 -0.3033 -0.1188
   64MPD2    C1  993   2.564   0.908  10.724  0.1168  0.1249  0.4038
   64MPD2    C2  994   2.555   1.026  10.656  0.7537  1.3019 -0.3271
   64MPD2    C3  995   2.500   1.134  10.707  0.2940  0.4653  0.2715
   64MPD2    C4  996   2.454   1.133  10.836  0.5892  0.1955  0.2210
   64MPD2    C5  997   2.482   1.027  10.918  0.9765 -0.1479  0.4617
   64MPD2     H  998   2.577   1.027  10.549 -4.7431 -0.8885 -1.4874
   64MPD2    H1  999   2.402   1.212  10.890  0.4332 -1.8057  3.0073
   64MPD2    H2 1000   2.530   0.824  10.916 -1.0829  0.2354  0.6179
   64MPD2    H3 1001   2.468   1.022  11.025  1.0693  0.2306  0.4909
   64MPD2     N 1002   2.466   1.239  10.616  0.2392 -1.0030 -0.4714
   64MPD2    H5 1003   2.475   1.227  10.515  3.5223  2.0618 -0.5246
   64MPD2    N1 1004   2.592   0.792  10.652 -0.0650  0.0699  0.3902
   64MPD2    H7 1005   2.607   0.809  10.553 -0.0181  0.9701  0.5517
   65TMC2    C1 1006   4.213   0.434  15.446 -0.1420 -0.1145 -0.4630
   65TMC2    C2 1007   4.307   0.400  15.350 -0.6001  0.0157 -0.0368
   65TMC2    C3 1008   4.313   0.478  15.238  0.7767  0.0841 -0.1301
   65TMC2    C4 1009   4.127   0.535  15.433 -0.7728 -0.9428  0.1208
   65TMC2    C5 1010   4.127   0.596  15.310  0.2747 -0.1680  1.0333
   65TMC2    C6 1011   4.222   0.577  15.215 -0.0474  0.2862 -0.4767
   65TMC2     C 1012   4.206   0.356  15.566 -0.7671 -0.4856  0.5485
   65TMC2     O 1013   4.159   0.408  15.665 -0.0220  0.3662 -0.4011
   65TMC2     H 1014   4.361   0.308  15.366 -0.0128 -0.0158 -2.2715
   65TMC2    H1 1015   4.075   0.567  15.522 -1.0166 -0.1632 -0.3023
   65TMC2    H2 1016   4.229   0.618  15.115 -1.9806 -0.0114 -0.7244
   65TMC2    C7 1017   4.051   0.726  15.306  0.3809  0.2421  0.2063
   65TMC2    C8 1018   4.389   0.417  15.134  0.5939 -0.3336  0.5015
   65TMC2    O1 1019   4.108   0.824  15.256 -0.0775  0.2108 -0.1845
   65TMC2    O2 1020   4.427   0.300  15.132  0.2312 -0.6311 -0.3735
   65TMC2    O5 1021   4.454   0.525  15.084 -0.3600 -0.0943 -0.1171
   65TMC2    H5 1022   4.419   0.613  15.112  1.4988  0.9076 -0.8904
   66MPD2     C 1023   4.205   0.136  15.768 -0.1246  0.5384 -0.0457
   66MPD2    C1 1024   4.182   0.119  15.633 -0.0728  0.0265 -0.2826
   66MPD2    C2 1025   4.154   4.733  15.582  0.2849 -0.3395  0.4830
   66MPD2    C3 1026   4.121   4.629  15.663  0.1225 -0.1572  0.0512
   66MPD2    C4 1027   4.124   4.652  15.801 -0.1608 -0.0300 -0.1938
   66MPD2    C5 1028   4.168   0.034  15.851  0.8535  0.1423 -0.5131
   66MPD2     H 1029   4.135   4.721  15.476  3.0117  0.0157 -0.0472
   66MPD2    H1 1030   4.094   4.580  15.876 -1.9302  2.1846  1.2241
   66MPD2    H2 1031   4.247   0.231  15.799 -0.6780  0.8744 -0.3225
   66MPD2    H3 1032   4.187   0.050  15.957 -0.0016 -0.9512 -0.1932
   66MPD2     N 1033   4.064   4.503  15.617  0.5643 -0.3725  0.0347
   66MPD2    H5 1034   4.043   4.440  15.693 -0.3339  0.7646  0.7239
   66MPD2    N1 1035   4.220   0.220  15.540  0.0889 -0.3682 -0.2518
   66MPD2    H7 1036   4.221   0.204  15.440  0.8698  3.6212 -0.9189
   67TMC2    C1 1037   4.554   4.141  14.426 -0.1956  0.2683 -0.6424
   67TMC2    C2 1038   4.457   4.087  14.503  0.2626 -0.3449  0.1633
   67TMC2    C3 1039   4.466   4.118  14.637 -0.6749  0.0706  0.3859
   67TMC2    C4 1040   4.656   4.219  14.475 -0.2296  0.4168  0.1363
   67TMC2    C5 1041   4.664   4.238  14.607 -0.4453  0.1661  0.9106
   67TMC2    C6 1042   4.566   4.188  14.689 -0.0275 -0.3909  0.1768
   67TMC2     C 1043   4.533   4.132  14.278 -0.0042 -0.4497  0.0011
   67TMC2     O 1044   4.639   4.147  14.219 -0.0392 -0.1315  0.4898
   67TMC2     H 1045   4.375   4.026  14.466 -1.7544  2.8501 -0.6749
   67TMC2    H1 1046   4.736   4.253  14.411 -1.0974 -1.4277 -1.9266
   67TMC2    H2 1047   4.568   4.203  14.797  3.9194  1.9426 -0.2136
   67TMC2    C7 1048   0.015   4.347  14.651  0.2570  0.6949 -0.6744
   67TMC2    C8 1049   4.377   4.051  14.726 -0.6155 -0.3554  0.3101
   67TMC2    O1 1050   0.098   4.384  14.574 -0.4305 -0.1457  0.4429
   67TMC2    O2 1051   4.278   4.004  14.668  0.1187 -0.3604  0.4511
   67TMC2    O5 1052   4.462   3.985  14.806 -0.3728  0.4981 -0.3219
   67TMC2    H5 1053   4.553   4.017  14.825  0.1533  0.4434 -2.7796
   68MPD2     C 1054   4.429   4.073  14.011  0.3211 -0.4853 -0.4508
   68MPD2    C1 1055   4.351   4.134  14.110  0.0432 -0.0291 -0.2393
   68MPD2    C2 1056   4.216   4.158  14.080 -0.7579 -0.1216  0.2701
   68MPD2    C3 1057   4.172   4.121  13.957 -0.0991 -0.2280 -0.5525
   68MPD2    C4 1058   4.250   4.063  13.864 -0.0898  0.2665  0.0218
   68MPD2    C5 1059   4.384   4.047  13.886 -0.4353  0.4036  0.8566
   68MPD2     H 1060   4.156   4.214  14.151 -0.8948  0.9388 -0.6892
   68MPD2    H1 1061   4.201   4.020  13.777 -0.7665  2.6398 -0.7621
   68MPD2    H2 1062   4.533   4.044  14.026  1.0578  1.4305 -1.7732
   68MPD2    H3 1063   4.441   3.988  13.815 -1.0837  2.1761 -1.1450
   68MPD2     N 1064   4.040   4.145  13.930 -0.0619 -0.0359  0.1528
   68MPD2    H5 1065   4.006   4.145  13.835 -0.0908  1.1323  0.1723
   68MPD2    N1 1066   4.403   4.158  14.242 -0.0889  0.0973 -0.3429
   68MPD2    H7 1067   4.335   4.186  14.312  0.0666  1.6237 -0.8130
   69TMC2    C1 1068   2.007   0.974  12.730  0.0778  0.2211  0.8032
   69TMC2    C2 1069   2.123   1.001  12.791 -0.4381 -0.1040 -0.8220
   69TMC2    C3 1070   2.237   1.014  12.714  0.7022 -0.9135  0.2616
   69TMC2    C4 1071   1.999   0.968  12.592  0.5514  0.2380 -0.3710
   69TMC2    C5 1072   2.116   0.971  12.527 -0.4091 -0.8210  1.1144
   69TMC2    C6 1073   2.235   0.992  12.584  0.3022 -0.1272  0.4341
   69TMC2     C 1074   1.919   0.869  12.781  0.2770  0.2890 -0.2935
   69TMC2     O 1075   1.974   0.779  12.843  0.0997 -0.1564  0.0538
   69TMC2     H 1076   2.133   0.998  12.898 -1.1969  0.9495 -0.7201
   69TMC2    H1 1077   1.911   0.927  12.546 -0.4502  0.6883  1.1508
   69TMC2    H2 1078   2.323   0.982  12.522 -0.3236  0.1694 -0.5089
   69TMC2    C7 1079   2.114   0.933  12.390  0.4041  0.0972  0.5791
   69TMC2    C8 1080   2.369   1.027  12.774 -0.7045 -0.2199  0.0302
   69TMC2    O1 1081   2.204   0.857  12.346  0.4128  0.1406  0.1686
   69TMC2    O2 1082   2.386   1.022  12.896  0.0901 -0.5782  0.5657
   69TMC2    O5 1083   2.432   1.110  12.692 -0.6309  0.2076  0.3600
   69TMC2    H5 1084   2.397   1.118  12.601 -1.7549  1.5464  0.9262
   70MPD2     C 1085   1.546   0.871  12.820  1.3607 -0.2898 -0.0567
   70MPD2    C1 1086   1.670   0.818  12.811  0.1251 -0.2492 -1.0817
   70MPD2    C2 1087   1.685   0.687  12.835 -0.6050  0.3147 -0.1044
   70MPD2    C3 1088   1.581   0.613  12.889  0.3000  0.1325 -0.4056
   70MPD2    C4 1089   1.458   0.670  12.904 -0.5025  0.7260  0.4094
   70MPD2    C5 1090   1.443   0.795  12.863 -0.0673  1.0772 -0.7223
   70MPD2     H 1091   1.777   0.635  12.808  0.7292  1.5778  2.0033
   70MPD2    H1 1092   1.378   0.614  12.953  0.9366 -2.9858 -1.4837
   70MPD2    H2 1093   1.530   0.978  12.805  1.7133 -0.2097  0.1361
   70MPD2    H3 1094   1.349   0.847  12.881 -0.4082  0.1376  0.2231
   70MPD2     N 1095   1.588   0.478  12.926  0.3906 -0.0315  0.3322
   70MPD2    H5 1096   1.500   0.448  12.967  0.0920 -1.9011 -1.6637
   70MPD2    N1 1097   1.784   0.898  12.768  0.6990 -0.4546 -0.8227
   70MPD2    H7 1098   1.756   0.992  12.745  0.6524 -0.2601  0.0228
   71TMC2    C1 1099   4.151   2.438   1.628 -0.0007 -0.4980  0.2847
   71TMC2    C2 1100   4.261   2.512   1.606 -0.6174 -0.2538 -0.0448
   71TMC2    C3 1101   4.246   2.649   1.632 -0.1506 -0.0085  0.6664
   71TMC2    C4 1102   4.029   2.498   1.663  0.6964 -0.5558 -0.1111
   71TMC2    C5 1103   4.023   2.637   1.685 -0.1217 -0.3060 -0.0152
   71TMC2    C6 1104   4.131   2.715   1.671 -0.1759  0.7244  0.0957
   71TMC2     C 1105   4.148   2.308   1.572 -0.0993  0.9309 -0.2352
   71TMC2     O 1106   4.238   2.274   1.492  0.0474  0.2125 -0.7441
   71TMC2     H 1107   4.354   2.467   1.574 -0.0944  0.7878  0.0187
   71TMC2    H1 1108   3.944   2.441   1.698  1.0236 -0.4906  0.7871
   71TMC2    H2 1109   4.113   2.822   1.673  3.2566  1.3468 -0.9130
   71TMC2    C7 1110   3.896   2.706   1.699 -0.3010 -0.4416 -0.5250
   71TMC2    C8 1111   4.360   2.728   1.603 -0.2584 -0.5617  0.3034
   71TMC2    O1 1112   3.892   2.802   1.775 -0.7313  0.6431 -0.3613
   71TMC2    O2 1113   4.460   2.703   1.535  0.0388  0.0044  0.0068
   71TMC2    O5 1114   4.356   2.831   1.694 -0.1416 -0.0507 -0.2214
   71TMC2    H5 1115   4.287   2.817   1.763 -1.5588  0.8242 -1.4439
   72MPD2     C 1116   3.895   1.880   1.478 -0.4862 -1.0638 -0.3522
   72MPD2    C1 1117   3.969   1.959   1.388  0.2329  0.3181 -0.3366
   72MPD2    C2 1118   4.024   2.068   1.444 -0.4491  0.7211 -0.2413
   72MPD2    C3 1119   4.004   2.104   1.575  0.1424 -0.2586  0.7020
   72MPD2    C4 1120   3.936   2.023   1.657 -0.2173 -0.3230 -0.4212
   72MPD2    C5 1121   3.884   1.909   1.608 -0.3767 -0.1594  0.6400
   72MPD2     H 1122   4.077   2.133   1.374 -3.7388  3.3761 -0.2999
   72MPD2    H1 1123   3.908   2.050   1.758  0.4972 -1.3644  0.0541
   72MPD2    H2 1124   3.854   1.788   1.440 -0.6709 -0.3334 -1.9448
   72MPD2    H3 1125   3.841   1.842   1.681 -0.0716 -2.2587 -1.0827
   72MPD2     N 1126   4.043   2.231   1.625 -0.0293 -0.4757 -0.1100
   72MPD2    H5 1127   4.004   2.267   1.712  1.7855  1.2096  0.0255
   72MPD2    N1 1128   3.995   1.932   1.254  0.0960  0.4071  0.2562
   72MPD2    H7 1129   4.057   1.986   1.195  0.7800 -1.2372 -0.5305
   73TMC2    C1 1130   3.210   2.959  13.976 -0.1350  0.3121  0.2723
   73TMC2    C2 1131   3.159   3.001  14.098  0.4100  0.0838 -1.2628
   73TMC2    C3 1132   3.194   2.935  14.209 -0.4200 -0.0504  0.1779
   73TMC2    C4 1133   3.298   2.855  13.973 -0.3523  1.1819  0.0990
   73TMC2    C5 1134   3.350   2.804  14.095  0.1075 -0.6218  0.0141
   73TMC2    C6 1135   3.296   2.842  14.211  0.8756 -0.5805 -0.8382
   73TMC2     C 1136   3.243   3.061  13.880 -0.0444 -0.8537  0.1302
   73TMC2     O 1137   3.335   3.039  13.802 -0.2652 -0.3714 -0.9952
   73TMC2     H 1138   3.085   3.080  14.108  1.3429  1.0563 -1.9445
   73TMC2    H1 1139   3.343   2.830  13.878 -0.0169  2.0584  0.0217
   73TMC2    H2 1140   3.331   2.810  14.308 -0.8087 -0.4093 -0.1869
   73TMC2    C7 1141   3.498   2.817  14.104  0.0990  0.6083  0.1015
   73TMC2    C8 1142   3.167   3.003  14.332  0.2050 -0.4361  0.8405
   73TMC2    O1 1143   3.556   2.755  14.190 -0.3080 -0.1710  0.2822
   73TMC2    O2 1144   3.192   2.937  14.432 -0.0037  0.7255 -0.3363
   73TMC2    O5 1145   3.233   3.119  14.311  0.1562  0.4745  0.1099
   73TMC2    H5 1146   3.201   3.167  14.232 -0.0024 -2.1391 -1.3901
   74MPD2     C 1147   3.180   3.490  13.628  0.2415  0.1103 -0.8843
   74MPD2    C1 1148   3.294   3.432  13.683  0.3469 -0.0148 -0.5485
   74MPD2    C2 1149   3.277   3.323  13.755 -0.6833  0.5457  0.6449
   74MPD2    C3 1150   3.150   3.267  13.776  0.1159 -0.2521 -1.1989
   74MPD2    C4 1151   3.033   3.325  13.731 -0.2826 -0.0142 -0.0431
   74MPD2    C5 1152   3.057   3.440  13.656  0.2070 -0.6653 -0.1736
   74MPD2     H 1153   3.363   3.276  13.800  0.2301 -0.3224 -2.0019
   74MPD2    H1 1154   2.936   3.281  13.752  0.1326  0.0722  1.9800
   74MPD2    H2 1155   3.186   3.577  13.564  2.2268 -0.9032 -2.0958
   74MPD2    H3 1156   2.975   3.505  13.628  0.7986 -0.7535 -2.0791
   74MPD2     N 1157   3.139   3.157  13.863 -0.1865  0.2702 -0.3243
   74MPD2    H5 1158   3.054   3.133  13.913  1.5450  0.0771  2.5020
   74MPD2    N1 1159   3.418   3.501  13.670 -0.5351  0.3216 -0.0444
   74MPD2    H7 1160   3.407   3.579  13.607 -1.5304 -1.1879 -1.7360
   75TMC2    C1 1161   3.815   4.193  13.962  0.1045 -0.9477  0.0939
   75TMC2    C2 1162   3.704   4.142  14.013 -0.4195  0.7582 -0.1169
   75TMC2    C3 1163   3.579   4.165  13.955  0.2385  0.1339  0.3259
   75TMC2    C4 1164   3.806   4.265  13.841  0.1333 -0.2819 -0.1968
   75TMC2    C5 1165   3.683   4.270  13.782 -0.2010 -0.1497 -0.0669
   75TMC2    C6 1166   3.566   4.222  13.832  0.6485 -0.5464  0.0319
   75TMC2     C 1167   3.941   4.153  14.024  0.3492  0.2093 -0.1499
   75TMC2     O 1168   3.936   4.115  14.141 -0.1091 -0.7273 -0.3503
   75TMC2     H 1169   3.703   4.091  14.108  1.0749 -0.5448 -0.8035
   75TMC2    H1 1170   3.899   4.306  13.804  1.4123 -2.2607  0.8246
   75TMC2    H2 1171   3.470   4.221  13.782 -0.3532  0.4531  1.9648
   75TMC2    C7 1172   3.666   4.368  13.680  0.3352  0.3748  0.5605
   75TMC2    C8 1173   3.467   4.104  14.025 -0.0865  0.1921 -0.4038
   75TMC2    O1 1174   3.755   4.452  13.679 -0.0930 -0.2175  0.3103
   75TMC2    O2 1175   3.480   4.008  14.100  0.7938  0.3151  0.3965
   75TMC2    O5 1176   3.354   4.147  13.968 -0.2127  0.2071 -0.1045
   75TMC2    H5 1177   3.370   4.238  13.933 -0.4569  0.1867 -0.2695
   76TMC2    C1 1178   2.922   4.739  11.997  0.5142 -0.1162  0.4258
   76TMC2    C2 1179   2.836   4.634  12.028 -0.9975 -0.4541 -0.1122
   76TMC2    C3 1180   2.887   4.510  12.037 -0.2520  0.4339  0.3348
   76TMC2    C4 1181   3.057   4.720  11.999  0.2223  0.7411  0.2839
   76TMC2    C5 1182   3.102   4.596  12.014  0.1670 -0.4658  0.1348
   76TMC2    C6 1183   3.020   4.487  12.019  0.6601  0.1550  0.3981
   76TMC2     C 1184   2.863   0.127  11.957  0.5690 -1.1207 -0.1379
   76TMC2     O 1185   2.745   0.138  11.969  0.0193  0.0800  0.0564
   76TMC2     H 1186   2.728   4.644  12.021 -0.8943  1.7459  1.4401
   76TMC2    H1 1187   3.124   0.061  11.970 -0.4426  0.7410 -1.2598
   76TMC2    H2 1188   3.062   4.388  12.014  0.0735 -0.1210  0.9326
   76TMC2    C7 1189   3.240   4.577  12.045 -0.7981 -0.7849  0.4116
   76TMC2    C8 1190   2.808   4.394  12.069 -0.0614  0.0967  0.1277
   76TMC2    O1 1191   3.280   4.464  12.052  0.1376 -0.0607 -0.1298
   76TMC2    O2 1192   2.838   4.279  12.038  0.1216  0.0849  0.4731
   76TMC2    O5 1193   2.793   4.427  12.201  0.2626 -0.1542  0.4756
   76TMC2    H5 1194   2.761   4.519  12.205 -0.4218 -0.4790  2.4733
   77MPD2     C 1195   2.875   0.601  11.735 -0.2445  0.5362  0.0079
   77MPD2    C1 1196   2.772   0.520  11.774 -0.6252  0.0993 -0.0769
   77MPD2    C2 1197   2.798   0.400  11.834 -0.3778 -0.3804  0.3097
   77MPD2    C3 1198   2.923   0.341  11.844 -0.3701  0.0677  0.3718
   77MPD2    C4 1199   3.021   0.417  11.787  0.8704  0.1165  0.1326
   77MPD2    C5 1200   2.992   0.539  11.728 -0.1503  0.2025 -0.2775
   77MPD2     H 1201   2.712   0.347  11.875 -2.3518  1.5130 -1.4351
   77MPD2    H1 1202   3.123   0.380  11.784  1.4519  1.8415 -1.7418
   77MPD2    H2 1203   2.869   0.702  11.694 -0.0554  0.8789  0.8262
   77MPD2    H3 1204   3.074   0.602  11.694 -1.9517  2.9713  0.5233
   77MPD2     N 1205   2.953   0.217  11.896  0.0738 -0.0064  0.1689
   77MPD2    H5 1206   3.049   0.186  11.898 -0.6068 -2.1208 -0.4694
   77MPD2    N1 1207   2.638   0.569  11.771 -0.5794 -0.1248  0.4116
   77MPD2    H7 1208   2.567   0.523  11.827  0.2473 -0.6640  1.0086
   78TMC2    C1 1209   3.818   1.160   0.867 -0.5163  0.2518 -0.8171
   78TMC2    C2 1210   3.830   1.036   0.819  0.2463 -0.3150 -0.4944
   78TMC2    C3 1211   3.950   0.972   0.829  0.3145 -0.1972 -0.1449
   78TMC2    C4 1212   3.917   1.215   0.939 -1.3033  0.3641 -0.6042
   78TMC2    C5 1213   4.026   1.136   0.972  0.0815  0.3366 -0.0929
   78TMC2    C6 1214   4.053   1.021   0.903  0.2697  0.3476  0.1791
   78TMC2     C 1215   3.686   1.223   0.866 -0.5397  1.0004 -0.0963
   78TMC2     O 1216   3.590   1.147   0.844 -0.4741 -0.2494  0.5756
   78TMC2     H 1217   3.757   0.974   0.768 -0.3663  1.3424 -1.6274
   78TMC2    H1 1218   3.896   1.312   0.983  2.5201  0.4641  0.9763
   78TMC2    H2 1219   4.148   0.969   0.916 -0.8033 -1.4334  0.9315
   78TMC2    C7 1220   4.142   1.212   1.016 -0.3729  0.2373 -0.4969
   78TMC2    C8 1221   3.978   0.870   0.727 -0.4662  0.4699  0.3158
   78TMC2    O1 1222   4.247   1.182   0.960 -0.1441  0.5450 -0.0313
   78TMC2    O2 1223   3.901   0.847   0.636 -0.1559  0.1739  0.2131
   78TMC2    O5 1224   4.039   0.769   0.788 -0.4072  0.1667  0.9121
   78TMC2    H5 1225   4.095   0.789   0.866 -0.6189 -0.9611  1.3524
   79MPD1     C 1226   3.324   1.581   0.978  0.2420 -0.4889 -0.9248
   79MPD1    C1 1227   3.311   1.449   0.955 -0.1512  0.4704  0.4523
   79MPD1    C2 1228   3.423   1.372   0.925 -0.1339 -0.2955  0.8200
   79MPD1    C3 1229   3.556   1.426   0.917 -0.2438 -0.2095  0.1853
   79MPD1    C4 1230   3.566   1.560   0.955 -0.2453 -0.3600  0.3459
   79MPD1    C5 1231   3.449   1.632   0.982  0.7556  0.5899  0.2962
   79MPD1     H 1232   3.393   1.271   0.900  1.7226 -0.1513 -1.9583
   79MPD1    H1 1233   3.665   1.605   0.954 -1.2703  1.8452 -1.1111
   79MPD1    H2 1234   3.234   1.637   0.997  0.7011 -0.1784  0.3361
   79MPD1    H3 1235   3.462   1.740   0.979 -0.6674  0.7934  2.0468
   79MPD1     N 1236   3.678   1.357   0.890 -0.6783 -0.3517 -0.1691
   79MPD1    H5 1237   3.766   1.406   0.899 -1.6859  1.3801  0.3467
   79MPD1    N1 1238   3.186   1.394   0.951  0.1579 -0.4641  0.3864
   79MPD1    H6 1239   3.115   1.446   1.001  0.7076 -0.9118  1.6519
   79MPD1    H7 1240   3.193   1.296   0.976 -0.5270 -0.7179 -0.4279
   80TMC2    C1 1241   0.975   4.614  11.478 -0.1299 -0.1964 -0.3352
   80TMC2    C2 1242   0.890   4.704  11.431 -1.1891  0.5505 -0.8866
   80TMC2    C3 1243   0.756   4.690  11.470 -0.8224 -0.0187 -0.1324
   80TMC2    C4 1244   0.937   4.525  11.576  0.5297  0.5524  0.3884
   80TMC2    C5 1245   0.804   4.516  11.608 -0.4125  0.2767  0.1487
   80TMC2    C6 1246   0.715   4.610  11.568 -0.0765 -1.2582 -0.1607
   80TMC2     C 1247   1.113   4.617  11.449  0.5642  0.2591  1.4875
   80TMC2     O 1248   1.185   4.515  11.453 -0.1872 -0.6822 -0.4242
   80TMC2     H 1249   0.909   0.022  11.342  0.7330  1.6185  0.2135
   80TMC2    H1 1250   1.019   4.458  11.603 -0.8355 -1.2969 -0.0703
   80TMC2    H2 1251   0.609   4.598  11.590 -0.2003  1.7991  0.8735
   80TMC2    C7 1252   0.759   4.406  11.689 -0.1713 -0.1648 -0.1930
   80TMC2    C8 1253   0.649   0.012  11.390  0.0905  0.1746  0.1237
   80TMC2    O1 1254   0.667   4.338  11.648 -0.6700 -0.1577  0.0786
   80TMC2    O2 1255   0.546   4.697  11.364  0.2932  0.3626 -0.2038
   80TMC2    O5 1256   0.679   0.144  11.393  0.6642 -0.0529  0.3979
   80TMC2    H5 1257   0.765   0.165  11.435 -0.2731  4.9920 -0.1700
   81MPD2     C 1258   1.391   4.700  11.475 -0.3328 -0.3439 -0.0651
   81MPD2    C1 1259   1.284   0.046  11.503  0.4284  0.6056  0.6867
   81MPD2    C2 1260   1.300   0.170  11.561  0.7285  1.2395 -0.4563
   81MPD2    C3 1261   1.431   0.210  11.588 -0.4993  0.3867  0.4880
   81MPD2    C4 1262   1.534   0.116  11.587 -0.6129  0.0480  0.2477
   81MPD2    C5 1263   1.511   4.734  11.532 -0.4911  0.1005  0.1961
   81MPD2     H 1264   1.219   0.240  11.574 -0.3403 -0.0412 -0.1654
   81MPD2    H1 1265   1.635   0.136  11.623 -0.3806 -1.6835  0.5907
   81MPD2    H2 1266   1.382   4.616  11.408  2.2953 -0.4500 -0.2807
   81MPD2    H3 1267   1.591   4.663  11.515 -0.2060 -0.1073  2.4495
   81MPD2     N 1268   1.461   0.335  11.645  0.7686 -0.2600 -0.0268
   81MPD2    H5 1269   1.555   0.351  11.678  0.4508 -0.5707  1.0395
   81MPD2    N1 1270   1.152   0.009  11.463  0.4633  0.2294 -0.7278
   81MPD2    H7 1271   1.077   0.069  11.495  2.2681  2.8813 -1.4458
   82TMC2    C1 1272   4.361   4.045  11.564 -0.0836 -0.0944 -0.5174
   82TMC2    C2 1273   4.489   4.050  11.615  0.2495  0.8477  0.9796
   82TMC2    C3 1274   4.530   3.941  11.669  0.1039  0.2828  0.4183
   82TMC2    C4 1275   4.296   3.925  11.551 -1.0731  0.3019  0.6703
   82TMC2    C5 1276   4.345   3.810  11.606 -0.8543  0.0687 -0.1047
   82TMC2    C6 1277   4.463   3.819  11.674 -0.7170 -0.3829  0.0492
   82TMC2     C 1278   4.284   4.154  11.503  0.3374 -0.0448  0.3100
   82TMC2     O 1279   4.167   4.131  11.482 -0.3597 -0.2021  0.2169
   82TMC2     H 1280   4.545   4.143  11.624 -0.4052  1.2525  0.8595
   82TMC2    H1 1281   4.203   3.917  11.496  0.1145 -1.1105 -1.1198
   82TMC2    H2 1282   4.491   3.726  11.721 -1.0628  0.6310  2.2284
   82TMC2    C7 1283   4.282   3.686  11.561  0.5852  0.3408 -0.1694
   82TMC2    C8 1284   4.628   3.960  11.769  0.5695 -0.1552 -0.3627
   82TMC2    O1 1285   4.197   3.700  11.476  0.0368 -0.0544  0.4632
   82TMC2    O2 1286   4.707   4.053  11.764 -1.1931  0.6269 -0.3049
   82TMC2    O5 1287   4.614   3.868  11.868  0.3959  0.1852 -0.0021
   82TMC2    H5 1288   4.542   3.801  11.863  0.9733 -0.4122 -0.2507
   83MPD2     C 1289   4.185   4.632  11.349  0.1264 -0.4516 -0.2366
   83MPD2    C1 1290   4.111   4.517  11.333  0.0740 -0.4643 -0.6240
   83MPD2    C2 1291   4.166   4.397  11.380 -0.6050 -0.3632  0.1050
   83MPD2    C3 1292   4.291   4.394  11.441  0.7572  0.5274  0.2074
   83MPD2    C4 1293   4.358   4.515  11.460 -0.1541  0.3342  0.6980
   83MPD2    C5 1294   4.302   4.633  11.419 -0.2576  0.0140  0.3919
   83MPD2     H 1295   4.106   4.307  11.378  0.2100 -0.9186  0.5190
   83MPD2    H1 1296   4.459   4.518  11.502  0.2388  1.0218 -0.3005
   83MPD2    H2 1297   4.149   4.724  11.305 -1.6611 -0.1276  1.8663
   83MPD2    H3 1298   4.357   4.723  11.444  0.8979 -0.6477  0.2214
   83MPD2     N 1299   4.352   4.277  11.482 -0.2237 -1.1387 -0.0645
   83MPD2    H5 1300   4.451   4.288  11.504 -0.0358 -0.3988 -1.3128
   83MPD2    N1 1301   3.985   4.518  11.276  0.5142 -1.0829 -0.5907
   83MPD2    H7 1302   3.944   4.610  11.262  2.3566 -0.5130 -2.2130
   84TMC2    C1 1303   0.126   3.785  11.279  0.3878 -0.3371  0.4251
   84TMC2    C2 1304   0.113   3.657  11.335  0.0697  0.3093  0.1015
   84TMC2    C3 1305   0.163   3.553  11.269 -0.2548 -0.1090  0.3798
   84TMC2    C4 1306   0.184   3.803  11.151  0.2864  0.8446  0.4008
   84TMC2    C5 1307   0.242   3.695  11.088 -0.7191  0.3188 -0.0906
   84TMC2    C6 1308   0.224   3.573  11.148  0.1195  0.2079  0.6609
   84TMC2     C 1309   0.138   3.891  11.380 -0.4985 -0.4366  0.1266
   84TMC2     O 1310   0.087   3.860  11.491  0.2481  0.7076 -0.4836
   84TMC2     H 1311   0.083   3.638  11.438 -2.0130 -2.6658 -1.0655
   84TMC2    H1 1312   0.191   3.899  11.101 -0.7486  0.6522 -0.1170
   84TMC2    H2 1313   0.263   3.483  11.101 -1.9265  0.1872 -1.0050
   84TMC2    C7 1314   0.277   3.700  10.944  0.4108 -0.4668 -0.4328
   84TMC2    C8 1315   0.119   3.418  11.296 -0.6504 -0.1465  0.2111
   84TMC2    O1 1316   0.301   3.597  10.885  0.3714  0.4964 -0.6020
   84TMC2    O2 1317   0.159   3.320  11.237  0.1404  0.4874  0.4796
   84TMC2    O5 1318   4.725   3.440  11.324  0.2032  0.5528 -0.1038
   84TMC2    H5 1319   4.701   3.535  11.329 -1.9684  0.0401 -1.1813
   85TMC2    C1 1320   1.845   1.939  16.064  0.8394 -0.0982 -0.3847
   85TMC2    C2 1321   1.715   1.960  16.021  0.3436 -0.1083 -0.3455
   85TMC2    C3 1322   1.692   2.085  15.966  0.2982 -0.0825 -0.5830
   85TMC2    C4 1323   1.939   2.030  16.064  0.2755  0.5133  0.2738
   85TMC2    C5 1324   1.899   2.156  16.025  0.5999  0.8414 -0.0737
   85TMC2    C6 1325   1.776   2.184  15.975  0.0141 -0.6102  0.1571
   85TMC2     C 1326   1.891   1.798  16.089  0.3661 -0.1363  1.3291
   85TMC2     O 1327   2.008   1.769  16.123  0.0344  0.4555  0.2246
   85TMC2     H 1328   1.637   1.887  16.036 -1.3156  1.7571  0.1301
   85TMC2    H1 1329   2.035   2.005  16.108 -0.4463 -0.6370  1.1990
   85TMC2    H2 1330   1.755   2.276  15.922 -0.8341 -0.5129  0.6596
   85TMC2    C7 1331   1.997   2.255  16.018 -0.2192  0.6185 -0.0903
   85TMC2    C8 1332   1.565   2.122  15.910  0.8218 -0.2466 -0.0833
   85TMC2    O1 1333   2.110   2.220  16.043 -0.0069 -0.5402 -0.5326
   85TMC2    O2 1334   1.545   2.212  15.830 -0.1829  0.0490 -0.2560
   85TMC2    O5 1335   1.470   2.076  15.986  0.2320  0.0063 -0.5246
   85TMC2    H5 1336   1.492   2.011  16.056  0.5896  0.2824 -0.3739
   86MPD2     C 1337   1.870   1.293  15.969 -0.0958  0.2664 -0.6569
   86MPD2    C1 1338   1.747   1.353  15.939 -0.1979  0.4367 -0.0463
   86MPD2    C2 1339   1.716   1.486  15.971  0.3228 -0.0310 -0.3374
   86MPD2    C3 1340   1.817   1.567  16.020 -0.0190 -0.0276 -0.1439
   86MPD2    C4 1341   1.934   1.501  16.066  0.5120 -0.3277 -0.4680
   86MPD2    C5 1342   1.959   1.368  16.037 -0.4851  0.6147  0.0549
   86MPD2     H 1343   1.616   1.524  15.956 -0.4839 -1.7333  0.7776
   86MPD2    H1 1344   2.006   1.534  16.140  1.0680  1.4214 -1.7739
   86MPD2    H2 1345   1.898   1.193  15.938 -1.1673 -0.9191  2.2102
   86MPD2    H3 1346   2.060   1.340  16.064 -1.3768 -0.9888  1.7397
   86MPD2     N 1347   1.798   1.708  16.042 -0.3856  0.6494 -0.4710
   86MPD2    H5 1348   1.713   1.743  16.000 -1.2356 -1.2531 -0.3395
   86MPD2    N1 1349   1.651   1.274  15.879 -0.6117  0.2708 -0.0086
   86MPD2    H7 1350   1.560   1.317  15.873  0.3240  2.0998 -1.3045
   87TMC2    C1 1351   4.343   0.326   0.475  0.7544 -0.0579  0.2151
   87TMC2    C2 1352   4.221   0.382   0.450  0.0503  0.0161 -0.5669
   87TMC2    C3 1353   4.153   0.465   0.535 -1.2096 -0.2808  0.7001
   87TMC2    C4 1354   4.416   0.371   0.580 -0.3551  0.7688 -0.3714
   87TMC2    C5 1355   4.352   0.459   0.663  0.3016  0.7755  0.3721
   87TMC2    C6 1356   4.223   0.501   0.647  0.9895 -1.5714  0.5076
   87TMC2     C 1357   4.396   0.215   0.392 -0.7552 -0.6981  0.2603
   87TMC2     O 1358   4.323   0.191   0.295 -0.1114  0.9292  0.2214
   87TMC2     H 1359   4.176   0.355   0.355  0.3599 -0.2305 -0.6475
   87TMC2    H1 1360   4.519   0.345   0.600 -0.1130  0.9168 -1.4168
   87TMC2    H2 1361   4.179   0.565   0.723 -1.2131 -0.7962 -1.4490
   87TMC2    C7 1362   4.414   0.491   0.790  0.7897 -0.2564 -0.0846
   87TMC2    C8 1363   4.008   0.446   0.552  0.5270 -0.0974 -0.2497
   87TMC2    O1 1364   4.375   0.596   0.836 -0.5189 -0.4638 -0.1843
   87TMC2    O2 1365   3.963   0.344   0.505 -0.0123  0.2973  0.2834
   87TMC2    O5 1366   3.977   0.495   0.672 -0.2414  0.5092 -0.0291
   87TMC2    H5 1367   4.015   0.585   0.679  2.8997 -0.9977  2.3569
   88MPD2     C 1368   4.660   0.334   0.989  0.3789 -0.2728 -0.2112
   88MPD2    C1 1369   4.551   0.408   0.967  0.0342 -0.0397 -0.2665
   88MPD2    C2 1370   4.505   0.490   1.068  0.6379  0.2720 -0.1422
   88MPD2    C3 1371   4.568   0.492   1.191 -0.1633 -0.0768  0.4614
   88MPD2    C4 1372   4.683   0.417   1.211 -1.1799  0.2244  0.4932
   88MPD2    C5 1373   4.730   0.336   1.106 -0.7977 -0.2895  0.6311
   88MPD2     H 1374   4.409   0.539   1.058  0.0651 -0.6444  0.7953
   88MPD2    H1 1375   4.734   0.428   1.306  2.0282 -0.6241 -1.1625
   88MPD2    H2 1376   4.691   0.269   0.907 -0.7510 -1.6462  0.4546
   88MPD2    H3 1377   0.089   0.293   1.121 -0.2226  0.9227  0.3266
   88MPD2     N 1378   4.519   0.570   1.296 -0.3729 -0.6287 -0.1814
   88MPD2    H5 1379   4.591   0.610   1.356 -0.3668 -0.0550 -0.5659
   88MPD2    N1 1380   4.496   0.392   0.842 -0.1819 -0.8572  0.1046
   88MPD2    H7 1381   4.530   0.318   0.782  1.9457 -0.1127  0.4088
   89TMC2    C1 1382   0.456   3.598   1.280 -0.2540 -0.1625  0.1539
   89TMC2    C2 1383   0.332   3.555   1.325  0.8940 -0.3363  0.3234
   89TMC2    C3 1384   0.228   3.648   1.341  0.1057  0.6019 -0.5239
   89TMC2    C4 1385   0.469   3.732   1.249 -0.4561  0.1669 -0.2990
   89TMC2    C5 1386   0.364   3.823   1.255 -0.6992 -0.5475  0.2564
   89TMC2    C6 1387   0.238   3.773   1.291  0.6362 -0.5081 -1.4211
   89TMC2     C 1388   0.580   3.528   1.311 -0.3304 -0.8470  0.0449
   89TMC2     O 1389   0.681   3.593   1.326 -0.5082  0.1410  0.1586
   89TMC2     H 1390   0.323   3.454   1.364  1.1553 -0.9464 -1.2282
   89TMC2    H1 1391   0.569   3.773   1.246 -0.1098 -0.8026 -2.0633
   89TMC2    H2 1392   0.157   3.844   1.303  0.5519 -0.6604 -1.0850
   89TMC2    C7 1393   0.387   3.963   1.281 -0.2518  0.6671 -0.0306
   89TMC2    C8 1394   0.099   3.603   1.389 -0.0902 -0.4582 -0.3918
   89TMC2    O1 1395   0.311   4.014   1.363 -0.0691 -0.1455 -0.4789
   89TMC2    O2 1396   4.737   3.668   1.383  0.1718  0.4106  0.1084
   89TMC2    O5 1397   0.127   3.523   1.494  0.0630  0.1387  0.1767
   89TMC2    H5 1398   0.221   3.525   1.519  0.2566  1.4829 -0.7118
   90MPD2     C 1399   0.839   3.098   1.451  0.1667 -0.1628  1.0290
   90MPD2    C1 1400   0.710   3.060   1.430 -0.3876  0.1989 -0.4990
   90MPD2    C2 1401   0.624   3.158   1.375  0.5256  0.3021  0.1835
   90MPD2    C3 1402   0.669   3.287   1.348 -0.0032  0.1946 -0.3357
   90MPD2    C4 1403   0.802   3.316   1.350  0.9011  0.2888 -0.7336
   90MPD2    C5 1404   0.887   3.218   1.403  0.2521 -0.0817 -0.3949
   90MPD2     H 1405   0.518   3.135   1.376  0.1173  2.3478  2.6517
   90MPD2    H1 1406   0.851   3.409   1.324  0.0934  0.0739 -2.9969
   90MPD2    H2 1407   0.915   3.034   1.495  0.4479 -0.5337 -0.0024
   90MPD2    H3 1408   0.991   3.243   1.420  0.1963 -0.9004  1.1661
   90MPD2     N 1409   0.574   3.385   1.321  0.1667  0.0757 -0.2772
   90MPD2    H5 1410   0.481   3.344   1.322  0.4446 -0.5714 -1.3560
   90MPD2    N1 1411   0.662   2.927   1.463 -0.3219  0.0490  0.7499
   90MPD2    H7 1412   0.574   2.901   1.418  0.5711 -0.4627 -0.6797
   91TMC2    C1 1413   1.598   2.300  16.368 -0.1708 -0.2503  0.6555
   91TMC2    C2 1414   1.628   2.398  16.463 -0.2812  0.5246  0.6504
   91TMC2    C3 1415   1.518   2.478  16.491  0.3412  0.0724  0.5794
   91TMC2    C4 1416   1.480   2.299  16.299  0.5969 -0.8235  0.0509
   91TMC2    C5 1417   1.377   2.388  16.321 -0.4983  0.0639 -0.2043
   91TMC2    C6 1418   1.402   2.484  16.419  0.0741  0.0397  0.0719
   91TMC2     C 1419   1.687   2.188  16.356  0.4238 -0.0334 -0.0740
   91TMC2     O 1420   1.645   2.090  16.298 -0.5503 -0.4356 -0.3423
   91TMC2     H 1421   1.712   2.390  16.530  2.0936 -1.3460 -2.5554
   91TMC2    H1 1422   1.463   2.220  16.227 -1.6349 -0.7189  0.4387
   91TMC2    H2 1423   1.328   2.556  16.452 -0.0027 -0.1016  0.2081
   91TMC2    C7 1424   1.248   2.324  16.338  0.2383  0.2935 -0.0788
   91TMC2    C8 1425   1.545   2.596  16.562  0.2039 -0.6632  0.3463
   91TMC2    O1 1426   1.202   2.310  16.450  0.0934  0.4750  0.2002
   91TMC2    O2 1427   1.659   2.637  16.561  0.2322 -0.3558 -0.7998
   91TMC2    O5 1428   1.463   2.600  16.674 -0.0599  0.0023 -0.5530
   91TMC2    H5 1429   1.390   2.534  16.674 -0.5882  0.5957 -1.9908
   92MPD2     C 1430   1.894   1.995  16.399  0.2289  0.2954  0.0248
   92MPD2    C1 1431   1.916   2.134  16.395  0.0047 -0.7820  0.8324
   92MPD2    C2 1432   2.048   2.184  16.387 -0.2940 -0.1553 -0.3982
   92MPD2    C3 1433   2.154   2.098  16.387 -0.4911  0.7740 -0.0037
   92MPD2    C4 1434   2.132   1.963  16.389 -0.3956 -0.4998  0.4047
   92MPD2    C5 1435   2.004   1.911  16.400 -0.4741 -0.1112 -0.6692
   92MPD2     H 1436   2.050   2.292  16.374 -1.9398 -0.1414 -0.5759
   92MPD2    H1 1437   2.210   1.888  16.381 -1.1402 -1.1553 -0.6933
   92MPD2    H2 1438   1.795   1.952  16.411 -0.4008  1.3502 -1.4390
   92MPD2    H3 1439   1.998   1.803  16.399 -0.1861 -0.1394  0.2961
   92MPD2     N 1440   2.287   2.139  16.361 -0.1943  0.1886  0.2135
   92MPD2    H5 1441   2.346   2.065  16.325 -2.9915 -2.3087  0.7659
   92MPD2    N1 1442   1.813   2.222  16.403  0.1418 -0.3376  0.0031
   92MPD2    H7 1443   1.825   2.321  16.423 -1.3177  0.0151 -0.8860
   93TMC2    C1 1444   4.001   2.573  14.000  0.3692  0.0631  0.2489
   93TMC2    C2 1445   4.020   2.572  14.140  0.8960  0.2364  0.4243
   93TMC2    C3 1446   4.100   2.668  14.189  0.4297 -0.3318 -0.2793
   93TMC2    C4 1447   4.075   2.659  13.925  0.6044  0.8315 -0.0570
   93TMC2    C5 1448   4.173   2.733  13.981  0.1930 -0.3853 -0.0605
   93TMC2    C6 1449   4.184   2.748  14.115  0.2138  0.2686 -0.1488
   93TMC2     C 1450   3.936   2.471  13.915  0.4265 -0.2454 -0.7798
   93TMC2     O 1451   3.980   2.447  13.802  0.3611  0.1104  0.0028
   93TMC2     H 1452   3.973   2.503  14.209 -0.5211 -2.5793 -3.3696
   93TMC2    H1 1453   4.076   2.660  13.817 -0.0080 -3.0236 -0.0716
   93TMC2    H2 1454   4.272   2.799  14.153 -0.7112  1.9599 -0.2881
   93TMC2    C7 1455   4.297   2.714  13.908  0.2599 -1.0411  0.0568
   93TMC2    C8 1456   4.097   2.679  14.339 -0.0301 -0.6305  0.9430
   93TMC2    O1 1457   4.299   2.646  13.806  0.0204 -0.5129 -0.3815
   93TMC2    O2 1458   4.064   2.588  14.418 -0.7722  0.1922  0.1797
   93TMC2    O5 1459   4.178   2.783  14.379  0.5688  0.0821  0.1546
   93TMC2    H5 1460   4.181   2.856  14.314 -1.4661 -0.5194 -0.6253
   94MPD2     C 1461   3.793   2.227  13.824 -0.0170 -0.3040  0.2520
   94MPD2    C1 1462   3.736   2.326  13.906 -0.6821  0.1484 -0.0248
   94MPD2    C2 1463   3.602   2.323  13.932 -0.0573  0.8174 -0.4300
   94MPD2    C3 1464   3.520   2.232  13.862  0.1563 -0.1030  0.5422
   94MPD2    C4 1465   3.579   2.148  13.778  0.8240  0.5180  0.5395
   94MPD2    C5 1466   3.709   2.140  13.765  0.0428 -0.0063 -0.0192
   94MPD2     H 1467   3.574   2.388  14.014 -0.1267  1.1135 -0.6908
   94MPD2    H1 1468   3.522   2.075  13.722  2.2322  0.2812 -0.5990
   94MPD2    H2 1469   3.900   2.228  13.810  0.0980 -3.9905  0.9123
   94MPD2    H3 1470   3.745   2.066  13.695  0.2289  0.9490 -0.9455
   94MPD2     N 1471   3.377   2.244  13.866 -0.3261  0.3225  0.1710
   94MPD2    H5 1472   3.323   2.170  13.821 -0.6270 -0.2045  1.4046
   94MPD2    N1 1473   3.817   2.432  13.963 -0.2788  0.0737  0.1962
   94MPD2    H7 1474   3.771   2.483  14.038  0.1670 -0.6810  0.9855
   95TMC2    C1 1475   3.185   4.202  16.110 -0.7638  0.1117 -0.3454
   95TMC2    C2 1476   3.233   4.220  16.236 -0.4114 -0.4585 -0.6276
   95TMC2    C3 1477   3.147   4.258  16.331 -0.5533 -0.0424  0.8632
   95TMC2    C4 1478   3.057   4.220  16.065 -0.1834 -0.3397 -1.0795
   95TMC2    C5 1479   2.968   4.240  16.171 -0.2827  0.1313 -0.8789
   95TMC2    C6 1480   3.014   4.261  16.298  0.5682 -0.5092 -0.6953
   95TMC2     C 1481   3.281   4.158  16.011  0.8129 -0.1046  0.3230
   95TMC2     O 1482   3.259   4.193  15.894  0.3332  0.2207  0.2690
   95TMC2     H 1483   3.337   4.214  16.266 -0.5288  0.8485  0.0435
   95TMC2    H1 1484   3.023   4.183  15.969 -0.2139 -0.4692 -1.0194
   95TMC2    H2 1485   2.948   4.271  16.384 -1.3384 -2.1395 -1.9877
   95TMC2    C7 1486   2.842   4.155  16.166  0.2628 -0.0883  0.4507
   95TMC2    C8 1487   3.195   4.339  16.439 -0.4324  0.2977 -0.3778
   95TMC2    O1 1488   2.857   4.051  16.100  0.0474  0.1694  0.6024
   95TMC2    O2 1489   3.119   4.379  16.524 -0.5896  0.3553 -0.3393
   95TMC2    O5 1490   3.297   4.411  16.394 -0.0362  0.0330  0.2364
   95TMC2    H5 1491   3.309   4.400  16.297  0.7635  1.6094  0.1460
   96MPD2     C 1492   3.704   3.880  15.905  0.2464 -0.7721 -0.3857
   96MPD2    C1 1493   3.653   3.992  15.841 -0.5079  0.6871 -0.8168
   96MPD2    C2 1494   3.543   4.056  15.899  0.3470 -0.3743 -0.5684
   96MPD2    C3 1495   3.487   4.009  16.017  0.1830  0.0374  0.0241
   96MPD2    C4 1496   3.542   3.898  16.083  0.0108 -0.3832 -0.0453
   96MPD2    C5 1497   3.646   3.831  16.023  0.8353 -0.4848 -0.2856
   96MPD2     H 1498   3.497   4.139  15.846  1.1590  1.0424  0.9487
   96MPD2    H1 1499   3.494   3.849  16.167  1.2490  2.2377  2.1551
   96MPD2    H2 1500   3.784   3.820  15.862 -0.3655 -0.5480 -1.8592
   96MPD2    H3 1501   3.680   3.735  16.059  0.4971  0.4292  2.4933
   96MPD2     N 1502   3.372   4.069  16.069 -0.1980 -0.2263  0.1755
   96MPD2    H5 1503   3.347   4.044  16.164  2.1849  0.2607  0.9326
   96MPD2    N1 1504   3.735   4.042  15.736  0.0398 -0.1952  0.6231
   96MPD2    H7 1505   3.820   3.990  15.719  1.6315  2.4630  0.5346
   97TMC2    C1 1506   1.241   2.322   0.192 -0.1147 -0.5500  0.5861
   97TMC2    C2 1507   1.228   2.244   0.075 -0.0226  0.0970  0.3565
   97TMC2    C3 1508   1.183   2.310  17.721 -0.3989 -0.1992 -0.0428
   97TMC2    C4 1509   1.248   2.463   0.184  0.0053  0.1722 -0.1955
   97TMC2    C5 1510   1.220   2.521   0.068  0.9228 -0.2808  0.3201
   97TMC2    C6 1511   1.179   2.447  17.714 -0.9536  0.0497  0.4256
   97TMC2     C 1512   1.308   2.272   0.312  0.1405  0.4143 -0.5995
   97TMC2     O 1513   1.379   2.351   0.375  0.2117 -0.2869 -0.0119
   97TMC2     H 1514   1.226   2.136   0.068 -0.9545  0.1050  0.5148
   97TMC2    H1 1515   1.255   2.527   0.271  0.9217  2.0610 -1.6536
   97TMC2    H2 1516   1.163   2.508  17.625  2.4855 -0.2143 -0.3813
   97TMC2    C7 1517   1.199   2.662   0.059 -0.5530  0.4522 -0.0504
   97TMC2    C8 1518   1.126   2.229  17.612  0.3186  0.8936  0.4712
   97TMC2    O1 1519   1.124   2.707  17.726  0.1464 -0.6384  0.1123
   97TMC2    O2 1520   1.104   2.274  17.502 -0.1412 -0.2334  0.3466
   97TMC2    O5 1521   1.022   2.173  17.682 -0.2514  0.7773  0.6335
   97TMC2    H5 1522   1.031   2.145   0.020 -1.5338 -1.9257 -0.0476
   98MPD2     C 1523   1.492   1.854   0.545 -0.2392 -0.2067 -0.3049
   98MPD2    C1 1524   1.522   1.989   0.568  0.4756 -0.3390  0.3771
   98MPD2    C2 1525   1.462   2.085   0.481  0.1531  0.1315 -0.5328
   98MPD2    C3 1526   1.375   2.043   0.382  0.8056 -0.0939  0.2568
   98MPD2    C4 1527   1.338   1.905   0.376 -0.5418  0.2055 -0.3837
   98MPD2    C5 1528   1.397   1.815   0.454  0.9819  0.2730  0.1651
   98MPD2     H 1529   1.460   2.189   0.512 -2.2485  0.3867 -1.5567
   98MPD2    H1 1530   1.278   1.865   0.295 -0.2186  1.0455 -1.0433
   98MPD2    H2 1531   1.530   1.780   0.614  0.6902  1.6485  1.1881
   98MPD2    H3 1532   1.365   1.712   0.461  1.8870  0.1463  2.5094
   98MPD2     N 1533   1.295   2.137   0.302  0.2112 -0.2394 -0.8659
   98MPD2    H5 1534   1.234   2.101   0.229 -0.2674 -1.9237  0.3383
   98MPD2    N1 1535   1.596   2.026   0.686 -0.4218  0.6747 -0.3036
   98MPD2    H7 1536   1.627   1.951   0.748  1.8039 -0.8916 -3.2960
   99TMC2    C1 1537   0.541   4.561   0.849  0.1460  0.3275 -0.3214
   99TMC2    C2 1538   0.666   4.609   0.856 -0.0114  0.3407  0.0421
   99TMC2    C3 1539   0.720   4.612   0.983  0.1413  0.0669  0.0642
   99TMC2    C4 1540   0.477   4.516   0.960  0.1285  0.2115  0.0575
   99TMC2    C5 1541   0.530   4.525   1.078  0.2621 -0.1569 -1.1095
   99TMC2    C6 1542   0.656   4.569   1.094  0.0124 -1.0766  0.0552
   99TMC2     C 1543   0.507   4.514   0.718  0.0846 -0.1353 -0.0583
   99TMC2     O 1544   0.596   4.531   0.635 -0.5275  0.0686 -0.2133
   99TMC2     H 1545   0.725   4.628   0.767 -1.2046 -0.6204 -0.9458
   99TMC2    H1 1546   0.370   4.499   0.945 -0.2974  0.8148  2.4729
   99TMC2    H2 1547   0.700   4.569   1.194 -2.4260 -1.6724  1.1381
   99TMC2    C7 1548   0.440   4.521   1.191 -0.6557  0.4952 -0.1465
   99TMC2    C8 1549   0.857   4.636   0.994  0.8764  0.0107  0.3591
   99TMC2    O1 1550   0.466   4.595   1.285  0.7508  0.0848 -0.1652
   99TMC2    O2 1551   0.935   4.592   1.081  0.3311 -0.1432  0.2751
   99TMC2    O5 1552   0.889   4.738   0.901  0.4218 -0.2531  0.0869
   99TMC2    H5 1553   0.804   0.026   0.861 -1.2963 -1.2257  3.0686
  100MPD2     C 1554   0.410   4.366   0.485 -1.2402  0.3008  0.0802
  100MPD2    C1 1555   0.363   4.345   0.607 -0.0315  0.1474  0.6128
  100MPD2    C2 1556   0.271   4.241   0.619  0.2547  0.5774  0.7543
  100MPD2    C3 1557   0.251   4.149   0.521 -0.3667  0.6637  1.3020
  100MPD2    C4 1558   0.302   4.179   0.396  0.2969  0.0248 -1.4917
  100MPD2    C5 1559   0.377   4.291   0.376  0.5686  0.7011 -0.3108
  100MPD2     H 1560   0.232   4.220   0.717  1.0904 -0.5262  0.8577
  100MPD2    H1 1561   0.289   4.115   0.309 -0.5496  0.4186 -1.6522
  100MPD2    H2 1562   0.471   4.449   0.452  1.0477 -0.1401  3.2289
  100MPD2    H3 1563   0.420   4.305   0.277  1.3265  0.6934  0.0198
  100MPD2     N 1564   0.174   4.035   0.550 -0.4710 -0.1735  0.6593
  100MPD2    H5 1565   0.132   4.014   0.640 -0.6960 -1.9184  0.1521
  100MPD2    N1 1566   0.406   4.420   0.720 -0.6569  0.6369  0.6113
  100MPD2    H7 1567   0.361   4.403   0.809 -1.9486  0.5431 -0.0626
  101TMC2    C1 1568   0.702   0.118  13.110 -0.6605 -0.0298 -0.4912
  101TMC2    C2 1569   0.764   0.155  13.225  0.0494 -0.0286  0.5757
  101TMC2    C3 1570   0.875   0.230  13.216  0.1947 -0.1412 -0.5986
  101TMC2    C4 1571   0.741   0.165  12.988  0.8091  0.4922 -0.2796
  101TMC2    C5 1572   0.857   0.241  12.986  0.4166  0.4048  0.2114
  101TMC2    C6 1573   0.924   0.276  13.097 -0.4791 -0.0998 -0.0196
  101TMC2     C 1574   0.607   0.006  13.114 -0.2309  0.1839  0.2779
  101TMC2     O 1575   0.541   4.728  13.215  0.5952  0.0342  0.2592
  101TMC2     H 1576   0.734   0.110  13.319 -0.2399  0.3045  0.6392
  101TMC2    H1 1577   0.693   0.144  12.893 -0.3197 -2.0731  0.8511
  101TMC2    H2 1578   1.010   0.342  13.095  2.4608 -4.0047 -2.2580
  101TMC2    C7 1579   0.898   0.294  12.857 -0.1071 -0.0685  0.2121
  101TMC2    C8 1580   0.950   0.251  13.335 -0.1572 -0.8518 -0.6502
  101TMC2    O1 1581   0.969   0.398  12.864 -0.3009  0.3596  0.6308
  101TMC2    O2 1582   1.062   0.300  13.337  0.3095 -0.0779 -0.3290
  101TMC2    O5 1583   0.848   0.260  13.427  0.4775  0.0531 -0.2989
  101TMC2    H5 1584   0.754   0.257  13.399  1.3446  2.3836 -3.4219
  102MPD2     C 1585   0.620   4.430  12.901 -0.2475  0.0760  0.7628
  102MPD2    C1 1586   0.579   4.514  13.008  0.2157 -0.2338  0.3692
  102MPD2    C2 1587   0.495   4.455  13.105  0.2033  0.5670 -0.0323
  102MPD2    C3 1588   0.446   4.327  13.097  0.0421 -0.3425 -0.2214
  102MPD2    C4 1589   0.493   4.244  12.995 -0.0997 -0.1280  0.0011
  102MPD2    C5 1590   0.581   4.300  12.908  0.5880 -0.3016  0.2077
  102MPD2     H 1591   0.474   4.509  13.196 -2.0381 -1.7071  0.7967
  102MPD2    H1 1592   0.479   4.137  12.987  1.4665 -0.1953 -1.9682
  102MPD2    H2 1593   0.677   4.457  12.813  2.3114 -0.5098  2.2752
  102MPD2    H3 1594   0.628   4.232  12.837 -1.3141 -0.5291 -0.8477
  102MPD2     N 1595   0.354   4.284  13.196  0.3253  0.5265  0.3050
  102MPD2    H5 1596   0.313   4.344  13.266  1.5055  0.1675  1.2920
  102MPD2    N1 1597   0.619   4.649  13.010  0.2498 -0.0257 -0.1663
  102MPD2    H7 1598   0.680   4.667  12.931  0.5041  1.3868  0.3508
  103TMC2    C1 1599   3.625   0.390  12.496 -0.1227  0.2324  0.1123
  103TMC2    C2 1600   3.727   0.456  12.435 -0.2335 -0.5222 -0.2474
  103TMC2    C3 1601   3.770   0.571  12.493  0.5716 -0.1591 -0.7025
  103TMC2    C4 1602   3.575   0.430  12.622  0.3693 -0.3528  0.1174
  103TMC2    C5 1603   3.636   0.541  12.679  0.0816 -0.7400  0.7275
  103TMC2    C6 1604   3.733   0.615  12.616 -0.4691  0.4891 -0.1787
  103TMC2     C 1605   3.551   0.297  12.418  0.1056 -0.2727 -0.0765
  103TMC2     O 1606   3.429   0.298  12.418 -0.4730 -0.0019 -0.5632
  103TMC2     H 1607   3.739   0.451  12.327 -3.0140  2.4962 -0.6823
  103TMC2    H1 1608   3.488   0.388  12.671 -0.3646  0.7714 -0.2196
  103TMC2    H2 1609   3.773   0.706  12.658  0.4998 -0.0226  0.0227
  103TMC2    C7 1610   3.579   0.591  12.802  0.1680  0.4740  0.7971
  103TMC2    C8 1611   3.886   0.636  12.443  0.2246 -0.0212  0.2922
  103TMC2    O1 1612   3.536   0.513  12.885  0.0255 -0.1915  0.1658
  103TMC2    O2 1613   3.905   0.756  12.444  0.2402 -0.3966 -0.0214
  103TMC2    O5 1614   3.952   0.549  12.364  0.3157  0.9263  0.1766
  103TMC2    H5 1615   3.965   0.458  12.398  0.8009  1.3366  1.0755
  104MPD2     C 1616   3.661   4.713  12.315  0.5826 -0.1705  0.0247
  104MPD2    C1 1617   3.588   0.089  12.300  0.1585 -0.4318  0.2342
  104MPD2    C2 1618   3.470   0.080  12.226  0.0911  0.0070 -0.3715
  104MPD2    C3 1619   3.425   4.695  12.178 -0.0387  0.4407  0.2005
  104MPD2    C4 1620   3.511   4.587  12.171  0.5961  0.2360 -0.1832
  104MPD2    C5 1621   3.624   4.600  12.247 -0.0406  0.5888 -0.1201
  104MPD2     H 1622   3.410   0.169  12.217 -2.7395 -1.8502  0.0948
  104MPD2    H1 1623   3.499   4.493  12.119 -0.1054 -0.3003  0.9463
  104MPD2    H2 1624   3.744   4.705  12.385  0.2206 -1.4263  0.3150
  104MPD2    H3 1625   3.693   4.516  12.252  1.0351  1.5334  0.9668
  104MPD2     N 1626   3.300   4.690  12.099  0.1615  0.4726  0.3296
  104MPD2    H5 1627   3.243   0.035  12.106 -2.1221 -0.9991 -0.3790
  104MPD2    N1 1628   3.633   0.203  12.374 -0.2433 -0.0926  0.1155
  104MPD2    H7 1629   3.720   0.189  12.425  1.2915 -1.7209 -2.9151
  105TMC2    C1 1630   4.386   4.161  17.641 -0.3962  0.3799  0.5883
  105TMC2    C2 1631   4.275   4.155  17.714 -0.4691 -0.1070 -0.5716
  105TMC2    C3 1632   4.257   4.249   0.056  0.3979  0.3311 -0.4485
  105TMC2    C4 1633   4.490   4.245  17.678  0.2498  0.2093  0.5107
  105TMC2    C5 1634   4.470   4.331   0.022 -0.2461  0.3552  0.3551
  105TMC2    C6 1635   4.346   4.345   0.089 -0.2856  0.7171  1.2342
  105TMC2     C 1636   4.402   4.055  17.538 -0.0204 -0.4689 -0.3516
  105TMC2     O 1637   4.316   3.971  17.538  0.0086  0.0124  0.6760
  105TMC2     H 1638   4.201   4.080  17.688 -0.1559  0.1806 -2.3136
  105TMC2    H1 1639   4.588   4.232  17.634 -0.5240  0.8015 -1.4119
  105TMC2    H2 1640   4.325   4.408   0.175 -0.1004  2.1187  0.2501
  105TMC2    C7 1641   4.582   4.399   0.075  0.3266  0.6674  0.0063
  105TMC2    C8 1642   4.151   4.228   0.157 -0.5480 -0.0997  0.4395
  105TMC2    O1 1643   4.693   4.351   0.053  0.1351 -0.4472 -0.3485
  105TMC2    O2 1644   4.157   4.251   0.276  0.6061  0.3618  0.2373
  105TMC2    O5 1645   4.034   4.223   0.093  0.1194 -0.3641  0.3132
  105TMC2    H5 1646   4.047   4.233  17.751  1.8029  0.2387  0.5980
  106MPD2     C 1647   4.580   3.914  17.076 -0.9522  0.1842 -0.2933
  106MPD2    C1 1648   4.609   4.045  17.097  0.2030  0.1756 -0.4393
  106MPD2    C2 1649   4.570   4.101  17.217 -0.3693 -0.4420  0.0976
  106MPD2    C3 1650   4.509   4.027  17.318 -0.1561  0.1332 -0.2631
  106MPD2    C4 1651   4.474   3.898  17.297 -0.7346  0.4288 -0.2091
  106MPD2    C5 1652   4.503   3.850  17.167  0.0052  0.3008 -0.7162
  106MPD2     H 1653   4.595   4.204  17.234 -0.4429 -0.7326  1.9799
  106MPD2    H1 1654   4.423   3.844  17.377 -0.6915  1.6578  0.6418
  106MPD2    H2 1655   4.601   3.872  16.978  1.4233 -1.9673  1.1411
  106MPD2    H3 1656   4.493   3.744  17.150  1.5767 -0.1877  1.3976
  106MPD2     N 1657   4.486   4.097  17.438  0.3694  0.7680  0.3033
  106MPD2    H5 1658   4.509   4.196  17.435  1.9357  0.3954 -0.3248
  106MPD2    N1 1659   4.686   4.140  17.018  0.2825 -0.3748 -0.3655
  106MPD2    H7 1660   4.673   4.238  17.038 -0.3447 -0.2434 -1.4423
  107TMC2    C1 1661   4.637   4.269  12.056 -0.2251  0.6909 -0.2437
  107TMC2    C2 1662   4.683   4.315  12.174  0.3053 -0.8486 -0.7088
  107TMC2    C3 1663   0.034   4.416  12.163 -0.7038  0.0063 -0.3766
  107TMC2    C4 1664   4.676   4.311  11.932 -0.2521  0.3479 -0.2017
  107TMC2    C5 1665   0.039   4.408  11.927 -0.7680  0.2806  0.0396
  107TMC2    C6 1666   0.094   4.453  12.039  0.2229 -0.5144 -0.1235
  107TMC2     C 1667   4.556   4.145  12.074 -0.5720 -0.2681 -0.7351
  107TMC2     O 1668   4.587   4.059  12.158 -0.5811  0.1255  0.2223
  107TMC2     H 1669   4.643   4.287  12.271  0.4312  0.9205 -0.1526
  107TMC2    H1 1670   4.632   4.274  11.841 -1.3754  0.2424  0.3868
  107TMC2    H2 1671   0.163   4.536  12.038  2.3393 -2.2594  1.1687
  107TMC2    C7 1672   0.122   4.404  11.806 -0.2405 -0.4147 -0.7212
  107TMC2    C8 1673   0.129   4.431  12.269  0.1240  0.6591  0.2764
  107TMC2    O1 1674   0.199   4.501  11.797 -0.0594 -0.3465  0.3131
  107TMC2    O2 1675   0.249   4.444  12.258  0.6572 -0.2200 -0.2487
  107TMC2    O5 1676   0.046   4.453  12.376 -0.2645  0.1530 -0.5266
  107TMC2    H5 1677   4.692   4.454  12.348 -0.3225 -0.8623 -0.3850
  108MPD2     C 1678   4.248   4.109  11.884  0.6859  1.2213 -0.1985
  108MPD2    C1 1679   4.347   4.053  11.961  0.0969 -0.9752 -0.4289
  108MPD2    C2 1680   4.347   3.919  11.999 -0.6060 -0.2400  0.1362
  108MPD2    C3 1681   4.252   3.838  11.945  0.0841  0.1053 -0.1430
  108MPD2    C4 1682   4.145   3.891  11.874 -0.8752  0.0562 -0.1293
  108MPD2    C5 1683   4.147   4.030  11.850  0.6370  0.5415  0.1233
  108MPD2     H 1684   4.428   3.888  12.065 -1.1579 -3.5900 -0.7924
  108MPD2    H1 1685   4.060   3.836  11.836  0.4591 -2.8249  1.0436
  108MPD2    H2 1686   4.247   4.214  11.856 -0.3830  1.2139 -0.1756
  108MPD2    H3 1687   4.067   4.066  11.786  0.3354  1.0681  0.7939
  108MPD2     N 1688   4.252   3.698  11.971 -0.1256  0.0090 -0.4447
  108MPD2    H5 1689   4.162   3.649  11.969 -0.8715  1.3145  1.4947
  108MPD2    N1 1690   4.447   4.151  11.992 -0.6611  0.6932 -0.1579
  108MPD2    H7 1691   4.429   4.241  11.950  0.5094  0.5814 -0.8954
  109TMC2    C1 1692   0.858   1.835   1.617  0.7337 -0.1614 -0.1931
  109TMC2    C2 1693   0.887   1.702   1.645 -0.1498 -0.2571  0.1979
  109TMC2    C3 1694   1.019   1.670   1.613 -0.7639  0.0287  0.3591
  109TMC2    C4 1695   0.943   1.916   1.549  0.0967  0.4432 -0.0429
  109TMC2    C5 1696   1.053   1.865   1.504  0.0043 -0.3118  0.5371
  109TMC2    C6 1697   1.099   1.742   1.533  0.5076  0.1949  0.0479
  109TMC2     C 1698   0.718   1.872   1.611  0.1914  0.1267 -1.1423
  109TMC2     O 1699   0.686   1.988   1.594  0.5619 -0.2478  0.2914
  109TMC2     H 1700   0.822   1.634   1.698  0.6487 -1.6005 -0.5435
  109TMC2    H1 1701   0.895   2.004   1.509 -2.8215 -2.5638 -3.1835
  109TMC2    H2 1702   1.201   1.713   1.513  0.4567  0.6022 -0.8500
  109TMC2    C7 1703   1.149   1.948   1.424  0.1992 -0.4142 -0.3107
  109TMC2    C8 1704   1.069   1.545   1.654 -0.0975  0.0360 -0.5736
  109TMC2    O1 1705   1.203   1.882   1.337 -0.2175  0.8272  0.2632
  109TMC2    O2 1706   1.002   1.446   1.673 -0.3292  0.2734 -0.3516
  109TMC2    O5 1707   1.164   1.581   1.736 -0.4109 -0.0205 -0.1168
  109TMC2    H5 1708   1.196   1.673   1.735  0.6165 -0.3673  1.5638
  110MPD2     C 1709   0.223   1.816   1.512  1.0421 -1.0076 -0.4601
  110MPD2    C1 1710   0.291   1.702   1.468  0.1056  0.8430 -0.5527
  110MPD2    C2 1711   0.426   1.683   1.501 -0.5645  0.2290  0.5736
  110MPD2    C3 1712   0.485   1.775   1.585  0.8444 -0.4179  0.2274
  110MPD2    C4 1713   0.412   1.878   1.637 -0.5323  0.6037 -0.6784
  110MPD2    C5 1714   0.287   1.908   1.594  0.3445 -0.1217 -0.3371
  110MPD2     H 1715   0.485   1.610   1.447 -0.3988  1.3426 -0.7527
  110MPD2    H1 1716   0.463   1.949   1.700  0.1352 -0.7747  0.3351
  110MPD2    H2 1717   0.121   1.843   1.486  0.7606 -1.8044 -0.1581
  110MPD2    H3 1718   0.230   1.991   1.633 -1.1550 -1.6891  0.8043
  110MPD2     N 1719   0.629   1.766   1.602 -0.1403 -0.2408 -0.3061
  110MPD2    H5 1720   0.659   1.672   1.578  0.4523  0.2872 -1.5950
  110MPD2    N1 1721   0.216   1.619   1.383  0.2748  0.3022  0.0071
  110MPD2    H7 1722   0.130   1.653   1.341 -0.0342 -1.6898 -0.9727
  111TMC2    C1 1723   0.162   0.897  11.710 -1.0366 -0.6575 -0.5930
  111TMC2    C2 1724   0.128   0.904  11.840 -0.6024  0.6052 -0.6203
  111TMC2    C3 1725   0.233   0.886  11.922 -0.2096 -0.1792  0.5780
  111TMC2    C4 1726   0.287   0.854  11.665  0.4134  0.2566  0.0324
  111TMC2    C5 1727   0.389   0.830  11.749  0.1625 -0.0399 -0.1091
  111TMC2    C6 1728   0.361   0.848  11.884  0.2205 -0.0585 -1.0074
  111TMC2     C 1729   0.086   0.973  11.615  0.3344 -0.3956 -0.3875
  111TMC2     O 1730   0.137   0.972  11.505  0.0953 -0.4680  0.1372
  111TMC2     H 1731   0.028   0.918  11.879 -0.5910  0.1921 -0.4451
  111TMC2    H1 1732   0.309   0.844  11.559  0.8749 -0.7355  0.2164
  111TMC2    H2 1733   0.437   0.829  11.958 -1.9665  3.5598  2.2098
  111TMC2    C7 1734   0.519   0.864  11.696 -0.6485 -0.2316  0.0079
  111TMC2    C8 1735   0.197   0.899  12.061  0.4975 -0.3410 -0.1387
  111TMC2    O1 1736   0.531   0.913  11.584 -0.0869 -0.1463 -0.2952
  111TMC2    O2 1737   0.101   0.962  12.094  0.0064 -0.3956 -0.2003
  111TMC2    O5 1738   0.230   0.781  12.109 -0.0647 -0.2076  0.0124
  111TMC2    H5 1739   0.287   0.728  12.049 -2.0768 -1.4804 -0.7476
  112MPD2     C 1740   4.552   1.377  11.461  0.6445 -0.4084 -0.5868
  112MPD2    C1 1741   4.618   1.279  11.387  0.1881  0.5046  0.0712
  112MPD2    C2 1742   4.668   1.167  11.447  0.6088 -0.6392  0.3122
  112MPD2    C3 1743   4.659   1.162  11.587 -0.0122  0.0343 -0.4557
  112MPD2    C4 1744   4.589   1.259  11.658 -0.4030  0.3730  0.3044
  112MPD2    C5 1745   4.537   1.364  11.597  0.1719  0.2295  0.5440
  112MPD2     H 1746   4.707   1.083  11.391 -3.2999 -1.2445 -1.5172
  112MPD2    H1 1747   4.579   1.251  11.766 -1.3126  0.1268  0.2022
  112MPD2    H2 1748   4.508   1.466  11.417  1.0276  0.7414  1.3398
  112MPD2    H3 1749   4.485   1.442  11.651 -0.7762  1.6243 -2.3695
  112MPD2     N 1750   4.728   1.055  11.661 -0.0590  0.0031  0.1731
  112MPD2    H5 1751   4.705   1.049  11.760  1.0217 -0.0783  0.4149
  112MPD2    N1 1752   4.624   1.278  11.245  0.3870 -0.2442  0.1582
  112MPD2    H7 1753   4.668   1.200  11.197 -0.9849  1.2701 -3.6462
  113TMC2    C1 1754   3.748   4.246   0.564  0.7157  0.4913  0.0708
  113TMC2    C2 1755   3.686   4.364   0.550  0.2168  0.1714 -0.0925
  113TMC2    C3 1756   3.557   4.363   0.521  0.3091  0.2076  0.4770
  113TMC2    C4 1757   3.677   4.131   0.564  0.1918 -0.2178  0.2300
  113TMC2    C5 1758   3.552   4.137   0.516 -0.6185 -0.3470 -0.4784
  113TMC2    C6 1759   3.487   4.253   0.486 -0.0201  0.9406 -0.1532
  113TMC2     C 1760   3.859   4.252   0.661 -0.6711 -0.3702  0.7954
  113TMC2     O 1761   3.857   4.356   0.729  0.6268 -0.9103 -0.3184
  113TMC2     H 1762   3.730   4.456   0.586 -2.7149  1.9089 -0.9715
  113TMC2    H1 1763   3.725   4.038   0.591  0.5312  0.4534  1.9909
  113TMC2    H2 1764   3.382   4.256   0.460 -0.3401 -1.2382  0.8459
  113TMC2    C7 1765   3.483   4.010   0.488  0.0666 -0.1753  0.0116
  113TMC2    C8 1766   3.476   4.467   0.577  0.1752  0.3617 -0.3395
  113TMC2    O1 1767   3.411   4.006   0.392 -0.1851 -0.1996  0.3526
  113TMC2    O2 1768   3.515   4.519   0.681  0.7158 -0.1034 -0.2615
  113TMC2    O5 1769   3.418   4.533   0.480 -0.3685  0.3106 -0.2647
  113TMC2    H5 1770   3.419   4.492   0.391  3.7513 -0.7426  0.2769
  114MPD2     C 1771   4.342   4.113   0.809  0.3327 -0.3609 -0.5038
  114MPD2    C1 1772   4.258   4.214   0.851 -0.3848 -0.6542 -0.9471
  114MPD2    C2 1773   4.136   4.229   0.793  0.3572 -0.0524 -0.8423
  114MPD2    C3 1774   4.084   4.149   0.690 -0.3099 -0.2581 -0.5293
  114MPD2    C4 1775   4.170   4.051   0.645  0.4839 -0.1194  0.1012
  114MPD2    C5 1776   4.295   4.036   0.705 -0.3661  0.3448 -0.1104
  114MPD2     H 1777   4.075   4.307   0.838 -0.5684 -2.1328  1.4788
  114MPD2    H1 1778   4.139   3.985   0.565  0.6190 -1.1704  0.9207
  114MPD2    H2 1779   4.439   4.087   0.849  0.4975 -1.5696 -1.6880
  114MPD2    H3 1780   4.353   3.949   0.675 -0.0427 -0.3402  2.5394
  114MPD2     N 1781   3.958   4.156   0.624  0.0913 -0.4429  0.4579
  114MPD2    H5 1782   3.927   4.089   0.555  1.8191 -0.2191 -0.5412
  114MPD2    N1 1783   4.302   4.318   0.937  0.2361  0.4831  0.5955
  114MPD2    H7 1784   4.239   4.395   0.959  2.0127  2.1708 -0.1751
  115TMC2    C1 1785   4.354   1.266   0.140 -0.2447 -0.0542  0.4272
  115TMC2    C2 1786   4.487   1.244   0.152 -0.4408  0.0743 -0.4452
  115TMC2    C3 1787   4.576   1.347   0.151  0.2147  0.2151 -0.4121
  115TMC2    C4 1788   4.307   1.395   0.112 -0.7437  0.5946 -0.0245
  115TMC2    C5 1789   4.400   1.491   0.108 -0.3292  0.1256 -1.0330
  115TMC2    C6 1790   4.533   1.475   0.130 -0.1984 -0.9577 -0.4521
  115TMC2     C 1791   4.264   1.150   0.135 -0.3199 -0.3812 -0.1397
  115TMC2     O 1792   4.322   1.047   0.101  0.2968  0.4554 -0.5527
  115TMC2     H 1793   4.527   1.149   0.186  0.1785  0.0767 -1.1736
  115TMC2    H1 1794   4.207   1.411   0.075 -1.0190  1.7451  1.2086
  115TMC2    H2 1795   4.594   1.564   0.125  1.3538 -2.0141 -0.3511
  115TMC2    C7 1796   4.342   1.618   0.064  0.4426  0.1006 -0.4203
  115TMC2    C8 1797   4.714   1.311   0.177  1.0079 -0.0081  0.5474
  115TMC2    O1 1798   4.219   1.631   0.078  0.1167 -0.6852 -0.0193
  115TMC2    O2 1799   0.012   1.204   0.230  0.1155 -0.3663 -0.2694
  115TMC2    O5 1800   0.049   1.402   0.110  1.0014 -0.0176  0.0966
  115TMC2    H5 1801   4.728   1.464   0.063  2.8177 -1.3283 -3.9398
  116MPD2     C 1802   3.809   0.942   0.001  0.1115  0.2385  0.5275
  116MPD2    C1 1803   3.938   0.898  17.743  0.1109 -0.2396  0.6011
  116MPD2    C2 1804   4.047   0.968   0.040  0.1321 -0.1171  0.0354
  116MPD2    C3 1805   4.028   1.092   0.094 -0.5298 -0.3446 -0.9446
  116MPD2    C4 1806   3.896   1.145   0.101 -0.3811 -0.8559  0.1946
  116MPD2    C5 1807   3.792   1.065   0.060  0.2673  0.4891 -0.0679
  116MPD2     H 1808   4.143   0.920   0.029  0.0277 -0.2147 -0.4604
  116MPD2    H1 1809   3.870   1.247   0.124 -0.2550 -0.6887 -0.3863
  116MPD2    H2 1810   3.722   0.891  17.717  0.8291  0.2869 -1.1622
  116MPD2    H3 1811   3.693   1.109   0.057 -0.6915 -1.6039  1.0939
  116MPD2     N 1812   4.133   1.177   0.140  0.2443  0.1345 -0.1041
  116MPD2    H5 1813   4.103   1.266   0.179  0.7314  0.2519 -0.0018
  116MPD2    N1 1814   3.948   0.767  17.689 -0.3308  0.8867  0.0694
  116MPD2    H7 1815   3.869   0.711  17.661  1.7140 -0.5043 -2.9574
  117TMC2    C1 1816   2.673   2.841  13.693 -0.1792  0.0758 -0.0268
  117TMC2    C2 1817   2.783   2.757  13.682  0.0881  0.6342 -0.2424
  117TMC2    C3 1818   2.873   2.758  13.778  0.0621  0.4729  0.4513
  117TMC2    C4 1819   2.648   2.926  13.799  0.1894  0.1354 -0.5192
  117TMC2    C5 1820   2.749   2.933  13.893 -0.6694  0.0734  0.0837
  117TMC2    C6 1821   2.856   2.843  13.888  0.4973 -0.0523 -0.1156
  117TMC2     C 1822   2.575   2.825  13.584  0.3032  0.5990 -0.1009
  117TMC2     O 1823   2.598   2.736  13.501  0.0798 -0.0327 -0.5673
  117TMC2     H 1824   2.806   2.713  13.586  1.5726 -0.5891  0.6616
  117TMC2    H1 1825   2.574   3.005  13.790  0.4889  0.6620  1.6305
  117TMC2    H2 1826   2.930   2.841  13.968 -0.9745  0.8597  1.2546
  117TMC2    C7 1827   2.769   3.053  13.963 -0.0751  0.7895 -0.3859
  117TMC2    C8 1828   3.006   2.706  13.759 -0.3246 -0.3442 -0.7765
  117TMC2    O1 1829   2.887   3.077  13.992  0.6762 -0.4060  0.5586
  117TMC2    O2 1830   3.071   2.731  13.657  0.6202 -0.0691 -0.3715
  117TMC2    O5 1831   3.062   2.652  13.868  0.2287 -0.4858 -0.4105
  117TMC2    H5 1832   2.999   2.642  13.943  1.2231  2.0564  0.7619
  118MPD2     C 1833   2.525   3.300  14.076 -0.1022  0.0381  0.2402
  118MPD2    C1 1834   2.645   3.251  14.027  0.1233  0.2642  0.5939
  118MPD2    C2 1835   2.748   3.342  14.011 -0.6982 -0.2094  0.2619
  118MPD2    C3 1836   2.726   3.478  14.036 -0.7516  0.3963 -0.1403
  118MPD2    C4 1837   2.609   3.522  14.092  0.3464 -0.6145 -0.3780
  118MPD2    C5 1838   2.506   3.434  14.106  0.4109 -1.3364 -0.4437
  118MPD2     H 1839   2.848   3.309  13.985  0.9549  2.8270  2.6774
  118MPD2    H1 1840   2.599   3.626  14.120  0.1974 -0.7864  0.2148
  118MPD2    H2 1841   2.446   3.227  14.067  0.7056 -0.7402 -0.5543
  118MPD2    H3 1842   2.408   3.462  14.143  1.1700 -0.7175  1.0749
  118MPD2     N 1843   2.823   3.573  14.020 -0.3156 -0.0949  0.0750
  118MPD2    H5 1844   2.785   3.666  14.028 -1.6064 -0.5401 -0.8107
  118MPD2    N1 1845   2.653   3.116  13.986  0.0245  0.0743 -0.4042
  118MPD2    H7 1846   2.565   3.067  13.975  0.5504 -1.9316  4.2475
  119TMC2    C1 1847   1.088   4.245  13.322  1.3665  0.7621  0.3572
  119TMC2    C2 1848   1.101   4.319  13.212 -0.8583 -0.0683 -0.5836
  119TMC2    C3 1849   1.021   4.295  13.106  0.6954 -1.1589 -0.1488
  119TMC2    C4 1850   0.987   4.154  13.336 -0.0625 -0.5706  0.2345
  119TMC2    C5 1851   0.896   4.141  13.236 -0.2430  0.0322 -0.2029
  119TMC2    C6 1852   0.914   4.210  13.116 -0.5714 -0.7141  0.2556
  119TMC2     C 1853   1.169   4.275  13.436  0.4490 -0.3773  0.1548
  119TMC2     O 1854   1.122   4.246  13.543  0.4533 -0.1846  0.2651
  119TMC2     H 1855   1.171   4.401  13.205  0.3415 -0.9639  1.1020
  119TMC2    H1 1856   0.976   4.108  13.433 -2.0607  1.5419  1.0052
  119TMC2    H2 1857   0.847   4.194  13.032 -2.2579  2.6660  0.9476
  119TMC2    C7 1858   0.784   4.058  13.254 -0.2354 -0.3050 -0.4686
  119TMC2    C8 1859   1.045   4.367  12.985  0.0034  0.5010 -0.0983
  119TMC2    O1 1860   0.705   4.044  13.169 -0.2943  0.0364 -0.3979
  119TMC2    O2 1861   0.961   4.402  12.901  0.2724  0.0262  0.4082
  119TMC2    O5 1862   1.180   4.376  12.965 -0.2176  0.1916  0.1588
  119TMC2    H5 1863   1.235   4.331  13.033 -0.1662  0.6653  0.4331
  120MPD2     C 1864   1.618   4.339  13.675 -0.1044 -0.0677  0.2835
  120MPD2    C1 1865   1.488   4.322  13.725  0.5091 -0.0703  0.1304
  120MPD2    C2 1866   1.373   4.322  13.642 -0.5015 -0.0104  0.3256
  120MPD2    C3 1867   1.394   4.333  13.507 -0.2398 -0.1585  0.1423
  120MPD2    C4 1868   1.518   4.349  13.450 -0.2728  0.1262 -0.8378
  120MPD2    C5 1869   1.624   4.356  13.536 -0.1999 -0.0411  0.2783
  120MPD2     H 1870   1.280   4.302  13.693  0.3506  2.1601  2.7529
  120MPD2    H1 1871   1.534   4.346  13.343  0.2006 -3.3904 -0.6635
  120MPD2    H2 1872   1.704   4.346  13.741 -0.7590  0.4052  1.0986
  120MPD2    H3 1873   1.722   4.340  13.491 -0.7608  3.6172 -2.3437
  120MPD2     N 1874   1.288   4.323  13.410  0.1191 -0.4289  0.2642
  120MPD2    H5 1875   1.328   4.332  13.317 -1.7298  1.4283 -0.3325
  120MPD2    N1 1876   1.491   4.293  13.865 -0.5235  1.0845 -0.4855
  120MPD2    H7 1877   1.566   4.333  13.921  0.3971 -0.6663 -0.4572
  121TMC2    C1 1878   2.516   1.140  14.139  0.4704 -0.9172  0.3422
  121TMC2    C2 1879   2.462   1.089  14.259  0.4307 -0.5794  0.2295
  121TMC2    C3 1880   2.339   1.033  14.254  0.2136  0.1511 -0.7669
  121TMC2    C4 1881   2.441   1.142  14.027  0.1460  0.0617 -0.4888
  121TMC2    C5 1882   2.313   1.084  14.027  0.3290 -0.0449 -0.1271
  121TMC2    C6 1883   2.266   1.024  14.136  0.0980  0.0829 -0.5591
  121TMC2     C 1884   2.631   1.225  14.158 -0.5933 -0.7469  0.8339
  121TMC2     O 1885   2.688   1.221  14.265  0.4955 -0.7353 -0.0599
  121TMC2     H 1886   2.507   1.092  14.358 -1.8840  0.8638  1.2320
  121TMC2    H1 1887   2.486   1.181  13.936 -1.3886 -0.0536 -1.2829
  121TMC2    H2 1888   2.169   0.977  14.126 -1.0169  2.0624  0.8900
  121TMC2    C7 1889   2.236   1.111  13.907 -0.8679 -0.3635 -0.0765
  121TMC2    C8 1890   2.308   0.951  14.368  0.3580 -0.2300 -0.0392
  121TMC2    O1 1891   2.285   1.180  13.818 -0.9262  0.3978  0.1861
  121TMC2    O2 1892   2.323   0.979  14.485  0.2255  0.3585  0.0107
  121TMC2    O5 1893   2.279   0.832  14.319  0.5104  0.2346  0.3609
  121TMC2    H5 1894   2.315   0.815  14.229  0.2342  1.4870  0.0150
  122MPD2     C 1895   2.845   1.429  14.137  0.3706  0.2612 -0.1319
  122MPD2    C1 1896   2.757   1.392  14.033 -0.1703  0.2507 -0.0597
  122MPD2    C2 1897   2.764   1.461  13.911  0.0514 -0.1160 -0.8942
  122MPD2    C3 1898   2.854   1.567  13.898 -0.1724 -1.0001  0.3786
  122MPD2    C4 1899   2.941   1.592  14.004  0.3820  0.0156  0.0832
  122MPD2    C5 1900   2.933   1.536  14.123 -0.7889 -0.1593  0.2672
  122MPD2     H 1901   2.693   1.438  13.832 -1.8130  1.4936  0.2979
  122MPD2    H1 1902   3.011   1.674  13.995  0.0368  0.3422  0.3559
  122MPD2    H2 1903   2.848   1.383  14.235 -0.3956  3.0947  1.2324
  122MPD2    H3 1904   2.990   1.579  14.205  0.3698 -0.2141 -0.5010
  122MPD2     N 1905   2.864   1.648  13.777  0.2926  0.2676 -0.0751
  122MPD2    H5 1906   2.939   1.716  13.781 -0.3729  0.8986  1.8084
  122MPD2    N1 1907   2.657   1.292  14.038 -0.7078 -0.5372 -0.2257
  122MPD2    H7 1908   2.611   1.267  13.951  1.3847 -0.3051 -1.3965
  123TMC2    C1 1909   0.263   4.641  10.670  0.5892 -0.2333 -0.4938
  123TMC2    C2 1910   0.307   0.028  10.708 -0.2149 -0.1665 -1.1017
  123TMC2    C3 1911   0.365   0.100  10.604  0.8452  0.2450  0.0587
  123TMC2    C4 1912   0.281   4.590  10.548  0.4655  0.1973 -0.6809
  123TMC2    C5 1913   0.345   4.656  10.451  0.2637  0.5507  0.0576
  123TMC2    C6 1914   0.373   0.047  10.479  0.0392  0.1484  0.1642
  123TMC2     C 1915   0.229   4.553  10.775  0.2333  0.1631  0.5986
  123TMC2     O 1916   0.294   4.563  10.880  0.0268 -0.0972  0.0440
  123TMC2     H 1917   0.288   0.075  10.804 -0.3985  2.1409 -2.2639
  123TMC2    H1 1918   0.262   4.485  10.528  0.1849 -0.2267  1.8673
  123TMC2    H2 1919   0.413   0.116  10.405  2.8210 -0.3980  1.1392
  123TMC2    C7 1920   0.284   4.635  10.318 -0.1443  0.0391 -0.3963
  123TMC2    C8 1921   0.315   0.237  10.608  0.4666  0.3762 -0.5845
  123TMC2    O1 1922   0.164   4.608  10.309 -0.2156 -0.1385  0.3331
  123TMC2    O2 1923   0.361   0.331  10.668 -0.1956 -0.3169 -0.2809
  123TMC2    O5 1924   0.225   0.244  10.506  0.1669 -0.1792 -0.2312
  123TMC2    H5 1925   0.176   0.159  10.506  0.5555 -0.4009  0.5390
  124MPD2     C 1926   0.003   4.124  10.955 -0.2540 -0.2554  0.7695
  124MPD2    C1 1927   4.716   4.141  10.828  0.4335  0.0813 -0.3440
  124MPD2    C2 1928   0.024   4.254  10.757  0.0400  0.4362  0.1572
  124MPD2    C3 1929   0.110   4.340  10.820  0.0386 -0.2766 -1.0128
  124MPD2    C4 1930   0.139   4.320  10.954  0.3958 -0.6141  0.1230
  124MPD2    C5 1931   0.087   4.214  11.018  0.7591  0.0164 -0.2366
  124MPD2     H 1932   0.002   4.273  10.653 -0.0142  0.8248  0.2382
  124MPD2    H1 1933   0.193   4.395  11.010 -0.2914  2.0436 -2.8016
  124MPD2    H2 1934   4.693   4.044  11.008 -3.2325 -0.0973 -1.7712
  124MPD2    H3 1935   0.106   4.202  11.124 -1.8583 -1.1420  0.1052
  124MPD2     N 1936   0.143   4.450  10.745 -0.2409  0.1644 -0.2832
  124MPD2    H5 1937   0.105   4.450  10.651 -0.7192 -1.3940 -0.0830
  124MPD2    N1 1938   4.622   4.050  10.785  0.0716 -0.1614 -0.1846
  124MPD2    H7 1939   4.607   3.965  10.839  0.6588  0.4247  0.9200
  125TMC2    C1 1940   1.711   1.062   9.614 -0.0892 -0.3795  0.0496
  125TMC2    C2 1941   1.746   0.975   9.518 -0.3577 -0.0323 -0.4443
  125TMC2    C3 1942   1.809   1.035   9.412  0.0072 -0.4651 -0.3461
  125TMC2    C4 1943   1.739   1.196   9.604 -0.5979  0.2318  0.0868
  125TMC2    C5 1944   1.809   1.245   9.495 -0.2356 -0.2515  0.4192
  125TMC2    C6 1945   1.851   1.162   9.397 -0.0857  0.4584 -0.6091
  125TMC2     C 1946   1.610   1.011   9.704  0.0433 -0.0169 -0.6761
  125TMC2     O 1947   1.611   0.891   9.723 -0.4476  0.0077  0.2807
  125TMC2     H 1948   1.727   0.869   9.527 -0.6582  0.0195 -0.4967
  125TMC2    H1 1949   1.732   1.263   9.689  2.5622  0.2641  0.3366
  125TMC2    H2 1950   1.906   1.196   9.310  1.1306  1.7859  0.6862
  125TMC2    C7 1951   1.871   1.372   9.525 -0.5178  0.7529 -0.4882
  125TMC2    C8 1952   1.862   0.947   9.311  0.2945  0.4551 -0.6644
  125TMC2    O1 1953   1.816   1.446   9.608 -0.3395  0.7072 -0.0577
  125TMC2    O2 1954   1.883   0.980   9.195 -0.2435  0.0738  0.1313
  125TMC2    O5 1955   1.918   0.836   9.369  0.1226  0.7513 -0.7909
  125TMC2    H5 1956   1.902   0.832   9.466  0.9709 -1.2600 -0.7272
  126MPD1     C 1957   1.310   1.089  10.108 -0.0585  0.3817 -0.4007
  126MPD1    C1 1958   1.276   1.192  10.023 -0.2611  0.1277  0.2122
  126MPD1    C2 1959   1.341   1.186   9.901 -0.2559 -0.1036  0.9531
  126MPD1    C3 1960   1.445   1.096   9.874 -0.2289  1.0173  0.4440
  126MPD1    C4 1961   1.476   0.991   9.966 -0.1475 -0.0770 -0.3948
  126MPD1    C5 1962   1.408   0.992  10.083 -0.2292 -0.5253 -0.0303
  126MPD1     H 1963   1.315   1.247   9.815  1.6555  1.5842  1.5652
  126MPD1    H1 1964   1.558   0.924   9.946 -0.0611 -0.2673  0.6004
  126MPD1    H2 1965   1.256   1.074  10.201  1.2465 -0.4604  0.2237
  126MPD1    H3 1966   1.432   0.924  10.164  0.2958  0.0623  0.3035
  126MPD1     N 1967   1.530   1.109   9.761  0.6820  1.1259  0.3795
  126MPD1    H5 1968   1.527   1.206   9.729  1.1450  1.3550  1.0315
  126MPD1    N1 1969   1.158   1.261  10.051 -0.0962  0.3632  0.0847
  126MPD1    H6 1970   1.153   1.350  10.001 -0.2288  0.5135  0.3629
  126MPD1    H7 1971   1.149   1.289  10.149 -0.4065 -0.6471  0.3434
  127TMC2    C1 1972   2.619   4.574   9.669  0.5324 -0.4688  0.7504
  127TMC2    C2 1973   2.649   4.522   9.791  0.0618  0.0149 -0.5397
  127TMC2    C3 1974   2.559   4.465   9.875 -0.2491  1.1759  0.7161
  127TMC2    C4 1975   2.494   4.550   9.613 -0.5056 -0.2070 -0.4449
  127TMC2    C5 1976   2.405   4.486   9.695  0.3333  1.4479  0.0835
  127TMC2    C6 1977   2.431   4.442   9.823 -0.3607 -0.1010  0.1447
  127TMC2     C 1978   2.691   4.688   9.620  0.5078 -0.2116  1.2461
  127TMC2     O 1979   2.781   4.732   9.694  1.0445  0.1186  0.2275
  127TMC2     H 1980   2.754   4.526   9.816  0.4959  0.1882 -2.3497
  127TMC2    H1 1981   2.462   4.574   9.512 -1.6851 -0.4005 -0.1273
  127TMC2    H2 1982   2.363   4.390   9.890  1.2544 -0.1277  1.7808
  127TMC2    C7 1983   2.267   4.515   9.668 -0.9160 -0.3288  0.2139
  127TMC2    C8 1984   2.599   4.367   9.964  0.2379 -0.0142  0.2039
  127TMC2    O1 1985   2.239   4.556   9.554  0.0978  0.0894  0.2134
  127TMC2    O2 1986   2.577   4.251   9.950  0.1211 -0.0641  0.2596
  127TMC2    O5 1987   2.705   4.417  10.032 -0.0054 -0.2409  0.1251
  127TMC2    H5 1988   2.726   4.512  10.046 -2.4662 -0.0275  2.2981
  128MPD2     C 1989   2.613   0.172   9.338  0.1693  0.4587  0.1060
  128MPD2    C1 1990   2.654   0.133   9.465  0.7349 -0.4190  0.0394
  128MPD2    C2 1991   2.702   0.233   9.551  1.3629 -0.0633 -0.2209
  128MPD2    C3 1992   2.711   0.365   9.508 -0.2838 -0.2418  0.0323
  128MPD2    C4 1993   2.674   0.400   9.379 -0.3307 -0.2957  0.3239
  128MPD2    C5 1994   2.628   0.301   9.294  0.4267 -0.7307  0.5148
  128MPD2     H 1995   2.725   0.210   9.655  0.3758  0.2989  0.0789
  128MPD2    H1 1996   2.685   0.501   9.343  0.9603 -0.0999  1.2555
  128MPD2    H2 1997   2.569   0.096   9.274  0.4167 -0.8992  1.5400
  128MPD2    H3 1998   2.604   0.318   9.189 -1.0343 -0.4428  0.8935
  128MPD2     N 1999   2.778   0.451   9.594 -0.2067  0.9436  0.0776
  128MPD2    H5 2000   2.805   0.405   9.680 -0.1585  1.0850  0.1383
  128MPD2    N1 2001   2.644   4.739   9.503 -0.4836 -0.5109 -0.5686
  128MPD2    H7 2002   2.598   4.670   9.444 -0.9415  0.5183 -1.4133
  129TMC2    C1 2003   1.759   0.751   1.789 -0.2761 -0.5142  0.4030
  129TMC2    C2 2004   1.683   0.862   1.823 -0.8579  0.1049 -0.2079
  129TMC2    C3 2005   1.544   0.850   1.803 -0.5946  0.0700  0.3205
  129TMC2    C4 2006   1.710   0.630   1.747 -0.1067  0.2628 -0.1053
  129TMC2    C5 2007   1.572   0.621   1.758 -0.7103  0.3057  0.3235
  129TMC2    C6 2008   1.490   0.730   1.784 -0.2484  0.1458 -0.4088
  129TMC2     C 2009   1.899   0.781   1.765  0.2032  0.2347 -0.2057
  129TMC2     O 2010   1.968   0.679   1.746 -0.2607 -0.0079 -0.1984
  129TMC2     H 2011   1.735   0.937   1.882  1.1375 -2.2031  0.9774
  129TMC2    H1 2012   1.772   0.543   1.728  0.9224  0.9920 -0.0710
  129TMC2    H2 2013   1.384   0.705   1.780 -0.2187 -0.1738  0.9644
  129TMC2    C7 2014   1.508   0.508   1.697 -0.0889  0.0889  0.4937
  129TMC2    C8 2015   1.454   0.950   1.857 -0.4007  0.4879  0.6420
  129TMC2    O1 2016   1.416   0.529   1.617  0.5011  0.3315 -0.3182
  129TMC2    O2 2017   1.347   0.916   1.914  0.3721 -0.4797  0.0431
  129TMC2    O5 2018   1.527   1.057   1.884 -0.4590  0.1390 -0.2199
  129TMC2    H5 2019   1.587   1.074   1.809  0.3481 -1.5542  0.0356
  130MPD2     C 2020   2.154   0.882   1.665 -0.2482 -0.2681 -0.3159
  130MPD2    C1 2021   2.042   0.962   1.688  0.0996  0.2482  1.0403
  130MPD2    C2 2022   2.064   1.101   1.676 -0.1049 -0.8704 -0.4642
  130MPD2    C3 2023   2.177   1.157   1.618 -0.0653  1.0306 -0.4445
  130MPD2    C4 2024   2.281   1.082   1.594 -0.3300  0.5308 -0.5968
  130MPD2    C5 2025   2.269   0.951   1.623  0.1135  0.1449 -0.1565
  130MPD2     H 2026   1.982   1.171   1.688  2.4492  2.2777 -1.2879
  130MPD2    H1 2027   2.380   1.104   1.556  0.3512 -1.8201 -0.2173
  130MPD2    H2 2028   2.163   0.775   1.674 -2.1581 -0.1607  2.9549
  130MPD2    H3 2029   2.356   0.887   1.619 -0.5442 -0.7220 -0.6819
  130MPD2     N 2030   2.161   1.289   1.586  0.4362 -0.3401 -0.0417
  130MPD2    H5 2031   2.081   1.331   1.632 -0.1218 -0.7968 -0.6185
  130MPD2    N1 2032   1.921   0.915   1.740 -0.6726  0.6218  0.2336
  130MPD2    H7 2033   1.844   0.980   1.751 -0.1767  1.2584 -0.0645
  131TMC2    C1 2034   4.638   4.687  10.117  0.2384 -0.0149  0.2731
  131TMC2    C2 2035   4.612   0.047  10.203 -0.1594 -0.5646 -0.5709
  131TMC2    C3 2036   4.690   0.162  10.195  0.2781 -0.4601  0.2276
  131TMC2    C4 2037   4.727   4.696  10.012  0.1280  0.3326  0.4005
  131TMC2    C5 2038   0.061   0.073  10.000  0.5357  0.0520 -0.1958
  131TMC2    C6 2039   0.041   0.176  10.093  0.2068  0.0988  0.1682
  131TMC2     C 2040   4.581   4.557  10.150  0.3979  0.2147 -0.3948
  131TMC2     O 2041   4.559   4.532  10.269  0.0936  0.5311 -0.1795
  131TMC2     H 2042   4.543   0.035  10.285  2.7879 -0.6143  1.9197
  131TMC2    H1 2043   0.010   4.609   9.951 -1.6106 -0.5624  1.0341
  131TMC2    H2 2044   0.093   0.270  10.078 -2.3219  1.6144  0.8906
  131TMC2    C7 2045   0.151   0.078   9.884 -0.0804 -0.1446 -0.3967
  131TMC2    C8 2046   4.678   0.273  10.282 -0.1490  0.4550  0.6547
  131TMC2    O1 2047   0.125   0.009   9.788  0.2327 -0.1305  0.1528
  131TMC2    O2 2048   0.025   0.367  10.281 -0.1790  0.9634  0.5549
  131TMC2    O5 2049   4.546   0.294  10.283  0.0903 -0.5542 -0.4708
  131TMC2    H5 2050   4.493   0.220  10.320  0.8286 -0.7943  0.1105
  132MPD2     C 2051   4.435   4.306   9.917 -0.8384 -0.3615 -0.0378
  132MPD2    C1 2052   4.492   4.354  10.035  0.2579 -0.0765  0.7614
  132MPD2    C2 2053   4.486   4.273  10.148 -0.4757  0.2769 -1.2901
  132MPD2    C3 2054   4.415   4.156  10.142 -0.0463 -1.0299 -0.4817
  132MPD2    C4 2055   4.340   4.119  10.032 -0.2723  0.0185  0.2426
  132MPD2    C5 2056   4.359   4.193   9.922  0.3907  0.7540 -0.1408
  132MPD2     H 2057   4.547   4.284  10.237 -0.1250  1.7833 -1.7121
  132MPD2    H1 2058   4.300   4.018  10.030 -2.3654  0.8822 -1.0733
  132MPD2    H2 2059   4.436   4.371   9.830 -1.1435 -1.7378 -1.0570
  132MPD2    H3 2060   4.308   4.148   9.838  1.9793 -0.8124 -0.2683
  132MPD2     N 2061   4.425   4.074  10.254 -0.4462 -0.0162  0.3365
  132MPD2    H5 2062   4.483   4.110  10.329 -3.3124  0.9899  2.1009
  132MPD2    N1 2063   4.555   4.483  10.035  0.9681  0.0055  0.0422
  132MPD2    H7 2064   4.560   4.528   9.944 -1.3471  1.5794  0.6989
  133TMC2    C1 2065   4.613   1.091   9.374  0.1465  0.0895  0.5679
  133TMC2    C2 2066   4.705   1.156   9.446  0.1332  0.1791 -0.5640
  133TMC2    C3 2067   0.093   1.110   9.439  0.0009 -0.0077 -0.0097
  133TMC2    C4 2068   4.641   0.964   9.325  0.6591 -0.3897  0.4330
  133TMC2    C5 2069   0.032   0.915   9.333 -0.3657 -0.0391 -0.3525
  133TMC2    C6 2070   0.134   0.988   9.392 -0.6131 -0.1732 -0.6380
  133TMC2     C 2071   4.469   1.127   9.389 -0.3276 -0.0538 -0.7697
  133TMC2     O 2072   4.391   1.044   9.341 -0.2307 -0.3726  0.1039
  133TMC2     H 2073   4.702   1.263   9.456  0.0494  0.0522  0.7332
  133TMC2    H1 2074   4.569   0.927   9.253 -1.2126  2.6450  0.7673
  133TMC2    H2 2075   0.236   0.953   9.402 -0.3120  1.3947  1.8488
  133TMC2    C7 2076   0.052   0.786   9.278  1.1023 -0.1859 -0.0267
  133TMC2    C8 2077   0.184   1.202   9.505  0.1197  0.4238 -0.3164
  133TMC2    O1 2078   0.163   0.761   9.237 -0.0935  0.4737 -0.0809
  133TMC2    O2 2079   0.145   1.266   9.605  0.1133 -0.0875  0.0267
  133TMC2    O5 2080   0.279   1.256   9.418  0.0525  0.4298  0.3182
  133TMC2    H5 2081   0.292   1.191   9.346 -0.0511 -0.8131  1.4194
  134MPD2     C 2082   4.280   1.414   9.521 -0.2542 -0.5432 -0.2782
  134MPD2    C1 2083   4.302   1.285   9.481  0.1121  0.9462 -0.2705
  134MPD2    C2 2084   4.193   1.196   9.491  0.3856 -0.1587  0.4670
  134MPD2    C3 2085   4.066   1.236   9.540  0.4359 -0.9052  0.9375
  134MPD2    C4 2086   4.052   1.356   9.597 -0.3386  0.2677 -0.0617
  134MPD2    C5 2087   4.162   1.446   9.585  0.4029  0.8212  0.0069
  134MPD2     H 2088   4.209   1.096   9.452 -1.5539  0.6701 -2.4748
  134MPD2    H1 2089   3.966   1.399   9.647 -1.7273  0.2036 -2.4101
  134MPD2    H2 2090   4.361   1.484   9.504 -0.1592 -0.6117 -0.1107
  134MPD2    H3 2091   4.147   1.547   9.622 -1.9083  0.9772 -1.4039
  134MPD2     N 2092   3.959   1.142   9.558  0.2712  0.0894  0.4381
  134MPD2    H5 2093   3.899   1.158   9.638  1.5665  2.0019  1.0329
  134MPD2    N1 2094   4.440   1.250   9.450 -0.3709  0.2771  0.4734
  134MPD2    H7 2095   4.505   1.326   9.465  1.2058 -0.6145 -1.7520
  135TMC2    C1 2096   1.998   2.143   9.961  0.3946 -0.4198 -0.6019
  135TMC2    C2 2097   2.006   2.159  10.097 -0.0576  0.0711  0.1859
  135TMC2    C3 2098   1.939   2.072  10.177 -0.2173  0.2979 -0.3233
  135TMC2    C4 2099   1.937   2.035   9.906  0.3049 -0.3459 -0.4578
  135TMC2    C5 2100   1.880   1.945   9.994  0.8830 -0.2342 -0.1751
  135TMC2    C6 2101   1.876   1.960  10.127  0.6589 -0.0829  0.6934
  135TMC2     C 2102   2.078   2.227   9.879 -0.3464 -0.0485 -1.3015
  135TMC2     O 2103   2.145   2.308   9.941  0.4788  0.2876 -0.1207
  135TMC2     H 2104   2.065   2.238  10.142 -2.0267  1.8256 -0.3429
  135TMC2    H1 2105   1.921   2.016   9.801  1.0647 -1.1877 -0.4111
  135TMC2    H2 2106   1.863   1.877  10.196  1.9074  0.5799  1.7303
  135TMC2    C7 2107   1.825   1.821   9.936 -0.3863 -0.1437  0.2036
  135TMC2    C8 2108   1.967   2.075  10.318 -0.1507 -0.3020  0.6731
  135TMC2    O1 2109   1.839   1.797   9.817 -0.1398  0.1459 -0.4329
  135TMC2    O2 2110   2.070   2.120  10.360  0.2980 -0.2390 -0.3629
  135TMC2    O5 2111   1.855   2.043  10.393  0.2515 -0.4893 -0.4699
  135TMC2    H5 2112   1.784   2.002  10.339 -0.1418 -0.1890 -0.1889
  136MPD2     C 2113   2.306   2.260   9.688  0.0573  0.5073 -0.3111
  136MPD2    C1 2114   2.181   2.212   9.653 -0.2501 -0.3137 -0.1727
  136MPD2    C2 2115   2.173   2.151   9.534  0.4820  0.0456  0.6471
  136MPD2    C3 2116   2.273   2.138   9.447  0.4626 -0.0745 -0.8161
  136MPD2    C4 2117   2.400   2.180   9.484 -0.0488  0.5765 -0.3690
  136MPD2    C5 2118   2.410   2.237   9.603 -0.1760  0.3678 -0.5418
  136MPD2     H 2119   2.073   2.117   9.508  0.4410  1.0961 -0.5400
  136MPD2    H1 2120   2.487   2.172   9.419  0.7251 -1.8403  0.9472
  136MPD2    H2 2121   2.316   2.309   9.784 -1.4470 -1.6694  0.9693
  136MPD2    H3 2122   2.502   2.289   9.626 -0.0078  0.5019 -1.5144
  136MPD2     N 2123   2.259   2.074   9.327 -0.1236 -0.1199  0.4383
  136MPD2    H5 2124   2.345   2.065   9.274  0.5465 -0.3002  1.5626
  136MPD2    N1 2125   2.075   2.191   9.744  0.4113 -0.0323 -0.3601
  136MPD2    H7 2126   1.999   2.133   9.710  1.5236 -0.4873 -2.0495
  137TMC2    C1 2127   1.697   0.612   9.361 -0.6225 -0.1935  0.1664
  137TMC2    C2 2128   1.755   0.612   9.234 -0.5132  0.1945 -0.1121
  137TMC2    C3 2129   1.700   0.695   9.135 -0.3852 -0.1097  0.2208
  137TMC2    C4 2130   1.571   0.669   9.383  0.5100  0.3113  0.3045
  137TMC2    C5 2131   1.522   0.749   9.284 -0.3174 -0.7841 -0.3427
  137TMC2    C6 2132   1.584   0.762   9.162  0.4320 -0.1996 -0.9154
  137TMC2     C 2133   1.754   0.528   9.468  0.5300 -0.5103  0.4670
  137TMC2     O 2134   1.704   0.544   9.576  0.1918 -0.0179  0.4245
  137TMC2     H 2135   1.837   0.547   9.204 -0.1464  1.0205 -0.9061
  137TMC2    H1 2136   1.533   0.672   9.485  0.5507 -2.6527  0.4152
  137TMC2    H2 2137   1.541   0.827   9.087 -1.4014 -1.1615 -0.7088
  137TMC2    C7 2138   1.472   0.881   9.325  0.5036  0.0880  0.7031
  137TMC2    C8 2139   1.750   0.691   8.997  0.4729 -0.3077  0.4669
  137TMC2    O1 2140   1.482   0.967   9.238 -0.2662  0.0190  0.6885
  137TMC2    O2 2141   1.714   0.778   8.919 -0.8258 -0.0993  0.0450
  137TMC2    O5 2142   1.724   0.562   8.962 -0.2175  0.3230  0.1466
  137TMC2    H5 2143   1.717   0.501   9.038  1.7609  2.4893  2.0668
  138MPD2     C 2144   1.936   0.206   9.461 -0.1511  0.1901 -0.2180
  138MPD2    C1 2145   1.889   0.326   9.515  0.1847  0.3715  0.2889
  138MPD2    C2 2146   1.926   0.366   9.649  0.0175  0.1932 -0.5158
  138MPD2    C3 2147   2.006   0.286   9.722 -0.4529 -0.4380  0.0174
  138MPD2    C4 2148   2.062   0.172   9.662  0.7305  0.5975 -0.3827
  138MPD2    C5 2149   2.020   0.139   9.535  0.9332  0.5741 -0.9564
  138MPD2     H 2150   1.894   0.459   9.693  0.8095  0.2526 -0.0781
  138MPD2    H1 2151   2.120   0.100   9.718  0.4427  0.1966 -0.5987
  138MPD2    H2 2152   1.914   0.176   9.359 -2.7901  0.1797  0.3654
  138MPD2    H3 2153   2.062   0.043   9.506  1.1595  0.3106  0.2532
  138MPD2     N 2154   2.022   0.314   9.857  0.0272  0.1260 -0.8301
  138MPD2    H5 2155   1.957   0.380   9.898  0.2299 -0.1727 -0.0317
  138MPD2    N1 2156   1.817   0.409   9.430 -0.1568 -0.3861  0.0845
  138MPD2    H7 2157   1.795   0.384   9.334  1.4233  1.1610 -0.6959
  139TMC2    C1 2158   2.593   3.922  13.374 -0.7547  0.1964 -0.2655
  139TMC2    C2 2159   2.469   3.910  13.315 -1.3586  0.4579 -0.6544
  139TMC2    C3 2160   2.395   4.021  13.303  0.0448  0.1082 -0.1331
  139TMC2    C4 2161   2.631   4.044  13.436  0.1719 -0.0155  0.3325
  139TMC2    C5 2162   2.549   4.154  13.415 -0.8767  0.4443  0.0021
  139TMC2    C6 2163   2.433   4.140  13.351  0.1417  0.0570 -0.0701
  139TMC2     C 2164   2.664   3.797  13.385  0.0338  0.5738  0.0251
  139TMC2     O 2165   2.675   3.739  13.279 -0.0320  0.2055  0.0045
  139TMC2     H 2166   2.443   3.814  13.271 -0.8768 -0.4280  1.0276
  139TMC2    H1 2167   2.731   4.058  13.476  0.6921  1.3118 -1.4146
  139TMC2    H2 2168   2.367   4.224  13.333  0.7209  0.5672  0.1931
  139TMC2    C7 2169   2.567   4.278  13.490 -0.8521 -0.4153  0.0245
  139TMC2    C8 2170   2.289   4.034  13.207 -0.3537  0.7543  0.2059
  139TMC2    O1 2171   2.498   4.374  13.460  0.3239  0.1861  0.3406
  139TMC2    O2 2172   2.213   4.132  13.200  0.0259 -0.4730  0.8151
  139TMC2    O5 2173   2.340   3.981  13.090  0.2232  0.4580  0.1715
  139TMC2    H5 2174   2.430   3.943  13.098  0.5722  1.1501 -0.4885
  140MPD2     C 2175   2.674   3.567  13.670 -0.7166 -0.4637 -0.2899
  140MPD2    C1 2176   2.689   3.608  13.540  1.5170 -0.0083 -0.0711
  140MPD2    C2 2177   2.708   3.513  13.440 -0.3865 -0.9918  0.0668
  140MPD2    C3 2178   2.707   3.375  13.470  0.6700  0.0704 -0.4757
  140MPD2    C4 2179   2.682   3.334  13.600  0.1832  0.0828 -0.0456
  140MPD2    C5 2180   2.666   3.432  13.698  0.2788 -0.1323  0.0636
  140MPD2     H 2181   2.724   3.542  13.337  0.7702  0.1460  0.5646
  140MPD2    H1 2182   2.668   3.228  13.616  0.4272  0.0983  0.2720
  140MPD2    H2 2183   2.647   3.633  13.751  2.2144  1.6588 -1.0523
  140MPD2    H3 2184   2.651   3.404  13.802  1.0559 -1.3328 -0.1461
  140MPD2     N 2185   2.690   3.283  13.365 -0.4856  0.3661  0.4268
  140MPD2    H5 2186   2.668   3.331  13.278  0.5369 -1.8422 -1.0666
  140MPD2    N1 2187   2.665   3.747  13.512  0.7692  0.5076  0.0432
  140MPD2    H7 2188   2.626   3.804  13.586 -3.0837 -1.1224 -0.6995
  141TMC2    C1 2189   3.173   0.276  14.409 -0.1263  0.3506 -0.5052
  141TMC2    C2 2190   3.056   0.213  14.448  0.4176  0.0705  0.4813
  141TMC2    C3 2191   3.027   0.191  14.584  0.2462  0.4895 -0.2163
  141TMC2    C4 2192   3.267   0.321  14.501 -0.3788  0.0255  0.0458
  141TMC2    C5 2193   3.227   0.311  14.636 -0.3308 -0.7373  0.4470
  141TMC2    C6 2194   3.113   0.245  14.670 -0.1648  0.2088  0.3319
  141TMC2     C 2195   3.178   0.332  14.275 -0.8806  0.6331  0.1755
  141TMC2     O 2196   3.261   0.422  14.249  0.0971 -0.6027 -0.1295
  141TMC2     H 2197   2.972   0.199  14.380  0.2954 -1.8635  1.0495
  141TMC2    H1 2198   3.347   0.388  14.471 -1.1091  0.6416 -0.5311
  141TMC2    H2 2199   3.078   0.254  14.772  0.7000 -0.6747  0.7068
  141TMC2    C7 2200   3.274   0.410  14.730 -0.0928  0.3296 -0.3902
  141TMC2    C8 2201   2.892   0.216  14.614  0.1875  0.5433 -0.5212
  141TMC2    O1 2202   3.214   0.419  14.843  0.0660 -0.0659  0.2947
  141TMC2    O2 2203   2.844   0.321  14.576  0.5402  0.0938  0.4725
  141TMC2    O5 2204   2.878   0.154  14.732 -0.8124  0.3182 -0.0574
  141TMC2    H5 2205   2.951   0.091  14.749 -1.4315 -0.8041 -1.6543
  142TMC2    C1 2206   4.640   3.915  10.016  0.0866  0.1896  0.1680
  142TMC2    C2 2207   4.597   3.915   9.883 -0.7553  0.5511  0.1520
  142TMC2    C3 2208   4.657   4.006   9.796 -0.8241 -0.2252 -0.4445
  142TMC2    C4 2209   4.739   4.000  10.056  0.0126 -0.6038 -0.3606
  142TMC2    C5 2210   0.040   4.103   9.971  0.3989 -0.8229 -0.6736
  142TMC2    C6 2211   0.007   4.097   9.835 -0.4335  0.0583 -0.5133
  142TMC2     C 2212   4.606   3.803  10.099  0.5922 -0.0907 -0.0101
  142TMC2     O 2213   4.548   3.711  10.044 -0.2571  0.1607 -0.7003
  142TMC2     H 2214   4.526   3.840   9.851 -1.3247  1.5376 -0.8768
  142TMC2    H1 2215   0.030   4.001  10.160 -1.5843  0.2674  0.0886
  142TMC2    H2 2216   0.026   4.180   9.768 -0.3827 -0.8840 -1.6742
  142TMC2    C7 2217   0.112   4.218  10.014  0.0532 -0.2187 -0.8986
  142TMC2    C8 2218   4.606   4.007   9.660  0.3242 -0.2505 -0.1995
  142TMC2    O1 2219   0.120   4.222  10.134  0.5499  0.1326  0.4870
  142TMC2    O2 2220   4.496   3.961   9.625 -0.7687  0.3093  0.3262
  142TMC2    O5 2221   4.712   4.037   9.581 -0.1731  0.3163 -0.2611
  142TMC2    H5 2222   0.063   4.017   9.615 -0.4177 -0.1229  0.1372
  143MPD2     C 2223   4.718   3.491  10.495  0.0882  0.3828  0.5528
  143MPD2    C1 2224   4.647   3.464  10.379  0.4499  0.1002 -0.3760
  143MPD2    C2 2225   4.640   3.561  10.280  0.4508 -0.3522  0.4109
  143MPD2    C3 2226   4.673   3.693  10.308  0.0003 -0.2192  0.3629
  143MPD2    C4 2227   4.720   3.721  10.434  0.9493  0.1172 -0.3989
  143MPD2    C5 2228   0.011   3.623  10.526  0.6001  0.1064 -0.2841
  143MPD2     H 2229   4.605   3.530  10.182  0.0766 -2.0568  1.0891
  143MPD2    H1 2230   4.729   3.822  10.471 -0.9584  0.4791 -0.9175
  143MPD2    H2 2231   0.024   3.411  10.552 -0.7411 -1.5022 -1.4013
  143MPD2    H3 2232   0.052   3.638  10.625  0.3712  0.5931 -0.2637
  143MPD2     N 2233   4.649   3.807  10.228 -0.4626  0.1713 -0.2141
  143MPD2    H5 2234   4.668   3.900  10.264  2.5733 -0.3202 -0.5987
  143MPD2    N1 2235   4.618   3.328  10.353  0.4256  0.0316  0.0849
  143MPD2    H7 2236   4.627   3.264  10.431  0.0332  0.9160  0.8565
  144TMC2    C1 2237   4.187   2.929   0.860  0.0241  0.2724 -0.2772
  144TMC2    C2 2238   4.194   2.789   0.860  0.2225 -0.1541  0.5106
  144TMC2    C3 2239   4.325   2.743   0.873 -0.0321 -0.1691  0.2261
  144TMC2    C4 2240   4.291   3.020   0.887 -0.5968  0.1956  1.0573
  144TMC2    C5 2241   4.418   2.966   0.893 -0.0223 -0.8655  0.1643
  144TMC2    C6 2242   4.430   2.833   0.884 -0.3708  0.3283 -1.1831
  144TMC2     C 2243   4.059   2.973   0.814  0.2370  0.3792  0.3034
  144TMC2     O 2244   3.977   2.880   0.801 -0.1379  0.1806 -0.0980
  144TMC2     H 2245   4.115   2.719   0.836 -1.0847  1.4417  0.1513
  144TMC2    H1 2246   4.276   3.127   0.881  0.1768  0.2973  0.8828
  144TMC2    H2 2247   4.529   2.787   0.882  0.4812  2.1598 -0.9571
  144TMC2    C7 2248   4.535   3.052   0.901 -0.0884 -0.1222 -0.2211
  144TMC2    C8 2249   4.336   2.598   0.879  0.1030  0.0835 -0.7666
  144TMC2    O1 2250   4.639   2.993   0.871  0.6728 -0.8282 -0.0413
  144TMC2    O2 2251   4.233   2.534   0.885  0.1591  0.1027  0.4015
  144TMC2    O5 2252   4.439   2.575   0.955 -0.5518  0.2582 -0.4194
  144TMC2    H5 2253   4.508   2.639   0.979 -1.9203  1.2153  0.9611
  145MPD2     C 2254   3.756   3.306   0.588 -0.6271  0.2123  0.1379
  145MPD2    C1 2255   3.736   3.172   0.608  0.0360  0.0854  0.4747
  145MPD2    C2 2256   3.834   3.107   0.683 -0.2831 -0.1847 -0.3936
  145MPD2    C3 2257   3.951   3.170   0.713 -0.4425 -0.4011 -0.7856
  145MPD2    C4 2258   3.971   3.303   0.687 -0.3155 -0.6237  0.0391
  145MPD2    C5 2259   3.866   3.373   0.632  0.1297  0.2368 -0.3890
  145MPD2     H 2260   3.810   3.004   0.708 -1.1070  0.4236  1.3129
  145MPD2    H1 2261   4.053   3.365   0.723 -1.7878  0.2815  1.8705
  145MPD2    H2 2262   3.683   3.372   0.543 -0.5503 -0.8366 -1.5029
  145MPD2    H3 2263   3.882   3.478   0.609 -0.4003  0.3544 -0.2189
  145MPD2     N 2264   4.058   3.100   0.774 -0.2618  0.6097 -0.1387
  145MPD2    H5 2265   4.142   3.157   0.783 -0.3970  0.9229 -0.8246
  145MPD2    N1 2266   3.620   3.094   0.576 -0.1997  0.8503  0.4825
  145MPD2    H7 2267   3.616   2.998   0.606 -0.9103  1.0829  1.1193
  146TMC2    C1 2268   4.709   0.819  12.584  0.4941 -0.1522 -0.9215
  146TMC2    C2 2269   4.637   0.783  12.477 -0.5708  0.3266  0.5680
  146TMC2    C3 2270   4.689   0.687  12.398  0.2361  0.0690 -0.6671
  146TMC2    C4 2271   0.106   0.803  12.577 -0.1570 -0.1660  0.4035
  146TMC2    C5 2272   0.157   0.712  12.490  0.0821 -0.7374 -0.0967
  146TMC2    C6 2273   0.079   0.648  12.403 -0.4289 -0.5970  0.2129
  146TMC2     C 2274   4.654   0.916  12.673  0.1334 -0.5850  0.2417
  146TMC2     O 2275   4.545   0.965  12.646 -0.0244  0.5316  0.6345
  146TMC2     H 2276   4.533   0.812  12.478 -1.0026 -1.1417 -0.4598
  146TMC2    H1 2277   0.170   0.841  12.656 -2.2669  1.1558  1.4727
  146TMC2    H2 2278   0.117   0.580  12.328  1.9421 -1.5290  2.2681
  146TMC2    C7 2279   0.300   0.692  12.488  0.3154  0.2382  0.4858
  146TMC2    C8 2280   4.618   0.665  12.275 -0.2199  0.5875 -0.2686
  146TMC2    O1 2281   0.349   0.633  12.389  0.4435 -0.3063  0.3415
  146TMC2    O2 2282   4.530   0.744  12.234  0.0535 -0.0509  0.0001
  146TMC2    O5 2283   4.640   0.537  12.229 -0.2925 -0.3469 -0.4626
  146TMC2    H5 2284   4.714   0.487  12.269  1.5741  1.5788 -1.5055
  147MPD2     C 2285   0.774   0.668  12.677  0.1157 -0.1144 -0.0841
  147MPD2    C1 2286   0.683   0.650  12.789  0.4375  0.5513  0.0093
  147MPD2    C2 2287   0.548   0.663  12.758 -0.2157  0.5285  0.2484
  147MPD2    C3 2288   0.497   0.683  12.627 -0.4411  0.0237 -0.1325
  147MPD2    C4 2289   0.592   0.699  12.528 -0.3551 -0.7688 -0.1362
  147MPD2    C5 2290   0.726   0.692  12.555  0.0488  0.0733 -0.2268
  147MPD2     H 2291   0.480   0.652  12.843 -0.6243 -1.1370 -0.2878
  147MPD2    H1 2292   0.557   0.717  12.427  2.7918 -0.0539 -1.0933
  147MPD2    H2 2293   0.882   0.664  12.674 -0.0061 -1.7475 -1.6806
  147MPD2    H3 2294   0.793   0.710  12.472 -0.0222  0.5237 -0.1900
  147MPD2     N 2295   0.358   0.697  12.613 -0.2096  0.1196  0.8451
  147MPD2    H5 2296   0.307   0.693  12.701 -1.0941  0.1371  0.3298
  147MPD2    N1 2297   0.743   0.638  12.913 -0.0970 -0.1172 -0.2514
  147MPD2    H7 2298   0.843   0.626  12.897 -0.1467 -0.5878 -0.2144
  148TMC2    C1 2299   4.655   0.671  10.421 -0.0246 -0.1906  0.5618
  148TMC2    C2 2300   0.037   0.719  10.384 -0.2701 -0.9300 -0.2822
  148TMC2    C3 2301   0.141   0.657  10.442  0.0506  0.1642 -1.3112
  148TMC2    C4 2302   4.629   0.578  10.519 -0.5060 -0.0974 -0.3310
  148TMC2    C5 2303   0.001   0.522  10.577  0.2891  0.5645  0.6604
  148TMC2    C6 2304   0.130   0.550  10.534  0.2483  0.2700  0.0980
  148TMC2     C 2305   4.544   0.710  10.338  0.3359  0.4660 -0.5945
  148TMC2     O 2306   4.541   0.822  10.294 -0.2832  0.4490  0.3021
  148TMC2     H 2307   0.059   0.781  10.297 -1.6711 -1.7631 -1.2417
  148TMC2    H1 2308   4.526   0.566  10.551  0.0987 -0.2491  1.5100
  148TMC2    H2 2309   0.214   0.496  10.576 -0.6443 -1.2583 -0.0520
  148TMC2    C7 2310   4.708   0.403  10.651 -0.1777 -0.5855  0.4626
  148TMC2    C8 2311   0.256   0.633  10.356 -0.2273 -0.3777  0.6723
  148TMC2    O1 2312   4.606   0.343  10.621 -0.3906  0.4305  0.0497
  148TMC2    O2 2313   0.370   0.671  10.383  0.1659 -0.1603 -0.1343
  148TMC2    O5 2314   0.246   0.506  10.307  0.0636  0.5342 -0.5608
  148TMC2    H5 2315   0.153   0.482  10.287 -0.3842 -0.2076  2.3082
  149MPD2     C 2316   4.281   0.711  10.187  0.0948 -0.2477  0.4406
  149MPD2    C1 2317   4.339   0.600  10.235  0.3811 -0.7319 -0.2435
  149MPD2    C2 2318   4.270   0.478  10.229 -0.5381  0.3882  0.2737
  149MPD2    C3 2319   4.143   0.467  10.172  0.1415  0.6172 -0.1503
  149MPD2    C4 2320   4.082   0.587  10.134 -0.3606 -0.0483 -0.4420
  149MPD2    C5 2321   4.147   0.710  10.145  0.0435 -0.3542  0.0007
  149MPD2     H 2322   4.316   0.398  10.285 -3.7249 -1.2664  0.5255
  149MPD2    H1 2323   3.980   0.594  10.096 -0.0273  0.8884 -1.1608
  149MPD2    H2 2324   4.322   0.808  10.211  0.6926 -0.0076 -1.5120
  149MPD2    H3 2325   4.097   0.804  10.122 -0.0295 -0.0636  1.3452
  149MPD2     N 2326   4.073   0.340  10.177 -0.0980  0.2378  0.0776
  149MPD2    H5 2327   3.974   0.346  10.157 -0.1567 -2.0805 -0.2312
  149MPD2    N1 2328   4.460   0.605  10.304  0.6570 -0.0210  0.1117
  149MPD2    H7 2329   4.495   0.516  10.337 -1.2148 -1.0869 -0.8099
  150TMC2    C1 2330   1.740   4.069  12.136 -1.0239  0.1253  0.9850
  150TMC2    C2 2331   1.705   3.971  12.222 -0.7813 -0.4819  0.1964
  150TMC2    C3 2332   1.800   3.933  12.310  0.3364  0.2552  0.8616
  150TMC2    C4 2333   1.871   4.116  12.133 -0.2351  1.2884  0.5218
  150TMC2    C5 2334   1.969   4.061  12.212  0.1730  0.2098 -0.0525
  150TMC2    C6 2335   1.934   3.972  12.311  0.2384 -0.2399 -0.4709
  150TMC2     C 2336   1.640   4.134  12.057 -0.0826 -0.0096  0.8334
  150TMC2     O 2337   1.525   4.121  12.091  0.3619  0.3368 -0.4470
  150TMC2     H 2338   1.603   3.936  12.218 -0.7899 -0.2697 -1.4983
  150TMC2    H1 2339   1.899   4.205  12.078  2.5863 -3.0784 -5.0986
  150TMC2    H2 2340   2.002   3.958  12.394  0.7777  0.6519 -0.7601
  150TMC2    C7 2341   2.099   4.127  12.205 -0.6209  0.0839 -0.2284
  150TMC2    C8 2342   1.770   3.819  12.391 -0.6138 -0.6660  0.7124
  150TMC2    O1 2343   2.101   4.245  12.174 -0.1714  0.0590 -0.3945
  150TMC2    O2 2344   1.849   3.751  12.453  0.3160  0.2851  0.0843
  150TMC2    O5 2345   1.645   3.825  12.434  0.8141 -0.0872 -0.1038
  150TMC2    H5 2346   1.592   3.901  12.402  2.0797  0.0446 -1.8364
  151MPD2     C 2347   1.502   4.389  11.622 -0.0002  0.0106  0.5022
  151MPD2    C1 2348   1.421   4.314  11.709  0.0143 -0.5065  0.3984
  151MPD2    C2 2349   1.483   4.249  11.823  0.5493 -0.4091 -0.3101
  151MPD2    C3 2350   1.623   4.270  11.847  0.3011 -0.0357  0.4919
  151MPD2    C4 2351   1.696   4.344  11.761 -0.8562  0.1280 -0.8992
  151MPD2    C5 2352   1.637   4.404  11.648 -0.1540 -0.3378 -0.3318
  151MPD2     H 2353   1.437   4.176  11.888  3.1009 -0.7188  1.1451
  151MPD2    H1 2354   1.803   4.347  11.779 -0.9639 -1.3326  0.0726
  151MPD2    H2 2355   1.455   4.426  11.532 -1.1446  0.2970  1.2188
  151MPD2    H3 2356   1.698   4.458  11.575  0.1260  0.3452  0.4122
  151MPD2     N 2357   1.692   4.207  11.951  0.4749  0.1108 -0.2952
  151MPD2    H5 2358   1.791   4.230  11.950  0.4875  0.0412 -0.6958
  151MPD2    N1 2359   1.284   4.296  11.661  0.1263 -0.3043 -0.4467
  151MPD2    H7 2360   1.257   4.347  11.578  1.8826 -0.1353 -0.9139
  152TMC2    C1 2361   1.957   4.100  12.693 -0.2998  0.6132 -0.3563
  152TMC2    C2 2362   2.010   3.972  12.691  0.0794  0.1956  0.0266
  152TMC2    C3 2363   2.139   3.959  12.654 -0.0088  0.6457 -0.6216
  152TMC2    C4 2364   2.030   4.197  12.637  0.5646 -0.0277  0.0666
  152TMC2    C5 2365   2.160   4.179  12.602 -0.7751 -0.2692  0.8699
  152TMC2    C6 2366   2.218   4.057  12.632 -0.1074 -0.5857 -0.2829
  152TMC2     C 2367   1.813   4.130  12.701  0.3584 -0.0004 -0.8082
  152TMC2     O 2368   1.779   4.243  12.679  0.0274 -0.0054 -0.2318
  152TMC2     H 2369   1.954   3.880  12.706  2.1866 -1.3405 -1.5906
  152TMC2    H1 2370   1.990   4.297  12.622  0.1086 -0.5322 -2.0681
  152TMC2    H2 2371   2.316   4.038  12.589 -0.3923 -2.3659 -0.1620
  152TMC2    C7 2372   2.237   4.300  12.604  0.2907  0.0294 -0.0944
  152TMC2    C8 2373   2.199   3.829  12.653 -0.0196  0.4453  0.2618
  152TMC2    O1 2374   2.177   4.409  12.597 -0.1720  0.4193  0.1332
  152TMC2    O2 2375   2.135   3.729  12.657  0.1278 -0.1021  0.2346
  152TMC2    O5 2376   2.282   3.848  12.755 -0.3808  0.3676  0.0089
  152TMC2    H5 2377   2.345   3.922  12.744  0.2224 -0.5469 -2.6268
  153MPD2     C 2378   1.543   3.921  12.822  0.4434 -0.4627 -0.8863
  153MPD2    C1 2379   1.602   4.021  12.745 -0.1021  0.2162  0.3773
  153MPD2    C2 2380   1.519   4.122  12.692  0.1444  0.0664 -0.0413
  153MPD2    C3 2381   1.392   4.130  12.725  0.0350 -0.2769  0.8933
  153MPD2    C4 2382   1.336   4.026  12.797  0.4016 -0.1008 -0.2515
  153MPD2    C5 2383   1.411   3.921  12.846  0.6091 -0.6713  0.3485
  153MPD2     H 2384   1.564   4.193  12.624 -1.1923  1.5561  0.6509
  153MPD2    H1 2385   1.235   4.027  12.837  0.7494 -3.3513  0.7214
  153MPD2    H2 2386   1.599   3.840  12.866 -1.0470 -0.6198  0.7382
  153MPD2    H3 2387   1.373   3.846  12.915  0.5146 -1.6854 -0.8078
  153MPD2     N 2388   1.321   4.249  12.684  0.8636 -0.3344  0.3347
  153MPD2    H5 2389   1.381   4.326  12.653  0.9937 -0.2235  0.8518
  153MPD2    N1 2390   1.741   4.014  12.726 -0.1364  0.5261 -0.1410
  153MPD2    H7 2391   1.787   3.931  12.762 -2.4035 -0.4392  0.5552
  154TMC2    C1 2392   4.364   4.423   0.608 -0.2978  0.7965  0.5074
  154TMC2    C2 2393   4.458   4.476   0.688 -0.1490 -0.0814  0.3360
  154TMC2    C3 2394   4.583   4.438   0.675 -0.5272 -0.2603  0.6026
  154TMC2    C4 2395   4.391   4.325   0.520  0.2293 -0.1348  0.2576
  154TMC2    C5 2396   4.525   4.278   0.524  0.9537  0.4379  0.2204
  154TMC2    C6 2397   4.630   4.336   0.601 -0.7198  0.3427  0.0261
  154TMC2     C 2398   4.249   4.511   0.584  0.6613  0.2784 -0.0120
  154TMC2     O 2399   4.228   4.591   0.672  0.2258  0.2065 -0.2663
  154TMC2     H 2400   4.431   4.542   0.769 -1.7498  0.6253 -0.7862
  154TMC2    H1 2401   4.313   4.296   0.450  2.3411 -1.6373 -1.4662
  154TMC2    H2 2402   4.732   4.301   0.589 -0.8338  0.2550 -0.7148
  154TMC2    C7 2403   4.559   4.183   0.425 -0.5717 -0.2147  0.2756
  154TMC2    C8 2404   4.672   4.519   0.751  0.4557 -0.0219  0.1195
  154TMC2    O1 2405   4.669   4.201   0.373 -0.3362 -0.0298  0.2521
  154TMC2    O2 2406   4.639   4.620   0.806 -0.0931 -0.3553 -0.5145
  154TMC2    O5 2407   0.035   4.441   0.792 -0.1874  0.8850 -0.5917
  154TMC2    H5 2408   0.014   4.346   0.778 -0.7097  0.8905  0.1355
  155MPD2     C 2409   3.980   4.545   0.332  0.1381  0.3564 -0.4992
  155MPD2    C1 2410   4.038   4.550   0.459  0.7651  0.2558 -0.2757
  155MPD2    C2 2411   3.978   4.632   0.556  0.2377 -0.2865  0.3264
  155MPD2    C3 2412   3.860   4.701   0.514 -0.2760 -0.0171 -0.3339
  155MPD2    C4 2413   3.795   4.682   0.384 -0.4159 -0.1575  0.4214
  155MPD2    C5 2414   3.862   4.603   0.296 -0.2316  0.1913 -0.1952
  155MPD2     H 2415   4.020   4.645   0.655 -0.5548 -2.7524  0.9895
  155MPD2    H1 2416   3.698   4.723   0.356  0.1750  0.4349 -0.7459
  155MPD2    H2 2417   4.024   4.484   0.254 -2.0285  0.6477 -1.9597
  155MPD2    H3 2418   3.814   4.586   0.200  0.0399 -0.3721 -0.2327
  155MPD2     N 2419   3.795   0.039   0.611 -0.6098  0.0231 -0.5380
  155MPD2    H5 2420   3.844   0.032   0.700  1.9607  0.5623 -1.9091
  155MPD2    N1 2421   4.159   4.482   0.489  0.4186 -0.0752  0.8093
  155MPD2    H7 2422   4.177   4.401   0.431  2.7438  0.6613  0.5012
  156TMC2    C1 2423   1.076   1.688  12.007  0.3949  0.3463 -0.7738
  156TMC2    C2 2424   0.982   1.585  11.973  0.5197 -0.7704 -0.3222
  156TMC2    C3 2425   0.957   1.569  11.834  0.2165 -0.6479 -0.6857
  156TMC2    C4 2426   1.141   1.762  11.913 -0.4525 -0.9361  0.2653
  156TMC2    C5 2427   1.106   1.735  11.784  0.0292  0.5240  0.2864
  156TMC2    C6 2428   1.015   1.642  11.738  0.2492 -0.5135  0.2685
  156TMC2     C 2429   1.140   1.684  12.140  0.5195  0.9794  0.1228
  156TMC2     O 2430   1.241   1.757  12.149  0.6391  0.0161  0.2831
  156TMC2     H 2431   0.920   1.527  12.040  1.3141 -1.6552 -0.3555
  156TMC2    H1 2432   1.228   1.821  11.938 -0.9768  1.0686 -2.5878
  156TMC2    H2 2433   0.988   1.625  11.634 -1.2540 -1.1133  0.7627
  156TMC2    C7 2434   1.162   1.821  11.680 -0.2675  0.9866  0.4466
  156TMC2    C8 2435   0.874   1.464  11.793 -0.4186  0.2364  0.4698
  156TMC2    O1 2436   1.199   1.930  11.716 -0.3061  0.0944  0.1853
  156TMC2    O2 2437   0.788   1.424  11.871 -0.1568  0.6065  0.4074
  156TMC2    O5 2438   0.920   1.405  11.682  0.4665 -0.1761 -0.8273
  156TMC2    H5 2439   1.000   1.435  11.635  1.0853  0.6048  0.7097
  157MPD2     C 2440   1.122   1.429  12.406 -0.0703 -0.2907 -0.4231
  157MPD2    C1 2441   1.182   1.523  12.325  0.3939  0.3030  0.4181
  157MPD2    C2 2442   1.321   1.550  12.340  1.0700 -0.3927 -0.2428
  157MPD2    C3 2443   1.395   1.492  12.437  0.2869 -0.2321 -0.3258
  157MPD2    C4 2444   1.335   1.390  12.508 -0.5263 -0.0530  0.1665
  157MPD2    C5 2445   1.201   1.360  12.495  0.1454 -0.0781 -0.5949
  157MPD2     H 2446   1.380   1.612  12.274  0.7623  1.1616  0.9344
  157MPD2    H1 2447   1.390   1.327  12.577  0.1470  0.5808  0.1994
  157MPD2    H2 2448   1.016   1.406  12.401 -0.1133 -0.1208 -0.2653
  157MPD2    H3 2449   1.161   1.273  12.546  1.2294  0.1357  0.6006
  157MPD2     N 2450   1.531   1.518  12.428  0.1929 -0.9109 -0.0745
  157MPD2    H5 2451   1.558   1.590  12.361 -0.1964 -0.3074  0.4118
  157MPD2    N1 2452   1.106   1.577  12.221  0.4520 -0.3290 -0.3068
  157MPD2    H7 2453   1.020   1.529  12.195 -0.1909  0.2685  0.7066
  158TMC2    C1 2454   2.684   0.933  13.219 -0.7082  0.7818  0.3171
  158TMC2    C2 2455   2.728   0.963  13.098 -0.3393  0.2470  0.6639
  158TMC2    C3 2456   2.663   0.900  12.994  0.1000 -0.3115  0.4484
  158TMC2    C4 2457   2.583   0.847  13.250  0.5744  0.1478  0.2333
  158TMC2    C5 2458   2.528   0.785  13.143 -0.2117 -0.6651  0.3330
  158TMC2    C6 2459   2.572   0.808  13.014  0.4908 -0.2171  0.8422
  158TMC2     C 2460   2.729   1.018  13.328 -0.0783 -0.4244  1.3386
  158TMC2     O 2461   2.753   1.137  13.302  0.0694  0.0097  0.4361
  158TMC2     H 2462   2.797   1.046  13.090 -0.7325  0.4061 -1.1722
  158TMC2    H1 2463   2.540   0.846  13.349  0.0692  1.4456  0.0157
  158TMC2    H2 2464   2.510   0.772  12.932 -0.6878  0.1945  1.5419
  158TMC2    C7 2465   2.403   0.719  13.153 -0.0319  0.1529 -0.3716
  158TMC2    C8 2466   2.723   0.912  12.859 -1.1068  0.5004  0.0660
  158TMC2    O1 2467   2.337   0.709  13.053 -0.1018 -0.0849  0.0948
  158TMC2    O2 2468   2.806   0.995  12.824 -0.4133  0.1278 -0.3728
  158TMC2    O5 2469   2.700   0.799  12.790 -0.1433  0.0198 -0.1368
  158TMC2    H5 2470   2.647   0.733  12.839  1.3338 -1.5291 -0.6290
  159MPD2     C 2471   2.841   1.081  13.835 -0.0091  0.1825 -0.4401
  159MPD2    C1 2472   2.789   0.957  13.813 -0.0343 -0.0427  0.6073
  159MPD2    C2 2473   2.757   0.913  13.686 -0.2261 -0.2500 -0.1133
  159MPD2    C3 2474   2.765   1.001  13.581 -0.0458  0.3263  0.5282
  159MPD2    C4 2475   2.817   1.129  13.602  0.4020  0.0526  0.0429
  159MPD2    C5 2476   2.850   1.167  13.732  0.2501 -0.0889 -0.0810
  159MPD2     H 2477   2.734   0.809  13.662 -1.0325 -0.0539 -0.1720
  159MPD2    H1 2478   2.834   1.194  13.516  1.4563 -2.2411 -1.4887
  159MPD2    H2 2479   2.877   1.110  13.933 -0.9023 -0.6648  0.1320
  159MPD2    H3 2480   2.906   1.259  13.748 -0.7357  0.4685  0.1797
  159MPD2     N 2481   2.736   0.951  13.453  0.2073 -0.6832  0.2516
  159MPD2    H5 2482   2.705   0.854  13.458 -0.7725 -0.4238 -0.7388
  159MPD2    N1 2483   2.775   0.881  13.926 -0.2577 -0.7154  0.4889
  159MPD2    H7 2484   2.789   0.919  14.019  1.5147 -0.1098 -0.0362
  160TMC2    C1 2485   3.042   3.473   1.449  0.6550  0.5310 -0.2236
  160TMC2    C2 2486   3.165   3.448   1.513 -0.9975  0.0325 -0.1411
  160TMC2    C3 2487   3.278   3.441   1.433  0.2340  0.1196  0.0952
  160TMC2    C4 2488   3.039   3.474   1.303 -0.4382 -0.0876 -0.1325
  160TMC2    C5 2489   3.158   3.494   1.244 -0.5741 -0.4263  0.3541
  160TMC2    C6 2490   3.279   3.473   1.298 -0.3865  0.1703 -0.5190
  160TMC2     C 2491   2.923   3.503   1.526 -0.4723 -0.7494  0.3215
  160TMC2     O 2492   2.942   3.497   1.646 -0.3331 -0.3619 -0.2565
  160TMC2     H 2493   3.170   3.451   1.621 -1.1812 -1.8269 -0.0767
  160TMC2    H1 2494   2.960   3.492   1.231  0.8850  0.7254 -1.4008
  160TMC2    H2 2495   3.369   3.476   1.239  0.8505 -0.4248  1.3193
  160TMC2    C7 2496   3.154   3.553   1.110 -0.0837  0.5714 -0.6225
  160TMC2    C8 2497   3.404   3.442   1.506 -0.0145 -0.9800  0.5482
  160TMC2    O1 2498   3.055   3.536   1.040 -0.2621 -0.2206 -0.2992
  160TMC2    O2 2499   3.420   3.485   1.619 -0.2948 -0.1488 -0.2004
  160TMC2    O5 2500   3.494   3.393   1.424 -0.0948  0.1209  0.2174
  160TMC2    H5 2501   3.452   3.346   1.348  1.6131 -0.5588 -0.3098
  161MPD2     C 2502   2.678   3.640   1.654 -0.0437  0.3078 -0.4081
  161MPD2    C1 2503   2.697   3.626   1.517 -0.1021  0.4671 -0.1849
  161MPD2    C2 2504   2.610   3.685   1.429  0.7139  0.0876 -0.3087
  161MPD2    C3 2505   2.501   3.754   1.487  0.7030 -0.2933  0.0894
  161MPD2    C4 2506   2.479   3.752   1.627  0.2818  0.5571 -0.1322
  161MPD2    C5 2507   2.573   3.704   1.707  0.2240  0.3011  0.0067
  161MPD2     H 2508   2.628   3.669   1.323 -1.3749  0.3776 -0.7105
  161MPD2    H1 2509   2.395   3.799   1.677  0.0314  0.3454 -0.3569
  161MPD2    H2 2510   2.753   3.602   1.724  0.9869  0.8465 -1.2196
  161MPD2    H3 2511   2.581   3.710   1.815 -1.6786 -0.5092  0.1845
  161MPD2     N 2512   2.406   3.831   1.417  1.2051 -0.1493  0.1251
  161MPD2    H5 2513   2.337   3.881   1.473  0.1092  0.4294 -1.7275
  161MPD2    N1 2514   2.812   3.558   1.457 -0.2915  0.4448  0.1346
  161MPD2    H7 2515   2.803   3.557   1.356  2.8319  0.4372 -0.1522
  162TMC2    C1 2516   0.361   0.696   1.000  0.1404 -0.0587  0.3475
  162TMC2    C2 2517   0.234   0.733   1.041  0.7397  0.8615  0.8092
  162TMC2    C3 2518   0.189   0.701   1.164 -0.4132 -0.2336  0.3182
  162TMC2    C4 2519   0.439   0.622   1.093 -0.7668 -0.5471 -0.2563
  162TMC2    C5 2520   0.385   0.584   1.209  0.1092 -0.3501  0.2072
  162TMC2    C6 2521   0.253   0.614   1.244 -0.1820  0.7263  0.0762
  162TMC2     C 2522   0.411   0.677   0.861  0.3670 -0.0824 -0.5138
  162TMC2     O 2523   0.495   0.586   0.846  0.1515 -0.4403  0.2466
  162TMC2     H 2524   0.172   0.782   0.967 -0.3412 -0.3570  0.9135
  162TMC2    H1 2525   0.539   0.599   1.061 -0.6896 -1.7535  0.8600
  162TMC2    H2 2526   0.212   0.589   1.342  1.5002 -0.7063  0.4024
  162TMC2    C7 2527   0.447   0.468   1.274 -0.1562 -0.5884  0.3369
  162TMC2    C8 2528   0.063   0.760   1.199 -0.1389  0.3312 -0.0210
  162TMC2    O1 2529   0.396   0.437   1.381  0.2796  0.1361  0.7535
  162TMC2    O2 2530   4.720   0.780   1.114 -0.1564 -0.1886  0.0802
  162TMC2    O5 2531   0.038   0.740   1.332  0.1461  0.1613 -0.0080
  162TMC2    H5 2532   0.121   0.744   1.384  1.3430  0.8464 -1.9373
  163MPD2     C 2533   0.520   0.893   0.397  0.9055 -0.6601 -0.2448
  163MPD2    C1 2534   0.549   0.762   0.442 -0.1523  0.4442 -0.8061
  163MPD2    C2 2535   0.488   0.719   0.561  0.6580  0.0709  0.2142
  163MPD2    C3 2536   0.406   0.805   0.640  0.1151  0.1174 -0.2366
  163MPD2    C4 2537   0.374   0.928   0.589  0.5263  0.0755 -0.5551
  163MPD2    C5 2538   0.430   0.971   0.472 -0.1714  0.0263  0.3768
  163MPD2     H 2539   0.531   0.630   0.605  1.2100  0.8591  1.2829
  163MPD2    H1 2540   0.322   0.999   0.652 -0.6962 -1.0270 -0.3269
  163MPD2    H2 2541   0.559   0.936   0.306  1.9037 -0.9083  0.0672
  163MPD2    H3 2542   0.402   1.067   0.430 -0.7584 -0.4084 -0.2327
  163MPD2     N 2543   0.365   0.780   0.779  0.8173  0.2217  0.4496
  163MPD2    H5 2544   0.312   0.857   0.820 -1.7285 -0.9566 -0.6316
  163MPD2    N1 2545   0.630   0.688   0.358  0.0133  0.5077  0.2733
  163MPD2    H7 2546   0.665   0.737   0.276 -2.0274  2.8402  0.8081
  164TMC2    C1 2547   0.779   0.174  10.805 -0.1365  0.1144 -0.3227
  164TMC2    C2 2548   0.908   0.205  10.764 -0.6743 -0.0621 -0.0715
  164TMC2    C3 2549   0.939   0.335  10.772  0.9105 -0.2478 -0.7252
  164TMC2    C4 2550   0.698   0.272  10.849 -0.5210  0.3072  0.6462
  164TMC2    C5 2551   0.736   0.401  10.860  0.0384 -0.2723  0.2084
  164TMC2    C6 2552   0.860   0.433  10.820  0.0816  0.7189  0.8720
  164TMC2     C 2553   0.719   0.044  10.823 -0.5123 -0.6288 -0.2251
  164TMC2     O 2554   0.654   0.024  10.921  0.4448  0.1738  0.9561
  164TMC2     H 2555   0.972   0.121  10.742 -0.6343  0.0752 -0.4700
  164TMC2    H1 2556   0.594   0.243  10.859 -0.3951  0.2839  1.8784
  164TMC2    H2 2557   0.904   0.532  10.825 -2.4007  1.8343  0.7976
  164TMC2    C7 2558   0.635   0.498  10.884  0.2898  0.7412  0.4223
  164TMC2    C8 2559   1.074   0.369  10.734  0.1624  0.0038  0.0451
  164TMC2    O1 2560   0.542   0.458  10.953 -0.0023 -0.1921 -0.7471
  164TMC2    O2 2561   1.125   0.473  10.777 -0.1487  0.3430  0.6032
  164TMC2    O5 2562   1.124   0.289  10.639  0.8134 -0.3696  0.6139
  164TMC2    H5 2563   1.050   0.227  10.619  0.8047 -0.6239  1.4319
  165TMC2    C1 2564   2.537   2.669   0.904  0.0938  0.5298 -0.4221
  165TMC2    C2 2565   2.548   2.583   0.792 -0.0546  0.1569  1.4275
  165TMC2    C3 2566   2.673   2.578   0.735 -0.1484  0.2256 -0.4845
  165TMC2    C4 2567   2.642   2.731   0.973  1.1142 -0.1963 -0.1009
  165TMC2    C5 2568   2.762   2.729   0.906  0.2159 -0.4003  0.1599
  165TMC2    C6 2569   2.774   2.659   0.786 -0.6814  0.0855 -0.5823
  165TMC2     C 2570   2.408   2.695   0.966  0.2567  0.4727 -0.3562
  165TMC2     O 2571   2.327   2.605   0.973 -0.5515 -0.2882  0.4963
  165TMC2     H 2572   2.456   2.545   0.749  0.7092 -1.0857  0.8959
  165TMC2    H1 2573   2.626   2.787   1.064 -1.1139  2.6669 -2.2681
  165TMC2    H2 2574   2.869   2.660   0.732 -0.4241  0.0021 -0.1284
  165TMC2    C7 2575   2.876   2.806   0.949 -0.0781 -0.1937  0.0570
  165TMC2    C8 2576   2.690   2.518   0.601 -0.3156  0.0133  0.2454
  165TMC2    O1 2577   2.976   2.802   0.874  0.0205  0.2839  0.0726
  165TMC2    O2 2578   2.791   2.543   0.536  0.1619  0.1267 -0.0407
  165TMC2    O5 2579   2.605   2.414   0.586 -0.4714  0.4543  0.1539
  165TMC2    H5 2580   2.561   2.398   0.672 -1.0457  0.0123 -0.2224
  166MPD2     C 2581   2.073   3.014   1.198 -0.1517  0.1140  0.3959
  166MPD2    C1 2582   2.068   2.876   1.197  0.0902 -0.3352  0.9472
  166MPD2    C2 2583   2.175   2.810   1.134 -0.0626 -0.2198  0.4900
  166MPD2    C3 2584   2.273   2.883   1.067  0.3071 -0.1059 -1.2664
  166MPD2    C4 2585   2.272   3.021   1.064 -0.4273 -0.1163 -0.0006
  166MPD2    C5 2586   2.170   3.086   1.130 -0.5130  0.2483 -0.0593
  166MPD2     H 2587   2.179   2.702   1.134 -0.3693 -0.2155  2.4759
  166MPD2    H1 2588   2.352   3.081   1.022 -2.6693  2.9990  0.1960
  166MPD2    H2 2589   2.000   3.070   1.256 -1.1815 -2.1059  1.2272
  166MPD2    H3 2590   2.164   3.193   1.117  0.7682  0.1420 -1.4862
  166MPD2     N 2591   2.388   2.823   1.003  0.0293  0.4649  0.2050
  166MPD2    H5 2592   2.462   2.883   0.968 -0.3117  1.5901  1.4573
  166MPD2    N1 2593   1.962   2.820   1.271  0.0023  0.2981  0.4917
  166MPD2    H7 2594   1.898   2.881   1.320  0.0830  0.8787 -0.1274
  167TMC2    C1 2595   0.245   4.702  12.952  0.2347  0.5439  0.9288
  167TMC2    C2 2596   0.183   4.723  13.071 -0.1062  0.1225  0.4147
  167TMC2    C3 2597   0.118   4.612  13.133 -0.1535 -0.7443 -0.0166
  167TMC2    C4 2598   0.240   4.581  12.888  0.0717 -0.2084  0.0311
  167TMC2    C5 2599   0.183   4.472  12.955 -0.2695  0.0561  0.9756
  167TMC2    C6 2600   0.140   4.484  13.085  0.2289 -0.5353 -0.3088
  167TMC2     C 2601   0.311   0.072  12.880 -0.2363  0.3901  0.5066
  167TMC2     O 2602   0.360   0.165  12.949 -0.1061  0.3339  0.4194
  167TMC2     H 2603   0.185   0.085  13.111  0.5718  0.5821 -0.8129
  167TMC2    H1 2604   0.293   4.564  12.795  1.2719 -2.5081  1.1456
  167TMC2    H2 2605   0.085   4.396  13.113  1.3480 -0.3625  2.4432
  167TMC2    C7 2606   0.170   4.344  12.889  0.3896 -0.0842  0.2691
  167TMC2    C8 2607   0.036   4.630  13.256  0.6900 -0.4883 -0.6535
  167TMC2    O1 2608   0.133   4.246  12.951 -0.4010  0.0109  0.1396
  167TMC2    O2 2609   4.696   4.546  13.282  0.1001  0.4515 -0.4463
  167TMC2    O5 2610   0.029   0.020  13.287 -0.3903  0.5625 -0.2989
  167TMC2    H5 2611   0.122   0.049  13.288 -0.1926 -0.0107 -1.6722
  168MPD2     C 2612   0.488   0.232  12.709  0.0232 -0.7517  0.6067
  168MPD2    C1 2613   0.395   0.140  12.655  0.2691 -0.0651  0.3102
  168MPD2    C2 2614   0.363   0.134  12.526  0.0499  0.0488 -0.4407
  168MPD2    C3 2615   0.417   0.231  12.440  0.4551  0.5997 -0.2837
  168MPD2    C4 2616   0.519   0.312  12.489 -0.0704 -0.3361 -0.4077
  168MPD2    C5 2617   0.557   0.315  12.622  0.4314  0.0772 -0.5855
  168MPD2     H 2618   0.278   0.070  12.506  0.9897 -0.7879 -1.7907
  168MPD2    H1 2619   0.555   0.391  12.424 -0.5300 -2.0032 -2.6970
  168MPD2    H2 2620   0.509   0.234  12.815  3.0810 -0.6885 -0.0018
  168MPD2    H3 2621   0.635   0.381  12.655 -1.2807  1.4590  0.6812
  168MPD2     N 2622   0.389   0.240  12.302 -0.4626  0.7737 -0.3896
  168MPD2    H5 2623   0.429   0.315  12.246  0.7198 -0.4751 -1.1900
  168MPD2    N1 2624   0.327   0.050  12.743 -0.0982 -0.3526  0.8946
  168MPD2    H7 2625   0.284   4.707  12.701  1.5973 -0.8029  0.0582
  169MPD1     C 2626   3.192   4.149   8.600  0.1691 -0.3248 -0.3954
  169MPD1    C1 2627   3.195   4.275   8.648  0.2783 -0.8639  0.2273
  169MPD1    C2 2628   3.114   4.303   8.756  0.4755  0.2220  0.7449
  169MPD1    C3 2629   3.040   4.205   8.821 -0.0457  0.0278  0.1914
  169MPD1    C4 2630   3.042   4.079   8.774  0.7541 -0.5305 -0.7373
  169MPD1    C5 2631   3.132   4.053   8.672  0.0551 -0.8086 -0.1488
  169MPD1     H 2632   3.128   4.398   8.807  0.2713  1.1450 -0.9386
  169MPD1    H1 2633   2.990   3.994   8.817  3.0784  0.2716  3.6458
  169MPD1    H2 2634   3.254   4.120   8.515 -1.9147  1.3716 -2.4790
  169MPD1    H3 2635   3.148   3.950   8.641 -1.6787 -0.3693 -2.5597
  169MPD1     N 2636   2.976   4.239   8.942 -0.5670 -0.6041  0.7926
  169MPD1    H5 2637   3.001   4.326   8.987  0.8103 -1.9649  2.6367
  169MPD1    N1 2638   3.255   4.376   8.572  0.7743  0.5561 -0.2629
  169MPD1    H6 2639   3.322   4.341   8.504  0.4275 -1.0870  0.2363
  169MPD1    H7 2640   3.272   4.469   8.608 -2.2337  1.4081 -1.0615
  170MPD1     C 2641   1.778   2.345  13.098  0.4048 -1.1352  0.0846
  170MPD1    C1 2642   1.773   2.272  13.215 -0.0876 -0.2467 -0.0880
  170MPD1    C2 2643   1.658   2.274  13.289 -0.2698  0.7251  0.1592
  170MPD1    C3 2644   1.545   2.330  13.239 -0.7121  0.6170  0.3147
  170MPD1    C4 2645   1.541   2.395  13.113  0.2589  0.5042 -0.4159
  170MPD1    C5 2646   1.667   2.412  13.054  0.4767  0.5001  1.0102
  170MPD1     H 2647   1.653   2.233  13.389 -1.4669  1.5300  0.4278
  170MPD1    H1 2648   1.457   2.424  13.050  0.0588  2.0162  0.5710
  170MPD1    H2 2649   1.863   2.367  13.036 -0.8308  1.9045 -0.5514
  170MPD1    H3 2650   1.677   2.463  12.959 -0.9640 -0.6819  0.2325
  170MPD1     N 2651   1.421   2.316  13.312  0.3673  0.6682  0.6686
  170MPD1    H5 2652   1.422   2.295  13.412  0.0857 -0.3818  0.4485
  170MPD1    N1 2653   1.891   2.225  13.272  0.5626  0.1143  0.4384
  170MPD1    H6 2654   1.959   2.197  13.202 -0.6985 -1.9645  0.0525
  170MPD1    H7 2655   1.872   2.138  13.323  2.3250 -0.1875  0.5792
  171MPD1     C 2656   4.349   3.011  16.260 -0.1043  0.0161 -0.7650
  171MPD1    C1 2657   4.367   2.902  16.173 -0.6088  0.5010  0.7620
  171MPD1    C2 2658   4.487   2.898  16.099  0.4178 -0.3206  0.3325
  171MPD1    C3 2659   4.579   3.004  16.097  0.1859  0.0460 -0.1090
  171MPD1    C4 2660   4.552   3.119  16.172  0.1704  0.8682 -0.4057
  171MPD1    C5 2661   4.440   3.115  16.251  0.3292 -0.1039  0.1217
  171MPD1     H 2662   4.514   2.809  16.044 -1.8240  0.2155 -1.6413
  171MPD1    H1 2663   4.620   3.203  16.175  0.8841  0.2247  1.6979
  171MPD1    H2 2664   4.275   3.019  16.338  0.5079  1.3123 -0.3143
  171MPD1    H3 2665   4.417   3.204  16.308 -2.1114 -0.5805 -0.1152
  171MPD1     N 2666   4.698   3.004  16.023 -0.5264 -0.5315 -0.4320
  171MPD1    H5 2667   0.004   3.093  16.004 -2.6175  0.0455 -2.7265
  171MPD1    N1 2668   4.281   2.798  16.189  0.2138  0.1016 -0.2345
  171MPD1    H6 2669   4.190   2.836  16.213  0.8684  1.3627  0.2301
  171MPD1    H7 2670   4.277   2.743  16.103  0.9558  2.2784 -1.6397
  172MPD1     C 2671   4.251   2.307   0.444 -0.3535  0.5521  0.2396
  172MPD1    C1 2672   4.232   2.397   0.547 -0.1528  0.5546  0.4680
  172MPD1    C2 2673   4.253   2.532   0.519  1.1843  0.0471 -0.0146
  172MPD1    C3 2674   4.298   2.579   0.396 -0.4717  0.3678  0.8850
  172MPD1    C4 2675   4.319   2.485   0.299 -0.1603 -0.2323  0.2343
  172MPD1    C5 2676   4.304   2.355   0.320 -0.4866  0.2747  0.0730
  172MPD1     H 2677   4.246   2.606   0.598  2.4929  0.1903 -0.0373
  172MPD1    H1 2678   4.366   2.512   0.205  1.5651  0.7774  1.3869
  172MPD1    H2 2679   4.254   2.202   0.470  1.8827  0.5055 -0.2047
  172MPD1    H3 2680   4.335   2.280   0.248  1.8987  3.4729 -2.1876
  172MPD1     N 2681   4.327   2.716   0.365 -0.1844 -0.3578 -0.1883
  172MPD1    H5 2682   4.365   2.729   0.272 -0.1570 -1.0488 -0.2723
  172MPD1    N1 2683   4.177   2.355   0.671  0.1069  0.0340  0.2007
  172MPD1    H6 2684   4.217   2.410   0.747  0.5368  0.3074 -0.2221
  172MPD1    H7 2685   4.193   2.255   0.675 -1.3369 -0.1897  0.6519
  173MPD1     C 2686   0.797   3.087  14.244  0.2669  0.2939 -0.0163
  173MPD1    C1 2687   0.773   3.038  14.365  0.2646  0.0192 -0.4279
  173MPD1    C2 2688   0.656   2.966  14.388  0.2617  0.3901  0.4077
  173MPD1    C3 2689   0.577   2.930  14.272 -0.1508  0.4740  0.4038
  173MPD1    C4 2690   0.603   2.989  14.152 -0.7593  0.8562  0.2305
  173MPD1    C5 2691   0.714   3.065  14.136  0.3259  0.4233 -0.0087
  173MPD1     H 2692   0.628   2.923  14.483  0.8664  0.6653  0.7133
  173MPD1    H1 2693   0.549   2.973  14.059  0.2482  0.8124 -0.3415
  173MPD1    H2 2694   0.887   3.146  14.230  2.2198 -1.8238  3.4557
  173MPD1    H3 2695   0.732   3.120  14.045 -0.6798 -0.5501 -0.7875
  173MPD1     N 2696   0.466   2.843  14.290  0.0773  0.4226  0.5884
  173MPD1    H5 2697   0.448   2.819  14.387 -0.1420 -1.1968  0.1592
  173MPD1    N1 2698   0.863   3.056  14.470  0.7540 -0.5543  0.3211
  173MPD1    H6 2699   0.933   3.129  14.460  1.5475 -1.5363 -1.2833
  173MPD1    H7 2700   0.818   3.056  14.562  1.6535 -0.2133  0.7553
  174MPD1     C 2701   0.210   2.048  13.906  0.1055  0.0325 -0.2144
  174MPD1    C1 2702   0.082   2.089  13.928  0.1467  0.6317 -0.7211
  174MPD1    C2 2703   0.054   2.223  13.955  0.5786 -0.2316 -0.1323
  174MPD1    C3 2704   0.161   2.311  13.957 -0.0230 -0.6318  0.7844
  174MPD1    C4 2705   0.277   2.273  13.894 -0.1123  0.2951 -0.4842
  174MPD1    C5 2706   0.305   2.142  13.874 -0.1757 -0.1528 -0.2192
  174MPD1     H 2707   4.698   2.261  13.991  0.5620 -0.4002  0.0008
  174MPD1    H1 2708   0.360   2.343  13.883 -0.6215  0.7085 -1.7601
  174MPD1    H2 2709   0.234   1.945  13.884 -2.3548 -0.3173 -1.2738
  174MPD1    H3 2710   0.398   2.114  13.825 -0.5760  1.3343 -1.8473
  174MPD1     N 2711   0.151   2.437  14.015  0.3854 -0.0823 -0.7035
  174MPD1    H5 2712   0.235   2.492  14.000  0.4135 -0.8339 -3.2793
  174MPD1    N1 2713   4.728   1.988  13.950  0.2194  0.3404  0.1614
  174MPD1    H6 2714   4.636   2.021  13.923  0.9785  2.8833  0.6493
  174MPD1    H7 2715   0.009   1.908  13.891 -1.5412 -0.2707  0.3986
  175MPD1     C 2716   3.088   3.979  15.283 -0.4927 -0.5523 -0.4670
  175MPD1    C1 2717   3.011   4.025  15.387  0.5735 -0.1800 -0.2277
  175MPD1    C2 2718   3.053   3.988  15.518 -0.6210 -0.6463  0.3930
  175MPD1    C3 2719   3.157   3.895  15.538  0.2132  0.0205 -0.2523
  175MPD1    C4 2720   3.219   3.844  15.425  0.4339 -0.2202 -0.8277
  175MPD1    C5 2721   3.186   3.888  15.300  0.5045 -0.6861  0.6960
  175MPD1     H 2722   3.004   4.027  15.606 -2.3383 -1.2719 -0.2752
  175MPD1    H1 2723   3.305   3.781  15.440 -0.2737 -1.0881 -0.4164
  175MPD1    H2 2724   3.061   4.026  15.189 -1.3250 -2.0139 -0.9491
  175MPD1    H3 2725   3.238   3.858  15.210 -1.3023 -1.3361 -0.1302
  175MPD1     N 2726   3.206   3.850  15.666 -0.0414  0.5742  0.0035
  175MPD1    H5 2727   3.295   3.801  15.667  0.1946  0.9404 -2.7820
  175MPD1    N1 2728   2.917   4.128  15.354 -0.7557 -0.4187 -0.0974
  175MPD1    H6 2729   2.841   4.116  15.420  0.5990 -2.0241  1.1825
  175MPD1    H7 2730   2.873   4.116  15.263 -0.7143  0.0262 -0.1738
  176MPD1     C 2731   0.371   0.439   0.121  0.5346  0.3242  0.3695
  176MPD1    C1 2732   0.349   0.567   0.173 -0.2227 -0.1832 -0.5491
  176MPD1    C2 2733   0.374   0.681   0.103 -0.2368 -0.0298 -0.1314
  176MPD1    C3 2734   0.433   0.672  17.738 -0.1458  0.0273  0.1394
  176MPD1    C4 2735   0.439   0.550  17.679 -0.0626 -0.3161 -0.4081
  176MPD1    C5 2736   0.426   0.435  17.751 -0.3436 -0.1709  0.5307
  176MPD1     H 2737   0.352   0.781   0.141 -0.1159 -1.1231  2.8258
  176MPD1    H1 2738   0.473   0.538  17.577  2.5500 -1.5642  0.6035
  176MPD1    H2 2739   0.337   0.348   0.168 -0.8727  0.9721  0.6166
  176MPD1    H3 2740   0.435   0.335  17.708 -0.7413  0.8845 -2.0320
  176MPD1     N 2741   0.467   0.786  17.657 -0.1493  0.4722 -0.4902
  176MPD1    H5 2742   0.488   0.773  17.559  0.3162  0.2394 -0.3588
  176MPD1    N1 2743   0.289   0.580   0.301 -0.5669  0.1723 -0.7646
  176MPD1    H6 2744   0.324   0.659   0.355 -0.0218 -0.8912  0.4494
  176MPD1    H7 2745   0.288   0.492   0.353  1.7028  1.2643  1.1392
  177MPD1     C 2746   3.504   0.403  10.160 -0.6547 -0.6022 -0.3643
  177MPD1    C1 2747   3.528   0.517  10.088  0.0992  0.4254  0.2830
  177MPD1    C2 2748   3.414   0.567  10.036 -0.3219 -0.3313  1.0515
  177MPD1    C3 2749   3.288   0.506  10.035  0.2329  0.0627  0.5439
  177MPD1    C4 2750   3.275   0.392  10.101  0.6959  0.6556 -0.4639
  177MPD1    C5 2751   3.383   0.348  10.167  0.0166  0.3895 -0.1259
  177MPD1     H 2752   3.423   0.663   9.988 -1.7658 -0.3977  0.6356
  177MPD1    H1 2753   3.180   0.340  10.108  1.7758 -0.9755  2.1541
  177MPD1    H2 2754   3.577   0.346  10.217 -0.4952 -0.7627 -0.7261
  177MPD1    H3 2755   3.376   0.274  10.246  2.5727  1.2218  0.8693
  177MPD1     N 2756   3.178   0.583   9.982 -0.0995 -0.7873  0.3828
  177MPD1    H5 2757   3.205   0.670   9.937 -1.2965 -0.8876 -0.5288
  177MPD1    N1 2758   3.648   0.589  10.098  0.2061 -0.0067  0.4266
  177MPD1    H6 2759   3.655   0.665  10.030  0.8493 -0.3598  0.0969
  177MPD1    H7 2760   3.647   0.638  10.188 -1.3178 -0.2775  0.5592
  178MPD1     C 2761   1.029   1.448   0.185  0.1080  0.1193 -0.1523
  178MPD1    C1 2762   0.955   1.439   0.066  0.0379 -0.8897 -0.1267
  178MPD1    C2 2763   1.019   1.460  17.703  0.7229 -0.0517  0.1857
  178MPD1    C3 2764   1.152   1.508  17.696 -0.2813  0.6280  0.3859
  178MPD1    C4 2765   1.217   1.530   0.066  0.5350  0.3923 -0.4249
  178MPD1    C5 2766   1.158   1.494   0.184 -0.2731 -0.2956  0.0781
  178MPD1     H 2767   0.962   1.440  17.613 -2.4831 -1.8216  2.6260
  178MPD1    H1 2768   1.313   1.579   0.074  0.3462  0.3817  1.9021
  178MPD1    H2 2769   0.989   1.420   0.282 -0.2494  2.0041  0.2472
  178MPD1    H3 2770   1.224   1.510   0.268 -0.0903 -0.4801 -0.0286
  178MPD1     N 2771   1.206   1.554  17.574 -0.5790  0.2301 -0.2981
  178MPD1    H5 2772   1.298   1.595  17.588  0.7069 -3.0593  0.8351
  178MPD1    N1 2773   0.827   1.382   0.061 -0.3702  0.2984 -0.0616
  178MPD1    H6 2774   0.771   1.414   0.139 -0.1340 -0.4485  0.4096
  178MPD1    H7 2775   0.778   1.405  17.729 -1.5654  1.6027  0.9518
  179MPD1     C 2776   0.185   0.359  16.027  0.0572  0.5857  0.1952
  179MPD1    C1 2777   0.317   0.331  16.048 -0.1306  0.1307  0.2220
  179MPD1    C2 2778   0.373   0.234  15.965  0.2687 -0.1580 -0.6310
  179MPD1    C3 2779   0.295   0.145  15.890  0.8687 -0.1110  0.1855
  179MPD1    C4 2780   0.165   0.164  15.885  0.2441  0.0455 -0.5438
  179MPD1    C5 2781   0.112   0.269  15.958  0.1495 -0.2360 -0.0694
  179MPD1     H 2782   0.481   0.228  15.959  0.4199  3.4558 -1.6193
  179MPD1    H1 2783   0.094   0.091  15.847 -0.3369 -1.0424  2.6531
  179MPD1    H2 2784   0.144   0.437  16.090 -1.9950 -1.0955  0.9370
  179MPD1    H3 2785   0.006   0.280  15.981  0.1267 -0.3672 -0.1064
  179MPD1     N 2786   0.340   0.032  15.830 -0.4122  0.3684  0.2973
  179MPD1    H5 2787   0.273   4.721  15.774  1.8417 -2.6789  0.3341
  179MPD1    N1 2788   0.402   0.423  16.112  0.1027 -0.0529  0.3248
  179MPD1    H6 2789   0.350   0.464  16.189  0.3081 -0.2410  0.5596
  179MPD1    H7 2790   0.487   0.383  16.151 -1.1196 -0.7575  2.2828
  180MPD1     C 2791   1.168   1.189  15.386 -0.5622  0.0943  0.0473
  180MPD1    C1 2792   1.206   1.197  15.258 -0.1814 -0.3113  0.0014
  180MPD1    C2 2793   1.106   1.197  15.164  0.5997  0.6042  0.7060
  180MPD1    C3 2794   0.976   1.188  15.197 -0.6888 -0.4109 -0.0880
  180MPD1    C4 2795   0.939   1.170  15.329  0.1818  0.7533 -0.0843
  180MPD1    C5 2796   1.039   1.173  15.421 -0.6206 -0.4741 -1.0831
  180MPD1     H 2797   1.131   1.214  15.060  1.4039 -1.4430  0.5705
  180MPD1    H1 2798   0.836   1.152  15.358  0.3122 -0.7564 -0.5363
  180MPD1    H2 2799   1.240   1.187  15.468  1.3799 -4.1021 -1.7752
  180MPD1    H3 2800   1.008   1.155  15.524  0.3259  1.4884 -0.4638
  180MPD1     N 2801   0.884   1.191  15.088  0.0960 -0.2820 -0.5817
  180MPD1    H5 2802   0.922   1.191  14.994 -0.3880 -0.3196 -0.7773
  180MPD1    N1 2803   1.334   1.181  15.217 -0.3235 -0.9206 -0.4185
  180MPD1    H6 2804   1.402   1.221  15.281 -1.3772 -0.7032  0.5626
  180MPD1    H7 2805   1.356   1.227  15.129  0.5584  0.6963  0.6584
  181MPD1     C 2806   1.959   3.323  10.437  0.2567 -0.8462  0.1206
  181MPD1    C1 2807   1.986   3.277  10.309 -0.0295  0.5219  0.9342
  181MPD1    C2 2808   2.118   3.297  10.266 -0.7322 -0.2241 -0.0364
  181MPD1    C3 2809   2.211   3.336  10.360 -0.2838  0.0836  0.3331
  181MPD1    C4 2810   2.178   3.372  10.494 -0.1110  0.2490 -0.4519
  181MPD1    C5 2811   2.049   3.372  10.524  0.0219 -0.6328  0.7540
  181MPD1     H 2812   2.138   3.276  10.161  0.6931 -0.0445  0.1922
  181MPD1    H1 2813   2.251   3.408  10.566  2.1541 -2.1335 -1.5504
  181MPD1    H2 2814   1.857   3.314  10.471  0.4079 -2.1683  0.2269
  181MPD1    H3 2815   2.010   3.395  10.623 -1.7431  0.0955 -0.1064
  181MPD1     N 2816   2.347   3.348  10.332  0.0088 -0.2016 -0.2082
  181MPD1    H5 2817   2.403   3.387  10.407 -1.5727 -0.7349  1.2540
  181MPD1    N1 2818   1.877   3.248  10.226  0.5990 -0.3109  0.5476
  181MPD1    H6 2819   1.795   3.214  10.276 -0.2110 -0.4669 -0.8767
  181MPD1    H7 2820   1.904   3.174  10.162  1.5107  0.6186 -0.1299
  182MPD1     C 2821   3.855   3.063   1.441  0.3212 -0.1185  0.5199
  182MPD1    C1 2822   3.743   3.145   1.467  0.2721 -0.3084 -0.1026
  182MPD1    C2 2823   3.621   3.085   1.462  0.1227 -0.5780  0.4787
  182MPD1    C3 2824   3.607   2.955   1.431 -0.3278 -0.0724 -0.3393
  182MPD1    C4 2825   3.719   2.874   1.406  0.1748 -0.3558  0.2832
  182MPD1    C5 2826   3.846   2.928   1.427 -0.7169 -0.6004  0.2572
  182MPD1     H 2827   3.536   3.151   1.471  0.1073 -0.6832  1.1006
  182MPD1    H1 2828   3.715   2.765   1.402  1.6623 -0.2221 -4.2398
  182MPD1    H2 2829   3.957   3.101   1.444  0.0768  0.4875  1.2292
  182MPD1    H3 2830   3.920   2.853   1.402 -1.1048 -0.7663 -0.3907
  182MPD1     N 2831   3.483   2.893   1.414  0.0166  0.4593 -0.3784
  182MPD1    H5 2832   3.489   2.800   1.374  0.1167 -0.9230  2.8640
  182MPD1    N1 2833   3.767   3.278   1.495 -0.2615  0.2066 -0.2932
  182MPD1    H6 2834   3.693   3.345   1.477 -0.4689  0.2082  0.5727
  182MPD1    H7 2835   3.849   3.312   1.445  1.3241 -2.5799  0.3666
  183MPD1     C 2836   2.427   1.581   8.125  0.2710  0.1260  0.5636
  183MPD1    C1 2837   2.337   1.640   8.212 -0.4899  0.4335 -0.2425
  183MPD1    C2 2838   2.378   1.747   8.296  0.5715 -0.1393 -0.1233
  183MPD1    C3 2839   2.512   1.778   8.302 -0.2627 -0.0378  0.1338
  183MPD1    C4 2840   2.601   1.713   8.219 -0.8534 -0.0987 -0.0670
  183MPD1    C5 2841   2.558   1.618   8.127  0.4910 -0.3706  0.5858
  183MPD1     H 2842   2.308   1.801   8.358  1.7228  0.3743  0.7094
  183MPD1    H1 2843   2.706   1.741   8.220 -0.9983  0.4196  2.5094
  183MPD1    H2 2844   2.401   1.509   8.049  1.7404  0.0586  0.1246
  183MPD1    H3 2845   2.625   1.592   8.046 -0.7851 -0.7971 -0.3314
  183MPD1     N 2846   2.554   1.858   8.412  0.0611  0.2387 -0.6450
  183MPD1    H5 2847   2.480   1.889   8.475 -0.6350  0.3070 -1.4974
  183MPD1    N1 2848   2.199   1.620   8.190 -0.3326  0.7314 -0.5923
  183MPD1    H6 2849   2.145   1.621   8.276 -0.1093 -0.5853 -0.4382
  183MPD1    H7 2850   2.173   1.542   8.130  0.5162 -0.6505  0.8488
  184MPD1     C 2851   2.597   4.635  10.198 -0.0961  0.2837 -0.6636
  184MPD1    C1 2852   2.690   4.702  10.121  0.1232 -0.3888 -0.5857
  184MPD1    C2 2853   2.643   0.045  10.022  0.2714  0.4670  0.2339
  184MPD1    C3 2854   2.511   0.074  10.004 -0.5268  0.5554 -0.3789
  184MPD1    C4 2855   2.423   0.016  10.090  1.0076  0.1575  0.0381
  184MPD1    C5 2856   2.467   4.673  10.187 -0.2992  0.1473 -0.0498
  184MPD1     H 2857   2.719   0.087   9.956  0.5822 -0.0455  0.2612
  184MPD1    H1 2858   2.321   0.052  10.093 -0.3966 -3.8022  0.5149
  184MPD1    H2 2859   2.623   4.557  10.268 -0.6535  0.0629 -0.7044
  184MPD1    H3 2860   2.393   4.631  10.254  0.9429 -0.4827  0.9398
  184MPD1     N 2861   2.471   0.175   9.911  0.0263  0.8689 -0.0776
  184MPD1    H5 2862   2.371   0.191   9.905 -0.0160  0.9109  0.6465
  184MPD1    N1 2863   2.834   4.670  10.120 -0.1811 -0.2584  0.1740
  184MPD1    H6 2864   2.856   4.634  10.213  0.1953 -0.2319  0.0967
  184MPD1    H7 2865   2.898   0.003  10.087 -0.8097  0.6813  1.0163
  185MPD1     C 2866   2.121   0.154   9.049 -0.0179  0.2566 -0.4070
  185MPD1    C1 2867   2.085   0.276   9.090 -0.4881  0.1918  0.4836
  185MPD1    C2 2868   2.132   0.327   9.215  0.5273 -0.2396 -0.2143
  185MPD1    C3 2869   2.222   0.255   9.291 -0.4389 -0.3629 -0.2000
  185MPD1    C4 2870   2.240   0.123   9.251 -1.1198 -0.5606 -0.0517
  185MPD1    C5 2871   2.200   0.083   9.125 -0.2475  0.5156 -0.1937
  185MPD1     H 2872   2.098   0.425   9.246  0.2879  0.0586 -1.4080
  185MPD1    H1 2873   2.300   0.050   9.304 -0.0881  0.3064 -0.0176
  185MPD1    H2 2874   2.092   0.117   8.952  2.8101 -0.8169 -0.8431
  185MPD1    H3 2875   2.240   4.727   9.092  0.8822  0.0795  2.4253
  185MPD1     N 2876   2.278   0.304   9.410  0.7342 -0.2789  0.0775
  185MPD1    H5 2877   2.332   0.234   9.459  2.1600 -0.2723 -1.4938
  185MPD1    N1 2878   2.007   0.360   9.011 -0.4154  0.4869  0.1121
  185MPD1    H6 2879   2.041   0.455   9.026  2.0557 -0.0881 -1.8048
  185MPD1    H7 2880   2.020   0.343   8.911 -1.0623 -1.4183  0.3511
  186MPD1     C 2881   0.480   0.980  15.426 -0.0282 -0.4438  0.1959
  186MPD1    C1 2882   0.607   0.934  15.382  0.0877  0.1233 -0.2943
  186MPD1    C2 2883   0.684   0.859  15.472 -0.5898 -0.0058 -0.5502
  186MPD1    C3 2884   0.649   0.828  15.606  0.3627 -0.4603 -0.5115
  186MPD1    C4 2885   0.525   0.877  15.646  0.2535 -0.3634  0.2816
  186MPD1    C5 2886   0.445   0.953  15.554 -0.0505  0.1924 -0.0661
  186MPD1     H 2887   0.777   0.826  15.426 -0.2344  0.0870  0.0944
  186MPD1    H1 2888   0.477   0.869  15.743 -2.6085  2.1274 -0.9321
  186MPD1    H2 2889   0.421   1.038  15.355 -1.6604 -0.8520  1.2426
  186MPD1    H3 2890   0.348   0.988  15.589 -0.6999 -0.7608 -0.9145
  186MPD1     N 2891   0.727   0.772  15.712 -0.0258 -0.2940  0.2917
  186MPD1    H5 2892   0.690   0.755  15.805 -0.2374 -0.6303  0.1458
  186MPD1    N1 2893   0.648   0.945  15.250  0.6900 -0.9129  0.1683
  186MPD1    H6 2894   0.638   1.037  15.207 -1.5569 -0.1228  2.3973
  186MPD1    H7 2895   0.745   0.914  15.250  1.5062  1.5587  0.0057
  187MPD1     C 2896   4.739   2.262   0.068 -0.1427  0.5539 -0.2956
  187MPD1    C1 2897   4.682   2.160  17.754  0.2195  0.3333  0.0454
  187MPD1    C2 2898   0.023   2.067  17.692  0.3715 -0.0275 -0.3891
  187MPD1    C3 2899   0.159   2.087  17.675 -0.1926  0.1705  0.0907
  187MPD1    C4 2900   0.215   2.201  17.729 -0.0923 -0.3645 -0.2947
  187MPD1    C5 2901   0.134   2.286   0.053  0.7391  0.1837  0.0104
  187MPD1     H 2902   4.711   1.984  17.646  1.3048 -0.0941 -1.3003
  187MPD1    H1 2903   0.317   2.234  17.717 -0.8899  1.7027 -1.4801
  187MPD1    H2 2904   4.685   2.323   0.139 -1.4201  0.4229 -1.1657
  187MPD1    H3 2905   0.178   2.370   0.106 -1.1106  0.7909  0.5899
  187MPD1     N 2906   0.238   2.004  17.597  0.5299  0.5606  0.1951
  187MPD1    H5 2907   0.336   2.032  17.588  0.2103  0.6255 -2.9609
  187MPD1    N1 2908   4.541   2.140   0.002 -0.0745 -0.2553 -0.1622
  187MPD1    H6 2909   4.498   2.080  17.688  3.7500 -2.4271 -0.6522
  187MPD1    H7 2910   4.490   2.224   0.029  1.8247  1.2763 -1.3128
  188MPD1     C 2911   0.273   1.845   9.712 -0.1015  0.8806  0.4568
  188MPD1    C1 2912   0.148   1.857   9.768  0.5732 -0.1622  0.2484
  188MPD1    C2 2913   0.075   1.741   9.786 -0.5559  0.4145  0.5710
  188MPD1    C3 2914   0.122   1.623   9.730  0.4837  0.3226 -0.4583
  188MPD1    C4 2915   0.246   1.619   9.671 -0.7900 -0.0027  0.2457
  188MPD1    C5 2916   0.314   1.731   9.655  0.1668  0.4026  0.4103
  188MPD1     H 2917   4.719   1.748   9.837 -1.1356  1.7069 -0.6812
  188MPD1    H1 2918   0.276   1.530   9.617  0.3849 -0.4070  1.5693
  188MPD1    H2 2919   0.327   1.935   9.686  0.8559  0.8228  2.2202
  188MPD1    H3 2920   0.408   1.733   9.600  0.5840  2.2673  1.1839
  188MPD1     N 2921   0.058   1.497   9.749  0.7915  0.6131  0.7414
  188MPD1    H5 2922   0.085   1.417   9.693  0.4817 -0.6621  2.3986
  188MPD1    N1 2923   0.103   1.977   9.838 -0.0711  0.1507 -0.4937
  188MPD1    H6 2924   0.127   2.067   9.797 -3.2736  0.8900 -0.7729
  188MPD1    H7 2925   0.006   1.964   9.868  0.1361 -0.2220  0.0156
  189MPD1     C 2926   2.653   2.940   0.423  0.0333 -0.5134 -0.1779
  189MPD1    C1 2927   2.632   3.077   0.408  0.4216 -0.5678 -0.0209
  189MPD1    C2 2928   2.498   3.109   0.385  0.5259 -0.0018 -0.2074
  189MPD1    C3 2929   2.396   3.023   0.387 -0.3645 -0.2400 -1.2316
  189MPD1    C4 2930   2.423   2.892   0.401  0.4254  0.2507  0.2388
  189MPD1    C5 2931   2.552   2.850   0.435  0.0064  0.0413  0.1394
  189MPD1     H 2932   2.469   3.211   0.363  3.1695  0.7422 -0.1374
  189MPD1    H1 2933   2.346   2.817   0.413 -0.5909  0.8952 -2.2483
  189MPD1    H2 2934   2.751   2.899   0.445 -0.5915 -0.5789  2.4173
  189MPD1    H3 2935   2.569   2.743   0.445 -0.8256 -0.0375  0.7365
  189MPD1     N 2936   2.262   3.071   0.378 -0.3501 -0.3214 -0.7570
  189MPD1    H5 2937   2.252   3.172   0.385 -0.1420 -0.3932  0.6387
  189MPD1    N1 2938   2.747   3.154   0.377 -0.6369  0.1976  0.1850
  189MPD1    H6 2939   2.724   3.253   0.369 -0.2653  0.2316 -0.4644
  189MPD1    H7 2940   2.832   3.135   0.430 -1.2354 -1.5814  0.5055
  190MPD1     C 2941   0.822   1.529  14.977 -0.2413  0.2597  0.0449
  190MPD1    C1 2942   0.952   1.521  14.958 -0.1090  0.0695 -0.0465
  190MPD1    C2 2943   1.033   1.517  15.072  0.1521  0.3878  0.1791
  190MPD1    C3 2944   0.984   1.551  15.200 -0.5911  0.1200  0.3403
  190MPD1    C4 2945   0.849   1.567  15.217 -0.6531 -0.5329  0.1457
  190MPD1    C5 2946   0.769   1.549  15.099  0.1848  0.4110 -0.0132
  190MPD1     H 2947   1.136   1.492  15.047  0.6516  2.3971  0.2198
  190MPD1    H1 2948   0.809   1.594  15.314  0.8100 -0.0000  0.5999
  190MPD1    H2 2949   0.762   1.550  14.889  0.1079  1.6854  0.1409
  190MPD1    H3 2950   0.663   1.562  15.121  0.1785  0.1934  0.0884
  190MPD1     N 2951   1.078   1.559  15.306  0.3004  0.6074 -0.5830
  190MPD1    H5 2952   1.178   1.567  15.286  0.6341 -0.8613  0.5216
  190MPD1    N1 2953   1.000   1.498  14.826  0.4198 -0.7154 -0.3441
  190MPD1    H6 2954   1.096   1.523  14.806 -0.3243  1.7200 -0.7968
  190MPD1    H7 2955   0.937   1.536  14.756 -0.6575 -0.0145  1.0121
  191MPD1     C 2956   4.202   2.814  12.965  0.2471  0.1042  0.2459
  191MPD1    C1 2957   4.161   2.923  12.892 -0.5377 -0.4129  0.7586
  191MPD1    C2 2958   4.231   2.938  12.774  0.6946 -0.5854  0.7103
  191MPD1    C3 2959   4.339   2.860  12.740  0.0047 -0.3391 -0.0213
  191MPD1    C4 2960   4.379   2.758  12.819  0.6411 -0.4764  0.8145
  191MPD1    C5 2961   4.310   2.735  12.933 -0.3983  0.1036 -0.7389
  191MPD1     H 2962   4.185   3.013  12.710  0.6766 -2.0387 -0.9723
  191MPD1    H1 2963   4.470   2.704  12.796  1.3749  0.4128  1.6681
  191MPD1    H2 2964   4.146   2.782  13.052  0.4495 -1.1627 -0.0862
  191MPD1    H3 2965   4.357   2.659  12.995 -2.9522 -0.5125  0.4535
  191MPD1     N 2966   4.403   2.899  12.612  0.5042  0.2420  0.7517
  191MPD1    H5 2967   4.360   2.965  12.547  0.1471  0.9864  1.7329
  191MPD1    N1 2968   4.035   2.980  12.908  0.3290 -0.2517  0.0464
  191MPD1    H6 2969   4.008   2.992  13.005 -0.1328  2.8515 -0.4543
  191MPD1    H7 2970   4.032   3.073  12.866 -0.1326 -0.4610 -0.3660
  192MPD1     C 2971   3.891   2.763  11.899  0.0285 -0.6962 -0.0704
  192MPD1    C1 2972   4.004   2.814  11.838  0.1590 -0.1139 -0.1654
  192MPD1    C2 2973   4.115   2.831  11.919  0.4031  0.4470 -0.0964
  192MPD1    C3 2974   4.119   2.789  12.058 -0.1812  0.4043  0.5380
  192MPD1    C4 2975   4.006   2.753  12.120 -0.4614 -0.5070  0.4983
  192MPD1    C5 2976   3.894   2.738  12.036 -0.9038  0.0731  0.9133
  192MPD1     H 2977   4.204   2.870  11.870  0.9043 -1.4302 -0.6743
  192MPD1    H1 2978   4.005   2.720  12.224  1.7725 -1.6579  0.1722
  192MPD1    H2 2979   3.801   2.746  11.840 -0.6026 -0.8652  0.9282
  192MPD1    H3 2980   3.801   2.716  12.088 -1.6780 -2.0896 -1.4052
  192MPD1     N 2981   4.235   2.804  12.141  1.0204  0.5876 -0.6102
  192MPD1    H5 2982   4.223   2.763  12.233 -0.3599 -1.3309 -1.6528
  192MPD1    N1 2983   4.014   2.839  11.700 -0.1171  0.4052 -0.9968
  192MPD1    H6 2984   4.105   2.854  11.657  1.9341  0.0672  3.2874
  192MPD1    H7 2985   3.959   2.782  11.636 -0.1063 -0.6967 -0.0169
  193MPD1     C 2986   4.091   3.175  16.568  0.4378  0.2402  0.3770
  193MPD1    C1 2987   4.229   3.162  16.574  0.1179 -0.1686  0.6209
  193MPD1    C2 2988   4.304   3.282  16.547  0.1514 -0.8341 -0.3587
  193MPD1    C3 2989   4.250   3.400  16.486 -0.1838  0.0778 -0.2305
  193MPD1    C4 2990   4.118   3.404  16.476  0.0388  0.3579  0.4501
  193MPD1    C5 2991   4.043   3.294  16.510  0.0513  0.1829 -0.1369
  193MPD1     H 2992   4.411   3.280  16.566 -0.0815  0.8981  1.0804
  193MPD1    H1 2993   4.070   3.493  16.438  1.3457  0.0246 -1.9508
  193MPD1    H2 2994   4.021   3.100  16.601  1.3423 -0.6774  0.2370
  193MPD1    H3 2995   3.935   3.299  16.501  0.0763 -1.4359 -1.4001
  193MPD1     N 2996   4.327   3.514  16.441 -0.6958  0.1193 -0.1596
  193MPD1    H5 2997   4.272   3.598  16.424 -1.2381 -0.5213 -1.5250
  193MPD1    N1 2998   4.291   3.050  16.633  0.4482  0.3279 -0.5819
  193MPD1    H6 2999   4.371   3.025  16.575  0.2082 -0.0385 -0.7570
  193MPD1    H7 3000   4.232   2.967  16.625 -0.4703  0.8906  0.3686
  194MPD1     C 3001   3.274   0.865  17.003  0.1628  0.8014 -0.5283
  194MPD1    C1 3002   3.296   0.822  16.878 -0.0355  0.3157  0.1919
  194MPD1    C2 3003   3.397   0.734  16.857 -0.2478  0.0509 -0.0032
  194MPD1    C3 3004   3.465   0.674  16.961  0.4614  0.1846  0.2968
  194MPD1    C4 3005   3.431   0.715  17.086 -0.0798 -0.6760  0.0937
  194MPD1    C5 3006   3.341   0.817  17.111 -1.5515  0.9927  0.3862
  194MPD1     H 3007   3.414   0.703  16.754  2.2354  1.4813 -0.0310
  194MPD1    H1 3008   3.483   0.670  17.170  2.5760  1.3633 -0.4304
  194MPD1    H2 3009   3.197   0.937  17.028 -0.2870  0.2238 -0.2560
  194MPD1    H3 3010   3.329   0.865  17.208 -1.0205  1.3420  0.2815
  194MPD1     N 3011   3.574   0.578  16.951  0.3222  0.2252  0.1509
  194MPD1    H5 3012   3.596   0.522  17.033 -0.2924 -1.2528 -0.6976
  194MPD1    N1 3013   3.242   0.890  16.770 -0.2639 -0.0313 -0.6687
  194MPD1    H6 3014   3.232   0.819  16.698  0.0069  1.7785 -2.4800
  194MPD1    H7 3015   3.151   0.936  16.773 -0.7101 -0.8579 -1.6230
  195MPD1     C 3016   4.685   2.609   0.676 -0.4773  0.3475 -0.2374
  195MPD1    C1 3017   0.081   2.591   0.660  0.1716  0.5292 -0.0331
  195MPD1    C2 3018   0.126   2.478   0.601 -0.7111 -0.6790 -0.1605
  195MPD1    C3 3019   0.037   2.378   0.554  0.2472 -0.3380  0.4295
  195MPD1    C4 3020   4.639   2.390   0.586 -1.6050  0.2170  0.0757
  195MPD1    C5 3021   4.595   2.507   0.644  0.2359 -0.5086 -0.5390
  195MPD1     H 3022   0.233   2.470   0.580 -0.6742 -0.3206 -0.1126
  195MPD1    H1 3023   4.559   2.327   0.548 -0.2867 -1.6785  0.4825
  195MPD1    H2 3024   4.646   2.703   0.711  0.4820  0.4438  0.5760
  195MPD1    H3 3025   4.490   2.532   0.656  0.2811 -1.1781  1.2834
  195MPD1     N 3026   0.075   2.263   0.483 -0.2107  0.0237 -0.0880
  195MPD1    H5 3027   0.002   2.208   0.439  0.2050  0.1608 -0.9682
  195MPD1    N1 3028   0.168   2.698   0.678 -0.5027 -0.6532 -0.1025
  195MPD1    H6 3029   0.159   2.757   0.595  0.1186 -2.0447 -1.1569
  195MPD1    H7 3030   0.259   2.654   0.685  0.7562  2.1880  1.3149
  196MPD1     C 3031   4.025   1.164   0.486 -0.6909 -0.5743 -0.2779
  196MPD1    C1 3032   3.913   1.237   0.520 -0.3624 -0.2898 -0.2357
  196MPD1    C2 3033   3.928   1.336   0.615  0.7656 -0.4935 -0.1449
  196MPD1    C3 3034   4.051   1.354   0.684 -0.6449  0.1075 -0.4354
  196MPD1    C4 3035   4.151   1.265   0.652 -0.6906 -0.3592  0.5768
  196MPD1    C5 3036   4.134   1.161   0.560  0.1544  0.2642  0.1734
  196MPD1     H 3037   3.842   1.399   0.638  0.6288 -1.4196  1.8243
  196MPD1    H1 3038   4.248   1.256   0.701  0.6846  4.1523 -1.3162
  196MPD1    H2 3039   4.007   1.081   0.419  1.9443 -0.8110 -0.6740
  196MPD1    H3 3040   4.218   1.097   0.535 -0.2113 -0.2192  0.1787
  196MPD1     N 3041   4.077   1.457   0.775  0.5192  0.0685 -0.3044
  196MPD1    H5 3042   4.174   1.456   0.804  0.3820 -2.0088  0.0745
  196MPD1    N1 3043   3.791   1.233   0.444  0.0646 -0.0191 -0.1286
  196MPD1    H6 3044   3.771   1.149   0.390 -1.3286 -0.4705  1.0906
  196MPD1    H7 3045   3.704   1.264   0.486 -0.3263 -0.3845 -0.6785
  197MPD1     C 3046   3.605   3.388  17.670 -0.3596 -0.4275 -0.8035
  197MPD1    C1 3047   3.700   3.485  17.685 -0.7303  0.2746  0.6921
  197MPD1    C2 3048   3.716   3.571  17.573  0.3754  0.2108 -0.3569
  197MPD1    C3 3049   3.646   3.549  17.454 -0.2555  0.6083 -0.7313
  197MPD1    C4 3050   3.550   3.451  17.449 -1.0543  0.0831  0.2019
  197MPD1    C5 3051   3.534   3.371  17.555  0.3563  0.2647 -1.0909
  197MPD1     H 3052   3.778   3.660  17.585 -0.7663  0.7797  1.3126
  197MPD1    H1 3053   3.482   3.446  17.365  0.5693  1.5068 -1.2021
  197MPD1    H2 3054   3.582   3.332   0.005 -0.7141 -1.0528 -1.2923
  197MPD1    H3 3055   3.459   3.293  17.555  0.2422  0.3614  2.4884
  197MPD1     N 3056   3.671   3.625  17.338  0.0227 -0.3985 -0.1515
  197MPD1    H5 3057   3.622   3.593  17.255  2.5986 -3.3515 -0.5476
  197MPD1    N1 3058   3.751   3.530   0.054 -0.0767  0.2041  0.7079
  197MPD1    H6 3059   3.761   3.448   0.113 -0.4948 -0.5034 -0.2120
  197MPD1    H7 3060   3.839   3.581   0.047 -0.1239  0.4059  1.5660
  198MPD1     C 3061   4.707   2.195  15.462  0.2345  0.3528 -0.6436
  198MPD1    C1 3062   0.023   2.242  15.575 -0.7239 -0.2628  0.2178
  198MPD1    C2 3063   0.160   2.222  15.598  0.6772  0.3001 -0.4510
  198MPD1    C3 3064   0.236   2.152  15.512  0.3135  0.1510  0.0516
  198MPD1    C4 3065   0.178   2.105  15.391  0.2212  0.2617 -0.3168
  198MPD1    C5 3066   0.044   2.125  15.367 -0.5378  0.1561 -0.3900
  198MPD1     H 3067   0.206   2.256  15.690  1.3525 -1.2132 -0.2362
  198MPD1    H1 3068   0.232   2.054  15.312  0.3377  0.4872 -0.3820
  198MPD1    H2 3069   4.601   2.202  15.441 -0.2292  0.6368  1.8310
  198MPD1    H3 3070   4.726   2.078  15.289 -2.1649  2.1736 -0.4032
  198MPD1     N 3071   0.363   2.121  15.543 -0.5400  0.1238  0.3111
  198MPD1    H5 3072   0.408   2.158  15.626 -0.0159  0.4954 -0.1329
  198MPD1    N1 3073   4.686   2.300  15.670  0.1682 -0.0780 -0.1438
  198MPD1    H6 3074   4.592   2.319  15.636 -0.0447  2.4324  1.8942
  198MPD1    H7 3075   4.677   2.247  15.757 -0.7682  3.0722  1.6901
  199MPD1     C 3076   2.076   4.218  10.820  0.3613 -0.0779  0.2470
  199MPD1    C1 3077   2.177   4.224  10.730 -0.0043 -0.2459 -0.6778
  199MPD1    C2 3078   2.156   4.213  10.594 -0.2916  0.7328  0.0122
  199MPD1    C3 3079   2.029   4.187  10.547 -0.2096  0.0929 -0.6431
  199MPD1    C4 3080   1.921   4.176  10.642 -0.9550  0.2460 -0.0629
  199MPD1    C5 3081   1.948   4.195  10.777 -0.2288  0.4943 -0.5825
  199MPD1     H 3082   2.235   4.241  10.525  0.5877  0.0090  0.7321
  199MPD1    H1 3083   1.818   4.165  10.612 -0.8334 -1.3741  0.1258
  199MPD1    H2 3084   2.094   4.235  10.925 -2.1664 -1.1839  0.8438
  199MPD1    H3 3085   1.863   4.194  10.845  0.8435 -1.5372  0.7145
  199MPD1     N 3086   1.996   4.173  10.416  0.3910  0.3423 -0.1169
  199MPD1    H5 3087   1.899   4.148  10.396  0.9396 -0.4490 -1.7588
  199MPD1    N1 3088   2.306   4.229  10.783  0.0903 -0.3125  0.4704
  199MPD1    H6 3089   2.369   4.294  10.738 -1.2036  0.9649  0.5184
  199MPD1    H7 3090   2.298   4.273  10.875  0.6025  0.4089  0.1690
  200MPD1     C 3091   1.571   3.460  15.065 -0.3481 -0.3312 -0.5750
  200MPD1    C1 3092   1.563   3.422  14.935  0.1079 -0.2953  0.7629
  200MPD1    C2 3093   1.668   3.350  14.875 -0.7464  0.9468  0.1948
  200MPD1    C3 3094   1.783   3.329  14.948 -0.1564  0.0533  0.3244
  200MPD1    C4 3095   1.781   3.347  15.086  0.4921  0.2980  0.5039
  200MPD1    C5 3096   1.673   3.411  15.138 -0.6727  0.1134  0.5656
  200MPD1     H 3097   1.662   3.324  14.770  1.8209  1.4052 -0.0678
  200MPD1    H1 3098   1.865   3.322  15.151 -0.0741 -0.6903  0.8596
  200MPD1    H2 3099   1.491   3.516  15.112 -2.1849 -2.2122 -1.4453
  200MPD1    H3 3100   1.670   3.441  15.243  1.0545 -0.3942  0.7569
  200MPD1     N 3101   1.899   3.289  14.878  0.3222 -0.1043  0.2041
  200MPD1    H5 3102   1.900   3.252  14.784 -0.5062 -1.4515  0.7127
  200MPD1    N1 3103   1.460   3.462  14.850 -0.1055  0.1901 -0.7250
  200MPD1    H6 3104   1.432   3.398  14.777  0.1159 -1.1617  0.3763
  200MPD1    H7 3105   1.372   3.469  14.902  0.5526 -0.2457  0.4579
  201MPD1     C 3106   3.842   2.073  13.323  0.1630  0.6116  0.1538
  201MPD1    C1 3107   3.976   2.085  13.368 -0.2028  0.4661  0.1029
  201MPD1    C2 3108   4.047   1.967  13.391 -0.0933 -0.8746  0.3637
  201MPD1    C3 3109   3.990   1.840  13.371  0.2081 -0.5749 -0.0411
  201MPD1    C4 3110   3.870   1.842  13.312 -1.1451 -0.5680  0.2147
  201MPD1    C5 3111   3.792   1.956  13.287 -0.8163 -0.3982 -0.7126
  201MPD1     H 3112   4.143   1.972  13.442 -1.0536 -0.7629  2.1859
  201MPD1    H1 3113   3.832   1.746  13.280  0.4083 -0.3614 -2.2819
  201MPD1    H2 3114   3.780   2.161  13.311 -2.4841 -1.1169  1.2059
  201MPD1    H3 3115   3.701   1.956  13.228  0.8483 -2.1008 -3.3057
  201MPD1     N 3116   4.055   1.723  13.419 -0.3560  0.0364  0.3589
  201MPD1    H5 3117   4.143   1.745  13.464  0.1121  0.8054 -0.9428
  201MPD1    N1 3118   4.023   2.211  13.421 -0.1359 -0.2473  0.2839
  201MPD1    H6 3119   3.967   2.288  13.385  0.3798 -0.1515 -0.3120
  201MPD1    H7 3120   4.117   2.234  13.390 -0.7755  2.4227  0.3701
  202MPD1     C 3121   3.653   1.030   9.073  0.5581  0.2175  0.1507
  202MPD1    C1 3122   3.594   1.118   8.993 -0.4329 -0.7031  0.1648
  202MPD1    C2 3123   3.567   1.239   9.052 -0.2002  0.0320 -0.2367
  202MPD1    C3 3124   3.639   1.285   9.163 -0.4571 -0.9645  0.3584
  202MPD1    C4 3125   3.728   1.198   9.230 -0.6126  0.1595  0.2815
  202MPD1    C5 3126   3.721   1.065   9.187  0.4383  0.1798 -0.3572
  202MPD1     H 3127   3.511   1.304   8.986  2.0261 -1.5930 -3.7550
  202MPD1    H1 3128   3.795   1.234   9.308  0.8347  1.3947 -1.5379
  202MPD1    H2 3129   3.658   0.925   9.045 -1.0083 -0.3635  2.0321
  202MPD1    H3 3130   3.778   0.992   9.242  1.9945 -0.0497 -2.2618
  202MPD1     N 3131   3.621   1.418   9.217  0.7871  0.1110  0.3748
  202MPD1    H5 3132   3.687   1.446   9.289  1.0657  0.8701 -0.1682
  202MPD1    N1 3133   3.500   1.078   8.899 -0.2289 -0.0205  0.2369
  202MPD1    H6 3134   3.495   1.149   8.826 -0.9688  0.0249  0.3356
  202MPD1    H7 3135   3.539   1.004   8.841  1.3933  0.1622  1.1036
  203MPD1     C 3136   2.137   2.517  12.611  0.2446  1.0471 -0.1689
  203MPD1    C1 3137   2.165   2.442  12.719 -0.0318 -0.0285  0.0030
  203MPD1    C2 3138   2.280   2.365  12.717 -0.8292  0.1993  0.7310
  203MPD1    C3 3139   2.366   2.366  12.608 -0.0814 -0.1547 -0.2506
  203MPD1    C4 3140   2.340   2.452  12.507  0.3789  0.2468  0.0245
  203MPD1    C5 3141   2.221   2.523  12.505 -0.7560 -0.1072  0.3086
  203MPD1     H 3142   2.300   2.302  12.803  0.9457  0.7302  0.7181
  203MPD1    H1 3143   2.405   2.461  12.420  0.0742 -2.2875 -0.4548
  203MPD1    H2 3144   2.043   2.567  12.594  0.4277  0.3060 -3.3413
  203MPD1    H3 3145   2.211   2.580  12.413  0.6749 -0.4043 -0.0363
  203MPD1     N 3146   2.481   2.283  12.606  0.2991  0.2888 -0.1248
  203MPD1    H5 3147   2.490   2.222  12.687 -2.3181 -0.6968 -0.5710
  203MPD1    N1 3148   2.063   2.415  12.814  0.4429  0.1458 -0.3025
  203MPD1    H6 3149   2.010   2.500  12.830  0.4268  0.1796 -0.5263
  203MPD1    H7 3150   2.104   2.389  12.903  0.8179  1.2132 -0.1640
  204MPD1     C 3151   2.013   4.071  17.618 -0.1333 -0.0266  0.5992
  204MPD1    C1 3152   2.072   4.069  17.490  0.3224 -0.3567  0.8706
  204MPD1    C2 3153   2.107   3.944  17.440 -0.5148  0.3916  0.5538
  204MPD1    C3 3154   2.106   3.829  17.516 -0.0867  0.2969 -0.7307
  204MPD1    C4 3155   2.039   3.833  17.634  0.5603  0.0057 -0.1604
  204MPD1    C5 3156   1.981   3.956  17.681 -1.2299 -0.2126 -0.6235
  204MPD1     H 3157   2.149   3.928  17.342 -0.2408 -2.6783  1.1727
  204MPD1    H1 3158   2.027   3.741  17.690 -1.2254 -1.0224 -2.2501
  204MPD1    H2 3159   1.980   4.161  17.670  0.7229  2.1212 -2.5429
  204MPD1    H3 3160   1.940   3.970   0.025 -1.1642 -0.7446 -0.5251
  204MPD1     N 3161   2.167   3.712  17.458  0.2430 -0.1852  0.1651
  204MPD1    H5 3162   2.206   3.728  17.366  1.6734  0.6020  0.8976
  204MPD1    N1 3163   2.076   4.183  17.411  0.0392 -0.6438  0.2322
  204MPD1    H6 3164   2.095   4.272  17.457 -1.5664  0.3147 -0.9557
  204MPD1    H7 3165   2.145   4.171  17.337  1.9429  1.8310  1.5921
  205MPD1     C 3166   2.226   2.467  16.699  0.0014  0.1594 -0.0295
  205MPD1    C1 3167   2.186   2.367  16.778 -0.7659 -0.1029 -0.4354
  205MPD1    C2 3168   2.236   2.367  16.908  0.5012 -0.2260 -0.2725
  205MPD1    C3 3169   2.332   2.456  16.953 -0.0297  0.5318  0.8414
  205MPD1    C4 3170   2.373   2.559  16.866  0.5967 -0.3966  0.2509
  205MPD1    C5 3171   2.315   2.567  16.742 -0.5045  0.1635 -0.5084
  205MPD1     H 3172   2.199   2.287  16.971  1.6050  0.5046  1.3343
  205MPD1    H1 3173   2.445   2.635  16.892  0.6253 -0.8379  1.4801
  205MPD1    H2 3174   2.189   2.480  16.598  2.0551  0.7887 -0.7027
  205MPD1    H3 3175   2.337   2.647  16.672 -1.2763  0.5812 -0.2810
  205MPD1     N 3176   2.392   2.453  17.076  0.2077 -0.3730 -0.1692
  205MPD1    H5 3177   2.442   2.535  17.108  1.5641 -1.4978  0.5544
  205MPD1    N1 3178   2.083   2.281  16.743  0.3309  0.5777  1.2539
  205MPD1    H6 3179   2.054   2.282  16.646  0.7374 -0.4217  1.1179
  205MPD1    H7 3180   2.096   2.187  16.780  2.6608  0.5172  0.3128
  206MPD1     C 3181   2.271   1.057  17.011  0.2550  0.1601 -0.5614
  206MPD1    C1 3182   2.299   0.925  16.980  0.6059 -0.1427  0.0407
  206MPD1    C2 3183   2.277   0.883  16.851 -0.5268 -0.2480 -0.5040
  206MPD1    C3 3184   2.253   0.977  16.747 -0.2134 -0.2408 -0.0091
  206MPD1    C4 3185   2.242   1.110  16.783  0.2924  0.4141 -0.5747
  206MPD1    C5 3186   2.248   1.146  16.913  0.1970 -0.2414 -0.2871
  206MPD1     H 3187   2.283   0.777  16.829 -0.5294 -0.0685 -1.3845
  206MPD1    H1 3188   2.218   1.183  16.707 -2.5063  0.9348  0.8105
  206MPD1    H2 3189   2.288   1.099  17.109 -1.1721 -0.9032  0.1339
  206MPD1    H3 3190   2.220   1.245  16.946 -0.2381 -0.1600 -0.9167
  206MPD1     N 3191   2.236   0.939  16.608  0.1251 -0.2218  0.1766
  206MPD1    H5 3192   2.242   1.015  16.541 -0.4548  0.2621  0.6715
  206MPD1    N1 3193   2.326   0.830  17.080 -0.0829  0.6287  0.7478
  206MPD1    H6 3194   2.366   0.868  17.165  2.1908  0.8262 -0.3958
  206MPD1    H7 3195   2.372   0.746  17.044 -0.8273  0.5737 -0.0872
  207MPD1     C 3196   3.823   3.003   9.868 -0.3227  0.6303  0.6787
  207MPD1    C1 3197   3.939   2.953   9.822 -0.0817  0.6572 -0.2980
  207MPD1    C2 3198   4.047   2.949   9.906 -0.0848  0.2420  0.5302
  207MPD1    C3 3199   4.036   3.000  10.041 -0.5326  0.5124  0.4397
  207MPD1    C4 3200   3.924   3.075  10.078  0.3738 -0.4961 -0.7921
  207MPD1    C5 3201   3.814   3.067   9.992  0.3038 -0.5482  0.5036
  207MPD1     H 3202   4.138   2.906   9.865  0.8510  1.7452  1.0549
  207MPD1    H1 3203   3.908   3.130  10.170  0.2653 -0.5056 -0.8059
  207MPD1    H2 3204   3.728   2.990   9.817 -0.1742  0.4992  0.4327
  207MPD1    H3 3205   3.719   3.111  10.022  0.0307 -1.1376  0.5033
  207MPD1     N 3206   4.148   2.995  10.126  0.5202 -0.4547 -0.3625
  207MPD1    H5 3207   4.148   3.048  10.212  1.8229 -0.2597 -0.4756
  207MPD1    N1 3208   3.949   2.918   9.684 -0.7272 -0.5571 -0.3295
  207MPD1    H6 3209   4.006   2.834   9.684 -0.0060 -0.0615 -0.9657
  207MPD1    H7 3210   3.862   2.887   9.641 -0.1844 -2.0335 -0.3637
  208MPD1     C 3211   3.886   2.177   0.433 -0.1042  0.6352 -0.3746
  208MPD1    C1 3212   3.834   2.270   0.520 -0.4036 -0.6409  0.4212
  208MPD1    C2 3213   3.704   2.254   0.557  0.0415 -0.0445  0.5674
  208MPD1    C3 3214   3.627   2.161   0.492 -0.4768 -0.1253 -0.1902
  208MPD1    C4 3215   3.678   2.074   0.399  0.2584 -0.6016  0.0847
  208MPD1    C5 3216   3.814   2.079   0.376 -0.3618 -0.3212 -0.3108
  208MPD1     H 3217   3.655   2.335   0.612  0.2518  0.1170  0.5168
  208MPD1    H1 3218   3.615   1.996   0.357 -1.9807  0.9495  0.5639
  208MPD1    H2 3219   3.991   2.192   0.410  0.5160 -1.3621  1.1791
  208MPD1    H3 3220   3.863   2.014   0.303  0.8430 -0.8499  0.9769
  208MPD1     N 3221   3.491   2.166   0.523  0.6505 -0.2259 -0.8585
  208MPD1    H5 3222   3.461   2.230   0.596 -1.3840 -2.6719  0.4505
  208MPD1    N1 3223   3.905   2.394   0.544 -0.4747  0.2008  0.3697
  208MPD1    H6 3224   3.862   2.444   0.622  0.0777 -0.2802  0.9798
  208MPD1    H7 3225   4.004   2.391   0.566 -0.4692 -2.1963  0.0906
  209MPD1     C 3226   0.120   1.567  10.806  0.2861 -0.4736  0.0119
  209MPD1    C1 3227   0.186   1.639  10.708  0.5327 -0.8298 -0.4700
  209MPD1    C2 3228   0.191   1.779  10.721 -0.0260 -0.0244  0.3846
  209MPD1    C3 3229   0.129   1.847  10.826  0.2900 -0.1130  0.4974
  209MPD1    C4 3230   0.053   1.775  10.920  0.9805  0.5085 -0.1260
  209MPD1    C5 3231   0.053   1.635  10.904 -0.9879 -0.3158 -0.5047
  209MPD1     H 3232   0.245   1.841  10.651 -1.3404  1.0133  0.2838
  209MPD1    H1 3233   4.726   1.825  10.990 -0.3311 -0.1005 -0.9213
  209MPD1    H2 3234   0.109   1.460  10.805  0.5722 -0.4974 -1.2126
  209MPD1    H3 3235   4.730   1.571  10.966 -2.2217  2.0839  0.7055
  209MPD1     N 3236   0.142   1.992  10.836  0.9322 -0.5969  0.4340
  209MPD1    H5 3237   0.183   2.044  10.758  1.0403 -1.9339 -0.4056
  209MPD1    N1 3238   0.223   1.573  10.591 -0.7062 -0.0197 -0.7058
  209MPD1    H6 3239   0.255   1.478  10.610  0.7423  0.4836 -0.6417
  209MPD1    H7 3240   0.304   1.622  10.553  0.9056 -0.3736  2.2331
  210MPD1     C 3241   0.084   2.916  11.436 -0.0065 -0.3744 -0.3107
  210MPD1    C1 3242   0.092   2.786  11.473  0.2076 -0.0276 -0.1546
  210MPD1    C2 3243   0.115   2.686  11.386  0.5252  0.9757 -0.5276
  210MPD1    C3 3244   0.140   2.714  11.256  0.5077 -0.5132  0.1101
  210MPD1    C4 3245   0.134   2.847  11.216  0.0530 -0.2311 -0.0162
  210MPD1    C5 3246   0.111   2.948  11.307 -1.1388  0.4690  0.3028
  210MPD1     H 3247   0.112   2.582  11.418  0.0005  1.6889  1.6701
  210MPD1    H1 3248   0.148   2.881  11.115 -0.7239 -3.1849 -1.1223
  210MPD1    H2 3249   0.070   2.994  11.510 -1.2381 -1.0979  0.2413
  210MPD1    H3 3250   0.102   3.050  11.270  0.6076  1.0610  1.5103
  210MPD1     N 3251   0.149   2.619  11.148  0.2385  0.3818  0.1051
  210MPD1    H5 3252   0.139   2.648  11.051  1.3123  0.8609  0.1406
  210MPD1    N1 3253   0.034   2.755  11.601  0.3488  0.2358 -0.3365
  210MPD1    H6 3254   0.027   2.832  11.666  0.5056  0.5915 -0.7423
  210MPD1    H7 3255   0.081   2.675  11.643 -0.3906  0.0032  0.0451
  211MPD1     C 3256   3.249   1.918  16.369 -0.0794 -0.4372  0.1750
  211MPD1    C1 3257   3.251   2.049  16.410  0.7902  0.5000 -0.0392
  211MPD1    C2 3258   3.133   2.123  16.406  0.3466  0.0654 -0.0615
  211MPD1    C3 3259   3.022   2.068  16.344 -0.3655  0.3110  0.8844
  211MPD1    C4 3260   3.030   1.952  16.275  0.9176  0.1366 -1.2994
  211MPD1    C5 3261   3.146   1.876  16.296 -0.1077 -0.3066 -0.1127
  211MPD1     H 3262   3.138   2.217  16.459  0.4037  0.2227 -0.3427
  211MPD1    H1 3263   2.948   1.910  16.218  1.8672 -1.5480 -1.4239
  211MPD1    H2 3264   3.328   1.843  16.368 -1.6437 -2.1083  1.0377
  211MPD1    H3 3265   3.150   1.782  16.242  0.9061  0.0133 -0.5798
  211MPD1     N 3266   2.905   2.149  16.353 -0.5564  0.6404 -0.2246
  211MPD1    H5 3267   2.920   2.240  16.395 -0.5023  1.2741 -1.6036
  211MPD1    N1 3268   3.357   2.096  16.488 -0.4338 -0.4363 -0.0352
  211MPD1    H6 3269   3.357   2.197  16.499 -3.6931 -0.4873  0.3516
  211MPD1    H7 3270   3.445   2.068  16.445 -0.9667  0.6742 -1.8375
  212MPD1     C 3271   1.603   1.045  16.134 -0.0766 -0.6811 -0.3171
  212MPD1    C1 3272   1.517   0.945  16.133  0.3509 -0.3993 -0.3349
  212MPD1    C2 3273   1.450   0.911  16.250  1.1081  0.0799  0.3953
  212MPD1    C3 3274   1.490   0.960  16.374 -0.3128 -0.4237  0.7396
  212MPD1    C4 3275   1.589   1.062  16.373 -0.3146 -0.5056  0.1156
  212MPD1    C5 3276   1.643   1.101  16.251  0.1786  0.1400 -0.2585
  212MPD1     H 3277   1.371   0.838  16.250  1.7767 -0.6466 -0.7752
  212MPD1    H1 3278   1.628   1.104  16.465 -3.9478  0.7111  1.0960
  212MPD1    H2 3279   1.657   1.068  16.043 -1.2600  0.9935 -0.6047
  212MPD1    H3 3280   1.719   1.179  16.255 -0.0973  0.4335 -0.8140
  212MPD1     N 3281   1.444   0.893  16.492  0.5978 -0.1812  0.3800
  212MPD1    H5 3282   1.476   0.919  16.585  1.6686 -0.4650  0.0886
  212MPD1    N1 3283   1.487   0.881  16.009  0.2071 -0.6952  0.5932
  212MPD1    H6 3284   1.463   0.784  16.028  0.3734 -0.8552 -0.0214
  212MPD1    H7 3285   1.564   0.882  15.943  1.2477 -1.9387  1.7996
  213MPD1     C 3286   0.667   1.432  15.724 -0.2124 -0.3210  0.0485
  213MPD1    C1 3287   0.635   1.425  15.591 -0.1950 -1.0508  0.1631
  213MPD1    C2 3288   0.505   1.383  15.574  0.1850  0.1062 -0.1291
  213MPD1    C3 3289   0.405   1.404  15.670  0.7444 -0.2353 -0.3131
  213MPD1    C4 3290   0.443   1.448  15.797 -0.0761 -0.0309  0.2033
  213MPD1    C5 3291   0.577   1.447  15.820 -0.2452 -0.4857 -0.6037
  213MPD1     H 3292   0.477   1.345  15.477 -0.9676  1.2147 -0.2287
  213MPD1    H1 3293   0.375   1.481  15.875  2.1269  1.3262  1.5712
  213MPD1    H2 3294   0.772   1.450  15.748 -0.2146 -1.4737  0.9073
  213MPD1    H3 3295   0.619   1.471  15.917 -1.8036 -0.9649  0.1703
  213MPD1     N 3296   0.274   1.379  15.638 -0.0974  0.3649 -0.2004
  213MPD1    H5 3297   0.251   1.350  15.543 -2.4908 -4.3937  1.8208
  213MPD1    N1 3298   0.725   1.382  15.491 -0.3292  0.1266  0.0284
  213MPD1    H6 3299   0.822   1.413  15.503 -0.3377 -0.1114  0.6986
  213MPD1    H7 3300   0.688   1.405  15.399 -0.4344 -1.4497 -0.3155
  214MPD1     C 3301   4.250   0.779  15.723  0.0497 -0.0917  0.0965
  214MPD1    C1 3302   4.273   0.877  15.822  0.4534 -0.1678  0.0321
  214MPD1    C2 3303   4.331   0.995  15.797 -0.0809  0.0016  0.3077
  214MPD1    C3 3304   4.369   1.027  15.666 -0.0088  0.1980 -0.2939
  214MPD1    C4 3305   4.333   0.937  15.569 -0.3697 -0.4328  0.5041
  214MPD1    C5 3306   4.284   0.811  15.592 -0.3184 -0.4067 -0.0904
  214MPD1     H 3307   4.348   1.066  15.877  0.4657  1.5515 -1.1904
  214MPD1    H1 3308   4.359   0.961  15.466  0.2667 -1.3404  0.4484
  214MPD1    H2 3309   4.200   0.684  15.737  0.8655 -0.3864  0.9584
  214MPD1    H3 3310   4.269   0.747  15.505 -0.8715 -1.2979  0.6593
  214MPD1     N 3311   4.435   1.142  15.628 -0.1916 -0.1856 -0.2828
  214MPD1    H5 3312   4.461   1.144  15.530 -0.7101  0.0249 -0.4122
  214MPD1    N1 3313   4.246   0.834  15.958 -0.0213  0.1561 -0.2395
  214MPD1    H6 3314   4.266   0.913  16.019  0.8624 -0.4910  0.3192
  214MPD1    H7 3315   4.146   0.821  15.958 -0.1265  1.0493  2.6283
  215MPD1     C 3316   4.691   1.883  10.222  0.3950  0.2474  1.2248
  215MPD1    C1 3317   4.736   1.883  10.350 -0.0721 -0.3371  0.3915
  215MPD1    C2 3318   4.702   1.988  10.438 -0.2446 -0.2077 -0.3728
  215MPD1    C3 3319   4.616   2.089  10.395  0.0174  0.2072 -0.0970
  215MPD1    C4 3320   4.549   2.069  10.273  0.1678 -0.3603  0.0442
  215MPD1    C5 3321   4.593   1.974  10.186 -0.3410 -0.2416 -0.0742
  215MPD1     H 3322   4.738   1.988  10.541  0.1929  2.7045 -0.5165
  215MPD1    H1 3323   4.470   2.133  10.237 -0.2658  0.0205  1.6396
  215MPD1    H2 3324   4.723   1.811  10.148  1.8949  2.4872 -0.3165
  215MPD1    H3 3325   4.536   1.966  10.094 -2.0803 -1.7948  1.1286
  215MPD1     N 3326   4.583   2.190  10.484 -0.5253  0.2168  0.9717
  215MPD1    H5 3327   4.655   2.203  10.555 -0.5272  2.7817  0.5263
  215MPD1    N1 3328   0.101   1.795  10.388  0.2354  0.2906 -0.6264
  215MPD1    H6 3329   0.091   1.706  10.340 -0.0276  0.0967 -0.2111
  215MPD1    H7 3330   0.091   1.766  10.485 -1.7536  2.4962 -0.1668
  216MPD1     C 3331   2.209   0.341  16.557  0.1817  0.3072  0.0997
  216MPD1    C1 3332   2.151   0.227  16.609 -0.9833  0.1829 -0.4055
  216MPD1    C2 3333   2.235   0.143  16.672 -0.4434 -0.5561  0.3770
  216MPD1    C3 3334   2.365   0.182  16.715 -0.5239 -0.2303 -0.2184
  216MPD1    C4 3335   2.410   0.313  16.687  0.5890  0.3917 -0.6157
  216MPD1    C5 3336   2.334   0.383  16.603  0.3628  0.6209 -0.0905
  216MPD1     H 3337   2.190   0.047  16.695 -1.6996  0.1957  1.0126
  216MPD1    H1 3338   2.502   0.361  16.719 -0.3318  0.7544  1.5367
  216MPD1    H2 3339   2.152   0.416  16.505  1.6636  2.4939  1.6320
  216MPD1    H3 3340   2.368   0.484  16.580  1.7494 -0.3993 -2.3879
  216MPD1     N 3341   2.442   0.091  16.788 -0.6791 -0.0335  0.3373
  216MPD1    H5 3342   2.392   0.004  16.803 -0.8047 -0.2782 -1.4883
  216MPD1    N1 3343   2.035   0.180  16.550 -0.2004  0.5984  0.6062
  216MPD1    H6 3344   1.991   0.113  16.613 -0.2958 -0.1561 -0.2487
  216MPD1    H7 3345   1.965   0.248  16.522 -1.0133 -1.2918 -2.0117
  217MPD1     C 3346   1.575   1.315   9.238 -0.1558  0.2269  0.2007
  217MPD1    C1 3347   1.682   1.277   9.157 -0.1501 -0.1905 -0.7083
  217MPD1    C2 3348   1.785   1.369   9.132  0.1582 -0.0943  0.0718
  217MPD1    C3 3349   1.789   1.493   9.197 -0.2324 -0.1094  0.1864
  217MPD1    C4 3350   1.687   1.522   9.284  0.1858  0.2102 -0.7364
  217MPD1    C5 3351   1.578   1.439   9.299 -0.3039 -0.8670  0.1094
  217MPD1     H 3352   1.853   1.342   9.052  1.1902 -1.4574  1.4226
  217MPD1    H1 3353   1.675   1.622   9.326  0.0194 -1.0142  2.1059
  217MPD1    H2 3354   1.480   1.266   9.257 -0.1152 -0.1017 -0.4729
  217MPD1    H3 3355   1.496   1.483   9.354  0.1453  2.0681 -1.5703
  217MPD1     N 3356   1.881   1.597   9.174  0.5573 -0.1945  0.9286
  217MPD1    H5 3357   1.884   1.676   9.238  0.9021 -0.3960  1.1686
  217MPD1    N1 3358   1.674   1.158   9.084  0.1438 -0.1551  0.0065
  217MPD1    H6 3359   1.758   1.101   9.079 -0.6459 -1.3995  1.1741
  217MPD1    H7 3360   1.592   1.104   9.111  0.2702 -0.3643 -0.0321
  218MPD1     C 3361   4.614   2.434  12.871  1.0454  0.1828  0.0976
  218MPD1    C1 3362   0.000   2.402  12.813  0.7364 -0.2772 -1.1827
  218MPD1    C2 3363   0.008   2.282  12.739 -0.2262 -0.0393  0.2993
  218MPD1    C3 3364   4.651   2.188  12.750 -0.1081 -0.5744 -0.0852
  218MPD1    C4 3365   4.537   2.205  12.832  0.8185  0.2350  0.4818
  218MPD1    C5 3366   4.517   2.332  12.887 -0.1295  0.1658 -0.0460
  218MPD1     H 3367   0.087   2.261  12.667 -0.6269 -2.3181  0.5155
  218MPD1    H1 3368   4.455   2.134  12.830 -0.5471  1.8482 -1.5080
  218MPD1    H2 3369   4.603   2.521  12.935  0.0294  0.8593 -1.0009
  218MPD1    H3 3370   4.434   2.362  12.950 -0.4699 -1.5981  0.3470
  218MPD1     N 3371   4.671   2.066  12.679  0.0520  0.4572 -0.3648
  218MPD1    H5 3372   0.019   2.059  12.629 -0.5984 -0.0198 -1.4386
  218MPD1    N1 3373   0.095   2.505  12.790  0.1554 -0.0320 -0.0791
  218MPD1    H6 3374   0.103   2.580  12.858 -0.6454 -0.2016  0.1973
  218MPD1    H7 3375   0.188   2.465  12.783  0.2984 -0.0483  2.1521
  219MPD1     C 3376   0.243   2.073  11.879  0.7080 -0.3315 -0.0048
  219MPD1    C1 3377   0.236   1.933  11.890  0.2898 -0.2683  0.1950
  219MPD1    C2 3378   0.185   1.878  12.009 -0.3253 -0.7415  0.2232
  219MPD1    C3 3379   0.121   1.958  12.105 -1.1585 -0.0188  0.1478
  219MPD1    C4 3380   0.116   2.094  12.075  0.0575  0.4616  0.0264
  219MPD1    C5 3381   0.188   2.152  11.969 -1.1175  0.1804  0.3878
  219MPD1     H 3382   0.206   1.772  12.019 -1.1492 -0.9505 -0.2940
  219MPD1    H1 3383   0.074   2.159  12.150 -1.8631  0.9733 -1.4962
  219MPD1    H2 3384   0.299   2.109  11.793  0.0805  1.2277  0.2463
  219MPD1    H3 3385   0.196   2.259  11.959  1.5121 -0.1980 -1.5768
  219MPD1     N 3386   0.073   1.908  12.228 -0.0082 -0.1598 -0.1539
  219MPD1    H5 3387   0.024   1.973  12.289  0.5722  2.9478 -2.9823
  219MPD1    N1 3388   0.310   1.859  11.802  0.0474  0.0623  0.0977
  219MPD1    H6 3389   0.271   1.765  11.796 -1.3352  0.7791 -2.6182
  219MPD1    H7 3390   0.307   1.899  11.708  1.7337  0.7131  0.3218
  220MPD1     C 3391   4.011   2.326   9.503  1.0941  0.5605  0.5243
  220MPD1    C1 3392   3.975   2.263   9.621 -0.2889  0.3753 -0.4462
  220MPD1    C2 3393   3.916   2.335   9.719  0.1505  0.8215  0.3022
  220MPD1    C3 3394   3.875   2.467   9.698 -0.0416  0.3914  0.3104
  220MPD1    C4 3395   3.903   2.524   9.574 -0.4351 -0.2692  0.3356
  220MPD1    C5 3396   3.964   2.451   9.472  0.1890 -0.1528  0.1289
  220MPD1     H 3397   3.897   2.281   9.811  2.0087 -0.1891  0.0787
  220MPD1    H1 3398   3.877   2.626   9.550 -0.8561 -0.8235 -1.5355
  220MPD1    H2 3399   4.049   2.265   9.422 -2.0536 -0.7842  0.0590
  220MPD1    H3 3400   3.977   2.484   9.370  0.4333 -2.1257 -0.4966
  220MPD1     N 3401   3.814   2.540   9.803  0.0904  0.5611  0.3631
  220MPD1    H5 3402   3.804   2.493   9.892 -0.6545  0.6192  0.3108
  220MPD1    N1 3403   4.009   2.128   9.634  0.2636 -0.1233  0.1725
  220MPD1    H6 3404   3.993   2.088   9.726  1.9441  0.8828  0.9006
  220MPD1    H7 3405   4.092   2.098   9.584  0.6612  1.2457  0.0295
  221MPD1     C 3406   2.634   2.303  16.775  0.9267 -0.3232 -0.4335
  221MPD1    C1 3407   2.750   2.236  16.808 -1.0559  0.3377  0.3397
  221MPD1    C2 3408   2.771   2.113  16.746 -0.0025 -0.7977  0.2774
  221MPD1    C3 3409   2.676   2.048  16.666  0.4045 -0.3517  0.0998
  221MPD1    C4 3410   2.552   2.106  16.656 -0.7266 -0.2068 -0.1054
  221MPD1    C5 3411   2.537   2.233  16.701  0.0937  0.6130 -0.4304
  221MPD1     H 3412   2.862   2.058  16.766  1.6909  1.7521 -0.3713
  221MPD1    H1 3413   2.471   2.068  16.595  0.1189 -1.1643 -0.6239
  221MPD1    H2 3414   2.604   2.399  16.816  1.6303 -0.8929  1.4145
  221MPD1    H3 3415   2.442   2.279  16.674  0.2271  1.3310  0.3005
  221MPD1     N 3416   2.702   1.925  16.595 -0.0932  0.5532  0.4825
  221MPD1    H5 3417   2.628   1.888  16.536  1.0348 -1.3277  0.2606
  221MPD1    N1 3418   2.844   2.299  16.893 -0.2460  0.0653  0.3265
  221MPD1    H6 3419   2.797   2.364  16.956 -1.9514 -2.0112  1.2067
  221MPD1    H7 3420   2.900   2.232  16.945 -1.1712 -0.4474  0.6576
  222MPD1     C 3421   1.545   0.727  17.442  0.0015 -0.8804 -0.1005
  222MPD1    C1 3422   1.463   0.697  17.545 -0.8701 -0.0544 -0.6923
  222MPD1    C2 3423   1.479   0.755  17.676 -0.0000  0.5491  0.9249
  222MPD1    C3 3424   1.578   0.855  17.686  0.3161 -0.3559 -0.4305
  222MPD1    C4 3425   1.648   0.890  17.572  0.7559  0.0311  0.9560
  222MPD1    C5 3426   1.631   0.829  17.455 -0.2674 -0.0091  0.3098
  222MPD1     H 3427   1.429   0.716   0.008 -2.8436  2.1316 -0.0096
  222MPD1    H1 3428   1.728   0.962  17.571  1.4802 -0.7666  1.6873
  222MPD1    H2 3429   1.545   0.675  17.346 -0.9922 -1.0699  0.0065
  222MPD1    H3 3430   1.700   0.869  17.382  1.6946 -0.7106  1.7638
  222MPD1     N 3431   1.599   0.930   0.045 -0.1643  0.4669  0.0746
  222MPD1    H5 3432   1.679   0.992   0.046 -0.9714  1.4981  0.8246
  222MPD1    N1 3433   1.383   0.585  17.529 -1.0159 -0.5669  0.4646
  222MPD1    H6 3434   1.291   0.596  17.572 -0.9682  1.0587  0.1336
  222MPD1    H7 3435   1.370   0.550  17.434  0.3508  0.6545 -0.1596
  223MPD1     C 3436   1.443   0.647   0.976 -0.8062 -0.0642  0.9794
  223MPD1    C1 3437   1.365   0.643   0.871 -0.1556  0.2154  0.3217
  223MPD1    C2 3438   1.398   0.723   0.768 -0.7343 -0.1224  0.3842
  223MPD1    C3 3439   1.500   0.816   0.770  0.3227  0.0402 -0.0651
  223MPD1    C4 3440   1.583   0.821   0.877 -0.3332  0.0079  0.0537
  223MPD1    C5 3441   1.551   0.732   0.976  0.0308  0.3769  0.1341
  223MPD1     H 3442   1.345   0.703   0.676 -0.3544  1.4666 -0.1703
  223MPD1    H1 3443   1.669   0.886   0.890 -0.2831 -0.1510  0.5252
  223MPD1    H2 3444   1.432   0.587   1.066  0.6531 -2.0094 -0.1342
  223MPD1    H3 3445   1.617   0.733   1.063  0.0535 -1.3321  0.1247
  223MPD1     N 3446   1.525   0.889   0.653 -0.5226 -0.1926 -0.6191
  223MPD1    H5 3447   1.461   0.868   0.577  0.3646 -1.8269 -0.9219
  223MPD1    N1 3448   1.253   0.560   0.865 -0.0175 -0.6277  0.2112
  223MPD1    H6 3449   1.229   0.519   0.955 -2.0975  1.3813  0.5670
  223MPD1    H7 3450   1.179   0.617   0.824 -2.3043 -2.9275  1.1106
  224MPD1     C 3451   2.190   2.622   8.928  0.2190 -0.4420  0.4561
  224MPD1    C1 3452   2.176   2.696   9.041 -0.3599 -0.7642  0.3780
  224MPD1    C2 3453   2.285   2.728   9.123 -0.5151  0.1092  0.3762
  224MPD1    C3 3454   2.411   2.679   9.084  0.3298 -0.3408 -0.3043
  224MPD1    C4 3455   2.422   2.594   8.972 -0.6806  0.1893 -0.7126
  224MPD1    C5 3456   2.315   2.570   8.897  0.2584  0.5098 -0.1067
  224MPD1     H 3457   2.282   2.784   9.216 -2.9274 -0.8326  0.8754
  224MPD1    H1 3458   2.516   2.545   8.950  0.4749  3.1317 -2.3421
  224MPD1    H2 3459   2.102   2.585   8.876  0.8199 -1.6151  0.2647
  224MPD1    H3 3460   2.328   2.493   8.822  2.8903  0.7060  0.1533
  224MPD1     N 3461   2.530   2.713   9.156  0.0291 -0.1819 -0.4151
  224MPD1    H5 3462   2.613   2.667   9.121 -0.6964  0.1116 -2.5672
  224MPD1    N1 3463   2.041   2.724   9.081  0.0941  0.1895 -0.0373
  224MPD1    H6 3464   2.034   2.799   9.149 -0.6891  0.9702 -0.9788
  224MPD1    H7 3465   1.968   2.736   9.010  0.1235 -0.0345 -0.1057
  225MPD1     C 3466   4.412   3.669  12.380 -1.0385  0.1868 -0.0557
  225MPD1    C1 3467   4.404   3.539  12.418  0.7450  0.4666 -0.5949
  225MPD1    C2 3468   4.285   3.476  12.388 -1.0512 -0.0882 -0.3056
  225MPD1    C3 3469   4.180   3.549  12.331 -0.0333 -0.6299 -0.0552
  225MPD1    C4 3470   4.191   3.680  12.303 -0.4162  0.3477  0.1568
  225MPD1    C5 3471   4.313   3.734  12.314  0.0483  0.5684  0.4938
  225MPD1     H 3472   4.271   3.371  12.411  1.9343 -0.7876 -1.6847
  225MPD1    H1 3473   4.110   3.738  12.260 -1.2860 -1.8878 -1.2018
  225MPD1    H2 3474   4.505   3.723  12.381 -1.1632  0.3945  3.1002
  225MPD1    H3 3475   4.333   3.836  12.284 -0.4578  1.0104  1.6704
  225MPD1     N 3476   4.052   3.493  12.300  0.0288  0.0188 -0.0756
  225MPD1    H5 3477   3.992   3.557  12.248 -0.9865 -0.5173  0.4463
  225MPD1    N1 3478   4.525   3.478  12.461 -0.3294  0.0058 -0.4736
  225MPD1    H6 3479   4.521   3.393  12.516 -1.5445  0.1637 -0.3103
  225MPD1    H7 3480   4.597   3.543  12.492 -0.3223 -1.1774  2.0209
  226MPD1     C 3481   2.733   2.669   9.851  0.3245 -0.8352 -0.8853
  226MPD1    C1 3482   2.621   2.737   9.886 -0.3068  0.6062  0.4049
  226MPD1    C2 3483   2.499   2.716   9.817 -0.3130  0.7575 -0.4644
  226MPD1    C3 3484   2.501   2.631   9.706  0.0266  0.9684  0.6072
  226MPD1    C4 3485   2.617   2.572   9.674  0.0794 -0.0883  0.2804
  226MPD1    C5 3486   2.735   2.579   9.748  0.9880 -0.2767 -0.0454
  226MPD1     H 3487   2.410   2.766   9.852  0.3006  1.6761 -0.2160
  226MPD1    H1 3488   2.624   2.496   9.597  0.8844 -0.8338  1.0975
  226MPD1    H2 3489   2.824   2.686   9.907 -0.5719 -1.5717  0.7644
  226MPD1    H3 3490   2.824   2.519   9.734  0.7513 -0.3373 -1.2183
  226MPD1     N 3491   2.378   2.615   9.639 -0.3504 -0.5391 -0.2311
  226MPD1    H5 3492   2.298   2.662   9.680  0.3573  0.8443 -0.4226
  226MPD1    N1 3493   2.610   2.825   9.996  0.2582 -0.0620  0.4762
  226MPD1    H6 3494   2.695   2.881  10.002 -0.0469  0.6243 -1.5021
  226MPD1    H7 3495   2.527   2.881  10.006  1.1782  1.0299  1.9712
  227MPD1     C 3496   1.768   2.465  10.154  0.7763  0.1082  0.6339
  227MPD1    C1 3497   1.873   2.546  10.134  0.7635  0.6042 -0.1432
  227MPD1    C2 3498   1.918   2.574  10.005  0.1460  0.2544 -0.5255
  227MPD1    C3 3499   1.871   2.503   9.898 -0.0496  0.3070 -0.6332
  227MPD1    C4 3500   1.778   2.408   9.923 -0.4760 -0.2920  0.2706
  227MPD1    C5 3501   1.722   2.397  10.050  0.8481  0.2569 -0.5060
  227MPD1     H 3502   1.991   2.653   9.990  0.2901 -0.2508 -2.5138
  227MPD1    H1 3503   1.726   2.354   9.845 -2.8129  1.7047  0.4831
  227MPD1    H2 3504   1.714   2.462  10.247 -1.6934 -2.0411 -0.8926
  227MPD1    H3 3505   1.629   2.340  10.054  0.1052  1.4564 -0.7856
  227MPD1     N 3506   1.929   2.537   9.778  0.2949 -0.4688 -0.2908
  227MPD1    H5 3507   2.000   2.610   9.772  0.0668 -0.2705 -0.5594
  227MPD1    N1 3508   1.928   2.611  10.242 -0.0098  0.4627 -0.4155
  227MPD1    H6 3509   1.915   2.547  10.320  3.1027  1.6296  1.0639
  227MPD1    H7 3510   2.028   2.624  10.228 -0.3788  1.1082 -2.4092
  228MPD1     C 3511   1.625   0.502  13.382  0.1852 -0.2131 -0.4996
  228MPD1    C1 3512   1.543   0.392  13.411  0.0603 -0.4266  0.4271
  228MPD1    C2 3513   1.404   0.399  13.386  0.6240 -0.2369 -0.3512
  228MPD1    C3 3514   1.355   0.499  13.306  0.2958  0.4161 -0.0041
  228MPD1    C4 3515   1.441   0.605  13.272 -0.0935 -0.6587 -0.4135
  228MPD1    C5 3516   1.570   0.608  13.315  0.0317  0.1145  0.0671
  228MPD1     H 3517   1.333   0.322  13.414  0.0002  1.0288  1.6256
  228MPD1    H1 3518   1.402   0.692  13.220 -1.8486 -1.8787 -1.1150
  228MPD1    H2 3519   1.728   0.505  13.417  0.6140  1.2039 -1.9263
  228MPD1    H3 3520   1.634   0.694  13.301  0.9286 -0.6666 -0.6268
  228MPD1     N 3521   1.212   0.516  13.286  0.5060 -0.0787 -0.1039
  228MPD1    H5 3522   1.149   0.453  13.335 -0.1685  0.1521 -0.6901
  228MPD1    N1 3523   1.596   0.295  13.494  0.1028 -0.1854 -0.6828
  228MPD1    H6 3524   1.555   0.203  13.475 -0.4227  0.3620 -2.1891
  228MPD1    H7 3525   1.697   0.291  13.506 -0.0580 -1.0087  0.3981
  229MPD1     C 3526   0.914   4.362  14.298  0.2566 -0.0040  0.0138
  229MPD1    C1 3527   1.002   4.259  14.329  0.6011 -0.9347  0.2914
  229MPD1    C2 3528   1.052   4.248  14.454  0.2853  0.2176  0.0015
  229MPD1    C3 3529   1.016   4.344  14.553  0.5770  0.2603  0.5532
  229MPD1    C4 3530   0.935   4.449  14.521  0.5604  0.0893  0.7169
  229MPD1    C5 3531   0.887   4.459  14.392  0.0478  1.1691 -0.9533
  229MPD1     H 3532   1.127   4.176  14.483  0.6401  1.0156  1.0888
  229MPD1    H1 3533   0.896   4.521  14.591 -3.7694  0.0336 -1.6804
  229MPD1    H2 3534   0.866   4.359  14.201  1.2794 -0.5927 -0.4763
  229MPD1    H3 3535   0.813   4.536  14.372  1.6113  2.1998 -2.8259
  229MPD1     N 3536   1.053   4.342  14.692 -0.4832  0.2108 -0.0672
  229MPD1    H5 3537   1.020   4.417  14.752  0.6231 -1.4033  2.5682
  229MPD1    N1 3538   1.052   4.183  14.220 -0.2134  0.0599 -0.1819
  229MPD1    H6 3539   1.088   4.090  14.237  0.5721  0.1766 -1.2079
  229MPD1    H7 3540   0.982   4.179  14.145  0.0753  0.4526 -0.4721
  230MPD1     C 3541   0.783   4.732  15.543  0.0811  0.9743  0.9096
  230MPD1    C1 3542   0.880   4.649  15.586  0.7960 -0.4507  0.5077
  230MPD1    C2 3543   0.924   4.538  15.509  0.9345 -0.2449  0.6106
  230MPD1    C3 3544   0.887   4.540  15.377 -0.3928  0.8200  0.1045
  230MPD1    C4 3545   0.786   4.627  15.333  0.0043 -0.0275 -0.0593
  230MPD1    C5 3546   0.730   4.715  15.420  0.5568  0.5435 -0.9862
  230MPD1     H 3547   1.012   4.492  15.553  0.8147 -0.6147  0.4651
  230MPD1    H1 3548   0.744   4.631  15.233 -2.1105 -2.2870  0.7339
  230MPD1    H2 3549   0.739   0.068  15.607 -0.6207  0.3040  1.2106
  230MPD1    H3 3550   0.652   0.037  15.377 -2.2562 -2.3236 -0.0324
  230MPD1     N 3551   0.964   4.457  15.291  0.4930  0.1690 -0.0952
  230MPD1    H5 3552   1.023   4.387  15.334 -2.3809 -3.0287 -1.4035
  230MPD1    N1 3553   0.925   4.655  15.727 -0.3076 -0.5874  0.0560
  230MPD1    H6 3554   1.022   4.624  15.737  0.4361  2.3226  1.7612
  230MPD1    H7 3555   0.924   0.011  15.761 -1.6615 -0.5308 -0.1546
  231MPD1     C 3556   4.180   1.316  15.424 -0.8546  0.5165  0.5431
  231MPD1    C1 3557   4.188   1.282  15.290  0.4508 -0.1202 -0.1296
  231MPD1    C2 3558   4.252   1.374  15.206 -0.0829 -0.2923 -0.4580
  231MPD1    C3 3559   4.302   1.491  15.260  0.2023  0.8533 -0.4893
  231MPD1    C4 3560   4.284   1.519  15.394 -0.5802  0.5354 -0.5921
  231MPD1    C5 3561   4.232   1.428  15.480  0.1415 -0.0172  0.0166
  231MPD1     H 3562   4.263   1.352  15.100  0.3928 -0.1294 -0.4433
  231MPD1    H1 3563   4.312   1.617  15.433  0.3992  1.0720 -2.6165
  231MPD1    H2 3564   4.143   1.253  15.504 -1.3716  0.2407  0.0932
  231MPD1    H3 3565   4.219   1.453  15.585  1.2965  3.3471 -0.6414
  231MPD1     N 3566   4.365   1.578  15.169 -0.1354 -0.2293 -0.2960
  231MPD1    H5 3567   4.350   1.542  15.075  0.0242 -0.0783 -0.3797
  231MPD1    N1 3568   4.136   1.156  15.246 -0.6570  0.0014  0.4724
  231MPD1    H6 3569   4.081   1.165  15.161 -0.0180  0.1217  0.0630
  231MPD1    H7 3570   4.085   1.098  15.312 -2.3084  1.2818  0.3039
  232MPD1     C 3571   1.981   4.334   0.382 -0.4336  0.0595 -0.6944
  232MPD1    C1 3572   1.936   4.392   0.265  0.3699 -0.4337 -0.5115
  232MPD1    C2 3573   1.850   4.315   0.190 -0.2760  0.1010 -0.4588
  232MPD1    C3 3574   1.799   4.190   0.239 -0.3354  0.2411  0.6120
  232MPD1    C4 3575   1.852   4.135   0.352 -0.4381  0.5577 -0.0140
  232MPD1    C5 3576   1.942   4.208   0.423 -0.2564  0.5739  0.1886
  232MPD1     H 3577   1.818   4.343   0.090 -0.9293 -1.5011 -0.6887
  232MPD1    H1 3578   1.819   4.035   0.375  1.9154 -0.8575 -2.7326
  232MPD1    H2 3579   2.042   4.393   0.449 -1.9280 -0.4691  1.1269
  232MPD1    H3 3580   1.982   4.184   0.520 -0.3370 -1.5175 -0.2722
  232MPD1     N 3581   1.690   4.123   0.165 -0.2787 -0.5267  0.2533
  232MPD1    H5 3582   1.639   4.182   0.099  0.6109 -0.7120 -0.5969
  232MPD1    N1 3583   1.994   4.512   0.213  0.3807 -0.0857 -0.0129
  232MPD1    H6 3584   1.922   4.566   0.165  0.4594  1.3979  1.5487
  232MPD1    H7 3585   2.041   4.565   0.286  0.1223  2.2945 -1.5562
  233MPD1     C 3586   1.556   2.719   1.879  0.3932 -0.5791 -0.3141
  233MPD1    C1 3587   1.606   2.831   1.816  0.7414 -0.2175  0.4048
  233MPD1    C2 3588   1.737   2.830   1.762  0.5282  0.2717 -0.1875
  233MPD1    C3 3589   1.815   2.722   1.765  0.2634 -0.2101 -0.7163
  233MPD1    C4 3590   1.765   2.611   1.821 -0.2207  0.1687 -0.0877
  233MPD1    C5 3591   1.642   2.612   1.881 -0.0147  0.3236  0.5588
  233MPD1     H 3592   1.762   2.925   1.716 -0.1701  0.1293 -0.8546
  233MPD1    H1 3593   1.824   2.520   1.828 -1.3510 -0.6192 -0.8852
  233MPD1    H2 3594   1.461   2.714   1.931 -0.1559 -0.5702 -1.3057
  233MPD1    H3 3595   1.613   2.520   1.929  0.4576  0.5069  1.2085
  233MPD1     N 3596   1.940   2.714   1.694 -0.3419 -0.2187  0.1730
  233MPD1    H5 3597   1.996   2.632   1.713  0.6683  0.0245 -1.6848
  233MPD1    N1 3598   1.528   2.951   1.813  0.1668 -0.0559  0.6099
  233MPD1    H6 3599   1.540   3.009   1.730  1.4179  1.1941  1.6443
  233MPD1    H7 3600   1.428   2.937   1.823 -0.0669 -1.1167 -3.3051
  234MPD1     C 3601   3.380   1.024   9.445  0.0398 -0.4499 -0.0366
  234MPD1    C1 3602   3.350   1.112   9.548  0.5953  0.1406  0.5435
  234MPD1    C2 3603   3.321   1.242   9.515  0.9174  0.1743  0.4372
  234MPD1    C3 3604   3.310   1.275   9.380 -0.0196  0.1612  0.7504
  234MPD1    C4 3605   3.323   1.176   9.283  0.5332 -0.3339 -0.5957
  234MPD1    C5 3606   3.357   1.053   9.316  0.1232  0.1063  0.2974
  234MPD1     H 3607   3.317   1.325   9.585 -0.4516  0.5113 -0.0391
  234MPD1    H1 3608   3.298   1.198   9.180  1.2134 -1.6243 -1.0380
  234MPD1    H2 3609   3.405   0.922   9.468  1.3034 -0.3851 -1.0900
  234MPD1    H3 3610   3.357   0.976   9.240  1.8176 -0.1782  0.6005
  234MPD1     N 3611   3.276   1.407   9.357 -0.1714 -0.0698  0.0063
  234MPD1    H5 3612   3.287   1.477   9.430  1.5729 -1.3611  0.9854
  234MPD1    N1 3613   3.369   1.074   9.678  0.1835 -0.7268 -0.4217
  234MPD1    H6 3614   3.319   1.137   9.740  1.7386 -0.1636  0.2731
  234MPD1    H7 3615   3.335   0.979   9.693  2.0989 -1.2146  0.9031
  235MPD1     C 3616   4.275   3.142  10.552 -0.0603  0.3364 -0.4429
  235MPD1    C1 3617   4.193   3.212  10.465  0.3710  0.4363  0.5724
  235MPD1    C2 3618   4.235   3.344  10.444 -0.2287 -0.0234 -0.5025
  235MPD1    C3 3619   4.333   3.398  10.532 -0.3417 -0.0363 -0.9874
  235MPD1    C4 3620   4.392   3.323  10.628 -0.7514 -0.8900  0.1877
  235MPD1    C5 3621   4.365   3.191  10.643  0.1116  0.0851 -0.3587
  235MPD1     H 3622   4.188   3.416  10.377 -1.5696  0.4580  0.9599
  235MPD1    H1 3623   4.467   3.367  10.693 -0.0344 -0.5539 -0.8690
  235MPD1    H2 3624   4.245   3.039  10.570  0.8487 -0.3975 -3.2366
  235MPD1    H3 3625   4.428   3.126  10.702 -0.1143  0.6018  0.4536
  235MPD1     N 3626   4.361   3.533  10.517 -0.0604  0.2878 -0.0569
  235MPD1    H5 3627   4.311   3.579  10.442 -0.2907 -1.6052 -1.0419
  235MPD1    N1 3628   4.096   3.147  10.385 -0.3541 -0.3182  0.1747
  235MPD1    H6 3629   4.057   3.082  10.452 -0.3384 -2.7826 -2.2249
  235MPD1    H7 3630   4.027   3.212  10.348 -0.2365 -0.1713  0.2112
  236MPD1     C 3631   3.196   4.646  10.094 -0.1130  0.2166  0.6549
  236MPD1    C1 3632   3.275   4.732  10.016 -1.0661  0.2577  0.0240
  236MPD1    C2 3633   3.400   0.023  10.064  0.3617  0.9196 -0.7142
  236MPD1    C3 3634   3.457   4.709  10.179 -0.8489 -0.8752  0.3375
  236MPD1    C4 3635   3.383   4.620  10.242 -0.0786  0.6221  0.6474
  236MPD1    C5 3636   3.251   4.594  10.210  0.8074  0.1532  0.3876
  236MPD1     H 3637   3.462   0.088  10.001  0.9734  0.9818 -0.0476
  236MPD1    H1 3638   3.422   4.578  10.334  1.4319 -2.5262 -1.4504
  236MPD1    H2 3639   3.093   4.619  10.074  0.9056 -1.6986 -2.0109
  236MPD1    H3 3640   3.186   4.526  10.262  0.7589 -0.2015 -0.1364
  236MPD1     N 3641   3.592   4.711  10.222  0.5672 -0.4153 -0.0864
  236MPD1    H5 3642   3.626   4.640  10.286  0.8475 -0.8430 -0.7109
  236MPD1    N1 3643   3.226   0.062   9.904 -0.1457 -0.4245  0.2775
  236MPD1    H6 3644   3.298   0.097   9.842  0.2074 -1.1366  0.2863
  236MPD1    H7 3645   3.151   0.015   9.853  2.3592 -0.3629 -3.4670
  237MPD1     C 3646   4.657   3.192  15.166  1.0505 -0.2375  0.0981
  237MPD1    C1 3647   4.527   3.235  15.135  0.2592 -0.2501 -0.0631
  237MPD1    C2 3648   4.431   3.134  15.129  0.0680 -0.0123  0.2968
  237MPD1    C3 3649   4.465   2.998  15.150 -0.0246 -0.0878  0.0675
  237MPD1    C4 3650   4.593   2.961  15.187  0.0346 -0.5951 -0.2042
  237MPD1    C5 3651   4.688   3.059  15.190  0.7948 -0.8270  0.0046
  237MPD1     H 3652   4.332   3.162  15.096 -0.4248 -2.3689 -0.2519
  237MPD1    H1 3653   4.613   2.858  15.212 -1.9167 -0.6736  0.9995
  237MPD1    H2 3654   4.737   3.263  15.179  1.7266 -1.0612  0.4248
  237MPD1    H3 3655   0.053   3.037  15.206  0.6655 -1.5505 -0.1412
  237MPD1     N 3656   4.375   2.894  15.140 -0.0149  0.0028 -0.6224
  237MPD1    H5 3657   4.405   2.801  15.167  0.3019  0.3726  0.3178
  237MPD1    N1 3658   4.498   3.367  15.113 -0.0546 -0.1212  0.0006
  237MPD1    H6 3659   4.547   3.434  15.171 -1.3544 -1.7089  2.9650
  237MPD1    H7 3660   4.403   3.392  15.138 -0.1324 -0.7216  0.3044
  238MPD1     C 3661   1.411   2.016  15.045 -0.3487  0.5847  0.8028
  238MPD1    C1 3662   1.308   1.976  15.126  0.1086 -0.1041  0.1829
  238MPD1    C2 3663   1.190   1.950  15.065  0.4580 -0.4393 -0.8012
  238MPD1    C3 3664   1.178   1.962  14.925 -0.0643  0.5760 -0.5151
  238MPD1    C4 3665   1.280   1.997  14.843  0.0708 -0.4003 -0.1179
  238MPD1    C5 3666   1.401   2.020  14.906 -0.2177  0.5002  0.0858
  238MPD1     H 3667   1.109   1.903  15.121  1.3794  1.1934  1.9139
  238MPD1    H1 3668   1.270   2.009  14.735  0.6875 -0.1230 -0.1449
  238MPD1    H2 3669   1.504   2.049  15.091  1.1477  1.6396 -2.8932
  238MPD1    H3 3670   1.487   2.053  14.849  0.5813 -0.1030  0.9626
  238MPD1     N 3671   1.062   1.920  14.854  0.2134  0.3641 -0.2251
  238MPD1    H5 3672   1.064   1.929  14.753 -0.9735  3.5947  0.0479
  238MPD1    N1 3673   1.327   1.933  15.260  0.4893 -0.4232  0.4028
  238MPD1    H6 3674   1.239   1.952  15.307 -0.1070  0.4746 -1.0973
  238MPD1    H7 3675   1.400   1.989  15.305  1.9666 -1.7243 -0.3881
  239MPD1     C 3676   1.140   2.655  14.887 -0.5851  0.4530  0.1709
  239MPD1    C1 3677   1.238   2.689  14.792  0.0544  0.4114 -0.1479
  239MPD1    C2 3678   1.191   2.717  14.663  0.1213  0.5817 -0.3836
  239MPD1    C3 3679   1.057   2.737  14.648 -0.3902  0.1180 -0.4852
  239MPD1    C4 3680   0.974   2.729  14.752  0.2659 -0.2767 -0.2882
  239MPD1    C5 3681   1.014   2.681  14.868 -0.6965  0.5714 -0.0841
  239MPD1     H 3682   1.257   2.730  14.578 -1.5691 -0.6546 -1.8766
  239MPD1    H1 3683   0.868   2.748  14.738  0.3720  1.4022  1.2200
  239MPD1    H2 3684   1.169   2.606  14.979 -0.2608 -1.0127 -0.7157
  239MPD1    H3 3685   0.943   2.669  14.950  1.2441 -1.3517  1.3229
  239MPD1     N 3686   1.005   2.758  14.512  0.1941 -1.1084  0.4259
  239MPD1    H5 3687   0.904   2.761  14.505  0.5842  2.2157 -3.7667
  239MPD1    N1 3688   1.374   2.658  14.824 -0.2383 -0.8294 -0.2554
  239MPD1    H6 3689   1.404   2.712  14.905  2.1919 -2.2884 -0.1710
  239MPD1    H7 3690   1.434   2.687  14.747 -1.7799  1.2715 -0.6660
  240MPD1     C 3691   0.548   2.039  13.377 -0.1915  0.2605 -0.5819
  240MPD1    C1 3692   0.515   1.910  13.428  0.0115 -0.4939  0.4670
  240MPD1    C2 3693   0.540   1.888  13.563  0.2076  0.4369  0.4861
  240MPD1    C3 3694   0.599   1.990  13.636 -0.0364  0.9304  0.5684
  240MPD1    C4 3695   0.635   2.112  13.576 -0.8083  0.2745  0.1469
  240MPD1    C5 3696   0.592   2.142  13.452 -0.2349 -0.2133  0.0922
  240MPD1     H 3697   0.504   1.794  13.603  0.1809  0.2297 -0.0321
  240MPD1    H1 3698   0.684   2.188  13.636  1.2664 -0.9366 -0.0187
  240MPD1    H2 3699   0.518   2.056  13.274  0.9586 -0.2610 -1.0066
  240MPD1    H3 3700   0.619   2.238  13.408 -1.3094  0.5206  1.0419
  240MPD1     N 3701   0.620   1.958  13.775  0.1338  0.1935  0.7886
  240MPD1    H5 3702   0.567   1.884  13.819 -0.5591  0.6882  0.7805
  240MPD1    N1 3703   0.479   1.804  13.337 -0.1446  0.2477  0.2326
  240MPD1    H6 3704   0.440   1.716  13.372  0.3243 -0.7637 -1.7752
  240MPD1    H7 3705   0.463   1.831  13.241 -0.1465  0.0833  0.1858
  241MPD1     C 3706   1.008   2.428  14.583 -0.6757  0.2833  0.4706
  241MPD1    C1 3707   0.875   2.387  14.611  0.0475 -0.0288  0.1662
  241MPD1    C2 3708   0.817   2.316  14.512 -0.4858 -0.3191 -0.7480
  241MPD1    C3 3709   0.875   2.275  14.396 -0.3295 -0.6028 -0.5011
  241MPD1    C4 3710   1.006   2.314  14.371  0.1604 -0.0411  0.2012
  241MPD1    C5 3711   1.066   2.384  14.465 -0.4138  0.0180  0.1795
  241MPD1     H 3712   0.710   2.301  14.524 -0.5226  0.0324 -0.6346
  241MPD1    H1 3713   1.050   2.285  14.276  1.1703  1.8092  0.1293
  241MPD1    H2 3714   1.063   2.494  14.649  1.3517 -0.5968 -0.3318
  241MPD1    H3 3715   1.172   2.404  14.454 -0.6841  0.0528 -2.3531
  241MPD1     N 3716   0.805   2.204  14.297 -0.9198  0.4303 -0.0881
  241MPD1    H5 3717   0.847   2.191  14.205 -1.5342  0.4656 -0.3734
  241MPD1    N1 3718   0.799   2.431  14.722  0.2977 -0.3547  0.1178
  241MPD1    H6 3719   0.859   2.448  14.802 -0.8973  0.6318  0.8082
  241MPD1    H7 3720   0.729   2.359  14.741 -1.6659  1.5418  0.0778
  242MPD1     C 3721   0.314   0.472  15.712  0.0559  0.8129 -0.4147
  242MPD1    C1 3722   0.448   0.488  15.711  0.1128 -0.9550  0.0930
  242MPD1    C2 3723   0.525   0.516  15.596  0.3529 -0.7568  0.0125
  242MPD1    C3 3724   0.452   0.522  15.475  0.5147  0.4984 -0.0182
  242MPD1    C4 3725   0.317   0.507  15.484 -0.1751  0.2830  0.0132
  242MPD1    C5 3726   0.246   0.490  15.594  0.4011  0.3323  0.0295
  242MPD1     H 3727   0.631   0.535  15.600  0.3804 -0.8565 -0.2395
  242MPD1    H1 3728   0.259   0.514  15.392  1.6208  1.5093 -1.0326
  242MPD1    H2 3729   0.262   0.436  15.799 -0.2956  1.9978 -0.1312
  242MPD1    H3 3730   0.138   0.488  15.590  0.3398  1.9691  0.8403
  242MPD1     N 3731   0.515   0.535  15.345 -0.0088 -0.2337 -0.0935
  242MPD1    H5 3732   0.450   0.547  15.267  0.3517 -1.3311 -0.5678
  242MPD1    N1 3733   0.511   0.484  15.842  0.1485 -0.8343  0.1971
  242MPD1    H6 3734   0.450   0.442  15.911  1.5503  0.2309  2.0817
  242MPD1    H7 3735   0.539   0.574  15.880  0.2412  0.1174 -2.1328
  243MPD1     C 3736   1.492   3.455  17.035  0.2698  0.4079 -0.7995
  243MPD1    C1 3737   1.488   3.577  16.967  0.1060  0.2111 -0.1227
  243MPD1    C2 3738   1.613   3.628  16.922  0.5846  0.0152  0.2518
  243MPD1    C3 3739   1.726   3.549  16.924 -0.5642 -0.3265 -0.4053
  243MPD1    C4 3740   1.721   3.418  16.979  0.6896 -1.0485  0.6881
  243MPD1    C5 3741   1.607   3.378  17.043  0.0808  0.1348  0.0127
  243MPD1     H 3742   1.610   3.720  16.865 -2.8500  1.1707  2.2850
  243MPD1    H1 3743   1.804   3.350  16.993  1.3273 -0.3753  0.1894
  243MPD1    H2 3744   1.405   3.411  17.082 -0.0490  1.6276 -0.2446
  243MPD1    H3 3745   1.596   3.277  17.082 -2.9756  0.3050 -0.4184
  243MPD1     N 3746   1.833   3.601  16.844 -0.4241 -0.2199 -0.1422
  243MPD1    H5 3747   1.821   3.693  16.804 -2.4936 -0.2557  0.3985
  243MPD1    N1 3748   1.371   3.658  16.967 -0.7799 -0.5036  0.0936
  243MPD1    H6 3749   1.384   3.737  16.904  0.7587 -0.8812 -0.0611
  243MPD1    H7 3750   1.282   3.615  16.943 -1.0440  0.6656 -1.0332
  244MPD1     C 3751   2.737   3.120  16.656  0.0378 -0.2739 -0.4446
  244MPD1    C1 3752   2.660   3.123  16.770  0.2924  0.1798  0.2649
  244MPD1    C2 3753   2.551   3.206  16.777  0.1016 -0.8128  0.2302
  244MPD1    C3 3754   2.514   3.283  16.673 -0.3493  0.3759 -0.6181
  244MPD1    C4 3755   2.596   3.280  16.565 -0.0280  0.2198 -0.5213
  244MPD1    C5 3756   2.699   3.193  16.554 -0.3637 -0.8343 -0.8190
  244MPD1     H 3757   2.489   3.201  16.867 -0.1201 -1.0108  0.0667
  244MPD1    H1 3758   2.579   3.345  16.480  0.7668  0.0741 -0.7979
  244MPD1    H2 3759   2.828   3.062  16.657  1.0643  1.3231 -0.8997
  244MPD1    H3 3760   2.754   3.197  16.460  0.7751 -1.0608 -0.1620
  244MPD1     N 3761   2.408   3.375  16.684  0.4363 -0.4533  0.4368
  244MPD1    H5 3762   2.377   3.389  16.780 -1.5721  1.9194 -0.5302
  244MPD1    N1 3763   2.693   3.026  16.868  0.4066  0.6072  0.1793
  244MPD1    H6 3764   2.790   2.994  16.866 -0.0774 -0.7662 -1.8156
  244MPD1    H7 3765   2.670   3.041  16.966  0.3587 -0.7589  0.3794
  245MPD1     C 3766   4.284   3.840  13.225 -0.0341  0.3392 -0.2495
  245MPD1    C1 3767   4.158   3.891  13.219  0.2667 -0.3887  0.3203
  245MPD1    C2 3768   4.129   4.011  13.288 -0.3217  0.0613 -0.0646
  245MPD1    C3 3769   4.224   4.057  13.380  0.3619  0.0814  0.5991
  245MPD1    C4 3770   4.347   3.995  13.389 -0.1392  0.7082  0.4693
  245MPD1    C5 3771   4.379   3.891  13.309  0.0619 -0.2558 -0.1259
  245MPD1     H 3772   4.037   4.066  13.278 -1.1213 -1.1022  0.9315
  245MPD1    H1 3773   4.426   4.046  13.443 -2.1711  1.0223  3.1665
  245MPD1    H2 3774   4.325   3.758  13.166  1.1562  0.2481  0.6990
  245MPD1    H3 3775   4.483   3.865  13.296 -0.7700 -2.4585 -2.3002
  245MPD1     N 3776   4.194   4.179  13.446 -0.2903  0.4547  0.7501
  245MPD1    H5 3777   4.098   4.212  13.442 -0.4131 -0.3421 -2.7003
  245MPD1    N1 3778   4.071   3.852  13.122  0.1481  0.9594  0.4079
  245MPD1    H6 3779   3.971   3.872  13.130  0.5598  2.1936  2.3241
  245MPD1    H7 3780   4.077   3.751  13.109  1.1966  1.0596  0.1322
  246MPD1     C 3781   4.638   0.329   9.099 -0.5876  0.0008  0.1858
  246MPD1    C1 3782   4.537   0.373   9.183 -1.0703 -0.1014  0.2487
  246MPD1    C2 3783   4.556   0.499   9.238  0.4757  0.5774  0.2224
  246MPD1    C3 3784   4.672   0.572   9.226 -1.0225 -0.0284  0.5006
  246MPD1    C4 3785   0.038   0.505   9.169 -0.3991  0.0083 -0.0315
  246MPD1    C5 3786   0.019   0.397   9.083  0.0160  0.3419 -0.7082
  246MPD1     H 3787   4.484   0.545   9.304 -0.3061 -0.2684 -0.0392
  246MPD1    H1 3788   0.132   0.555   9.147  0.4676 -1.0350  1.3579
  246MPD1    H2 3789   4.616   0.242   9.038  4.1567 -0.0396 -1.4251
  246MPD1    H3 3790   0.099   0.344   9.033  1.2309  2.3060 -0.8006
  246MPD1     N 3791   4.686   0.703   9.290 -0.4989 -0.3375 -0.1038
  246MPD1    H5 3792   4.600   0.734   9.334 -1.9150 -0.5361 -2.7478
  246MPD1    N1 3793   4.416   0.304   9.184  0.4173  0.1658 -0.1548
  246MPD1    H6 3794   4.416   0.204   9.165  0.7016 -0.0902  1.1937
  246MPD1    H7 3795   4.364   0.327   9.269  0.4516 -1.6952  0.3638
  247MPD1     C 3796   2.425   3.987  16.406 -0.9330  0.1808  0.4385
  247MPD1    C1 3797   2.464   3.958  16.277  0.1942  0.1332  0.1639
  247MPD1    C2 3798   2.583   4.016  16.238 -0.8336 -0.5132  0.2035
  247MPD1    C3 3799   2.642   4.113  16.316 -0.1081  0.3810 -0.6973
  247MPD1    C4 3800   2.590   4.157  16.434 -0.6257 -0.1220  0.2472
  247MPD1    C5 3801   2.484   4.087  16.483 -1.1525 -0.2788 -0.0348
  247MPD1     H 3802   2.637   3.981  16.151  0.2308 -0.4060  0.8224
  247MPD1    H1 3803   2.635   4.242  16.485 -0.5459 -0.1309  0.1932
  247MPD1    H2 3804   2.341   3.931  16.445 -0.0375 -1.9351 -0.6667
  247MPD1    H3 3805   2.450   4.115  16.582 -1.1633  3.2484 -1.0402
  247MPD1     N 3806   2.755   4.182  16.269  0.0351 -0.0691 -0.4348
  247MPD1    H5 3807   2.779   4.266  16.321  1.4452 -0.3792 -0.6026
  247MPD1    N1 3808   2.399   3.855  16.204 -0.1918  0.0438 -0.4258
  247MPD1    H6 3809   2.304   3.870  16.236 -0.2323  0.6491 -0.8274
  247MPD1    H7 3810   2.396   3.872  16.103 -3.6486  1.1801 -0.1277
  248MPD1     C 3811   4.400   3.841   0.078 -0.7208 -0.3488 -0.6766
  248MPD1    C1 3812   4.299   3.877   0.165  0.5865  0.0793  0.2057
  248MPD1    C2 3813   4.322   3.981   0.252 -0.8743 -0.9833 -0.3026
  248MPD1    C3 3814   4.447   4.027   0.277  0.3387 -0.0799 -0.1308
  248MPD1    C4 3815   4.554   3.985   0.202  0.3618 -0.5924  0.4387
  248MPD1    C5 3816   4.526   3.898   0.096 -0.1580 -0.1490 -0.0674
  248MPD1     H 3817   4.236   4.021   0.303 -1.4432 -2.4674 -0.0991
  248MPD1    H1 3818   4.656   4.016   0.221  0.7538 -1.1939 -0.6527
  248MPD1    H2 3819   4.382   3.767   0.001 -0.6305 -1.2294  0.1451
  248MPD1    H3 3820   4.608   3.858   0.037  0.5967  0.0239  0.8468
  248MPD1     N 3821   4.454   4.113   0.384  0.2559  0.1024  0.6056
  248MPD1    H5 3822   4.360   4.134   0.415  0.5259 -1.7004  2.6307
  248MPD1    N1 3823   4.167   3.833   0.140 -0.1665  0.0173 -0.6146
  248MPD1    H6 3824   4.092   3.842   0.208 -0.4108 -0.4058 -0.8243
  248MPD1    H7 3825   4.142   3.747   0.090  0.8728  0.3370 -1.6827
  249MPD1     C 3826   0.342   2.790  10.152  0.5331 -0.2602  0.4787
  249MPD1    C1 3827   0.377   2.863  10.039  0.5886 -0.6260  0.1523
  249MPD1    C2 3828   0.360   3.002  10.040  0.3955 -0.2535 -0.7423
  249MPD1    C3 3829   0.314   3.068  10.150 -0.5190  1.0957  0.1571
  249MPD1    C4 3830   0.268   2.996  10.262 -0.3138  0.2177  0.7254
  249MPD1    C5 3831   0.284   2.857  10.259 -0.4417 -0.0509 -0.4434
  249MPD1     H 3832   0.375   3.054   9.946  0.3160  1.0598 -0.0219
  249MPD1    H1 3833   0.228   3.049  10.348  1.6909 -0.2990  1.9916
  249MPD1    H2 3834   0.357   2.683  10.165 -0.8874 -0.5752 -0.4425
  249MPD1    H3 3835   0.248   2.790  10.335 -0.7655  0.0371 -0.5210
  249MPD1     N 3836   0.290   3.206  10.125 -0.2134 -0.4102 -0.3216
  249MPD1    H5 3837   0.330   3.254  10.044  0.2112  1.7100  1.1360
  249MPD1    N1 3838   0.407   2.790   9.928 -0.0349  0.5769  0.2652
  249MPD1    H6 3839   0.472   2.844   9.872  1.7435  0.6698  2.4358
  249MPD1    H7 3840   0.439   2.700   9.962  2.7240  0.6453 -2.1422
  250MPD2     C 3841   1.505   2.814  13.043 -0.0469  0.3046 -0.2182
  250MPD2    C1 3842   1.543   2.837  12.913  0.1176 -0.3190 -0.0168
  250MPD2    C2 3843   1.469   2.779  12.807 -0.0827  0.0426 -0.0092
  250MPD2    C3 3844   1.359   2.703  12.850 -0.0410 -0.2269 -0.3236
  250MPD2    C4 3845   1.332   2.676  12.984 -0.0122 -0.7067  0.0607
  250MPD2    C5 3846   1.406   2.732  13.081  0.0398  0.1831 -0.0539
  250MPD2     H 3847   1.499   2.789  12.703 -0.6783  0.7852 -0.1076
  250MPD2    H1 3848   1.243   2.618  13.006 -2.0841  1.8065 -1.7066
  250MPD2    H2 3849   1.569   2.857  13.120  0.6530  0.6905 -1.0216
  250MPD2    H3 3850   1.376   2.715  13.184 -0.5190  1.3263 -0.0291
  250MPD2     N 3851   1.278   2.635  12.750 -0.0033 -0.0838  0.3375
  250MPD2    H5 3852   1.210   2.574  12.795 -1.2084  0.6383 -0.5037
  250MPD2    N1 3853   1.646   2.933  12.895 -0.1193 -0.7447  0.2482
  250MPD2    H7 3854   1.695   2.972  12.975 -1.2042 -0.1599  0.6310
  251TMC3    C1 3855   1.781   3.085  12.771  0.0830  0.0085  0.2220
  251TMC3    C2 3856   1.777   3.189  12.867  0.0696  0.3494  0.0904
  251TMC3    C3 3857   1.842   3.307  12.833 -0.1196  0.2553  0.0119
  251TMC3    C4 3858   1.851   3.098  12.652  0.4786  0.2552 -0.1654
  251TMC3    C5 3859   1.914   3.218  12.625 -0.7071  0.2832 -0.3364
  251TMC3    C6 3860   1.891   3.326  12.708  0.3766  0.0577 -0.7738
  251TMC3     C 3861   1.692   2.969  12.771 -0.3559  0.2149 -1.0818
  251TMC3     O 3862   1.681   2.916  12.662  0.0345  0.3655 -0.2756
  251TMC3     H 3863   1.724   3.178  12.961  1.4781  1.4881  1.0131
  251TMC3    H1 3864   1.856   3.024  12.574 -1.1486 -1.4275  1.3190
  251TMC3    H2 3865   1.937   3.424  12.707  1.0844 -0.2816 -1.8699
  251TMC3    C7 3866   2.051   3.190  12.605  0.6304  0.0580  0.1727
  251TMC3    C8 3867   1.925   3.364  12.937  0.4966 -0.2939  0.2891
  251TMC3    O1 3868   2.085   3.069  12.607 -0.0517  0.0055  0.2061
  251TMC3    O2 3869   1.956   3.481  12.923 -0.0511  0.4580  0.5200
  252TMC3    C1 3870   2.801   4.238   9.100  0.4483 -0.3479  0.1048
  252TMC3    C2 3871   2.862   4.322   9.189 -0.3071 -0.6374 -0.4258
  252TMC3    C3 3872   2.795   4.342   9.312 -0.4964 -0.4428 -0.4440
  252TMC3    C4 3873   2.667   4.203   9.122 -0.2872  0.4865 -0.2039
  252TMC3    C5 3874   2.607   4.224   9.243  0.3020 -0.3780 -0.0178
  252TMC3    C6 3875   2.670   4.298   9.342  0.4631  0.2580  0.2673
  252TMC3     C 3876   2.870   4.171   8.994 -0.4781 -0.4344 -0.8894
  252TMC3     O 3877   2.805   4.080   8.947  0.4518  0.4661  0.1510
  252TMC3     H 3878   2.963   4.357   9.173 -0.9807  1.1452 -0.8749
  252TMC3    H1 3879   2.608   4.148   9.049  0.2825 -0.1495 -0.1891
  252TMC3    H2 3880   2.623   4.304   9.440  0.5852 -0.9617  0.4072
  252TMC3    C7 3881   2.477   4.164   9.269  0.5712  0.3613 -0.3098
  252TMC3    C8 3882   2.887   4.395   9.413 -0.6645 -0.3955 -0.1417
  252TMC3    O1 3883   2.418   4.109   9.178 -0.0294 -0.4502  0.7278
  252TMC3    O2 3884   2.978   4.472   9.378  0.1504 -0.2254  0.3057
  253MPD2     C 3885   3.846   2.973  15.205  0.2247  0.0951 -0.2167
  253MPD2    C1 3886   3.705   2.993  15.189 -0.1020  0.6314  0.6658
  253MPD2    C2 3887   3.622   2.948  15.290 -0.0946 -0.2567 -0.1894
  253MPD2    C3 3888   3.669   2.897  15.411  0.0103 -0.6961  0.4590
  253MPD2    C4 3889   3.805   2.871  15.414 -0.3607 -0.2586  0.6161
  253MPD2    C5 3890   3.892   2.909  15.316  0.2255  0.5575 -0.0252
  253MPD2     H 3891   3.516   2.942  15.269 -0.0103  1.4277 -1.0370
  253MPD2    H1 3892   3.849   2.835  15.507 -1.2002  0.3025  1.2258
  253MPD2    H2 3893   3.914   3.010  15.129 -1.2517 -0.0605 -1.6406
  253MPD2    H3 3894   3.999   2.895  15.316  0.1109 -0.2867  1.1073
  253MPD2     N 3895   3.594   2.855  15.519 -0.7432  0.2928  0.3664
  253MPD2    H5 3896   3.625   2.788  15.588 -0.7523  0.4818  0.5546
  253MPD2    N1 3897   3.643   3.043  15.074 -0.2137  0.1469  0.1534
  253MPD2    H7 3898   3.543   3.058  15.073 -0.2794 -0.2823  0.6700
  254TMC3    C1 3899   3.411   2.876  15.674  0.5205 -0.7256  0.6467
  254TMC3    C2 3900   3.315   2.961  15.722 -0.2782  0.1188 -0.3592
  254TMC3    C3 3901   3.277   2.941  15.848 -0.2620  0.8578 -0.7047
  254TMC3    C4 3902   3.466   2.771  15.741 -0.5926 -0.4080 -0.4040
  254TMC3    C5 3903   3.413   2.753  15.866 -0.3972  0.5075  1.0567
  254TMC3    C6 3904   3.312   2.832  15.918 -0.6711 -0.0426 -0.6563
  254TMC3     C 3905   3.465   2.905  15.541  0.5964  0.0257 -0.1311
  254TMC3     O 3906   3.387   2.955  15.464 -0.0026  0.0291 -0.0719
  254TMC3     H 3907   3.280   3.044  15.662 -0.9331  0.3989  0.4091
  254TMC3    H1 3908   3.546   2.714  15.695  1.2790 -0.3679  2.7685
  254TMC3    H2 3909   3.295   2.820  16.024 -0.9177  0.9546 -0.5797
  254TMC3    C7 3910   3.495   2.681  15.960  0.2452 -0.0033  0.3916
  254TMC3    C8 3911   3.195   3.045  15.920 -0.5891  0.3027 -0.2288
  254TMC3    O1 3912   3.440   2.623  16.054  0.4457 -0.0864  0.1629
  254TMC3    O2 3913   3.193   3.036  16.042 -0.4492  0.3589  0.8008
  255MPD2     C 3914   1.364   0.581  10.462  0.6147  0.0135 -0.6060
  255MPD2    C1 3915   1.464   0.670  10.447 -0.2438  0.1391  0.0007
  255MPD2    C2 3916   1.596   0.622  10.416  0.3745  0.2811 -0.8500
  255MPD2    C3 3917   1.608   0.485  10.396 -0.1173 -0.0023  0.4461
  255MPD2    C4 3918   1.505   0.401  10.426 -0.5827 -0.0556  0.3973
  255MPD2    C5 3919   1.382   0.447  10.456  0.0534  0.9514 -0.1553
  255MPD2     H 3920   1.676   0.693  10.401  2.3298 -1.5143  0.9558
  255MPD2    H1 3921   1.508   0.293  10.430  3.8616  0.0838  1.2523
  255MPD2    H2 3922   1.263   0.618  10.473 -0.2067 -1.9062 -1.7222
  255MPD2    H3 3923   1.300   0.377  10.470 -0.3817  1.1844 -1.5832
  255MPD2     N 3924   1.733   0.430  10.350 -0.3511  0.1778  0.1192
  255MPD2    H5 3925   1.812   0.493  10.358 -0.2494 -0.0846  1.1690
  255MPD2    N1 3926   1.430   0.806  10.448 -0.4307 -0.1472 -0.0073
  255MPD2    H7 3927   1.331   0.829  10.440 -0.5483 -0.7301 -0.2393
  256TMC3    C1 3928   1.434   1.041  10.437 -0.4404  0.3993  0.0633
  256TMC3    C2 3929   1.512   1.150  10.397  0.5233 -0.2882  0.0635
  256TMC3    C3 3930   1.456   1.268  10.410  0.7946 -0.5867  0.3924
  256TMC3    C4 3931   1.311   1.058  10.495  0.5799 -0.1062  0.3984
  256TMC3    C5 3932   1.264   1.182  10.508  0.2717 -0.7124 -0.1303
  256TMC3    C6 3933   1.337   1.287  10.470  0.2934 -0.4145  0.2285
  256TMC3     C 3934   1.508   0.914  10.444  0.2913 -0.1469  0.1698
  256TMC3     O 3935   1.632   0.924  10.432  0.0629 -0.6386 -0.6298
  256TMC3     H 3936   1.617   1.139  10.371  1.3797  3.7702  1.7887
  256TMC3    H1 3937   1.251   0.971  10.520 -1.6866  0.8273 -1.8286
  256TMC3    H2 3938   1.277   1.377  10.463 -1.4763 -1.5865  0.2615
  256TMC3    C7 3939   1.138   1.197  10.444 -0.7731 -0.0206  0.0816
  256TMC3    C8 3940   1.499   1.370  10.313  0.3373 -0.6087  0.2212
  256TMC3    O1 3941   1.144   1.247  10.336  0.1785 -0.3347 -0.3727
  256TMC3    O2 3942   1.451   1.479  10.314 -0.3294 -0.8956  0.0125
  257MPD2     C 3943   0.564   2.846  13.428 -0.2487 -0.4759  0.3659
  257MPD2    C1 3944   0.619   2.786  13.316 -0.2924 -0.4213  0.6307
  257MPD2    C2 3945   0.684   2.664  13.329 -0.0295 -0.6712  0.8097
  257MPD2    C3 3946   0.699   2.603  13.451  0.0897  0.6534  1.1583
  257MPD2    C4 3947   0.657   2.672  13.565  0.3342  0.0541 -0.0978
  257MPD2    C5 3948   0.576   2.785  13.548  0.4976  0.0221 -0.8261
  257MPD2     H 3949   0.731   2.617  13.243  0.5785  2.6036 -0.6669
  257MPD2    H1 3950   0.661   2.640  13.669  0.3677 -0.6189 -0.3039
  257MPD2    H2 3951   0.506   2.937  13.418  0.5696 -0.1809 -1.5747
  257MPD2    H3 3952   0.537   2.840  13.633  0.1161 -1.4699 -0.0342
  257MPD2     N 3953   0.786   2.494  13.470  0.2839 -0.0141 -0.1431
  257MPD2    H5 3954   0.820   2.487  13.566 -0.3160  0.7632  0.1312
  257MPD2    N1 3955   0.613   2.861  13.190  0.3185  0.0714  0.1866
  257MPD2    H7 3956   0.563   2.949  13.186 -0.4308 -0.2866  1.4749
  258TMC3    C1 3957   0.968   2.343  13.417 -0.4536  0.2551  0.1324
  258TMC3    C2 3958   1.069   2.339  13.327 -0.2420  0.3804  1.1774
  258TMC3    C3 3959   1.201   2.352  13.371  0.1176 -0.7731  0.2744
  258TMC3    C4 3960   0.994   2.358  13.551 -0.5508 -0.4545 -0.4127
  258TMC3    C5 3961   1.126   2.366  13.595 -0.1000  0.1691  0.1731
  258TMC3    C6 3962   1.227   2.368  13.503 -0.4059  0.0754  0.3837
  258TMC3     C 3963   0.855   2.421  13.372  0.0709  0.3373 -0.1949
  258TMC3     O 3964   0.803   2.409  13.258  0.1028 -0.7362  0.2643
  258TMC3     H 3965   1.054   2.338  13.220 -0.2999 -1.4458  1.2110
  258TMC3    H1 3966   0.915   2.353  13.626  0.3419 -4.8974  0.2297
  258TMC3    H2 3967   1.327   2.385  13.542 -0.4247  3.3271 -0.9836
  258TMC3    C7 3968   1.139   2.393  13.731 -0.4649 -0.2128  0.0775
  258TMC3    C8 3969   1.299   2.348  13.264 -0.2204  0.3307  0.9910
  258TMC3    O1 3970   1.045   2.403  13.806  0.0294 -0.4274  0.5967
  258TMC3    O2 3971   1.267   2.374  13.153  0.0034  0.3089 -0.1006
  259MPD2     C 3972   0.128   4.609  17.738  0.4549  0.3224  0.2435
  259MPD2    C1 3973   0.265   4.611   0.004 -0.1417  0.3484  0.2115
  259MPD2    C2 3974   0.347   4.577  17.655  0.0506 -0.3359 -0.4308
  259MPD2    C3 3975   0.302   4.531  17.536  1.2730 -0.2916 -0.2048
  259MPD2    C4 3976   0.168   4.535  17.513  0.3413  0.3908  0.8197
  259MPD2    C5 3977   0.083   4.570  17.616 -0.6235 -0.5627  0.1664
  259MPD2     H 3978   0.452   4.595  17.674 -0.0448  0.3755 -0.5873
  259MPD2    H1 3979   0.119   4.504  17.422  0.6272  1.3331  0.3386
  259MPD2    H2 3980   0.071   4.634   0.071 -1.8726 -1.0732 -0.8442
  259MPD2    H3 3981   4.715   4.562  17.601 -0.7007  1.5650 -0.3231
  259MPD2     N 3982   0.392   4.494  17.432 -0.3677 -0.0295 -0.8292
  259MPD2    H5 3983   0.491   4.509  17.450 -0.9125  0.8383  1.4575
  259MPD2    N1 3984   0.310   4.656   0.132  0.6901  0.1368  0.0251
  259MPD2    H7 3985   0.255   4.726   0.180 -0.5828 -1.2463  0.5873
  260TMC3    C1 3986   0.495   4.418  17.249  0.3282  0.3965  0.3057
  260TMC3    C2 3987   0.608   4.479  17.302  0.3214  0.4165  0.0999
  260TMC3    C3 3988   0.733   4.447  17.261 -0.2012  0.4429 -0.2838
  260TMC3    C4 3989   0.517   4.309  17.161  0.3750  0.8058 -0.8216
  260TMC3    C5 3990   0.643   4.273  17.127  0.3775  0.6936  0.0122
  260TMC3    C6 3991   0.754   4.348  17.171  0.1430  0.3286  0.2045
  260TMC3     C 3992   0.367   4.437  17.307 -0.5273  0.4051 -0.8008
  260TMC3     O 3993   0.259   4.400  17.259 -0.1908 -0.1009 -0.5801
  260TMC3     H 3994   0.591   4.568  17.360  1.4423 -0.7822  2.2832
  260TMC3    H1 3995   0.431   4.257  17.121  0.6640  1.0358 -1.7403
  260TMC3    H2 3996   0.854   4.317  17.145 -0.2185 -1.4607  0.9618
  260TMC3    C7 3997   0.652   4.142  17.052 -0.4170 -0.3461  0.2220
  260TMC3    C8 3998   0.837   4.502  17.346 -0.1151  0.4544  0.1858
  260TMC3    O1 3999   0.547   4.092  17.013  0.2740  0.0992 -0.6054
  260TMC3    O2 4000   0.839   4.625  17.361 -0.5896  0.0217  0.6963
  261MPD2     C 4001   0.886   2.443  12.004  0.0690  0.3572 -0.0382
  261MPD2    C1 4002   0.986   2.527  12.054  0.4622 -0.1550  0.7396
  261MPD2    C2 4003   1.013   2.643  11.979 -0.3933 -0.1007 -0.5745
  261MPD2    C3 4004   0.941   2.656  11.856  0.6520  0.1755 -0.6593
  261MPD2    C4 4005   0.848   2.562  11.813 -0.2561  0.1892 -0.0726
  261MPD2    C5 4006   0.826   2.456  11.889  0.5220  0.1505  0.3981
  261MPD2     H 4007   1.096   2.711  11.998  0.0909 -0.3167 -1.9086
  261MPD2    H1 4008   0.794   2.576  11.720 -1.7134 -1.5731  0.5066
  261MPD2    H2 4009   0.854   2.360  12.067  3.1700 -0.2820  0.7271
  261MPD2    H3 4010   0.759   2.377  11.858 -2.1861  2.6736 -0.2214
  261MPD2     N 4011   0.979   2.769  11.777  0.4352 -0.8535  0.2371
  261MPD2    H5 4012   1.056   2.826  11.810 -0.5816 -0.2909  1.6237
  261MPD2    N1 4013   1.054   2.513  12.172 -0.0199  0.7604 -0.1482
  261MPD2    H7 4014   1.117   2.588  12.199  0.7812  1.1316 -2.9653
  262TMC3    C1 4015   0.965   2.923  11.596 -0.3808  0.1429  0.0522
  262TMC3    C2 4016   0.901   3.047  11.578  0.1948 -0.1982 -0.2445
  262TMC3    C3 4017   0.972   3.145  11.514  0.3731  0.1077 -0.3421
  262TMC3    C4 4018   1.095   2.904  11.562  0.4261  0.3187  0.0694
  262TMC3    C5 4019   1.150   3.002  11.490  0.7994 -0.1297  0.4891
  262TMC3    C6 4020   1.095   3.120  11.469 -0.1540 -0.2248 -0.2066
  262TMC3     C 4021   0.903   2.821  11.678 -0.0403 -0.7002 -0.6538
  262TMC3     O 4022   0.779   2.819  11.678  0.6363  0.1139  0.1181
  262TMC3     H 4023   0.798   3.064  11.609  0.7507  0.9348  0.9905
  262TMC3    H1 4024   1.144   2.808  11.570 -1.6915 -0.7662  0.0288
  262TMC3    H2 4025   1.129   3.189  11.393  0.3250 -0.2655 -0.0301
  262TMC3    C7 4026   1.294   2.993  11.475 -0.1438 -0.2221 -0.2208
  262TMC3    C8 4027   0.906   3.269  11.476  0.2939 -0.2061  0.0195
  262TMC3    O1 4028   1.338   2.879  11.459 -0.1880  0.6168 -0.0284
  262TMC3    O2 4029   0.977   3.340  11.400 -0.6402  0.0473 -0.2600
  263MPD2     C 4030   2.484   1.800  11.571  0.3057 -0.1183  0.1734
  263MPD2    C1 4031   2.595   1.848  11.505  0.3434  0.0974  0.1326
  263MPD2    C2 4032   2.573   1.941  11.404  0.3705  1.0394  0.6620
  263MPD2    C3 4033   2.447   1.988  11.379  0.4229 -0.8382  0.0178
  263MPD2    C4 4034   2.339   1.940  11.455 -0.4698  0.2706 -0.0433
  263MPD2    C5 4035   2.356   1.853  11.561 -0.4695 -0.5564 -0.3260
  263MPD2     H 4036   2.657   1.976  11.345 -0.4139  1.0685 -0.4417
  263MPD2    H1 4037   2.237   1.968  11.429 -0.1927  0.5591 -0.8048
  263MPD2    H2 4038   2.497   1.740  11.661  0.6388  0.9461  0.8433
  263MPD2    H3 4039   2.277   1.817  11.626 -2.8007  1.7649 -1.8836
  263MPD2     N 4040   2.437   2.084  11.280 -0.0545  0.0697  0.0202
  263MPD2    H5 4041   2.507   2.080  11.207 -0.9771 -2.4243 -0.7468
  263MPD2    N1 4042   2.727   1.804  11.547  0.0607  0.1254  0.5156
  263MPD2    H7 4043   2.725   1.734  11.620  1.6068  1.6092  1.9609
  264TMC3    C1 4044   2.339   2.250  11.155  0.2287 -0.3921  0.8023
  264TMC3    C2 4045   2.276   2.374  11.165 -1.2661 -0.0121  0.2817
  264TMC3    C3 4046   2.304   2.459  11.065  0.0450 -0.4169  0.8301
  264TMC3    C4 4047   2.402   2.205  11.044 -0.5468  0.1707  0.3082
  264TMC3    C5 4048   2.416   2.298  10.942 -0.6180 -0.0860  0.0280
  264TMC3    C6 4049   2.372   2.422  10.951  0.3097  0.1263  0.7716
  264TMC3     C 4050   2.324   2.163  11.270 -0.0189 -0.3150  0.2705
  264TMC3     O 4051   2.227   2.177  11.345  0.1689  0.6311  0.6730
  264TMC3     H 4052   2.253   2.413  11.263  0.5954 -0.8563  1.0521
  264TMC3    H1 4053   2.401   2.097  11.036  2.8821  0.2068 -0.2795
  264TMC3    H2 4054   2.387   2.496  10.874  2.2689  0.0921  1.1194
  264TMC3    C7 4055   2.524   2.280  10.844 -0.7066  0.0043 -0.5328
  264TMC3    C8 4056   2.311   2.599  11.088 -0.8559 -0.1139  0.4743
  264TMC3    O1 4057   2.518   2.358  10.749 -0.2266  0.0991  0.5042
  264TMC3    O2 4058   2.394   2.652  11.020 -0.2419 -0.2521  0.0075
  265MPD2     C 4059   0.561   2.582  15.562  0.1364  0.1315  0.4881
  265MPD2    C1 4060   0.427   2.598  15.539  0.3939 -0.2348 -0.4930
  265MPD2    C2 4061   0.365   2.539  15.433 -0.2353  0.7391  0.4176
  265MPD2    C3 4062   0.440   2.468  15.340 -0.9751 -0.0257 -0.3981
  265MPD2    C4 4063   0.577   2.456  15.353  0.4224  0.0961  0.0159
  265MPD2    C5 4064   0.637   2.512  15.462  0.7963  0.4070  0.4898
  265MPD2     H 4065   0.258   2.545  15.422 -0.3392 -1.1631  0.3542
  265MPD2    H1 4066   0.627   2.399  15.276  1.5706  3.0274 -1.3964
  265MPD2    H2 4067   0.607   2.608  15.656  2.4394 -0.0732 -0.5661
  265MPD2    H3 4068   0.744   2.500  15.472  0.7782 -0.2950 -0.2465
  265MPD2     N 4069   0.394   2.419  15.218  0.2509  0.0058  0.3529
  265MPD2    H5 4070   0.456   2.391  15.142 -2.3292 -0.4881 -1.5430
  265MPD2    N1 4071   0.344   2.670  15.635  0.4929 -0.1498  0.2361
  265MPD2    H7 4072   0.248   2.692  15.614  0.8540  0.4602 -0.8191
  266TMC3    C1 4073   0.311   2.846  15.776  0.1150  0.1593  0.6765
  266TMC3    C2 4074   0.387   2.950  15.805  0.6797  0.7867  0.9106
  266TMC3    C3 4075   0.333   3.056  15.877 -0.0774  0.1541 -0.9858
  266TMC3    C4 4076   0.179   2.839  15.805  0.1699 -0.3465  0.0885
  266TMC3    C5 4077   0.130   2.947  15.878  0.2921  0.5303 -0.3944
  266TMC3    C6 4078   0.204   3.054  15.921 -0.3240  0.1336  0.2690
  266TMC3     C 4079   0.385   2.725  15.751  0.8575  0.3168 -0.2373
  266TMC3     O 4080   0.481   2.702  15.824 -0.1858 -0.0873 -0.0822
  266TMC3     H 4081   0.488   2.951  15.765 -0.6467 -0.2908 -2.4723
  266TMC3    H1 4082   0.114   2.762  15.768  0.4992 -0.6473  0.1378
  266TMC3    H2 4083   0.166   3.145  15.966  1.4268  1.2639 -0.5008
  266TMC3    C7 4084   0.014   2.902  15.956 -0.9155  0.1535  0.7423
  266TMC3    C8 4085   0.414   3.174  15.879  0.1166  0.4422  0.0410
  266TMC3    O1 4086   4.735   2.780  15.975  0.3985 -0.1764  0.2310
  266TMC3    O2 4087   0.536   3.144  15.868  0.4606  0.0263  0.0490
  267MPD2     C 4088   2.896   0.405  17.571 -0.0125 -0.3569  0.5897
  267MPD2    C1 4089   2.969   0.294  17.547 -0.4344  0.3348 -0.0762
  267MPD2    C2 4090   2.925   0.198  17.453  0.0919 -0.0748  0.0628
  267MPD2    C3 4091   2.819   0.233  17.372 -0.5517  0.4735 -0.7839
  267MPD2    C4 4092   2.759   0.357  17.387 -0.2351 -0.8118  0.0947
  267MPD2    C5 4093   2.794   0.442  17.494 -0.1422  0.0138  0.7645
  267MPD2     H 4094   2.981   0.106  17.447  0.1843 -0.0909  1.0946
  267MPD2    H1 4095   2.670   0.385  17.332 -0.6072 -0.9428  0.6211
  267MPD2    H2 4096   2.925   0.470  17.653  2.3063  0.4135 -0.8349
  267MPD2    H3 4097   2.729   0.525  17.520  0.2032 -0.0752  1.8873
  267MPD2     N 4098   2.775   0.147  17.268 -0.0093 -0.3286 -0.1068
  267MPD2    H5 4099   2.714   0.191  17.200  2.2715  0.5393 -1.6273
  267MPD2    N1 4100   3.085   0.270  17.616 -0.0113 -0.1153  0.5064
  267MPD2    H7 4101   3.087   0.313  17.707 -1.6329 -1.4252  1.1581
  268TMC3    C1 4102   3.278   0.191  17.698  0.8599 -0.1124 -0.3952
  268TMC3    C2 4103   3.406   0.152  17.667  0.0630  0.5643 -0.0420
  268TMC3    C3 4104   3.497   0.161   0.012  0.1016 -0.3540 -0.3281
  268TMC3    C4 4105   3.237   0.230   0.069  0.2385  0.2930  0.0528
  268TMC3    C5 4106   3.333   0.232   0.169  1.0339  0.3420  0.5376
  268TMC3    C6 4107   3.465   0.198   0.138 -0.1175  0.3827  0.1766
  268TMC3     C 4108   3.186   0.182  17.590 -0.1538 -0.5351 -0.4258
  268TMC3     O 4109   3.216   0.144  17.478 -0.3063 -0.2707 -0.8657
  268TMC3     H 4110   3.433   0.111  17.571  1.1552  1.5946 -0.1747
  268TMC3    H1 4111   3.139   0.266   0.099  0.0525 -0.4795  0.3542
  268TMC3    H2 4112   3.543   0.203   0.214 -0.2507 -1.8749  0.4474
  268TMC3    C7 4113   3.295   0.273   0.300 -0.3347 -0.2683 -0.4429
  268TMC3    C8 4114   3.634   0.177  17.735 -0.3672 -0.1606 -0.5886
  268TMC3    O1 4115   3.207   0.359   0.309  0.4752  0.3402  0.1215
  268TMC3    O2 4116   3.722   0.164   0.064  0.3364  0.2767 -0.1997
  269MPD2     C 4117   2.900   3.521  15.458  0.2947 -0.0263  0.1588
  269MPD2    C1 4118   2.766   3.493  15.487  0.0495  0.0704 -0.0848
  269MPD2    C2 4119   2.675   3.588  15.456 -0.0327 -0.5603  0.7100
  269MPD2    C3 4120   2.715   3.708  15.397 -0.2432 -0.1561  0.5344
  269MPD2    C4 4121   2.844   3.728  15.357  0.0919  0.0749 -0.1583
  269MPD2    C5 4122   2.936   3.640  15.394  0.2239 -0.4424 -0.4746
  269MPD2     H 4123   2.572   3.570  15.483 -0.1117 -0.1213  0.7019
  269MPD2    H1 4124   2.886   3.821  15.319  0.7539 -0.0289  0.3088
  269MPD2    H2 4125   2.977   3.453  15.492  0.0403 -1.0077 -1.1980
  269MPD2    H3 4126   3.043   3.653  15.382  0.3165  2.1401  3.4219
  269MPD2     N 4127   2.612   3.805  15.373  0.6455  1.0696  0.4752
  269MPD2    H5 4128   2.530   3.798  15.432 -0.1850  2.0356 -0.5746
  269MPD2    N1 4129   2.737   3.370  15.546  0.2151  0.1670  0.5052
  269MPD2    H7 4130   2.818   3.309  15.550  0.7299  0.6753 -2.9273
  270TMC3    C1 4131   2.626   3.199  15.671 -0.6572 -0.0750  0.4308
  270TMC3    C2 4132   2.505   3.139  15.693  0.1566  0.1199 -0.0824
  270TMC3    C3 4133   2.503   3.014  15.751 -0.1244 -0.1259 -0.6923
  270TMC3    C4 4134   2.744   3.136  15.703 -0.0687 -0.2724  0.0583
  270TMC3    C5 4135   2.736   3.015  15.767  0.3703 -0.2668  0.2471
  270TMC3    C6 4136   2.615   2.957  15.792 -1.1321 -0.1172 -0.2736
  270TMC3     C 4137   2.619   3.327  15.605  0.7375  0.5293  0.0812
  270TMC3     O 4138   2.506   3.359  15.565 -0.1519  0.5396  0.3351
  270TMC3     H 4139   2.411   3.185  15.667 -0.2559 -0.0338  1.1171
  270TMC3    H1 4140   2.838   3.190  15.697  0.6809 -1.1871  3.3171
  270TMC3    H2 4141   2.610   2.862  15.845 -0.0158  0.2057  0.4138
  270TMC3    C7 4142   2.842   2.924  15.740 -0.5184  0.4317  0.8440
  270TMC3    C8 4143   2.414   2.925  15.698  0.2479 -0.1755  0.3469
  270TMC3    O1 4144   2.926   2.907  15.827  0.0695  0.0542 -0.4468
  270TMC3    O2 4145   2.452   2.809  15.701 -0.0997  0.6509 -0.0982
  271MPD2     C 4146   1.985   2.790  13.980 -0.5560  0.6389  0.0933
  271MPD2    C1 4147   1.893   2.769  14.079 -0.6974  0.5173 -0.3020
  271MPD2    C2 4148   1.757   2.792  14.043  1.1279 -0.4927  0.0587
  271MPD2    C3 4149   1.723   2.852  13.922 -0.3172 -0.8317  0.5099
  271MPD2    C4 4150   1.821   2.868  13.829 -0.4911  0.6273  0.1012
  271MPD2    C5 4151   1.952   2.832  13.852  0.3001 -0.0835 -0.6490
  271MPD2     H 4152   1.679   2.773  14.115 -0.7785  0.7789 -1.6887
  271MPD2    H1 4153   1.798   2.925  13.740 -0.5377 -0.0051 -0.2922
  271MPD2    H2 4154   2.087   2.756  13.991 -0.8483  0.0182  0.9100
  271MPD2    H3 4155   2.025   2.836  13.773  1.1137 -2.0486  0.0084
  271MPD2     N 4156   1.598   2.912  13.896 -0.1543 -0.4740 -0.2839
  271MPD2    H5 4157   1.591   2.944  13.800  0.6251  0.4489 -0.0255
  271MPD2    N1 4158   1.922   2.710  14.203  0.1781 -0.4905  0.3270
  271MPD2    H7 4159   1.847   2.690  14.268  0.1838 -2.1774 -0.1670
  272TMC3    C1 4160   2.052   2.635  14.380  0.4420  0.3831 -0.4276
  272TMC3    C2 4161   2.164   2.559  14.407  0.5530 -0.8314  0.1325
  272TMC3    C3 4162   2.190   2.544  14.537 -0.5707  0.1256 -0.0367
  272TMC3    C4 4163   1.958   2.685  14.468 -0.3079 -0.5289 -0.7723
  272TMC3    C5 4164   1.992   2.651  14.597  1.4967  0.5879  0.2500
  272TMC3    C6 4165   2.111   2.589  14.637 -0.7017 -0.9617  0.3957
  272TMC3     C 4166   2.047   2.664  14.235  0.3670 -0.1143 -0.3415
  272TMC3     O 4167   2.151   2.653  14.176 -0.2065 -0.2060 -0.2937
  272TMC3     H 4168   2.230   2.511  14.336  1.6665  2.1360 -0.8134
  272TMC3    H1 4169   1.867   2.741  14.452 -0.8607 -0.7175  1.6609
  272TMC3    H2 4170   2.134   2.555  14.737  0.1563  0.4218  0.6595
  272TMC3    C7 4171   1.915   2.711  14.706 -0.2148 -0.6407 -0.1944
  272TMC3    C8 4172   2.329   2.510  14.562 -0.0551  0.6935  0.2563
  272TMC3    O1 4173   1.795   2.726  14.684  0.1903 -0.3608  0.1670
  272TMC3    O2 4174   2.400   2.552  14.476  0.1735  0.3695 -0.2256
  273MPD2     C 4175   2.996   1.034  11.837 -0.1424  0.3983 -0.6008
  273MPD2    C1 4176   3.133   1.021  11.810  0.1270 -0.2859  0.0413
  273MPD2    C2 4177   3.164   0.944  11.694  0.1902 -1.2127  0.6611
  273MPD2    C3 4178   3.061   0.908  11.605  0.0703 -0.8874  0.4905
  273MPD2    C4 4179   2.930   0.938  11.630  0.1401  0.7006  1.2127
  273MPD2    C5 4180   2.895   0.997  11.751 -0.4599  0.4473  0.1852
  273MPD2     H 4181   3.267   0.928  11.667 -0.3331 -1.3313 -1.2499
  273MPD2    H1 4182   2.850   0.917  11.559 -0.4295  2.2210  1.4033
  273MPD2    H2 4183   2.974   1.072  11.936 -0.7047 -0.8931 -0.2283
  273MPD2    H3 4184   2.796   1.029  11.780 -0.3708 -1.4507  2.5491
  273MPD2     N 4185   3.091   0.859  11.473  1.1095 -0.6380 -0.1446
  273MPD2    H5 4186   3.014   0.843  11.410  0.1238  1.9172  0.3812
  273MPD2    N1 4187   3.219   1.091  11.893  0.0584  0.3156  0.6171
  273MPD2    H7 4188   3.178   1.150  11.964  0.5765  1.2961  0.0958
  274TMC3    C1 4189   3.218   0.880  11.277  0.2271  0.3056 -0.1857
  274TMC3    C2 4190   3.106   0.849  11.206 -0.3778 -0.1924  0.5274
  274TMC3    C3 4191   3.085   0.898  11.085 -0.0954 -0.1511 -0.1804
  274TMC3    C4 4192   3.308   0.972  11.221 -0.7738 -0.2888 -0.0999
  274TMC3    C5 4193   3.289   1.008  11.091  0.4028 -0.1237 -0.4177
  274TMC3    C6 4194   3.181   0.969  11.020  0.6808 -0.2417 -0.4495
  274TMC3     C 4195   3.221   0.857  11.423 -0.3693  0.1714 -0.1691
  274TMC3     O 4196   3.335   0.865  11.475  0.3770 -0.0486 -0.4283
  274TMC3     H 4197   3.030   0.783  11.249  0.2326 -0.3989  1.2921
  274TMC3    H1 4198   3.397   0.997  11.277  0.1067  0.7219 -1.9551
  274TMC3    H2 4199   3.148   1.015  10.927 -0.6705 -2.3216 -0.9991
  274TMC3    C7 4200   3.347   1.136  11.054 -0.6883 -0.0692 -0.5572
  274TMC3    C8 4201   2.955   0.958  11.072  0.1076 -0.4577 -0.1223
  274TMC3    O1 4202   3.381   1.152  10.937 -0.5132  0.1344 -0.2866
  274TMC3    O2 4203   2.962   1.074  11.039  0.2249 -0.5131 -0.3641
  275MPD2     C 4204   3.557   3.442  14.545  0.3702 -0.4602 -0.6592
  275MPD2    C1 4205   3.499   3.557  14.509  0.2035 -0.0497  0.2804
  275MPD2    C2 4206   3.362   3.561  14.487  0.8090  0.2133  1.0907
  275MPD2    C3 4207   3.284   3.443  14.505 -0.5035 -1.0539  0.1554
  275MPD2    C4 4208   3.347   3.336  14.558  0.3778 -0.0258 -0.0084
  275MPD2    C5 4209   3.477   3.337  14.577  0.6803 -0.5368  0.0698
  275MPD2     H 4210   3.322   3.659  14.464  0.7022 -0.2478 -0.6509
  275MPD2    H1 4211   3.290   3.249  14.590 -1.6237  1.1284 -0.4180
  275MPD2    H2 4212   3.664   3.423  14.549  0.4156 -0.0242  0.1915
  275MPD2    H3 4213   3.525   3.244  14.604 -0.4011 -1.4002 -0.9927
  275MPD2     N 4214   3.149   3.426  14.454  0.4441  0.1602 -0.4594
  275MPD2    H5 4215   3.114   3.331  14.452  1.6170 -0.2307 -1.7697
  275MPD2    N1 4216   3.560   3.679  14.475  0.0274  0.2952  0.1049
  275MPD2    H7 4217   3.500   3.754  14.442  1.2011  0.6053 -1.3365
  276TMC3    C1 4218   3.725   3.839  14.470  0.3972 -0.2621 -1.0641
  276TMC3    C2 4219   3.622   3.909  14.417 -0.7254 -1.0876 -0.1872
  276TMC3    C3 4220   3.594   4.023  14.488 -0.0335 -0.0549 -0.0954
  276TMC3    C4 4221   3.812   3.877  14.565 -0.4676 -0.0572  0.3477
  276TMC3    C5 4222   3.786   3.993  14.626  0.0313  0.7458 -0.4201
  276TMC3    C6 4223   3.675   4.071  14.588 -0.2499  0.4137  0.0460
  276TMC3     C 4224   3.697   3.695  14.473  0.2359 -0.0207  0.1458
  276TMC3     O 4225   3.793   3.625  14.508  0.2963  0.0428  0.1354
  276TMC3     H 4226   3.566   3.880  14.329  0.3641 -2.2721 -0.4922
  276TMC3    H1 4227   3.886   3.804  14.594  0.1889  0.9311  1.1553
  276TMC3    H2 4228   3.649   4.169  14.629 -1.6102 -0.3449  0.9946
  276TMC3    C7 4229   3.861   4.044  14.743  0.2980  0.2880 -0.1283
  276TMC3    C8 4230   3.459   4.009  14.527 -0.4131  0.0739  0.5448
  276TMC3    O1 4231   3.805   4.128  14.811 -0.6542  0.1714 -0.4477
  276TMC3    O2 4232   3.383   3.991  14.431 -0.5682  0.0844 -0.1490
  277MPD2     C 4233   0.262   2.725  12.945 -1.0479 -0.4124 -0.4795
  277MPD2    C1 4234   0.147   2.729  13.016 -0.5294 -0.5846 -0.3251
  277MPD2    C2 4235   0.129   2.638  13.112 -0.1435  0.1093 -0.0995
  277MPD2    C3 4236   0.235   2.564  13.165 -0.4184  0.5342 -0.3551
  277MPD2    C4 4237   0.355   2.563  13.092  0.5946  0.5325 -0.0247
  277MPD2    C5 4238   0.363   2.641  12.979  0.5975  0.3296  0.2921
  277MPD2     H 4239   0.031   2.622  13.156  0.0797  1.7289  0.9969
  277MPD2    H1 4240   0.431   2.493  13.125  0.3392 -0.0642 -0.6944
  277MPD2    H2 4241   0.284   2.794  12.864  0.4119 -0.2049  0.0891
  277MPD2    H3 4242   0.446   2.638  12.909  0.5989 -2.0895  0.3891
  277MPD2     N 4243   0.206   2.495  13.288  0.7163  0.8898  0.1522
  277MPD2    H5 4244   0.116   2.514  13.331  0.9336 -1.2934  1.5519
  277MPD2    N1 4245   0.051   2.816  12.968  0.0499 -0.2578 -0.3792
  277MPD2    H7 4246   0.073   2.863  12.881 -1.0868 -0.2422 -0.6626
  278TMC3    C1 4247   0.209   2.340  13.448  0.0183 -0.2837  0.4806
  278TMC3    C2 4248   0.207   2.204  13.460  0.6798 -0.6752 -0.1552
  278TMC3    C3 4249   0.107   2.152  13.534 -0.3011 -0.6397  0.5041
  278TMC3    C4 4250   0.130   2.427  13.516  0.7231 -0.1830  0.2746
  278TMC3    C5 4251   0.044   2.362  13.604  0.1571 -0.1605  0.5526
  278TMC3    C6 4252   0.017   2.226  13.602 -0.1731  0.6611  0.1330
  278TMC3     C 4253   0.288   2.398  13.347  0.0935  0.5925  0.2014
  278TMC3     O 4254   0.376   2.325  13.296 -0.8374 -0.2454 -0.4935
  278TMC3     H 4255   0.292   2.153  13.417  1.3411  1.5208 -1.4214
  278TMC3    H1 4256   0.133   2.536  13.514 -1.0724 -0.1404 -0.9039
  278TMC3    H2 4257   4.697   2.178  13.679  0.7309  2.4520  1.9529
  278TMC3    C7 4258   4.708   2.445  13.698  0.5557 -0.5501  0.0746
  278TMC3    C8 4259   0.122   2.018  13.594  0.3434  0.1317  0.1057
  278TMC3    O1 4260   4.598   2.411  13.738  0.0070 -0.3285 -0.3798
  278TMC3    O2 4261   0.234   1.975  13.605  0.0194  0.2419  0.1664
  279MPD2     C 4262   4.555   3.364  17.690 -0.1728 -0.4290  0.6070
  279MPD2    C1 4263   4.470   3.255  17.681 -0.0640 -0.3659  0.4812
  279MPD2    C2 4264   4.420   3.220  17.559  0.0351 -0.8003  0.3216
  279MPD2    C3 4265   4.462   3.291  17.444 -0.8570  0.3143 -0.9785
  279MPD2    C4 4266   4.547   3.397  17.459 -0.0110  0.1080 -0.1339
  279MPD2    C5 4267   4.596   3.430  17.579  0.0936  0.4169 -0.1417
  279MPD2     H 4268   4.359   3.132  17.543  0.6411 -1.2807  0.7087
  279MPD2    H1 4269   4.556   3.472  17.382  2.4351 -0.6127 -0.5409
  279MPD2    H2 4270   4.574   3.397   0.036  2.2053 -0.0632  0.0381
  279MPD2    H3 4271   4.656   3.520  17.586  0.9683 -0.2583  1.1545
  279MPD2     N 4272   4.424   3.265  17.315 -0.2463  0.0261  0.3700
  279MPD2    H5 4273   4.461   3.335  17.251  2.4947 -2.2054 -0.4721
  279MPD2    N1 4274   4.422   3.203   0.046  0.1129 -0.0147  0.3475
  279MPD2    H7 4275   4.453   3.251   0.130 -0.2246  1.4757 -0.3817
  280TMC3    C1 4276   4.306   3.069   0.186  0.3423 -0.1121  0.5528
  280TMC3    C2 4277   4.323   2.944   0.245  0.8545 -0.1205 -0.0135
  280TMC3    C3 4278   4.338   2.951   0.381  0.1596  0.2694  0.2857
  280TMC3    C4 4279   4.288   3.185   0.259  0.1152 -0.0901 -0.3324
  280TMC3    C5 4280   4.283   3.177   0.394 -0.4591 -0.7074  0.2541
  280TMC3    C6 4281   4.326   3.069   0.454 -0.3921 -0.4881  0.2385
  280TMC3     C 4282   4.349   3.086   0.051 -0.2097 -0.4139  0.7679
  280TMC3     O 4283   4.350   2.989  17.731 -0.1807 -0.4900  0.1504
  280TMC3     H 4284   4.337   2.861   0.176 -2.4527 -1.8918  1.4030
  280TMC3    H1 4285   4.269   3.279   0.208  0.2347 -0.9096 -1.8680
  280TMC3    H2 4286   4.331   3.060   0.562 -0.8897  0.3020  0.3213
  280TMC3    C7 4287   4.255   3.293   0.474  0.1744  0.1499 -0.0143
  280TMC3    C8 4288   4.322   2.826   0.451 -0.6398  0.0996 -0.1479
  280TMC3    O1 4289   4.285   3.291   0.593 -0.0365  0.0292  1.2451
  280TMC3    O2 4290   4.291   2.827   0.572  0.4191 -0.1666 -0.3134
  281TMC3    C1 4291   2.659   3.068  13.267  0.3965  0.3545  0.4195
  281TMC3    C2 4292   2.577   3.115  13.172  0.2580  0.0983 -0.4256
  281TMC3    C3 4293   2.532   3.043  13.068  0.0285 -0.0631  0.2199
  281TMC3    C4 4294   2.699   2.937  13.264 -0.1537  0.8596  0.8130
  281TMC3    C5 4295   2.650   2.858  13.159  0.1705 -0.0797 -0.4880
  281TMC3    C6 4296   2.567   2.909  13.057 -0.1175 -0.0650  0.1207
  281TMC3     C 4297   2.704   3.152  13.375  0.4363 -0.6761 -0.4111
  281TMC3     O 4298   2.758   3.091  13.466  0.0217 -0.3695  0.3875
  281TMC3     H 4299   2.533   3.213  13.186  1.8901  0.5998  1.1526
  281TMC3    H1 4300   2.767   2.892  13.336 -2.5356 -1.8946  1.3445
  281TMC3    H2 4301   2.509   2.841  12.996  1.3688 -0.1313 -1.2456
  281TMC3    C7 4302   2.722   2.735  13.135  0.4143  0.2503 -0.1046
  281TMC3    C8 4303   2.434   3.093  12.972  0.2302  0.2987  0.1027
  281TMC3    O1 4304   2.718   2.681  13.020  0.2857  0.0340 -0.0384
  281TMC3    O2 4305   2.353   3.014  12.926  0.1864  0.0286  0.0704
  282MPD2     C 4306   0.196   4.647  15.038 -0.1880  0.4190  0.0619
  282MPD2    C1 4307   0.087   4.580  15.083 -0.1229  0.6123 -0.2865
  282MPD2    C2 4308   0.026   4.493  14.994  0.0705  0.1634  0.2185
  282MPD2    C3 4309   0.075   4.470  14.868 -0.7880 -0.4439 -0.3286
  282MPD2    C4 4310   0.185   4.538  14.822  0.7481 -0.4187  0.0626
  282MPD2    C5 4311   0.251   4.624  14.913  0.5250  0.5269  0.7338
  282MPD2     H 4312   4.672   4.445  15.023  0.3558  0.6784  1.9677
  282MPD2    H1 4313   0.226   4.520  14.724 -0.9520 -1.1279 -0.5206
  282MPD2    H2 4314   0.253   4.717  15.099 -1.0750 -0.2243  1.6116
  282MPD2    H3 4315   0.335   4.687  14.886  1.6650 -0.8739  1.0435
  282MPD2     N 4316   4.735   4.387  14.784 -0.7690  0.2295  0.2588
  282MPD2    H5 4317   4.655   4.344  14.828 -1.4157 -0.9761 -2.1009
  282MPD2    N1 4318   0.033   4.597  15.214 -0.9429 -0.0491 -0.0209
  282MPD2    H7 4319   4.697   4.533  15.239 -0.4440 -0.8876 -0.6495
  283TMC3    C1 4320   4.732   4.687  15.428 -0.0900  0.4430 -0.2127
  283TMC3    C2 4321   4.708   0.070  15.488 -0.0306 -0.7615  0.3634
  283TMC3    C3 4322   4.616   0.078  15.590  0.1018 -0.4621 -0.0274
  283TMC3    C4 4323   4.649   4.580  15.466  0.8847 -0.2458 -0.0200
  283TMC3    C5 4324   4.567   4.599  15.578  0.0795 -0.3114  0.1395
  283TMC3    C6 4325   4.552   4.715  15.645 -1.0343  0.2971 -0.3716
  283TMC3     C 4326   0.066   4.703  15.303  0.3405  0.3722 -0.6166
  283TMC3     O 4327   0.120   0.074  15.285 -1.0181  0.3982  0.1391
  283TMC3     H 4328   0.049   0.143  15.482 -0.8722  0.2084  1.0009
  283TMC3    H1 4329   4.659   4.487  15.411 -0.2812  1.1507 -2.6320
  283TMC3    H2 4330   4.495   4.731  15.735  3.2408  0.2228  2.3707
  283TMC3    C7 4331   4.506   4.481  15.639  0.5360 -0.2227  0.5923
  283TMC3    C8 4332   4.595   0.208  15.653  0.2426 -0.3110 -0.1986
  283TMC3    O1 4333   4.460   4.493  15.751 -0.2058 -0.0030 -0.0340
  283TMC3    O2 4334   4.541   0.214  15.764 -0.0502  0.0008 -0.3699
  284MPD2     C 4335   1.964   3.743  12.003 -0.9031  0.3266 -0.9036
  284MPD2    C1 4336   2.083   3.677  11.981 -0.5955  0.0754  1.0094
  284MPD2    C2 4337   2.093   3.541  12.013 -0.7679 -0.8439  0.5248
  284MPD2    C3 4338   1.991   3.471  12.079  0.1869 -0.2219  0.3196
  284MPD2    C4 4339   1.881   3.542  12.114  0.6468  0.2148  0.0752
  284MPD2    C5 4340   1.864   3.670  12.068 -0.6306 -0.1615  1.0570
  284MPD2     H 4341   2.188   3.499  11.980 -0.5450 -0.2795  0.4474
  284MPD2    H1 4342   1.807   3.495  12.178  1.2100 -2.5242 -1.2756
  284MPD2    H2 4343   1.949   3.847  11.975 -3.8352  0.8665  2.6313
  284MPD2    H3 4344   1.766   3.716  12.071 -0.3035  0.8161 -2.6333
  284MPD2     N 4345   2.013   3.343  12.135  0.3382 -0.4778  0.3634
  284MPD2    H5 4346   1.947   3.310  12.206  0.2391  0.8521  0.8836
  284MPD2    N1 4347   2.195   3.745  11.934  0.0511  0.2757 -0.2081
  284MPD2    H7 4348   2.270   3.683  11.905 -2.2900 -2.7194  0.2222
  285TMC3    C1 4349   2.341   3.922  11.900 -0.0402 -0.1933  0.4430
  285TMC3    C2 4350   2.410   3.854  11.796  0.0787  0.5093 -0.1273
  285TMC3    C3 4351   2.528   3.913  11.757  0.4968  0.1503 -0.0957
  285TMC3    C4 4352   2.372   4.046  11.937  0.5579 -0.1871 -0.5943
  285TMC3    C5 4353   2.488   4.103  11.887 -0.1346 -0.0380 -0.5694
  285TMC3    C6 4354   2.567   4.035  11.799 -0.7871 -0.2764 -0.1333
  285TMC3     C 4355   2.206   3.882  11.933  0.5795 -0.4741  0.0734
  285TMC3     O 4356   2.129   3.977  11.948  0.2014  0.0538 -0.1654
  285TMC3     H 4357   2.374   3.757  11.765  0.9812 -0.7450  2.7350
  285TMC3    H1 4358   2.315   4.101  12.011 -0.4643 -1.6168 -0.3301
  285TMC3    H2 4359   2.660   4.081  11.770  0.0517 -0.4075  2.3865
  285TMC3    C7 4360   2.486   4.247  11.872 -0.5222 -0.1020 -0.1904
  285TMC3    C8 4361   2.590   3.844  11.646  0.3522 -0.0079  0.6021
  285TMC3    O1 4362   2.561   4.295  11.784 -0.5582 -0.4336 -0.1182
  285TMC3    O2 4363   2.545   3.734  11.638 -0.3471  0.2414 -0.2550
  286MPD2     C 4364   4.160   3.105   1.210  0.5778  0.4054  0.3942
  286MPD2    C1 4365   4.060   3.018   1.172 -0.0530 -0.3744  0.4511
  286MPD2    C2 4366   4.086   2.882   1.184 -0.7691  0.4931  0.2512
  286MPD2    C3 4367   4.213   2.831   1.222 -0.4885  0.2704 -0.9147
  286MPD2    C4 4368   4.311   2.922   1.251  0.6885 -0.0471  0.2984
  286MPD2    C5 4369   4.281   3.059   1.257  0.7918  0.0898 -0.0504
  286MPD2     H 4370   4.006   2.811   1.166  0.3158 -0.7517  0.3606
  286MPD2    H1 4371   4.414   2.893   1.270  0.0255 -2.1966  0.5645
  286MPD2    H2 4372   4.139   3.211   1.210  0.7700  0.4426  0.2134
  286MPD2    H3 4373   4.357   3.129   1.290  2.5121  0.0547 -3.9810
  286MPD2     N 4374   4.250   2.693   1.233 -0.0442 -0.1966  0.0948
  286MPD2    H5 4375   4.347   2.675   1.259 -0.0620  1.1882  1.1210
  286MPD2    N1 4376   3.935   3.063   1.129  0.4425  0.0370 -0.0197
  286MPD2    H7 4377   3.871   2.985   1.120 -2.5834  2.3450  1.3816
  287TMC3    C1 4378   4.235   2.469   1.248 -0.3670 -0.5329  0.0214
  287TMC3    C2 4379   4.186   2.356   1.182 -0.1469  0.7011 -0.3073
  287TMC3    C3 4380   4.280   2.275   1.127  0.4626 -0.1386 -0.3391
  287TMC3    C4 4381   4.372   2.479   1.270  0.2690 -0.5282 -0.2025
  287TMC3    C5 4382   4.457   2.375   1.239 -0.3548  0.3886 -0.0206
  287TMC3    C6 4383   4.415   2.275   1.155 -0.5191  0.2954 -0.7485
  287TMC3     C 4384   4.163   2.589   1.220  0.2418  0.1156 -0.2106
  287TMC3     O 4385   4.041   2.589   1.204  0.1577  0.1359  0.0441
  287TMC3     H 4386   4.082   2.355   1.151 -1.1383  1.0241  2.9745
  287TMC3    H1 4387   4.414   2.554   1.336 -0.0180  0.0699 -0.6897
  287TMC3    H2 4388   4.479   2.203   1.107 -0.3610  0.5316 -0.8929
  287TMC3    C7 4389   4.603   2.389   1.269 -0.0933 -0.5671 -0.5275
  287TMC3    C8 4390   4.220   2.177   1.036  0.0988 -0.8158  0.4497
  287TMC3    O1 4391   4.637   2.501   1.304  0.4570 -0.1149 -0.3264
  287TMC3    O2 4392   4.107   2.141   1.060  0.4702  0.1211  0.0439
  288TMC3    C1 4393   0.088   2.582  14.182  0.1143 -0.1486 -0.3942
  288TMC3    C2 4394   0.048   2.568  14.316 -0.3954 -0.0766 -0.2718
  288TMC3    C3 4395   0.126   2.632  14.405 -0.1303  0.0069 -0.0054
  288TMC3    C4 4396   0.198   2.660  14.144 -0.4260 -0.7579  0.1456
  288TMC3    C5 4397   0.270   2.712  14.244 -0.6343 -0.4128 -0.5798
  288TMC3    C6 4398   0.237   2.704  14.373 -0.7046 -0.3572 -0.3332
  288TMC3     C 4399   0.053   2.472  14.105  0.1061 -0.0881  0.3180
  288TMC3     O 4400   4.704   2.404  14.157  0.0248 -0.3844 -0.0008
  288TMC3     H 4401   4.702   2.506  14.345  0.3219 -1.0635 -0.2618
  288TMC3    H1 4402   0.223   2.676  14.040 -0.9100 -0.6838  0.0384
  288TMC3    H2 4403   0.291   2.764  14.445  1.5204 -0.5628 -1.8280
  288TMC3    C7 4404   0.378   2.794  14.197  0.7297 -0.0300 -0.5389
  288TMC3    C8 4405   0.109   2.613  14.546  0.7960  0.7688 -0.9722
  288TMC3    O1 4406   0.385   2.803  14.076  0.4284  0.2904  0.9822
  288TMC3    O2 4407   0.154   2.703  14.612 -0.1672  0.5963  0.0449
  289MPD2     C 4408   0.403   1.452  14.076  0.7764 -0.4030  0.5771
  289MPD2    C1 4409   0.354   1.576  14.114  0.6425 -0.1154  0.1578
  289MPD2    C2 4410   0.219   1.579  14.127 -0.0745  0.5033 -0.0110
  289MPD2    C3 4411   0.138   1.462  14.127  0.0089  0.4771  0.0126
  289MPD2    C4 4412   0.192   1.349  14.077 -0.1635  0.2756  0.3308
  289MPD2    C5 4413   0.325   1.344  14.044 -0.5341  0.1753 -0.8546
  289MPD2     H 4414   0.174   1.676  14.144 -1.1230  0.0702 -0.3748
  289MPD2    H1 4415   0.139   1.256  14.059  0.6242  0.3563 -2.5102
  289MPD2    H2 4416   0.511   1.438  14.073  0.8291  0.2661 -0.8047
  289MPD2    H3 4417   0.371   1.249  14.020  0.2114  0.1656  0.6067
  289MPD2     N 4418   4.737   1.470  14.150 -0.3731  0.2083 -0.4205
  289MPD2    H5 4419   4.690   1.395  14.101 -2.0073  1.0283 -0.0982
  289MPD2    N1 4420   0.441   1.681  14.122  0.6559 -0.1561  0.4377
  289MPD2    H7 4421   0.539   1.670  14.099  1.1209  2.2820  1.2034
  290TMC3    C1 4422   4.535   1.581  14.166  0.4082 -0.2414 -0.6733
  290TMC3    C2 4423   4.488   1.702  14.128  0.2636  0.1118  0.0144
  290TMC3    C3 4424   4.367   1.710  14.064  0.2492 -0.9403  0.5406
  290TMC3    C4 4425   4.461   1.467  14.154 -0.1892  0.2492  0.2627
  290TMC3    C5 4426   4.332   1.478  14.101 -0.0391  0.9294 -0.3782
  290TMC3    C6 4427   4.284   1.597  14.056  0.4659 -0.5727  0.3497
  290TMC3     C 4428   4.674   1.569  14.219  0.5164 -0.4176 -0.7025
  290TMC3     O 4429   4.711   1.673  14.278 -0.4742 -0.1555 -0.5808
  290TMC3     H 4430   4.549   1.791  14.139  3.9877 -2.4971  0.4900
  290TMC3    H1 4431   4.496   1.373  14.194 -1.4311 -0.0405  0.6793
  290TMC3    H2 4432   4.193   1.605  13.997 -1.0359 -3.8137  2.2071
  290TMC3    C7 4433   4.233   1.367  14.114  0.1846  0.0530  0.0843
  290TMC3    C8 4434   4.327   1.832  14.003 -0.1352  0.1811 -0.2805
  290TMC3    O1 4435   4.110   1.389  14.099 -0.2906 -0.9638 -0.5483
  290TMC3    O2 4436   4.250   1.829  13.907  0.0861 -0.0979 -0.3963
  291MPD2     C 4437   4.410   1.485   0.469 -0.6484  0.2373 -0.3922
  291MPD2    C1 4438   4.544   1.466   0.476 -0.0692  0.6419  0.0282
  291MPD2    C2 4439   4.628   1.570   0.437  0.1005 -0.9911 -0.8056
  291MPD2    C3 4440   4.571   1.693   0.409  0.2920  0.1669 -0.2895
  291MPD2    C4 4441   4.430   1.707   0.392  0.5316 -0.8382  0.6290
  291MPD2    C5 4442   4.354   1.601   0.430  0.3313 -0.3213 -0.0041
  291MPD2     H 4443   4.736   1.564   0.443  0.1106  1.6803  1.5596
  291MPD2    H1 4444   4.386   1.804   0.371  0.8208 -0.6867  0.7146
  291MPD2    H2 4445   4.337   1.407   0.486 -1.6898  0.8715 -1.9741
  291MPD2    H3 4446   4.246   1.611   0.427  0.3928 -0.4411 -2.7112
  291MPD2     N 4447   4.649   1.807   0.362  0.0710 -0.0385  1.0404
  291MPD2    H5 4448   4.606   1.898   0.344 -1.8448 -0.9437  1.0791
  291MPD2    N1 4449   4.607   1.349   0.525 -0.3389  0.0358 -0.3995
  291MPD2    H7 4450   4.703   1.345   0.556 -1.0352 -0.5812  1.7204
  292TMC3    C1 4451   4.636   1.119   0.571 -0.4682  0.1766  0.6344
  292TMC3    C2 4452   4.715   1.143   0.677  0.2154 -0.1615 -0.3929
  292TMC3    C3 4453   0.035   1.043   0.734  0.3829  0.2808  0.0793
  292TMC3    C4 4454   4.616   0.997   0.520 -0.0234 -0.3746  0.3966
  292TMC3    C5 4455   4.683   0.891   0.576  0.1217  0.8055  0.0682
  292TMC3    C6 4456   0.033   0.918   0.670 -0.3444 -0.4257 -0.1840
  292TMC3     C 4457   4.543   1.224   0.521 -0.1022  0.5890 -0.1297
  292TMC3     O 4458   4.433   1.183   0.472  0.0304  0.0754 -0.4206
  292TMC3     H 4459   4.737   1.242   0.715 -0.8471 -0.8203  1.9197
  292TMC3    H1 4460   4.543   0.988   0.441  1.4883 -0.1299 -1.0100
  292TMC3    H2 4461   0.089   0.835   0.712  1.9462  0.9559 -0.4379
  292TMC3    C7 4462   4.674   0.766   0.504  0.3135 -0.0589 -0.1126
  292TMC3    C8 4463   0.110   1.066   0.854  0.4838 -0.3267  0.0973
  292TMC3    O1 4464   4.618   0.760   0.393 -0.0410  0.1975 -0.7832
  292TMC3    O2 4465   0.213   0.998   0.867  0.2769  0.3260 -0.1999
  293MPD2     C 4466   0.857   2.760  12.290  0.5999  0.4128  0.6445
  293MPD2    C1 4467   0.814   2.676  12.391 -0.0829 -0.4959 -0.0085
  293MPD2    C2 4468   0.856   2.692  12.520 -0.1336 -0.0315  0.1199
  293MPD2    C3 4469   0.929   2.811  12.548 -0.1440  0.1097  0.4266
  293MPD2    C4 4470   0.956   2.898  12.444 -0.6576 -0.9927  0.7881
  293MPD2    C5 4471   0.928   2.874  12.314 -0.2265 -0.7605 -0.6078
  293MPD2     H 4472   0.847   2.613  12.594 -1.9518 -0.4843 -0.5725
  293MPD2    H1 4473   1.006   2.991  12.468  1.1042 -1.7320 -0.0324
  293MPD2    H2 4474   0.818   2.739  12.191  1.1392  0.9978  0.3051
  293MPD2    H3 4475   0.948   2.943  12.233 -1.8024  0.0206 -0.3388
  293MPD2     N 4476   0.970   2.826  12.682 -0.7596  0.2729  0.0527
  293MPD2    H5 4477   0.952   2.739  12.732  0.6413  1.1619  2.0789
  293MPD2    N1 4478   0.735   2.564  12.346 -0.3372  0.4061 -0.4536
  293MPD2    H7 4479   0.713   2.566  12.247  0.3669  0.1171 -0.6169
  294TMC3    C1 4480   0.609   2.359  12.352  0.2856  0.4520 -0.3051
  294TMC3    C2 4481   0.587   2.242  12.425  0.4753  0.8261 -0.2882
  294TMC3    C3 4482   0.508   2.151  12.350  0.2773 -0.3764  0.4902
  294TMC3    C4 4483   0.582   2.377  12.217 -0.1392  0.1661  0.3329
  294TMC3    C5 4484   0.507   2.275  12.159 -0.6600  1.2264  0.0629
  294TMC3    C6 4485   0.457   2.172  12.229 -0.0198 -0.1498 -0.3756
  294TMC3     C 4486   0.674   2.469  12.429 -0.1737 -1.5419  0.4836
  294TMC3     O 4487   0.688   2.451  12.552 -0.2807  0.1013  0.0356
  294TMC3     H 4488   0.634   2.220  12.520  0.9269 -1.2040 -0.9890
  294TMC3    H1 4489   0.626   2.455  12.155 -1.0522  0.2551 -0.2094
  294TMC3    H2 4490   0.391   2.104  12.176 -0.5654 -0.3103  0.5071
  294TMC3    C7 4491   0.520   2.249  12.019  0.2954  0.0392  0.9192
  294TMC3    C8 4492   0.478   2.030  12.416 -0.4526 -0.0274  0.4727
  294TMC3    O1 4493   0.543   2.133  11.991  0.6955  0.4171 -0.1905
  294TMC3    O2 4494   0.507   2.018  12.537 -0.6833  0.0197  0.4570
  295MPD2     C 4495   2.580   1.850   0.883 -0.6146  0.6238  0.1323
  295MPD2    C1 4496   2.450   1.820   0.862  0.0552  0.2402  0.2510
  295MPD2    C2 4497   2.376   1.770   0.967  0.4653 -0.5116  0.4568
  295MPD2    C3 4498   2.431   1.754   1.095  0.5621 -0.5915 -0.1578
  295MPD2    C4 4499   2.563   1.774   1.111  0.7492  0.7506  0.0879
  295MPD2    C5 4500   2.630   1.812   1.002 -0.1727 -1.1128  0.4043
  295MPD2     H 4501   2.270   1.755   0.949  0.8710 -0.4746 -1.9414
  295MPD2    H1 4502   2.609   1.759   1.208  1.6367 -3.2495 -0.9385
  295MPD2    H2 4503   2.645   1.895   0.809  0.9576  0.5336  1.4655
  295MPD2    H3 4504   2.735   1.828   1.020 -0.3364 -0.6944  1.0056
  295MPD2     N 4505   2.359   1.715   1.204  0.4084 -0.3488  0.4750
  295MPD2    H5 4506   2.415   1.701   1.288  0.5017  0.1613  0.4962
  295MPD2    N1 4507   2.380   1.839   0.739 -0.2819 -0.4716 -0.6102
  295MPD2    H7 4508   2.282   1.811   0.740 -0.7810  1.3777  1.9085
  296TMC3    C1 4509   2.176   1.652   1.333 -0.3227  0.1492  0.3867
  296TMC3    C2 4510   2.055   1.694   1.376 -0.4651  0.4023 -0.3513
  296TMC3    C3 4511   2.004   1.626   1.483  0.0057 -0.0235  0.1182
  296TMC3    C4 4512   2.258   1.561   1.401  0.1881 -0.2901 -0.7594
  296TMC3    C5 4513   2.192   1.503   1.503 -0.2881 -0.0946 -0.1501
  296TMC3    C6 4514   2.068   1.529   1.551  0.5854 -0.4917  0.6244
  296TMC3     C 4515   2.222   1.716   1.216  0.7917 -0.0146 -0.9013
  296TMC3     O 4516   2.133   1.728   1.136 -0.2633 -0.4526 -0.0397
  296TMC3     H 4517   1.995   1.762   1.316  1.2441  0.6500 -1.7973
  296TMC3    H1 4518   2.351   1.520   1.362  1.1325  1.0153  0.1455
  296TMC3    H2 4519   2.033   1.489   1.646  2.1971  0.8475  1.7928
  296TMC3    C7 4520   2.252   1.373   1.528  0.8020 -0.2873  0.2951
  296TMC3    C8 4521   1.878   1.669   1.541  0.4477 -0.5566 -0.0495
  296TMC3    O1 4522   2.350   1.340   1.472  0.0851 -0.2292  0.8151
  296TMC3    O2 4523   1.798   1.575   1.566 -0.2166 -0.3810 -0.3681
  297MPD2     C 4524   3.497   3.271  16.252 -0.0152 -0.7982  0.4218
  297MPD2    C1 4525   3.518   3.375  16.165 -0.1821  0.9044 -0.1035
  297MPD2    C2 4526   3.650   3.410  16.128  0.6621  0.0118  0.2115
  297MPD2    C3 4527   3.754   3.328  16.172 -0.6983  0.0759 -0.5064
  297MPD2    C4 4528   3.731   3.221  16.256  0.5335 -0.2110 -0.2060
  297MPD2    C5 4529   3.599   3.199  16.296  0.0949  0.0572  0.3171
  297MPD2     H 4530   3.668   3.492  16.059 -1.7102  0.0572 -0.3434
  297MPD2    H1 4531   3.802   3.157  16.308  0.3060  0.1097  0.4944
  297MPD2    H2 4532   3.396   3.258  16.288  0.3682 -0.6087  1.5919
  297MPD2    H3 4533   3.575   3.122  16.369 -0.1066 -0.2854 -0.1059
  297MPD2     N 4534   3.887   3.364  16.137  0.1985  0.6458  0.2071
  297MPD2    H5 4535   3.900   3.445  16.078 -1.0782 -0.5522 -1.7208
  297MPD2    N1 4536   3.404   3.441  16.114 -0.2409 -0.7099 -0.1496
  297MPD2    H7 4537   3.316   3.425  16.162 -0.1884 -1.0957 -0.1787
  298TMC3    C1 4538   3.289   3.623  16.012 -0.7920 -0.1814  0.1297
  298TMC3    C2 4539   3.262   3.690  15.893 -0.7384 -0.1491 -0.6771
  298TMC3    C3 4540   3.198   3.812  15.906 -0.3372 -0.5385  0.3514
  298TMC3    C4 4541   3.246   3.671  16.136  1.2556 -0.4649 -0.0432
  298TMC3    C5 4542   3.165   3.779  16.138 -0.0375 -0.5728  0.5443
  298TMC3    C6 4543   3.143   3.857  16.025 -0.3317  0.4527 -0.0857
  298TMC3     C 4544   3.405   3.538  16.013 -0.3057 -0.0628 -0.3992
  298TMC3     O 4545   3.492   3.553  15.926 -0.0866  0.6156  0.3985
  298TMC3     H 4546   3.305   3.649  15.803  2.9194  2.5621 -0.1895
  298TMC3    H1 4547   3.264   3.620  16.229  0.8744 -0.0901  0.2398
  298TMC3    H2 4548   3.096   3.955  16.030 -1.8894 -0.2573 -0.7815
  298TMC3    C7 4549   3.174   3.855  16.260  0.2267  0.3180 -0.4083
  298TMC3    C8 4550   3.148   3.882  15.792  0.6528 -0.4891 -0.1644
  298TMC3    O1 4551   3.285   3.904  16.287 -0.1974  0.5885 -0.3040
  298TMC3    O2 4552   3.043   3.943  15.813  0.3891 -0.0256 -0.0075
  299MPD2     C 4553   4.078   3.664  10.658 -0.5755 -0.0888  0.3329
  299MPD2    C1 4554   4.077   3.547  10.724 -0.2820  0.5690 -0.3158
  299MPD2    C2 4555   3.993   3.452  10.670  0.4845  0.0210 -0.1013
  299MPD2    C3 4556   3.905   3.470  10.564  0.5495 -0.5931 -0.4528
  299MPD2    C4 4557   3.902   3.594  10.506 -0.2240 -0.6338 -0.2237
  299MPD2    C5 4558   3.995   3.690  10.549  0.0002  0.4273  0.1836
  299MPD2     H 4559   3.991   3.358  10.725 -1.8336 -0.2755 -0.7032
  299MPD2    H1 4560   3.831   3.621  10.429 -0.6391  1.2724  0.8257
  299MPD2    H2 4561   4.130   3.751  10.697  0.0052  0.0683 -0.7803
  299MPD2    H3 4562   3.979   3.791  10.514  1.8917  0.5612 -0.2693
  299MPD2     N 4563   3.820   3.376  10.514  0.0937 -0.1958 -0.0537
  299MPD2    H5 4564   3.772   3.395  10.426 -0.6187 -0.0367  0.3679
  299MPD2    N1 4565   4.174   3.524  10.834  0.3581  0.2148 -0.0566
  299MPD2    H7 4566   4.239   3.598  10.858 -0.1174  0.4745  0.4294
  300TMC3    C1 4567   3.700   3.178  10.502 -0.1841  0.0277 -0.6969
  300TMC3    C2 4568   3.645   3.236  10.387 -0.2221 -0.2455 -0.2868
  300TMC3    C3 4569   3.512   3.225  10.355 -0.5087  0.4330 -0.5292
  300TMC3    C4 4570   3.620   3.099  10.585 -0.5821  0.2385  0.2119
  300TMC3    C5 4571   3.489   3.099  10.551 -0.5139  0.2202 -0.0443
  300TMC3    C6 4572   3.435   3.157  10.446 -0.1262  0.9010 -0.3710
  300TMC3     C 4573   3.806   3.245  10.563 -1.0065 -0.1618 -0.0643
  300TMC3     O 4574   3.846   3.194  10.668 -0.6875  0.4251 -0.3666
  300TMC3     H 4575   3.711   3.261  10.305 -0.3204  2.1813  0.3478
  300TMC3    H1 4576   3.656   3.067  10.682 -1.3224 -0.2121  0.3371
  300TMC3    H2 4577   3.331   3.151  10.418  0.0304  0.4770 -0.8679
  300TMC3    C7 4578   3.403   3.026  10.641  0.4360 -0.1760 -0.4557
  300TMC3    C8 4579   3.456   3.230  10.224 -0.2539 -0.1236  0.2845
  300TMC3    O1 4580   3.461   2.943  10.708  0.2746  0.1161 -0.1217
  300TMC3    O2 4581   3.379   3.135  10.196 -0.4345 -0.9297 -0.2114
  301MPD2     C 4582   2.055   4.595   1.625 -0.4579  0.0250 -0.6005
  301MPD2    C1 4583   1.980   4.568   1.518 -0.3800  0.4769  0.1622
  301MPD2    C2 4584   1.983   4.436   1.471  0.5557  0.8306 -1.2509
  301MPD2    C3 4585   2.085   4.346   1.505  0.1320 -0.1774  0.1588
  301MPD2    C4 4586   2.166   4.390   1.614 -0.4616  0.2830 -0.8708
  301MPD2    C5 4587   2.142   4.511   1.675 -0.2962 -0.0337 -0.6499
  301MPD2     H 4588   1.922   4.417   1.383  0.2647 -1.8650 -0.4889
  301MPD2    H1 4589   2.243   4.322   1.647 -0.1749  0.4787 -1.1360
  301MPD2    H2 4590   2.046   4.695   1.667 -0.4991 -0.7014  1.1132
  301MPD2    H3 4591   2.208   4.544   1.754 -0.4565 -0.3780 -0.3713
  301MPD2     N 4592   2.101   4.219   1.444  0.1292  0.6435  0.6391
  301MPD2    H5 4593   2.165   4.155   1.490  0.5813 -0.0765 -0.9806
  301MPD2    N1 4594   1.902   4.664   1.446 -0.3981  0.4279 -0.9679
  301MPD2    H7 4595   1.840   4.613   1.383 -0.6302 -0.8947  0.3383
  302TMC3    C1 4596   2.077   4.047   1.283  0.2149  0.3963 -0.0177
  302TMC3    C2 4597   2.208   4.002   1.318 -0.3345 -0.0537  1.0162
  302TMC3    C3 4598   2.264   3.905   1.238  0.3990  0.0230 -0.4592
  302TMC3    C4 4599   2.015   4.002   1.170  0.7285 -0.1481  0.4015
  302TMC3    C5 4600   2.087   3.911   1.091 -0.3639  0.2029  0.8087
  302TMC3    C6 4601   2.207   3.861   1.124 -0.5646  0.1154 -0.2030
  302TMC3     C 4602   2.026   4.169   1.343  0.6940 -0.0163  0.2911
  302TMC3     O 4603   1.935   4.216   1.276  0.2601 -0.1317 -0.5893
  302TMC3     H 4604   2.256   4.041   1.407 -0.4856  2.2029  0.1207
  302TMC3    H1 4605   1.917   4.041   1.144  1.3669  0.8101 -0.5716
  302TMC3    H2 4606   2.250   3.778   1.069 -0.2162 -0.5053  1.0022
  302TMC3    C7 4607   2.034   3.883   0.964  0.7886  0.2410 -0.0884
  302TMC3    C8 4608   2.381   3.829   1.286  0.4940  0.3275  0.4131
  302TMC3    O1 4609   2.078   3.778   0.917 -0.7333  0.2998 -0.1542
  302TMC3    O2 4610   2.435   3.750   1.213  0.3554 -0.3039  0.2051
  303MPD2     C 4611   1.747   3.408  10.730  0.3563  0.2012 -0.0886
  303MPD2    C1 4612   1.623   3.341  10.745 -0.1856 -0.7802  0.8732
  303MPD2    C2 4613   1.517   3.373  10.660 -0.5988 -0.2153  0.4055
  303MPD2    C3 4614   1.543   3.460  10.557  0.7857 -0.0783 -0.1860
  303MPD2    C4 4615   1.658   3.541  10.553 -0.1447  0.0271 -0.1395
  303MPD2    C5 4616   1.762   3.512  10.644  0.2096  0.0566  0.1489
  303MPD2     H 4617   1.422   3.322  10.673 -0.6432 -0.7589 -2.0582
  303MPD2    H1 4618   1.677   3.623  10.484  0.9849  0.2630  0.4568
  303MPD2    H2 4619   1.828   3.392  10.800  0.6032 -5.6960 -1.7246
  303MPD2    H3 4620   1.861   3.556  10.640 -0.2640  1.1433  0.4805
  303MPD2     N 4621   1.453   3.467  10.447  0.5586  0.7979  0.1132
  303MPD2    H5 4622   1.463   3.542  10.380  1.2114  0.6674  0.0690
  303MPD2    N1 4623   1.622   3.254  10.861 -0.5099  0.5555 -0.4468
  303MPD2    H7 4624   1.712   3.225  10.900 -1.0552 -0.7134 -0.1255
  304TMC3    C1 4625   1.529   3.128  11.037 -0.0992  0.4270  0.0119
  304TMC3    C2 4626   1.407   3.140  11.105 -0.2439  0.0156  0.0004
  304TMC3    C3 4627   1.357   3.024  11.155 -0.6722 -0.3191 -0.0340
  304TMC3    C4 4628   1.614   3.017  11.041 -0.8768 -0.4254  0.3063
  304TMC3    C5 4629   1.551   2.903  11.090 -0.3191  0.5734 -0.1253
  304TMC3    C6 4630   1.436   2.914  11.164 -0.4990  0.4748  0.0726
  304TMC3     C 4631   1.510   3.185  10.910 -0.1252  0.7182 -0.3085
  304TMC3     O 4632   1.393   3.174  10.870 -0.5104 -0.2805  0.0482
  304TMC3     H 4633   1.347   3.230  11.095  0.5093  0.5215  0.0491
  304TMC3    H1 4634   1.711   3.002  10.995 -0.4123  2.2540  0.4308
  304TMC3    H2 4635   1.399   2.823  11.209 -0.1268  1.4297  2.3193
  304TMC3    C7 4636   1.574   2.779  11.023 -0.1155  0.5451 -0.3845
  304TMC3    C8 4637   1.223   2.981  11.130  0.2043 -0.3641 -0.3754
  304TMC3    O1 4638   1.686   2.743  10.992  0.5240 -0.2504 -0.0724
  304TMC3    O2 4639   1.212   2.859  11.119 -0.0261  0.1469 -0.2980
  305MPD2     C 4640   4.707   4.732  13.858  0.4955  0.3625 -0.5625
  305MPD2    C1 4641   0.050   4.622  13.888  0.0469  0.2112  0.1655
  305MPD2    C2 4642   0.062   4.520  13.796  0.5760  0.0132 -0.4699
  305MPD2    C3 4643   4.723   4.515  13.680 -1.1821  0.7154 -0.1654
  305MPD2    C4 4644   4.635   4.617  13.664  0.7941  0.2103 -0.1944
  305MPD2    C5 4645   4.630   4.724  13.750  0.2182 -0.5449 -0.0913
  305MPD2     H 4646   0.134   4.442  13.820  0.0687  0.1980  1.6031
  305MPD2    H1 4647   4.581   4.626  13.571  1.2700 -0.8267 -0.5672
  305MPD2    H2 4648   4.699   0.078  13.925  1.4584 -0.3114  0.4131
  305MPD2    H3 4649   4.558   0.065  13.738 -0.0100 -0.8262 -0.6092
  305MPD2     N 4650   4.737   4.430  13.574 -0.4887 -1.0136 -0.5142
  305MPD2    H5 4651   4.675   4.437  13.494  0.3434 -1.5307 -1.2104
  305MPD2    N1 4652   0.110   4.635  14.016  0.2702 -0.1068 -0.3069
  305MPD2    H7 4653   0.108   4.726  14.061 -0.8538  0.7635 -2.1414
  306TMC3    C1 4654   0.255   4.612  14.182 -0.0544 -0.1376 -0.6460
  306TMC3    C2 4655   0.342   4.534  14.250  0.0969  0.1376  0.5979
  306TMC3    C3 4656   0.359   4.549  14.382 -0.3560 -0.5647  0.2391
  306TMC3    C4 4657   0.180   4.700  14.256  0.3190  0.5960 -0.1519
  306TMC3    C5 4658   0.202   4.712  14.388 -0.3153 -0.6784 -0.1701
  306TMC3    C6 4659   0.299   4.646  14.450  0.4189 -0.4898 -0.6609
  306TMC3     C 4660   0.196   4.548  14.068 -0.7691 -0.3926 -0.0420
  306TMC3     O 4661   0.228   4.439  14.028 -0.3790 -0.0832  0.4048
  306TMC3     H 4662   0.389   4.449  14.202 -0.6056  0.6750 -1.0549
  306TMC3    H1 4663   0.105   0.026  14.215 -2.6708 -2.6305  0.2507
  306TMC3    H2 4664   0.324   4.652  14.556  0.5917 -1.4878 -0.6491
  306TMC3    C7 4665   0.129   0.074  14.462  0.1086  0.0511 -0.2634
  306TMC3    C8 4666   0.471   4.471  14.438  0.8473 -0.4697 -0.3200
  306TMC3    O1 4667   0.011   0.098  14.432 -0.2536  0.2618 -0.3807
  306TMC3    O2 4668   0.500   4.362  14.384  0.4006  0.4308 -0.1805
  307MPD2     C 4669   3.076   2.652   0.324  0.0372 -0.1146 -1.0498
  307MPD2    C1 4670   3.028   2.771   0.287  1.0455 -0.2961 -0.1846
  307MPD2    C2 4671   2.996   2.872   0.379 -0.5016  0.0075  0.0515
  307MPD2    C3 4672   3.016   2.847   0.517  0.1629 -0.7869  0.1504
  307MPD2    C4 4673   3.067   2.723   0.552 -0.6267 -0.0407  0.0033
  307MPD2    C5 4674   3.100   2.626   0.461  0.8012  0.7334 -0.6822
  307MPD2     H 4675   2.964   2.968   0.340 -1.2427  0.2291  1.2036
  307MPD2    H1 4676   3.087   2.708   0.658  0.1498 -1.6120 -0.3660
  307MPD2    H2 4677   3.095   2.568   0.258  0.4633  0.6641 -1.9240
  307MPD2    H3 4678   3.136   2.529   0.495  2.1415  1.3357 -0.3936
  307MPD2     N 4679   2.991   2.945   0.623  0.1048 -0.2932 -0.0603
  307MPD2    H5 4680   2.973   2.921   0.720 -1.2209 -1.5432 -0.6160
  307MPD2    N1 4681   3.000   2.804   0.155 -0.1212 -0.3216 -0.3789
  307MPD2    H7 4682   2.958   2.896   0.141  2.9217  1.1192  0.0022
  308TMC3    C1 4683   2.705   3.170   0.807  0.3541  0.8411  0.0523
  308TMC3    C2 4684   2.723   3.309   0.812 -0.7322 -0.1124  0.3585
  308TMC3    C3 4685   2.833   3.365   0.752 -0.0360  0.0411  0.2036
  308TMC3    C4 4686   2.799   3.090   0.739  0.1129  0.2297  0.2625
  308TMC3    C5 4687   2.910   3.146   0.689 -0.3405  0.0688  0.4256
  308TMC3    C6 4688   2.926   3.286   0.692 -0.2373  0.2431 -0.8262
  308TMC3     C 4689   2.584   3.107   0.813 -0.0995 -0.0744  0.6031
  308TMC3     O 4690   2.591   2.988   0.843 -0.0718 -0.5719  0.0135
  308TMC3     H 4691   2.653   3.368   0.870 -0.2365  0.6589  0.1749
  308TMC3    H1 4692   2.770   2.990   0.711  0.1806  0.6507 -1.3148
  308TMC3    H2 4693   3.002   3.355   0.657 -0.7503 -0.4251 -3.2111
  308TMC3    C7 4694   2.982   3.075   0.591  0.5184 -0.3820 -0.2557
  308TMC3    C8 4695   2.838   3.516   0.751 -0.5040 -0.2700 -0.0489
  308TMC3    O1 4696   3.009   3.137   0.491 -0.0537 -0.2376 -0.5670
  308TMC3    O2 4697   2.763   3.576   0.827  0.4503 -0.5117 -0.1482
  309MPD2     C 4698   2.062   3.089  17.264 -0.0004 -0.1413 -0.6554
  309MPD2    C1 4699   2.026   3.178  17.169  0.2534  0.1868 -0.1923
  309MPD2    C2 4700   1.971   3.301  17.221 -0.5733 -0.3011 -0.1456
  309MPD2    C3 4701   1.939   3.319  17.352 -0.7132 -0.2697  0.1920
  309MPD2    C4 4702   1.958   3.221  17.442 -0.3031  0.0358 -0.0719
  309MPD2    C5 4703   2.033   3.113  17.395 -0.2013 -0.0982  0.0439
  309MPD2     H 4704   1.946   3.370  17.141  0.6659  0.9611  0.5627
  309MPD2    H1 4705   1.954   3.243  17.548  0.9784 -1.5788  0.3106
  309MPD2    H2 4706   2.103   2.991  17.241  0.0861 -0.4014  0.6295
  309MPD2    H3 4707   2.070   3.045  17.471  0.6066 -0.3916 -0.6153
  309MPD2     N 4708   1.873   3.435  17.391 -0.2216  0.1793 -0.2634
  309MPD2    H5 4709   1.848   3.436  17.490 -0.5586  0.8062 -0.3540
  309MPD2    N1 4710   2.037   3.171  17.035  0.0556  0.6960 -0.2920
  309MPD2    H7 4711   2.007   3.251  16.979 -4.1378 -1.7783 -1.5932
  310TMC3    C1 4712   2.100   3.093  16.823 -0.1517  0.0077 -0.2289
  310TMC3    C2 4713   2.002   3.174  16.758 -0.4242  0.3524 -0.6513
  310TMC3    C3 4714   2.023   3.206  16.625 -0.9718 -0.1815 -0.3819
  310TMC3    C4 4715   2.202   3.043  16.749 -0.2363 -0.1862  0.1538
  310TMC3    C5 4716   2.220   3.085  16.620  0.4927  0.3269 -0.2519
  310TMC3    C6 4717   2.136   3.168  16.547 -0.3653  0.9287 -0.1135
  310TMC3     C 4718   2.108   3.075  16.963  0.1727  0.2657  0.2028
  310TMC3     O 4719   2.178   2.984  17.009 -0.2054  0.5594  0.0841
  310TMC3     H 4720   1.913   3.204  16.812  0.6809  0.1095  1.2847
  310TMC3    H1 4721   2.282   2.984  16.791 -0.1745 -0.6143 -0.5576
  310TMC3    H2 4722   2.147   3.186  16.440  2.5725  0.3498  0.0885
  310TMC3    C7 4723   2.304   3.001  16.531 -0.6405  1.2412 -0.2100
  310TMC3    C8 4724   1.922   3.288  16.555  0.6223  0.4530  0.8177
  310TMC3    O1 4725   2.324   2.895  16.580 -0.3912  0.1143  0.3961
  310TMC3    O2 4726   1.971   3.356  16.467 -0.8050 -0.4091  0.0852
  311MPD2     C 4727   3.702   4.254  12.423  0.5021  0.3857  0.3614
  311MPD2    C1 4728   3.702   4.350  12.523  0.0843  0.6303 -0.3632
  311MPD2    C2 4729   3.603   4.346  12.619  0.9948 -0.1982 -0.0291
  311MPD2    C3 4730   3.512   4.243  12.631  0.1494 -1.0030  0.2641
  311MPD2    C4 4731   3.512   4.146  12.531 -1.1147 -0.4131 -0.3803
  311MPD2    C5 4732   3.603   4.159  12.429  0.4429  0.5404 -0.8551
  311MPD2     H 4733   3.616   4.412  12.704 -2.9376 -1.1272  1.2842
  311MPD2    H1 4734   3.444   4.062  12.526  0.2636 -1.6376  1.5467
  311MPD2    H2 4735   3.760   4.241  12.332 -0.7610  1.6474 -0.6338
  311MPD2    H3 4736   3.605   4.073  12.363 -0.4675 -0.2057  0.0871
  311MPD2     N 4737   3.415   4.261  12.727 -0.3390  0.2004  0.1714
  311MPD2    H5 4738   3.427   4.348  12.778 -1.2379  1.1070 -1.1591
  311MPD2    N1 4739   3.800   4.452  12.528  0.5009 -0.3497  0.6731
  311MPD2    H7 4740   3.777   4.528  12.591 -1.6348  0.3149 -0.8960
  312TMC3    C1 4741   3.219   4.225  12.845  0.0493 -0.6644 -0.1799
  312TMC3    C2 4742   3.088   4.205  12.805  0.8333  0.1149  0.5503
  312TMC3    C3 4743   2.991   4.285  12.871 -0.1972  0.1004  0.1253
  312TMC3    C4 4744   3.258   4.311  12.939 -0.4617  0.3246  0.0619
  312TMC3    C5 4745   3.164   4.388  13.002  0.7547 -0.4146 -0.4932
  312TMC3    C6 4746   3.028   4.380  12.968  0.4583 -0.0594  0.0839
  312TMC3     C 4747   3.311   4.173  12.748  0.3930 -1.0320 -0.8282
  312TMC3     O 4748   3.274   4.077  12.678  0.2921  0.1195  0.0862
  312TMC3     H 4749   3.063   4.124  12.738 -1.1907 -0.2873  1.7690
  312TMC3    H1 4750   3.361   4.324  12.970  0.0083  0.8248 -1.7019
  312TMC3    H2 4751   2.960   4.443  13.024 -0.7899 -1.1911 -0.1486
  312TMC3    C7 4752   3.206   4.468  13.114  0.2979  0.0953  0.4519
  312TMC3    C8 4753   2.863   4.285  12.810 -0.6828 -0.2517  0.0272
  312TMC3    O1 4754   3.162   4.574  13.150  0.2661  0.2272 -0.4892
  312TMC3    O2 4755   2.816   4.177  12.784  0.0049  0.2036  0.0193
  313MPD2     C 4756   2.334   4.394  11.592 -0.7672  0.5027  0.3422
  313MPD2    C1 4757   2.406   4.372  11.480 -0.0647 -0.3980  0.3442
  313MPD2    C2 4758   2.403   4.250  11.427 -0.5452 -0.6186 -0.6100
  313MPD2    C3 4759   2.342   4.142  11.486  0.1072 -0.1019 -0.8405
  313MPD2    C4 4760   2.261   4.162  11.599 -0.5598 -0.5110 -0.3884
  313MPD2    C5 4761   2.260   4.290  11.654  0.0534  0.4969  0.2411
  313MPD2     H 4762   2.468   4.223  11.344  3.0816 -0.0601  2.0734
  313MPD2    H1 4763   2.207   4.078  11.643  0.2762 -2.1577 -2.4798
  313MPD2    H2 4764   2.329   4.488  11.646  1.6452  0.8091  0.0217
  313MPD2    H3 4765   2.211   4.311  11.748 -1.0699 -1.7323  0.1594
  313MPD2     N 4766   2.351   4.023  11.409  0.2059 -0.3434  0.7127
  313MPD2    H5 4767   2.399   4.033  11.320  2.0575  2.3996  2.0194
  313MPD2    N1 4768   2.493   4.471  11.421  0.0708  0.3560 -0.0722
  313MPD2    H7 4769   2.563   4.442  11.354  1.0244  1.4149  0.4443
  314TMC3    C1 4770   2.520   4.669  11.320  0.3590 -0.4335  0.1833
  314TMC3    C2 4771   2.657   4.677  11.320  0.1188  0.8840 -0.1254
  314TMC3    C3 4772   2.719   4.721  11.202 -0.7767  0.1712  0.2551
  314TMC3    C4 4773   2.443   4.677  11.212  0.4548 -0.0838 -0.2921
  314TMC3    C5 4774   2.503   4.717  11.095  0.0359 -0.3477  0.2446
  314TMC3    C6 4775   2.637   0.003  11.091 -0.1563  0.9696 -1.0019
  314TMC3     C 4776   2.468   4.604  11.436 -0.9119 -0.4579  1.2839
  314TMC3     O 4777   2.377   4.662  11.484 -0.5391 -0.3918  0.2746
  314TMC3     H 4778   2.709   4.645  11.409  0.5166  3.0225  0.4285
  314TMC3    H1 4779   2.341   4.640  11.216  0.8366 -0.8930  1.8015
  314TMC3    H2 4780   2.686   0.039  11.001 -0.1912  0.6699 -1.1421
  314TMC3    C7 4781   2.438   4.691  10.974  0.5823 -0.2203  0.4479
  314TMC3    C8 4782   2.864   0.000  11.188 -1.0036  0.7210 -0.6479
  314TMC3    O1 4783   2.319   4.717  10.964  0.1446  0.5960  0.4301
  314TMC3    O2 4784   2.899   0.064  11.089  0.3208  0.1593  0.3145
  315MPD2     C 4785   3.150   3.379   0.081  0.6285  0.8056  0.1355
  315MPD2    C1 4786   3.261   3.360   0.156  0.1419  0.2127  0.8558
  315MPD2    C2 4787   3.353   3.461   0.178  0.4569 -0.6141  0.0292
  315MPD2    C3 4788   3.332   3.588   0.123 -0.2018  1.0358  0.5401
  315MPD2    C4 4789   3.221   3.606   0.043  0.1438  0.1013 -0.5140
  315MPD2    C5 4790   3.131   3.503   0.017 -0.3570 -0.2245  0.1399
  315MPD2     H 4791   3.438   3.443   0.243 -0.4379 -1.1818  1.0378
  315MPD2    H1 4792   3.203   3.695  17.739  0.2522  0.4970  0.0530
  315MPD2    H2 4793   3.090   3.294   0.052  1.9953 -0.9427  2.4963
  315MPD2    H3 4794   3.047   3.529  17.708  0.1946  0.6362 -0.2350
  315MPD2     N 4795   3.440   3.678   0.136 -0.4993  0.8641  0.1992
  315MPD2    H5 4796   3.521   3.653   0.191 -1.4217  1.3465  1.7895
  315MPD2    N1 4797   3.283   3.233   0.221  0.1786  1.0275 -0.3781
  315MPD2    H7 4798   3.356   3.230   0.291 -0.2788 -2.4407 -0.0780
  316TMC3    C1 4799   3.578   3.861   0.104 -0.0071  0.3980  0.9537
  316TMC3    C2 4800   3.662   3.821   0.203 -0.0391 -0.0247 -0.7252
  316TMC3    C3 4801   3.750   3.919   0.247 -0.3470  0.1108  0.0380
  316TMC3    C4 4802   3.570   3.992   0.059 -0.5500  0.8374 -0.9105
  316TMC3    C5 4803   3.648   4.088   0.113 -0.2808  0.7205  0.2450
  316TMC3    C6 4804   3.751   4.045   0.198  0.4507  0.2569  0.5850
  316TMC3     C 4805   3.446   3.794   0.069 -0.0293 -1.1009 -0.0841
  316TMC3     O 4806   3.366   3.853   0.001 -0.2406 -0.4547 -0.0214
  316TMC3     H 4807   3.658   3.722   0.247 -2.8291 -0.6943 -2.4911
  316TMC3    H1 4808   3.484   4.026   0.002 -1.5788  2.1679  1.4207
  316TMC3    H2 4809   3.826   4.118   0.227  0.2301  1.0869 -0.9265
  316TMC3    C7 4810   3.646   4.225   0.075 -0.9778  0.3537 -0.1757
  316TMC3    C8 4811   3.846   3.883   0.347  0.5751  0.2183 -0.3494
  316TMC3    O1 4812   3.704   4.316   0.136 -0.0166 -0.2043  0.1073
  316TMC3    O2 4813   3.884   3.971   0.423  0.1500  0.0912  0.2280
  317MPD2     C 4814   4.663   1.153  12.862  0.6564 -0.3569 -0.1240
  317MPD2    C1 4815   4.737   1.037  12.876 -0.3132 -0.1871 -0.2804
  317MPD2    C2 4816   0.076   1.017  12.983  0.2168 -0.1387  0.1082
  317MPD2    C3 4817   0.091   1.119  13.077  0.1885  0.7991 -0.6820
  317MPD2    C4 4818   0.019   1.233  13.072  0.0304  0.0363  0.2078
  317MPD2    C5 4819   4.679   1.246  12.964 -0.0374  0.1306  0.0901
  317MPD2     H 4820   0.120   0.919  12.998 -2.5887 -1.3632  0.2741
  317MPD2    H1 4821   0.017   1.309  13.150  0.7156  0.9150 -0.6388
  317MPD2    H2 4822   4.607   1.183  12.775 -0.5743 -2.6923 -0.1305
  317MPD2    H3 4823   4.618   1.335  12.954 -0.6497 -0.3119 -0.1103
  317MPD2     N 4824   0.170   1.089  13.192 -0.1773 -0.0848 -0.2220
  317MPD2    H5 4825   0.217   1.000  13.201 -2.0914 -0.9591  1.1362
  317MPD2    N1 4826   0.002   0.935  12.780 -0.2582 -0.0891 -0.9005
  317MPD2    H7 4827   0.076   0.867  12.796  1.2470  1.8271  0.2633
  318TMC3    C1 4828   0.296   1.117  13.379  0.2353  0.1315  0.5281
  318TMC3    C2 4829   0.267   0.986  13.410 -0.2649  0.0926 -0.0111
  318TMC3    C3 4830   0.359   0.917  13.483  0.5456  0.1595  0.0828
  318TMC3    C4 4831   0.408   1.184  13.414  0.6897  0.1437 -0.3953
  318TMC3    C5 4832   0.499   1.103  13.486  0.2800 -0.8511  0.0311
  318TMC3    C6 4833   0.470   0.975  13.525 -0.9041  0.1825 -0.3167
  318TMC3     C 4834   0.202   1.181  13.292  0.4147  0.6889 -0.4694
  318TMC3     O 4835   0.215   1.303  13.278  0.1866 -0.8604  0.0815
  318TMC3     H 4836   0.164   0.952  13.408  0.2934 -1.4226 -3.3105
  318TMC3    H1 4837   0.423   1.285  13.378 -1.8502  0.0134 -1.8237
  318TMC3    H2 4838   0.544   0.914  13.577 -1.1636 -0.3742 -0.5928
  318TMC3    C7 4839   0.628   1.163  13.524 -0.0178 -0.3619  0.1635
  318TMC3    C8 4840   0.311   0.805  13.562 -0.0885  0.4839  0.4185
  318TMC3    O1 4841   0.642   1.281  13.498  0.4149  0.4359 -0.1322
  318TMC3    O2 4842   0.372   0.791  13.665  0.7267  0.6450 -0.0936
  319MPD2     C 4843   1.508   3.021  16.497 -0.1602 -0.3343  0.5313
  319MPD2    C1 4844   1.412   2.926  16.537 -0.6196  0.2255 -0.0489
  319MPD2    C2 4845   1.330   2.860  16.448 -0.0280 -0.4624 -0.2751
  319MPD2    C3 4846   1.346   2.877  16.319 -0.3886  0.2883  0.0618
  319MPD2    C4 4847   1.443   2.964  16.268 -0.0891  0.6578 -0.4634
  319MPD2    C5 4848   1.517   3.038  16.355 -0.0958 -0.4512 -0.2018
  319MPD2     H 4849   1.247   2.807  16.495  1.8104 -2.5177  0.6614
  319MPD2    H1 4850   1.467   2.985  16.165 -1.4422 -0.8330 -1.0641
  319MPD2    H2 4851   1.569   3.082  16.563 -0.6589  1.0226 -0.2675
  319MPD2    H3 4852   1.584   3.117  16.324  1.5627 -1.5723  0.5508
  319MPD2     N 4853   1.268   2.814  16.219 -0.2545 -0.5755 -0.8294
  319MPD2    H5 4854   1.281   2.845  16.123 -0.3524  1.5370 -0.1552
  319MPD2    N1 4855   1.369   2.915  16.671 -0.3178  0.4930  0.6454
  319MPD2    H7 4856   1.304   2.840  16.695 -1.0384  0.7384 -0.5307
  320TMC3    C1 4857   1.103   2.671  16.102  0.0565  0.0697 -0.2427
  320TMC3    C2 4858   1.116   2.735  15.979  0.7396 -0.6026  0.0492
  320TMC3    C3 4859   1.035   2.701  15.874  0.0169  0.1492 -0.4936
  320TMC3    C4 4860   1.017   2.563  16.114  0.4560 -0.0592 -0.1884
  320TMC3    C5 4861   0.930   2.547  16.013  0.1010 -0.9045 -0.2159
  320TMC3    C6 4862   0.938   2.610  15.889 -0.2336 -0.3186  0.6780
  320TMC3     C 4863   1.167   2.718  16.230  0.0595 -0.0910  0.5977
  320TMC3     O 4864   1.141   2.658  16.334  0.0953 -0.0691 -0.1370
  320TMC3     H 4865   1.184   2.817  15.963 -0.1373 -0.0774 -0.9830
  320TMC3    H1 4866   1.006   2.508  16.207 -0.1083  1.2141  0.4950
  320TMC3    H2 4867   0.868   2.587  15.810  0.6687 -0.2087 -0.1541
  320TMC3    C7 4868   0.813   2.475  16.042 -0.2278  0.4292  0.2600
  320TMC3    C8 4869   0.994   2.798  15.775  0.0544  0.4799  0.9073
  320TMC3    O1 4870   0.761   2.435  15.940 -0.0661 -0.1810 -0.3100
  320TMC3    O2 4871   0.926   2.893  15.813  0.0568 -0.2768 -0.2179
  321TMC3    C1 4872   1.312   2.962  16.892  0.2754 -0.0701  0.7378
  321TMC3    C2 4873   1.268   2.837  16.900  0.2355 -0.8537 -0.0640
  321TMC3    C3 4874   1.189   2.806  17.007 -0.1626  0.0461 -0.0809
  321TMC3    C4 4875   1.302   3.059  16.984 -0.6725 -0.5581 -0.4790
  321TMC3    C5 4876   1.229   3.028  17.093 -0.2994  0.3896  0.6574
  321TMC3    C6 4877   1.174   2.905  17.106  0.9864  0.1157  0.2592
  321TMC3     C 4878   1.386   3.004  16.774  0.0634  0.4898  0.0468
  321TMC3     O 4879   1.437   3.118  16.765  0.2887 -0.9545 -0.1688
  321TMC3     H 4880   1.289   2.756  16.831 -1.0738 -0.3946 -0.9930
  321TMC3    H1 4881   1.353   3.154  16.974 -2.2816  0.3551 -0.1407
  321TMC3    H2 4882   1.105   2.892  17.189  1.0791  1.1974  0.5099
  321TMC3    C7 4883   1.275   3.064  17.221  0.4679  0.6712  0.2017
  321TMC3    C8 4884   1.233   2.685  17.078  0.3275  0.6684  0.0150
  321TMC3    O1 4885   1.286   2.966  17.294  0.1918 -0.4666 -0.4060
  321TMC3    O2 4886   1.242   2.579  17.022 -0.1059  0.4000  0.5122
  322MPD2     C 4887   0.002   3.895  13.493  0.1821 -0.0870 -0.3090
  322MPD2    C1 4888   0.051   3.831  13.607 -0.3885 -0.4623 -0.1005
  322MPD2    C2 4889   0.100   3.704  13.597 -0.0365  0.0350  0.3732
  322MPD2    C3 4890   0.100   3.637  13.474  0.3791  0.1741  0.1511
  322MPD2    C4 4891   0.063   3.700  13.362  0.4970 -0.4971 -0.0410
  322MPD2    C5 4892   0.005   3.823  13.377  0.3371  0.1046  0.8435
  322MPD2     H 4893   0.135   3.648  13.683  2.9446  0.2202 -0.7244
  322MPD2    H1 4894   0.063   3.656  13.263 -0.6343  1.1286 -0.7756
  322MPD2    H2 4895   4.691   3.990  13.504 -0.1280 -0.3397  0.4596
  322MPD2    H3 4896   4.700   3.862  13.287 -0.8028 -1.6401  0.6409
  322MPD2     N 4897   0.143   3.505  13.474 -0.2909  0.0462  0.5057
  322MPD2    H5 4898   0.174   3.473  13.565  2.2036 -2.5482 -1.2485
  322MPD2    N1 4899   0.050   3.913  13.729 -0.2100 -0.0924 -0.1688
  322MPD2    H7 4900   0.024   4.012  13.727 -2.3429 -0.7356 -3.2661
  323TMC3    C1 4901   0.111   3.970  13.960 -0.4887  0.3057 -0.2462
  323TMC3    C2 4902   0.190   4.075  13.926 -0.2715  0.3017 -0.1821
  323TMC3    C3 4903   0.271   4.128  14.024  0.7263 -0.3238 -0.2831
  323TMC3    C4 4904   0.114   3.913  14.083  0.2235 -0.1861 -0.3427
  323TMC3    C5 4905   0.184   3.974  14.180 -0.1990 -0.2231 -0.0364
  323TMC3    C6 4906   0.264   4.073  14.147  0.5074 -0.0191  0.0181
  323TMC3     C 4907   0.080   3.866  13.854  0.0307  0.1009 -0.0819
  323TMC3     O 4908   0.070   3.747  13.899 -0.1376 -0.5758  0.0273
  323TMC3     H 4909   0.207   4.104  13.823 -0.4543 -0.8633 -0.5294
  323TMC3    H1 4910   0.063   3.820  14.103  1.0600 -0.0681  2.3850
  323TMC3    H2 4911   0.333   4.111  14.221 -0.4635  1.9229 -0.0801
  323TMC3    C7 4912   0.206   3.899  14.304 -0.2114 -0.1426  0.7056
  323TMC3    C8 4913   0.407   4.162  13.986  0.5722  0.0749 -0.3935
  323TMC3    O1 4914   0.176   3.781  14.302  0.2224  0.2546  0.1985
  323TMC3    O2 4915   0.494   4.130  14.064 -0.3300 -0.3335  0.5145
  324MPD2     C 4916   1.803   0.831  14.194 -0.0271 -0.7164 -0.5380
  324MPD2    C1 4917   1.718   0.856  14.303  0.8153  0.3199  0.1795
  324MPD2    C2 4918   1.588   0.833  14.299 -0.0539  0.3699  0.3707
  324MPD2    C3 4919   1.536   0.775  14.190 -0.4223 -0.0750  0.5829
  324MPD2    C4 4920   1.615   0.742  14.084  0.6707  0.4761 -0.3177
  324MPD2    C5 4921   1.746   0.777  14.084  0.7514 -0.1873 -0.2772
  324MPD2     H 4922   1.516   0.857  14.376 -2.7968 -0.9965 -1.8010
  324MPD2    H1 4923   1.582   0.687  13.996 -3.9804  2.5645  0.1275
  324MPD2    H2 4924   1.908   0.856  14.180 -0.4538  1.3436 -0.0820
  324MPD2    H3 4925   1.802   0.763  13.993 -2.2916  1.8299 -2.4913
  324MPD2     N 4926   1.404   0.733  14.199 -0.6428  0.3080  0.4284
  324MPD2    H5 4927   1.348   0.763  14.278 -1.6457 -0.0009 -0.1570
  324MPD2    N1 4928   1.773   0.911  14.423  0.1276  0.7845 -0.6870
  324MPD2    H7 4929   1.702   0.927  14.495  1.0135 -0.4649  0.4678
  325TMC3    C1 4930   1.217   0.613  14.154 -0.3746  0.1447 -0.5582
  325TMC3    C2 4931   1.170   0.485  14.180 -0.7164 -0.0415  0.2184
  325TMC3    C3 4932   1.049   0.468  14.228  0.0543 -0.0577 -0.3792
  325TMC3    C4 4933   1.134   0.715  14.176  0.2785 -0.0104 -0.2394
  325TMC3    C5 4934   1.017   0.690  14.230 -0.1791  0.0610  1.0042
  325TMC3    C6 4935   0.965   0.569  14.257  0.4911  0.5703 -0.3886
  325TMC3     C 4936   1.347   0.635  14.115  0.2159 -0.1262  0.6411
  325TMC3     O 4937   1.401   0.550  14.046  0.6441 -0.3372 -0.0189
  325TMC3     H 4938   1.236   0.407  14.145 -0.5788  1.5861 -3.1452
  325TMC3    H1 4939   1.170   0.812  14.143 -0.3357  0.8292  1.5389
  325TMC3    H2 4940   0.866   0.559  14.302 -0.6587 -0.2731 -3.1073
  325TMC3    C7 4941   0.941   0.809  14.273 -0.1798  0.3069  0.0081
  325TMC3    C8 4942   0.998   0.336  14.204 -0.3252 -0.5169 -0.8494
  325TMC3    O1 4943   0.870   0.796  14.374  0.2928  0.4252 -1.2366
  325TMC3    O2 4944   1.074   0.253  14.150  0.7369 -0.6882  0.6104
  326MPD2     C 4945   3.045   1.415  10.982  0.5432 -0.7212 -0.2565
  326MPD2    C1 4946   3.033   1.545  11.018  0.5725  0.3731 -0.2133
  326MPD2    C2 4947   3.103   1.645  10.948  0.9403 -0.7866 -0.5493
  326MPD2    C3 4948   3.170   1.607  10.836 -0.2151 -0.1274  0.1829
  326MPD2    C4 4949   3.166   1.477  10.790  0.2374  0.0164  0.8735
  326MPD2    C5 4950   3.107   1.383  10.867 -0.5471  0.1748 -0.3786
  326MPD2     H 4951   3.090   1.747  10.982  0.6118 -0.1930 -2.4802
  326MPD2    H1 4952   3.211   1.456  10.693  0.9280  2.5345  0.6449
  326MPD2    H2 4953   3.010   1.333  11.043  2.7716 -0.7355  1.0272
  326MPD2    H3 4954   3.103   1.280  10.834 -0.3308  0.1991 -0.4799
  326MPD2     N 4955   3.231   1.696  10.752 -0.3654 -0.0195 -0.4818
  326MPD2    H5 4956   3.286   1.658  10.675 -0.8759  1.5639 -1.6287
  326MPD2    N1 4957   2.952   1.590  11.122 -1.5378 -1.3794 -0.0253
  326MPD2    H7 4958   2.945   1.691  11.127  0.2504 -1.2456 -0.2985
  327TMC3    C1 4959   2.776   1.588  11.266 -0.5723  0.4932 -0.3042
  327TMC3    C2 4960   2.698   1.665  11.173 -0.1536  0.3935 -0.3680
  327TMC3    C3 4961   2.560   1.661  11.176 -0.0176 -0.6230 -0.6969
  327TMC3    C4 4962   2.707   1.510  11.352 -0.3001  0.1896 -0.5622
  327TMC3    C5 4963   2.576   1.501  11.342  0.3897  0.3370  0.4452
  327TMC3    C6 4964   2.499   1.583  11.266 -0.9734 -0.0824  0.5073
  327TMC3     C 4965   2.878   1.514  11.204 -0.6138 -0.0935 -0.0020
  327TMC3     O 4966   2.884   1.395  11.231  0.0205  0.2569 -0.2941
  327TMC3     H 4967   2.753   1.718  11.096 -0.3684  0.1769 -0.6701
  327TMC3    H1 4968   2.756   1.444  11.422 -1.2573  1.9708  1.7748
  327TMC3    H2 4969   2.396   1.550  11.258 -1.1081  0.1077  1.4286
  327TMC3    C7 4970   2.528   1.366  11.341 -0.5539 -0.1008  0.2717
  327TMC3    C8 4971   2.482   1.741  11.084 -0.2994 -0.6249  0.3633
  327TMC3    O1 4972   2.412   1.342  11.367  0.2479 -0.0431 -0.2514
  327TMC3    O2 4973   2.550   1.786  10.994  0.2128 -0.2991 -0.1255
  328MPD2     C 4974   0.409   0.719  17.059  0.6610 -0.2384  0.4392
  328MPD2    C1 4975   0.447   0.848  17.071 -0.7894 -0.2554 -0.2830
  328MPD2    C2 4976   0.453   0.927  16.954 -0.3595  0.2008 -1.4346
  328MPD2    C3 4977   0.406   0.879  16.838 -0.2125  0.4862 -0.2854
  328MPD2    C4 4978   0.357   0.751  16.829  0.4706  0.8784 -0.4515
  328MPD2    C5 4979   0.363   0.670  16.938  0.4191 -0.1580 -0.3114
  328MPD2     H 4980   0.472   1.033  16.956  0.5401  0.0397 -1.4117
  328MPD2    H1 4981   0.354   0.712  16.728 -1.3929  3.2981 -1.3240
  328MPD2    H2 4982   0.417   0.638  17.131  1.2595 -1.6749 -1.2444
  328MPD2    H3 4983   0.346   0.563  16.936 -2.3739  0.2903 -1.3604
  328MPD2     N 4984   0.400   0.973  16.729 -0.1683  0.6200  1.2456
  328MPD2    H5 4985   0.460   1.055  16.732  0.9850 -0.1708  0.0071
  328MPD2    N1 4986   0.490   0.894  17.193 -0.1329  0.0250  0.2144
  328MPD2    H7 4987   0.469   0.839  17.276 -0.6509 -1.5143 -0.9325
  329TMC3    C1 4988   0.541   1.054  17.365 -0.0836 -0.2437 -0.1816
  329TMC3    C2 4989   0.592   1.175  17.394  0.1634 -0.0963 -0.2656
  329TMC3    C3 4990   0.584   1.215  17.524 -0.4258  0.1940  0.2506
  329TMC3    C4 4991   0.499   0.965  17.464  0.3439  0.9386 -0.7936
  329TMC3    C5 4992   0.499   1.005  17.590 -0.8472 -0.2437  0.3952
  329TMC3    C6 4993   0.542   1.133  17.622  0.3384 -0.3837 -0.5924
  329TMC3     C 4994   0.542   1.016  17.223  1.4043  0.1411 -0.4370
  329TMC3     O 4995   0.576   1.104  17.146 -0.5724  0.2574  0.0392
  329TMC3     H 4996   0.633   1.236  17.314 -0.8493 -0.6216 -1.1924
  329TMC3    H1 4997   0.434   0.884  17.434  1.1832 -0.0593  0.0590
  329TMC3    H2 4998   0.554   1.161  17.726 -2.1416 -0.0040 -0.4239
  329TMC3    C7 4999   0.471   0.912  17.697 -0.2447 -0.1032 -0.0067
  329TMC3    C8 5000   0.659   1.335  17.550  0.1843 -0.3500  1.2133
  329TMC3    O1 5001   0.470   0.960   0.055  0.0659 -0.2249 -0.2745
  329TMC3    O2 5002   0.758   1.372  17.483 -0.2110 -0.4034  0.4064
  330TMC3    C1 5003   2.979   0.830   9.781 -0.3392 -0.2201  0.5185
  330TMC3    C2 5004   2.922   0.771   9.672 -0.2909  0.3740 -0.3214
  330TMC3    C3 5005   2.884   0.639   9.682 -0.2642  0.1494 -0.8586
  330TMC3    C4 5006   2.997   0.754   9.894 -0.0988 -0.4145  0.3332
  330TMC3    C5 5007   2.963   0.621   9.896 -0.4034  0.5978  0.3052
  330TMC3    C6 5008   2.910   0.556   9.788  0.0389 -0.2725 -0.4315
  330TMC3     C 5009   3.026   0.967   9.786 -0.1388  0.1171  0.0005
  330TMC3     O 5010   3.114   0.995   9.864 -0.5973 -0.1053  0.1848
  330TMC3     H 5011   2.914   0.827   9.580 -1.0565  3.6220  1.7349
  330TMC3    H1 5012   3.039   0.799   9.982 -3.2744  2.0317  0.5746
  330TMC3    H2 5013   2.891   0.450   9.791  0.1586 -0.3230 -1.3730
  330TMC3    C7 5014   3.049   0.540   9.981 -0.0049  0.1704 -0.6301
  330TMC3    C8 5015   2.799   0.588   9.573 -0.4330 -0.9958 -0.6744
  330TMC3    O1 5016   3.014   0.422   9.998 -0.0454 -0.0011  0.5021
  330TMC3    O2 5017   2.755   0.669   9.494  0.5243 -0.1333 -0.3684
  331MPD2     C 5018   1.443   0.436  12.508 -1.0616  0.2777 -0.0230
  331MPD2    C1 5019   1.442   0.372  12.388 -0.0313 -0.9061 -0.6284
  331MPD2    C2 5020   1.390   0.245  12.383 -0.0463 -0.9199 -0.6751
  331MPD2    C3 5021   1.358   0.174  12.502 -1.0487 -0.6375  0.8919
  331MPD2    C4 5022   1.371   0.241  12.620 -0.2446 -0.5003 -0.0429
  331MPD2    C5 5023   1.417   0.368  12.626  0.0674  0.0232  0.2533
  331MPD2     H 5024   1.387   0.184  12.293  3.2171 -2.5324  0.3246
  331MPD2    H1 5025   1.336   0.201  12.714  0.4985 -1.7483 -0.3027
  331MPD2    H2 5026   1.471   0.539  12.526 -0.0002 -0.3329  1.8247
  331MPD2    H3 5027   1.422   0.417  12.722  0.5126  3.0659 -1.3037
  331MPD2     N 5028   1.308   0.045  12.497  0.0022 -0.2423 -0.4843
  331MPD2    H5 5029   1.305   0.002  12.405  0.0194 -1.3732  0.0448
  331MPD2    N1 5030   1.455   0.443  12.263 -0.3230  0.0002  0.4966
  331MPD2    H7 5031   1.474   0.543  12.259  1.0683 -0.2610  0.5065
  332TMC3    C1 5032   1.199   4.581  12.557  0.1058 -0.5989 -0.0697
  332TMC3    C2 5033   1.115   4.582  12.447 -0.5599 -0.4673  0.4306
  332TMC3    C3 5034   1.051   4.467  12.428  0.5708 -0.1096  0.1381
  332TMC3    C4 5035   1.207   4.481  12.650  0.2811 -0.8466  0.7645
  332TMC3    C5 5036   1.133   4.367  12.620  0.4160  0.2097  0.0303
  332TMC3    C6 5037   1.067   4.353  12.503  0.2415  0.0025 -0.0712
  332TMC3     C 5038   1.264   4.705  12.599 -0.2165  0.3831  0.1659
  332TMC3     O 5039   1.244   4.731  12.714  0.0080  0.4001  0.0166
  332TMC3     H 5040   1.110   4.675  12.393  2.0559 -1.7333 -1.9548
  332TMC3    H1 5041   1.270   4.496  12.737  0.9756  0.8883 -0.0391
  332TMC3    H2 5042   1.024   4.255  12.482 -0.5823  0.5420 -0.9395
  332TMC3    C7 5043   1.183   4.246  12.670 -0.9155 -0.0117 -0.1120
  332TMC3    C8 5044   0.994   4.455  12.292  1.1945 -0.7624  0.4768
  332TMC3    O1 5045   1.102   4.152  12.675 -0.2984 -0.0778  0.0371
  332TMC3    O2 5046   1.017   4.553  12.227  0.4974  0.5318  1.0300
  333MPD2     C 5047   1.080   0.204  11.075 -0.6509 -0.4688  0.0717
  333MPD2    C1 5048   1.154   0.127  10.992 -0.2924 -0.6264 -0.4006
  333MPD2    C2 5049   1.104   0.006  10.965 -0.6802 -0.5027  0.4040
  333MPD2    C3 5050   0.984   4.694  11.023  0.0328 -0.0711  0.5779
  333MPD2    C4 5051   0.913   0.032  11.109 -0.0474 -0.4893  0.9564
  333MPD2    C5 5052   0.964   0.164  11.129  0.1924 -0.0745  1.2212
  333MPD2     H 5053   1.155   4.680  10.896 -0.8112  0.7184 -0.8454
  333MPD2    H1 5054   0.822   4.735  11.156 -0.3280  0.1935  0.9553
  333MPD2    H2 5055   1.121   0.299  11.107  0.1464 -1.5948  2.4017
  333MPD2    H3 5056   0.913   0.237  11.191  0.4699  2.8119 -1.9232
  333MPD2     N 5057   0.950   4.564  10.987 -0.2796 -0.1819 -0.3016
  333MPD2    H5 5058   1.001   4.520  10.911 -0.2550 -0.1971 -0.2761
  333MPD2    N1 5059   1.277   0.181  10.938  0.5441 -0.3354  0.4934
  333MPD2    H7 5060   1.312   0.274  10.961  1.0476  0.0155 -1.6459
  334TMC3    C1 5061   1.450   0.194  10.784 -0.0813 -0.6770 -0.0462
  334TMC3    C2 5062   1.576   0.126  10.781 -0.0828  0.8530  0.1874
  334TMC3    C3 5063   1.693   0.197  10.783 -0.5161 -0.1865  0.6559
  334TMC3    C4 5064   1.450   0.326  10.798 -0.5656  1.3222  0.2269
  334TMC3    C5 5065   1.570   0.395  10.808 -0.1664  0.3512  0.0192
  334TMC3    C6 5066   1.691   0.332  10.800  0.0932  0.0412 -0.1541
  334TMC3     C 5067   1.356   0.110  10.846  0.5099 -0.0389  0.0422
  334TMC3     O 5068   1.379   4.727  10.845 -0.3257  0.1979  0.2817
  334TMC3     H 5069   1.574   0.018  10.773 -2.0020  0.9103 -0.0665
  334TMC3    H1 5070   1.355   0.376  10.809 -1.1534  0.0751  0.8746
  334TMC3    H2 5071   1.782   0.390  10.795 -0.6144  0.9655 -2.0073
  334TMC3    C7 5072   1.581   0.538  10.801 -0.4228  0.6488 -0.7438
  334TMC3    C8 5073   1.802   0.119  10.717 -0.2212 -0.3823  0.2930
  334TMC3    O1 5074   1.696   0.585  10.826  0.0677  0.1577  0.5013
  334TMC3    O2 5075   1.769   0.006  10.675 -0.2549  0.1279 -0.2252
  335TMC3    C1 5076   1.232   1.586  17.337  0.0313 -0.5990 -0.2012
  335TMC3    C2 5077   1.201   1.550  17.204  0.1320 -0.5856 -0.2511
  335TMC3    C3 5078   1.291   1.582  17.107 -0.3284 -0.2000 -0.2494
  335TMC3    C4 5079   1.341   1.661  17.371  0.6542  0.0469  0.0635
  335TMC3    C5 5080   1.416   1.710  17.266  0.1893  0.1752 -0.0778
  335TMC3    C6 5081   1.394   1.663  17.136  0.1689  0.5058 -0.2130
  335TMC3     C 5082   1.154   1.529  17.442  0.4741 -0.1725  0.0081
  335TMC3     O 5083   1.055   1.471  17.392  0.3836 -0.0968  0.2269
  335TMC3     H 5084   1.107   1.499  17.187 -1.0133  1.6803 -0.6826
  335TMC3    H1 5085   1.350   1.710  17.467  1.5311  2.3293 -1.1749
  335TMC3    H2 5086   1.466   1.693  17.061 -2.4121 -1.2078 -3.3602
  335TMC3    C7 5087   1.551   1.761  17.287  0.1600 -0.3091  0.4549
  335TMC3    C8 5088   1.287   1.519  16.978 -0.5074  0.1648  0.0908
  335TMC3    O1 5089   1.618   1.792  17.191 -0.1713 -0.4527 -0.5979
  335TMC3    O2 5090   1.362   1.567  16.892 -0.2542  0.3468 -0.5719
  336MPD2     C 5091   1.046   4.361  15.877 -0.4554 -0.6091 -0.9693
  336MPD2    C1 5092   0.930   4.297  15.855  0.1678  0.4359  1.2292
  336MPD2    C2 5093   0.912   4.168  15.905  0.1303  0.0104 -0.8011
  336MPD2    C3 5094   1.017   4.104  15.967  0.1991 -0.1621  0.1195
  336MPD2    C4 5095   1.136   4.173  15.987  0.2225 -0.3944  0.1623
  336MPD2    C5 5096   1.150   4.299  15.938 -0.4816  0.1440  0.2661
  336MPD2     H 5097   0.824   4.107  15.883  1.1952 -1.0734 -2.0499
  336MPD2    H1 5098   1.227   4.122  16.017  0.6898  1.3296  1.7024
  336MPD2    H2 5099   1.063   4.460  15.836  0.9936  0.1203  1.3955
  336MPD2    H3 5100   1.243   4.353  15.950  0.4943 -1.2697 -0.8866
  336MPD2     N 5101   1.013   3.969  16.014  0.3252 -0.3100 -0.5772
  336MPD2    H5 5102   1.102   3.923  16.031 -0.1278  0.3089  3.6082
  336MPD2    N1 5103   0.821   4.368  15.792 -0.4818 -0.8886  0.0346
  336MPD2    H7 5104   0.835   4.465  15.767  1.5953 -1.3344 -0.4875
  337TMC3    C1 5105   0.608   4.408  15.704 -0.3757  0.1641 -0.1091
  337TMC3    C2 5106   0.532   4.376  15.602 -0.1362  0.1549  0.0210
  337TMC3    C3 5107   0.436   4.467  15.554 -0.2708 -0.1262  0.7852
  337TMC3    C4 5108   0.593   4.522  15.780 -0.1096 -0.0301 -0.4269
  337TMC3    C5 5109   0.493   4.604  15.739 -0.3558  0.4336 -0.2349
  337TMC3    C6 5110   0.421   4.583  15.625 -0.2083  0.0072  0.2623
  337TMC3     C 5111   0.706   4.307  15.747  0.3229  1.1208 -0.0711
  337TMC3     O 5112   0.680   4.189  15.731  0.4730 -0.4529  0.3604
  337TMC3     H 5113   0.548   4.279  15.555  0.2797  0.8807 -1.3378
  337TMC3    H1 5114   0.658   4.552  15.861  1.5783  0.2833 -1.9082
  337TMC3    H2 5115   0.351   4.657  15.587  0.2634  0.9167  1.1747
  337TMC3    C7 5116   0.474   4.729  15.825 -0.2103 -0.3157 -0.1471
  337TMC3    C8 5117   0.319   4.422  15.477 -0.0746 -0.6937  0.2158
  337TMC3    O1 5118   0.575   0.029  15.877 -0.1219  0.2377 -0.1798
  337TMC3    O2 5119   0.218   4.489  15.497 -0.2683  0.4486  0.1362
  338MPD2     C 5120   1.745   3.808   1.210 -0.2577 -0.0307 -0.0453
  338MPD2    C1 5121   1.681   3.811   1.090  0.0829 -0.2994  0.1052
  338MPD2    C2 5122   1.604   3.925   1.058  0.1958  0.1819  0.9051
  338MPD2    C3 5123   1.602   4.031   1.145 -0.5793 -0.3198 -0.1582
  338MPD2    C4 5124   1.687   4.031   1.261  0.5083 -0.0426 -0.0890
  338MPD2    C5 5125   1.740   3.912   1.297 -0.1442  0.1253  0.3953
  338MPD2     H 5126   1.545   3.931   0.968 -0.1979  0.9357  1.2133
  338MPD2    H1 5127   1.708   4.114   1.327  1.7631 -0.0250 -0.5070
  338MPD2    H2 5128   1.812   3.727   1.236  0.5260  0.4812 -0.4787
  338MPD2    H3 5129   1.800   3.900   1.387 -1.1940  1.1694  1.2402
  338MPD2     N 5130   1.512   4.136   1.104  0.3063 -0.0870 -0.4332
  338MPD2    H5 5131   1.455   4.116   1.022  1.1553 -0.3184 -0.9636
  338MPD2    N1 5132   1.686   3.712   1.001 -0.2172  0.2142 -0.1214
  338MPD2    H7 5133   1.628   3.727   0.919 -1.0425 -0.4331  0.3519
  339TMC3    C1 5134   1.364   4.312   1.107  0.1381 -0.0857 -0.3224
  339TMC3    C2 5135   1.261   4.330   1.193  0.1885 -0.1391 -0.6430
  339TMC3    C3 5136   1.137   4.293   1.149  0.0234  0.7490  0.0358
  339TMC3    C4 5137   1.355   4.285   0.973  0.2068  0.7745 -0.3956
  339TMC3    C5 5138   1.231   4.253   0.931 -0.7899 -0.0879 -0.0122
  339TMC3    C6 5139   1.122   4.260   1.017 -0.0315  0.3316  0.0957
  339TMC3     C 5140   1.475   4.251   1.174  0.3912  0.6498  0.0009
  339TMC3     O 5141   1.505   4.287   1.288 -0.0835  0.9358  0.6298
  339TMC3     H 5142   1.267   4.373   1.292 -2.1931  0.2546 -0.6570
  339TMC3    H1 5143   1.444   4.292   0.913  1.0957 -0.3418  0.8007
  339TMC3    H2 5144   1.025   4.229   0.981 -1.1382  0.2420  3.1206
  339TMC3    C7 5145   1.231   4.149   0.827 -0.0478 -0.3675 -0.5658
  339TMC3    C8 5146   1.029   4.301   1.243  0.3445  0.1231  0.1735
  339TMC3    O1 5147   1.341   4.101   0.795  0.2030  0.2871  0.3526
  339TMC3    O2 5148   1.048   4.371   1.341  0.6427 -0.1405 -0.8369
  340MPD2     C 5149   0.653   1.081  10.363  0.1835 -0.9496  0.5026
  340MPD2    C1 5150   0.760   1.069  10.277 -0.1723  0.1626  0.7701
  340MPD2    C2 5151   0.885   1.098  10.325  0.2744  0.6238 -0.3200
  340MPD2    C3 5152   0.909   1.114  10.460 -0.5877 -0.2151  0.2217
  340MPD2    C4 5153   0.803   1.111  10.546  0.2907 -0.1263 -0.1131
  340MPD2    C5 5154   0.677   1.097  10.498 -0.1624  0.2148  0.1326
  340MPD2     H 5155   0.964   1.100  10.251 -0.7243  0.5865 -1.3863
  340MPD2    H1 5156   0.824   1.130  10.651  1.7270 -2.0092 -0.0427
  340MPD2    H2 5157   0.551   1.063  10.328  0.3831 -0.0634 -0.5565
  340MPD2    H3 5158   0.591   1.111  10.563  1.4388  1.4132  2.0036
  340MPD2     N 5159   1.036   1.144  10.517  0.2347 -0.0567 -0.5999
  340MPD2    H5 5160   1.058   1.132  10.615 -0.1794 -3.5216 -0.9213
  340MPD2    N1 5161   0.746   1.041  10.138 -0.3474 -0.2433  0.9489
  340MPD2    H7 5162   0.835   1.038  10.090 -1.2696  1.3084 -0.8749
  341TMC3    C1 5163   0.663   0.944   9.946 -0.6673 -0.1824 -0.0319
  341TMC3    C2 5164   0.579   0.838   9.941  0.2221  0.3105 -0.6056
  341TMC3    C3 5165   0.624   0.729   9.871  0.5503  0.4600 -0.7219
  341TMC3    C4 5166   0.787   0.948   9.889  0.3415 -0.8745  0.5018
  341TMC3    C5 5167   0.817   0.843   9.809 -0.0137 -0.3933 -0.2861
  341TMC3    C6 5168   0.739   0.732   9.797  0.2123 -0.1055  1.0324
  341TMC3     C 5169   0.627   1.021  10.072  0.3798  0.1763 -0.3907
  341TMC3     O 5170   0.510   1.036  10.108 -0.2094 -0.2947 -0.0390
  341TMC3     H 5171   0.483   0.837   9.991  0.2247  0.2563 -0.6018
  341TMC3    H1 5172   0.843   1.041   9.892 -1.6565  0.3617 -0.9375
  341TMC3    H2 5173   0.780   0.642   9.751 -1.7888 -0.9658  0.9562
  341TMC3    C7 5174   0.939   0.838   9.727 -0.6891  0.9066  0.2524
  341TMC3    C8 5175   0.542   0.611   9.880  0.8602 -0.6231  0.2719
  341TMC3    O1 5176   0.988   0.730   9.709  0.6691  1.0947  0.0501
  341TMC3    O2 5177   0.496   0.593   9.991 -0.0631  0.1941  0.0902
  342MPD2     C 5178   4.100   4.542  17.673  0.1879  0.0586 -0.1747
  342MPD2    C1 5179   4.208   4.520  17.586 -0.1417  0.7515  0.2466
  342MPD2    C2 5180   4.319   4.597  17.602 -0.7886  0.3486 -0.8277
  342MPD2    C3 5181   4.319   4.711  17.682  0.3349  0.6800 -0.0164
  342MPD2    C4 5182   4.209   4.735   0.003 -0.0691 -0.6055 -0.1477
  342MPD2    C5 5183   4.108   4.644   0.005  0.0306 -0.1232 -0.1601
  342MPD2     H 5184   4.404   4.565  17.543 -0.1181 -1.5469  1.1633
  342MPD2    H1 5185   4.201   0.079   0.072 -0.4158  1.1143 -2.2427
  342MPD2    H2 5186   4.021   4.469  17.682 -0.5118  0.6854 -1.3095
  342MPD2    H3 5187   4.024   4.661   0.072  1.3365  2.3407  0.8575
  342MPD2     N 5188   4.421   0.071  17.680  0.3113 -0.4254 -0.0758
  342MPD2    H5 5189   4.405   0.150  17.741  1.0711  0.1461 -0.6208
  342MPD2    N1 5190   4.211   4.416  17.489 -0.2976  0.4431  0.1810
  342MPD2    H7 5191   4.294   4.417  17.430 -0.3609 -0.7760  0.0839
  343TMC3    C1 5192   4.139   4.230  17.358  0.4533 -0.0501  0.1987
  343TMC3    C2 5193   4.209   4.282  17.251 -0.2738  0.0596  0.0740
  343TMC3    C3 5194   4.229   4.189  17.142  0.5511  0.6519  0.2105
  343TMC3    C4 5195   4.095   4.103  17.368  0.6750 -0.7887  0.3756
  343TMC3    C5 5196   4.125   4.021  17.260 -0.2708 -0.0995 -0.0704
  343TMC3    C6 5197   4.184   4.060  17.143 -0.0497 -0.4696  0.2757
  343TMC3     C 5198   4.113   4.317  17.476 -0.1992 -0.7451  0.1959
  343TMC3     O 5199   4.031   4.278  17.559  0.8024  0.0745  0.3325
  343TMC3     H 5200   4.229   4.388  17.241 -1.1321  0.3039  0.9678
  343TMC3    H1 5201   4.044   4.060  17.453 -0.1639 -0.2350  0.1499
  343TMC3    H2 5202   4.176   3.985  17.065 -2.3661  1.6667 -1.5391
  343TMC3    C7 5203   4.096   3.883  17.267 -0.7675 -1.0205  0.5375
  343TMC3    C8 5204   4.304   4.239  17.035  0.7823 -0.3691 -0.2777
  343TMC3    O1 5205   4.054   3.829  17.167  0.0277  0.3207 -0.3800
  343TMC3    O2 5206   4.372   4.337  17.063 -0.3590  0.0638 -0.2620
  344MPD2     C 5207   4.557   3.924  11.280 -1.1178 -0.4211  0.6957
  344MPD2    C1 5208   4.480   3.900  11.170  0.3526  0.2983 -0.5067
  344MPD2    C2 5209   4.428   4.005  11.094 -0.1609 -0.6038 -0.5225
  344MPD2    C3 5210   4.455   4.137  11.122 -0.8130 -0.1042 -0.4577
  344MPD2    C4 5211   4.543   4.159  11.229  0.4445 -0.6260  0.2892
  344MPD2    C5 5212   4.585   4.057  11.309  0.5131  0.0841 -0.1986
  344MPD2     H 5213   4.363   3.976  11.012 -0.4689  0.7031 -0.7394
  344MPD2    H1 5214   4.569   4.260  11.260 -2.7012  1.0018 -2.2755
  344MPD2    H2 5215   4.593   3.852  11.352 -0.1955  1.5949  2.2378
  344MPD2    H3 5216   4.633   4.079  11.404  0.2767  0.1852 -0.1027
  344MPD2     N 5217   4.425   4.249  11.031  0.6249 -0.0498 -0.2165
  344MPD2    H5 5218   4.469   4.337  11.057 -2.8060  1.4215  0.6239
  344MPD2    N1 5219   4.446   3.767  11.137 -0.2595  0.0093  0.8038
  344MPD2    H7 5220   4.374   3.751  11.068  1.1417 -0.5746 -0.5222
  345TMC3    C1 5221   4.354   4.360  10.826 -0.1832 -0.5595  1.6263
  345TMC3    C2 5222   4.467   4.431  10.818  0.7007 -0.3207 -0.4927
  345TMC3    C3 5223   4.475   4.523  10.717 -0.0677  0.0375  0.8181
  345TMC3    C4 5224   4.257   4.358  10.731 -0.0902  0.2276 -0.2061
  345TMC3    C5 5225   4.279   4.439  10.620 -0.4261 -0.2054 -0.4400
  345TMC3    C6 5226   4.387   4.525  10.609  0.5643  1.0553  0.1220
  345TMC3     C 5227   4.342   4.241  10.916 -1.2727  0.0509 -0.2326
  345TMC3     O 5228   4.265   4.147  10.887 -0.4362 -0.3258  0.3690
  345TMC3     H 5229   4.538   4.414  10.898  0.9462 -1.0369 -0.8575
  345TMC3    H1 5230   4.171   4.292  10.732  0.4974 -0.5402 -0.7617
  345TMC3    H2 5231   4.395   4.597  10.529  0.0276 -0.6748 -1.4949
  345TMC3    C7 5232   4.223   4.386  10.499  0.7405 -0.2465 -0.1321
  345TMC3    C8 5233   4.565   4.638  10.721 -0.6308 -0.2965 -0.1917
  345TMC3    O1 5234   4.161   4.280  10.509  0.0404 -0.2963  0.0748
  345TMC3    O2 5235   4.564   4.700  10.616  0.3787  0.2158 -0.2517
  346MPD2     C 5236   4.711   0.988  14.544 -0.0854  0.2854 -0.3163
  346MPD2    C1 5237   0.091   0.963  14.476 -0.1575 -0.3497  0.4708
  346MPD2    C2 5238   0.213   1.007  14.531  0.3335  0.5090 -0.7290
  346MPD2    C3 5239   0.208   1.082  14.646 -0.1735 -0.0915 -0.4737
  346MPD2    C4 5240   0.088   1.110  14.706 -0.4418 -0.2918 -0.1865
  346MPD2    C5 5241   4.709   1.062  14.654 -0.5277  0.2285 -0.5650
  346MPD2     H 5242   0.306   0.985  14.480  0.5685 -0.6578  0.2007
  346MPD2    H1 5243   0.093   1.168  14.797  1.6617  1.2722 -1.2802
  346MPD2    H2 5244   4.616   0.951  14.507 -0.1170 -1.5139  1.5712
  346MPD2    H3 5245   4.611   1.078  14.699  0.2953 -0.2789  1.3935
  346MPD2     N 5246   0.335   1.133  14.691 -0.2208 -0.1051  0.1456
  346MPD2    H5 5247   0.417   1.101  14.641 -1.5243  1.7066 -3.1326
  346MPD2    N1 5248   0.099   0.893  14.354 -0.2488 -0.2380  0.3577
  346MPD2    H7 5249   0.187   0.869  14.311 -0.4350  0.8201 -0.6026
  347TMC3    C1 5250   0.500   1.244  14.813  0.1318 -0.5764  0.6330
  347TMC3    C2 5251   0.576   1.244  14.697  0.4782  0.0394 -0.9322
  347TMC3    C3 5252   0.711   1.239  14.712 -0.5675 -0.1665  0.0798
  347TMC3    C4 5253   0.559   1.227  14.934  0.2909  0.4510  0.3935
  347TMC3    C5 5254   0.693   1.217  14.948 -0.2759 -0.4760 -0.2549
  347TMC3    C6 5255   0.768   1.210  14.836  0.7223  0.6635 -0.1830
  347TMC3     C 5256   0.355   1.214  14.802  0.2470  0.7995  0.3073
  347TMC3     O 5257   0.286   1.258  14.890  0.3290  0.2295  0.2169
  347TMC3     H 5258   0.531   1.268  14.601  1.1961  1.1579 -0.9912
  347TMC3    H1 5259   0.495   1.230  15.022  0.1785  0.5927  0.3051
  347TMC3    H2 5260   0.876   1.218  14.836  0.7099  1.0056  2.2734
  347TMC3    C7 5261   0.742   1.197  15.085  0.3902 -0.6295 -0.1391
  347TMC3    C8 5262   0.791   1.179  14.605 -0.4128  0.0261  0.3582
  347TMC3    O1 5263   0.663   1.193  15.177 -0.1911 -0.0510 -0.0632
  347TMC3    O2 5264   0.880   1.098  14.631  0.3998  0.0984 -0.2140
  348MPD2     C 5265   4.005   0.511  11.732 -0.3120 -0.0396  0.4873
  348MPD2    C1 5266   3.880   0.495  11.687  0.0712  0.2312 -1.0011
  348MPD2    C2 5267   3.822   0.590  11.606  0.0880 -0.4863  1.3300
  348MPD2    C3 5268   3.898   0.695  11.558  0.1833 -0.5101 -0.4300
  348MPD2    C4 5269   4.026   0.710  11.600 -1.1122  0.4651  0.6391
  348MPD2    C5 5270   4.073   0.620  11.690 -0.1005 -0.7548  0.2318
  348MPD2     H 5271   3.732   0.561  11.552  0.0622 -0.4619  1.3595
  348MPD2    H1 5272   4.098   0.780  11.559 -1.3004  0.0209 -0.4552
  348MPD2    H2 5273   4.053   0.444  11.801 -1.1456  1.0310  2.1154
  348MPD2    H3 5274   4.172   0.636  11.730  0.6923 -0.9586 -1.6448
  348MPD2     N 5275   3.840   0.777  11.457  0.2506 -0.3460 -1.3308
  348MPD2    H5 5276   3.749   0.753  11.419 -1.7700  1.8687  2.1009
  348MPD2    N1 5277   3.813   0.375  11.713 -0.1924 -0.5616  0.1720
  348MPD2    H7 5278   3.733   0.360  11.653  1.5730 -1.1877 -2.0126
  349TMC3    C1 5279   3.765   0.165  11.806 -0.2577  0.0513 -0.0888
  349TMC3    C2 5280   3.814   0.057  11.873  0.5404  0.3122  0.2102
  349TMC3    C3 5281   3.732   4.691  11.880  0.4458  0.0547 -0.1568
  349TMC3    C4 5282   3.633   0.181  11.765 -0.3777  0.1787  0.1418
  349TMC3    C5 5283   3.549   0.073  11.786 -0.9731  0.1363  0.6439
  349TMC3    C6 5284   3.604   4.696  11.833  0.0239  0.4614  0.1049
  349TMC3     C 5285   3.847   0.284  11.812 -0.2337 -0.2707  0.8721
  349TMC3     O 5286   3.937   0.283  11.891 -0.3070  0.5656 -0.0563
  349TMC3     H 5287   3.917   0.055  11.909  2.3765  1.3938 -4.9970
  349TMC3    H1 5288   3.589   0.278  11.745 -2.4486 -0.7777  0.0757
  349TMC3    H2 5289   3.542   4.610  11.854 -2.0817  2.0931  0.5837
  349TMC3    C7 5290   3.428   0.071  11.705  0.4512  0.4167  0.0477
  349TMC3    C8 5291   3.789   4.576  11.940 -0.6659 -0.3274 -0.4028
  349TMC3    O1 5292   3.344   4.730  11.745  0.5042 -0.0332  0.2663
  349TMC3    O2 5293   3.882   4.591  12.023  0.4078 -0.3573  0.1636
  350MPD2     C 5294   2.895   3.574  10.703 -0.2640 -0.1544  0.0901
  350MPD2    C1 5295   2.760   3.545  10.680  0.4216  0.3701 -0.0086
  350MPD2    C2 5296   2.669   3.581  10.772  0.1304 -0.2166  0.0721
  350MPD2    C3 5297   2.698   3.667  10.876  0.1886  0.5119  0.2971
  350MPD2    C4 5298   2.826   3.703  10.901  0.2266 -0.1542 -0.1696
  350MPD2    C5 5299   2.931   3.651  10.820 -0.1170 -0.0775  0.3853
  350MPD2     H 5300   2.573   3.531  10.770  0.4386 -0.7900 -0.2258
  350MPD2    H1 5301   2.851   3.773  10.980 -1.1386 -1.1113  1.1369
  350MPD2    H2 5302   2.972   3.550  10.631  0.2983  0.8574  0.3531
  350MPD2    H3 5303   3.037   3.664  10.838 -0.3087  1.8881  0.1461
  350MPD2     N 5304   2.585   3.696  10.955  0.0023  0.7020 -0.0283
  350MPD2    H5 5305   2.498   3.645  10.939  0.3825 -0.3627  1.3473
  350MPD2    N1 5306   2.723   3.463  10.567 -0.2627  0.3039  0.6240
  350MPD2    H7 5307   2.624   3.450  10.552  0.1885 -1.2384 -0.9647
  351TMC3    C1 5308   2.747   3.357  10.358  0.0299  0.1768 -0.1648
  351TMC3    C2 5309   2.825   3.286  10.269  0.9075 -0.1391 -0.9103
  351TMC3    C3 5310   2.752   3.257  10.152 -0.4398 -0.4678  0.4356
  351TMC3    C4 5311   2.614   3.385  10.343 -0.2700  0.1098  0.7094
  351TMC3    C5 5312   2.551   3.348  10.227 -0.4925 -0.0373 -0.2770
  351TMC3    C6 5313   2.622   3.290  10.124  0.0433 -0.6607 -0.7671
  351TMC3     C 5314   2.814   3.404  10.479  0.6549  0.7711 -0.6231
  351TMC3     O 5315   2.936   3.396  10.486 -0.1875  0.0698  0.1033
  351TMC3     H 5316   2.930   3.260  10.275  0.6562 -0.6361  1.3543
  351TMC3    H1 5317   2.552   3.438  10.416 -0.4708 -0.6874  1.1208
  351TMC3    H2 5318   2.564   3.241  10.046 -0.5482 -0.9597 -0.1419
  351TMC3    C7 5319   2.407   3.330  10.215 -0.2725 -0.3415 -0.1251
  351TMC3    C8 5320   2.813   3.165  10.054  0.9263 -0.4282 -0.3624
  351TMC3    O1 5321   2.357   3.298  10.107 -0.6290  0.1410 -0.3405
  351TMC3    O2 5322   2.736   3.098   9.986 -0.0388  0.3069  0.1121
  352MPD2     C 5323   1.726   0.960   1.375 -0.1399  0.1436  0.2546
  352MPD2    C1 5324   1.620   0.892   1.337 -0.2259  0.6424  0.4511
  352MPD2    C2 5325   1.623   0.754   1.333 -0.2368 -0.1163 -0.5651
  352MPD2    C3 5326   1.730   0.677   1.381 -1.1637  1.2424 -0.1890
  352MPD2    C4 5327   1.840   0.758   1.419 -0.1135 -0.0186  0.1296
  352MPD2    C5 5328   1.840   0.890   1.412  0.1022  0.3020 -0.1742
  352MPD2     H 5329   1.542   0.699   1.287 -1.7617  0.7769  1.0579
  352MPD2    H1 5330   1.928   0.708   1.457  1.2192  0.2868 -2.5001
  352MPD2    H2 5331   1.724   1.068   1.386 -0.4989  0.2094 -0.4678
  352MPD2    H3 5332   1.927   0.943   1.450  0.1528 -0.7755  1.2250
  352MPD2     N 5333   1.744   0.537   1.360  0.5630 -0.0283 -0.0908
  352MPD2    H5 5334   1.835   0.500   1.385  0.1148 -0.4041  1.0067
  352MPD2    N1 5335   1.508   0.961   1.293 -0.0111  0.4234  0.1769
  352MPD2    H7 5336   1.524   1.058   1.265 -1.8811  0.5993 -0.2523
  353TMC3    C1 5337   1.696   0.312   1.303  0.4015 -0.1925 -0.1561
  353TMC3    C2 5338   1.783   0.257   1.393  0.0184 -0.2104 -0.5926
  353TMC3    C3 5339   1.827   0.130   1.364 -0.1929  0.6440  0.2491
  353TMC3    C4 5340   1.657   0.254   1.187 -0.0972  0.6136  0.3910
  353TMC3    C5 5341   1.714   0.130   1.161  0.7495  0.4306  0.3309
  353TMC3    C6 5342   1.794   0.064   1.250 -0.1109  0.7132  1.1690
  353TMC3     C 5343   1.659   0.453   1.294  0.0205  0.0853  0.5033
  353TMC3     O 5344   1.566   0.484   1.219 -0.1426 -0.1677 -0.1506
  353TMC3     H 5345   1.796   0.294   1.495 -0.0291 -0.6342 -0.4325
  353TMC3    H1 5346   1.579   0.287   1.120 -0.6277  0.3156  0.8564
  353TMC3    H2 5347   1.835   4.711   1.211  0.6143  1.3934  0.3213
  353TMC3    C7 5348   1.708   0.067   1.031  0.1807 -0.5115  0.0845
  353TMC3    C8 5349   1.898   0.060   1.462 -1.3862  0.5873 -0.3931
  353TMC3    O1 5350   1.711   4.681   1.026  0.0512 -0.2382 -0.0040
  353TMC3    O2 5351   1.931   0.124   1.562 -0.1517  0.3245 -0.0611
  354TMC3    C1 5352   2.800   1.758  13.577  0.2759  0.7491 -0.6031
  354TMC3    C2 5353   2.878   1.861  13.625 -0.2475 -0.2704 -0.1537
  354TMC3    C3 5354   2.861   1.983  13.563 -0.3262  0.9007  0.2335
  354TMC3    C4 5355   2.698   1.771  13.482  0.3749 -0.5031  0.2505
  354TMC3    C5 5356   2.663   1.902  13.445  0.4099 -0.9571  0.0692
  354TMC3    C6 5357   2.742   2.002  13.494  0.4412 -0.5726 -0.8463
  354TMC3     C 5358   2.793   1.637  13.662 -0.0931 -0.6136  0.2388
  354TMC3     O 5359   2.719   1.547  13.623 -0.7382  0.1665  0.1295
  354TMC3     H 5360   2.979   1.844  13.659  0.0763 -2.4476 -2.2597
  354TMC3    H1 5361   2.647   1.683  13.446 -2.9870  1.1442  0.9281
  354TMC3    H2 5362   2.724   2.102  13.456 -1.3155  0.1832  1.9685
  354TMC3    C7 5363   2.626   1.910  13.304  0.5799  0.7675  0.8482
  354TMC3    C8 5364   2.973   2.022  13.476 -0.0959 -0.3385  0.2718
  354TMC3    O1 5365   2.598   2.017  13.256 -0.3105 -0.3529  0.3747
  354TMC3    O2 5366   3.086   2.007  13.520 -0.5869  0.5555  0.4632
  355MPD2     C 5367   2.639   2.109  11.728  0.3615 -0.6588  0.1402
  355MPD2    C1 5368   2.716   2.172  11.634 -0.0443 -0.6081  0.5914
  355MPD2    C2 5369   2.853   2.182  11.658  0.2480 -0.3716  1.2691
  355MPD2    C3 5370   2.914   2.130  11.777  0.3904 -0.4931 -0.8123
  355MPD2    C4 5371   2.834   2.057  11.864 -0.2424 -0.7419 -0.4914
  355MPD2    C5 5372   2.704   2.039  11.830 -0.0923 -0.0232  0.4589
  355MPD2     H 5373   2.910   2.257  11.603 -2.7493  0.5765 -0.5708
  355MPD2    H1 5374   2.870   2.012  11.955  0.7550 -0.4089 -0.7189
  355MPD2    H2 5375   2.531   2.104  11.714  0.5455  0.1540 -1.6574
  355MPD2    H3 5376   2.659   1.975  11.905 -1.1667 -0.1095 -0.2423
  355MPD2     N 5377   3.044   2.169  11.796 -0.2264  0.0313 -0.2528
  355MPD2    H5 5378   3.097   2.194  11.713 -0.3338  2.1372  0.3052
  355MPD2    N1 5379   2.653   2.231  11.528 -0.2606  0.2972 -0.1647
  355MPD2    H7 5380   2.555   2.256  11.531 -0.7058 -1.8330  3.1171
  356TMC3    C1 5381   3.239   2.250  11.903 -0.7567 -0.4807  0.5482
  356TMC3    C2 5382   3.262   2.300  11.777 -0.8671  0.0227 -0.1121
  356TMC3    C3 5383   3.349   2.406  11.767  0.6247 -0.0400 -0.0163
  356TMC3    C4 5384   3.290   2.316  12.012 -0.4915  0.2215 -0.5933
  356TMC3    C5 5385   3.370   2.426  11.989 -0.8820 -0.8453 -0.2032
  356TMC3    C6 5386   3.412   2.470  11.870 -0.1262  0.3930 -0.4295
  356TMC3     C 5387   3.109   2.179  11.920 -0.3520  0.4117  0.6261
  356TMC3     O 5388   3.075   2.142  12.030 -0.6978 -0.0046  0.5714
  356TMC3     H 5389   3.235   2.243  11.688  1.5345  0.7051 -1.2915
  356TMC3    H1 5390   3.254   2.296  12.112  0.2955 -0.2477 -0.4086
  356TMC3    H2 5391   3.496   2.533  11.847 -0.5137  0.0080 -2.8998
  356TMC3    C7 5392   3.443   2.470  12.108  0.6525  0.5960  0.4026
  356TMC3    C8 5393   3.404   2.440  11.637 -0.2996 -0.1328 -0.5992
  356TMC3    O1 5394   3.436   2.393  12.205  0.0689  0.6072  0.9660
  356TMC3    O2 5395   3.386   2.358  11.546  0.1282 -0.3891  0.2616
  357MPD2     C 5396   2.805   3.144   1.700  0.4788  0.8246  0.0103
  357MPD2    C1 5397   2.791   3.019   1.647  0.0424  1.0575  0.1218
  357MPD2    C2 5398   2.670   2.983   1.586 -0.0497 -0.2833 -0.2783
  357MPD2    C3 5399   2.560   3.068   1.592  0.0386 -0.4398 -0.1867
  357MPD2    C4 5400   2.575   3.191   1.656 -0.0689  0.2323 -0.6372
  357MPD2    C5 5401   2.693   3.220   1.714  0.0458 -0.2882 -0.5505
  357MPD2     H 5402   2.660   2.884   1.543 -1.9582 -0.6689  1.0790
  357MPD2    H1 5403   2.500   3.269   1.660  0.2344  0.5980 -2.0716
  357MPD2    H2 5404   2.899   3.187   1.734 -1.3256  1.9605  3.5657
  357MPD2    H3 5405   2.697   3.312   1.771 -0.4560 -1.4853  1.4244
  357MPD2     N 5406   2.436   3.031   1.539  0.3714 -0.0930  0.5009
  357MPD2    H5 5407   2.350   3.078   1.566  0.5016  0.4241  0.0236
  357MPD2    N1 5408   2.912   2.950   1.622 -0.0941 -0.6716 -0.8073
  357MPD2    H7 5409   3.001   2.991   1.651 -0.5285 -0.5241  0.3459
  358TMC3    C1 5410   3.046   2.777   1.538 -0.4952 -0.1510  0.0605
  358TMC3    C2 5411   3.039   2.673   1.447 -0.1788 -0.3097 -0.0110
  358TMC3    C3 5412   3.135   2.668   1.350  0.0380 -0.5155  0.3277
  358TMC3    C4 5413   3.149   2.868   1.540  0.3560  0.3568 -0.5209
  358TMC3    C5 5414   3.251   2.855   1.448  0.1223  0.2495 -0.2484
  358TMC3    C6 5415   3.242   2.753   1.349 -0.5039  0.6792 -0.1562
  358TMC3     C 5416   2.928   2.815   1.610 -0.4693  0.1207  0.6026
  358TMC3     O 5417   2.834   2.739   1.597  0.3080 -0.1913  0.7676
  358TMC3     H 5418   2.958   2.600   1.454 -0.7879  0.3090 -0.5534
  358TMC3    H1 5419   3.158   2.938   1.622 -0.7246 -0.9838  0.7415
  358TMC3    H2 5420   3.302   2.771   1.261  2.1577  1.5005  1.8348
  358TMC3    C7 5421   3.365   2.946   1.456 -0.0037  0.2165  0.7793
  358TMC3    C8 5422   3.113   2.591   1.230  0.1790  0.8547  0.3943
  358TMC3    O1 5423   3.344   3.042   1.528  0.6314  0.0614  0.0973
  358TMC3    O2 5424   3.209   2.553   1.162 -0.2025 -0.7880  0.6614
  359MPD2     C 5425   3.253   1.337  12.533 -0.4062  0.0693 -0.0295
  359MPD2    C1 5426   3.297   1.226  12.469 -0.2417  0.3223 -0.2698
  359MPD2    C2 5427   3.276   1.103  12.530  0.0089 -0.1770 -0.2055
  359MPD2    C3 5428   3.215   1.084  12.655 -0.1641 -0.0522 -0.1230
  359MPD2    C4 5429   3.178   1.200  12.719 -0.5975 -0.2350 -0.3681
  359MPD2    C5 5430   3.185   1.323  12.653  0.8159 -0.3472  0.0364
  359MPD2     H 5431   3.309   1.015  12.475  0.7460 -0.3149  0.4509
  359MPD2    H1 5432   3.136   1.189  12.819  2.2486 -0.6987  0.7789
  359MPD2    H2 5433   3.273   1.434  12.489  0.9263  0.0012  0.4477
  359MPD2    H3 5434   3.138   1.405  12.705 -0.3719 -0.5369 -0.7293
  359MPD2     N 5435   3.181   0.962  12.715  0.2088 -1.0003  0.1390
  359MPD2    H5 5436   3.130   0.971  12.803  1.4383  0.3988  0.6972
  359MPD2    N1 5437   3.350   1.236  12.337  0.1769  0.5389  0.1670
  359MPD2    H7 5438   3.373   1.147  12.292  0.2467 -0.2254  1.7197
  360TMC3    C1 5439   3.445   1.321  12.141  0.8227 -0.8573 -0.7351
  360TMC3    C2 5440   3.524   1.412  12.081 -0.2899  0.7460  0.2468
  360TMC3    C3 5441   3.580   1.382  11.959  0.2593  0.2431 -0.0115
  360TMC3    C4 5442   3.386   1.218  12.074  0.3676  0.3459 -0.4469
  360TMC3    C5 5443   3.422   1.208  11.943  0.3104  0.1751  0.1406
  360TMC3    C6 5444   3.518   1.289  11.882  0.1775  1.3549 -0.0743
  360TMC3     C 5445   3.390   1.348  12.273  0.0680  0.1553 -0.0061
  360TMC3     O 5446   3.415   1.452  12.326  0.0637 -0.6567  0.4274
  360TMC3     H 5447   3.571   1.489  12.140 -0.0706  1.6858 -1.1650
  360TMC3    H1 5448   3.311   1.148  12.111  0.2738  0.3403 -0.6479
  360TMC3    H2 5449   3.551   1.277  11.780 -3.3502 -0.4396 -1.0170
  360TMC3    C7 5450   3.348   1.117  11.853 -0.4587  0.2161  0.3703
  360TMC3    C8 5451   3.661   1.492  11.905  0.4186  0.4382 -0.0905
  360TMC3    O1 5452   3.400   1.098  11.747  0.5047 -0.0795  0.6299
  360TMC3    O2 5453   3.639   1.603  11.947 -0.6458  0.4715  0.2821
  361MPD2     C 5454   0.590   4.692  16.631 -0.4058 -0.3431  0.0718
  361MPD2    C1 5455   0.585   0.061  16.717 -0.6839 -0.8070  0.4062
  361MPD2    C2 5456   0.696   0.080  16.791 -0.0473 -0.1610 -0.5661
  361MPD2    C3 5457   0.810   0.003  16.780  0.3081 -0.3627  0.2883
  361MPD2    C4 5458   0.815   4.648  16.683 -0.3235 -0.7215 -0.9693
  361MPD2    C5 5459   0.709   4.629  16.603 -0.4654  0.3319 -0.4606
  361MPD2     H 5460   0.694   0.153  16.871 -2.0866  0.0995 -0.8527
  361MPD2    H1 5461   0.903   4.591  16.653  0.5307 -0.3682  0.8497
  361MPD2    H2 5462   0.504   4.657  16.575 -0.2742 -2.0020  0.8972
  361MPD2    H3 5463   0.727   4.546  16.535 -1.4564 -0.3896  0.1580
  361MPD2     N 5464   0.917   0.006  16.865 -0.4304  0.0541  0.1286
  361MPD2    H5 5465   0.995   4.685  16.839 -2.5063 -1.4333 -2.5913
  361MPD2    N1 5466   0.472   0.132  16.748 -0.0879 -0.2784  0.4013
  361MPD2    H7 5467   0.492   0.206  16.815  1.3018 -0.1543 -0.1376
  362TMC3    C1 5468   0.246   0.181  16.776  0.4331 -0.1319  0.0499
  362TMC3    C2 5469   0.273   0.247  16.894  0.0507  0.4246  0.5274
  362TMC3    C3 5470   0.171   0.325  16.944 -0.0672 -0.3851  0.6831
  362TMC3    C4 5471   0.128   0.194  16.700  0.0685  0.2593 -0.7846
  362TMC3    C5 5472   0.034   0.278  16.756 -0.9737  0.0304  0.1620
  362TMC3    C6 5473   0.055   0.345  16.871  0.3274 -0.4032  0.1344
  362TMC3     C 5474   0.344   0.094  16.714 -0.9104  0.8907 -0.6684
  362TMC3     O 5475   0.305   0.007  16.639 -0.1750 -0.2987 -0.2856
  362TMC3     H 5476   0.357   0.236  16.963  1.1044  0.2365 -0.7869
  362TMC3    H1 5477   0.113   0.132  16.612  1.2871  0.9904 -1.5116
  362TMC3    H2 5478   4.727   0.426  16.898  0.3557 -0.5957  0.7845
  362TMC3    C7 5479   4.647   0.308  16.698  0.9999  0.6150 -0.5417
  362TMC3    C8 5480   0.167   0.376  17.078  0.3126 -0.7732  0.1301
  362TMC3    O1 5481   4.581   0.396  16.746 -0.2244  0.6884  0.7120
  362TMC3    O2 5482   0.273   0.405  17.131 -0.3627 -0.4889 -0.4796
  363TMC3    C1 5483   2.707   1.980   8.551 -0.3568  0.1624 -0.2755
  363TMC3    C2 5484   2.839   1.992   8.594 -0.4414  0.6755  0.3598
  363TMC3    C3 5485   2.853   2.057   8.712  0.1463 -0.4544  0.7117
  363TMC3    C4 5486   2.600   2.032   8.624 -0.2634 -0.6881 -0.5333
  363TMC3    C5 5487   2.624   2.104   8.742 -0.2619 -0.8611 -0.4767
  363TMC3    C6 5488   2.751   2.116   8.786 -0.5249 -0.5017  0.1652
  363TMC3     C 5489   2.685   1.899   8.428  0.9049 -0.7673  0.1256
  363TMC3     O 5490   2.789   1.879   8.362  0.2409  0.1048  0.1707
  363TMC3     H 5491   2.923   1.940   8.549 -1.1246 -0.0177 -0.1200
  363TMC3    H1 5492   2.501   2.030   8.579  0.1134 -2.2202 -1.2848
  363TMC3    H2 5493   2.767   2.151   8.887 -1.9748 -0.2728  0.3166
  363TMC3    C7 5494   2.521   2.143   8.834 -0.5664 -0.0015 -1.0387
  363TMC3    C8 5495   2.991   2.059   8.771  0.3026 -0.6267  0.1576
  363TMC3    O1 5496   2.554   2.197   8.934  0.1558  0.6422 -0.5802
  363TMC3    O2 5497   3.074   1.970   8.749 -0.3005  0.6166 -0.0630
  364MPD2     C 5498   2.089   2.016  10.907 -0.2322  0.0858 -0.3432
  364MPD2    C1 5499   2.201   1.960  10.845 -0.1914  0.0913 -1.0089
  364MPD2    C2 5500   2.285   1.879  10.913  0.0701  0.6882  0.0116
  364MPD2    C3 5501   2.261   1.848  11.047  0.1755  0.3626  0.3409
  364MPD2    C4 5502   2.152   1.903  11.107  0.1716 -0.2754 -0.7155
  364MPD2    C5 5503   2.067   1.989  11.042 -0.4016  0.1617  0.2118
  364MPD2     H 5504   2.372   1.837  10.865  0.0954  0.5308  0.1946
  364MPD2    H1 5505   2.135   1.880  11.211 -2.8790  0.9192 -0.9457
  364MPD2    H2 5506   2.032   2.097  10.865 -1.0289  0.0820  0.7262
  364MPD2    H3 5507   1.991   2.036  11.104  1.4219  2.8345  0.3988
  364MPD2     N 5508   2.351   1.767  11.124  0.4225  0.5621  1.1384
  364MPD2    H5 5509   2.309   1.730  11.209 -1.1228  1.0911  0.6134
  364MPD2    N1 5510   2.231   2.014  10.720  0.5880 -0.0671 -0.0897
  364MPD2    H7 5511   2.169   2.089  10.691  1.5042  1.2276  1.3265
  365TMC3    C1 5512   2.357   2.097  10.546 -0.4908 -0.0410 -0.2064
  365TMC3    C2 5513   2.387   2.073  10.416  0.9524  0.1566  0.8664
  365TMC3    C3 5514   2.378   2.176  10.333  0.7653  0.2737  0.2357
  365TMC3    C4 5515   2.320   2.223  10.588 -0.2276  0.2145  0.7265
  365TMC3    C5 5516   2.327   2.326  10.498  0.3104  0.5580  0.2015
  365TMC3    C6 5517   2.353   2.302  10.369 -0.1019  0.0514  0.1299
  365TMC3     C 5518   2.339   1.980  10.640 -0.2621 -0.2246  0.0363
  365TMC3     O 5519   2.411   1.881  10.638 -0.2285  0.0110 -0.7497
  365TMC3     H 5520   2.428   1.977  10.386  2.6280  0.9546  0.6140
  365TMC3    H1 5521   2.288   2.241  10.690 -0.4192  2.2637  0.3123
  365TMC3    H2 5522   2.355   2.384  10.298  0.1963 -1.6047 -1.7323
  365TMC3    C7 5523   2.278   2.459  10.539 -0.6650  0.5802  0.1884
  365TMC3    C8 5524   2.388   2.142  10.191  0.0361 -0.6347  0.4023
  365TMC3    O1 5525   2.319   2.560  10.485 -0.1127  0.0903 -0.3180
  365TMC3    O2 5526   2.437   2.232  10.122  0.1139  0.6034  0.1309
  366MPD2     C 5527   1.224   2.822  15.192  0.5937  0.1475 -0.3279
  366MPD2    C1 5528   1.235   2.921  15.297 -0.1192 -0.4316  0.2298
  366MPD2    C2 5529   1.356   2.939  15.359 -0.0352  0.3060 -0.0948
  366MPD2    C3 5530   1.469   2.874  15.316  0.3570  0.3546 -0.0510
  366MPD2    C4 5531   1.458   2.777  15.220  0.3613  0.6155 -0.1148
  366MPD2    C5 5532   1.335   2.747  15.159  0.8449  0.2834  0.2224
  366MPD2     H 5533   1.354   3.014  15.437  1.6613  2.0136 -1.6625
  366MPD2    H1 5534   1.537   2.711  15.187 -0.1097 -0.6692  1.2816
  366MPD2    H2 5535   1.130   2.788  15.151  0.0220 -1.3779  2.2066
  366MPD2    H3 5536   1.334   2.659  15.096 -1.2282 -0.5611  1.4552
  366MPD2     N 5537   1.598   2.914  15.365 -0.3756  0.2196 -0.2456
  366MPD2    H5 5538   1.660   2.834  15.370 -0.0342  0.4211 -1.2887
  366MPD2    N1 5539   1.137   3.012  15.340  0.3271 -0.3004 -0.5230
  366MPD2    H7 5540   1.161   3.083  15.408 -0.6145  0.8119 -1.3657
  367TMC3    C1 5541   0.942   3.133  15.326  0.0388  0.1861 -0.0678
  367TMC3    C2 5542   1.003   3.218  15.414  0.5272  0.3654  0.0857
  367TMC3    C3 5543   0.965   3.352  15.412  0.9997  0.0739  0.1851
  367TMC3    C4 5544   0.833   3.167  15.249 -0.3691  0.1249  0.0475
  367TMC3    C5 5545   0.798   3.297  15.252  0.0079  0.3785  0.1974
  367TMC3    C6 5546   0.863   3.395  15.326  0.1196  1.3018 -0.5067
  367TMC3     C 5547   1.020   3.020  15.272  0.0966  0.7826 -0.0261
  367TMC3     O 5548   0.969   2.952  15.185 -0.0545  0.3134  0.4813
  367TMC3     H 5549   1.087   3.190  15.476  0.3630  0.4380  0.3404
  367TMC3    H1 5550   0.822   3.117  15.153  1.1552 -0.4413  0.1646
  367TMC3    H2 5551   0.820   3.495  15.319  2.5957  2.4943  1.6176
  367TMC3    C7 5552   0.669   3.341  15.191  0.1886  0.2045 -0.0089
  367TMC3    C8 5553   1.028   3.434  15.520  0.1637  0.4859 -0.2747
  367TMC3    O1 5554   0.627   3.455  15.203  0.4674  0.1686  0.1598
  367TMC3    O2 5555   1.120   3.387  15.580 -0.1592 -1.0047  0.3952
  368MPD2     C 5556   1.980   4.474  13.300 -0.0144 -0.6613  0.7741
  368MPD2    C1 5557   2.021   4.602  13.279  0.3106 -0.4243 -0.6233
  368MPD2    C2 5558   2.142   4.652  13.326 -0.3722  0.8855  0.2940
  368MPD2    C3 5559   2.233   4.561  13.379 -0.4824 -0.2005 -0.2566
  368MPD2    C4 5560   2.189   4.433  13.400 -0.2137 -0.3833 -0.0527
  368MPD2    C5 5561   2.064   4.391  13.364  0.3982  0.0910  0.6682
  368MPD2     H 5562   2.154   0.020  13.317  3.0045  0.3332 -1.7989
  368MPD2    H1 5563   2.251   4.363  13.456  1.7264  1.4366  0.0954
  368MPD2    H2 5564   1.879   4.442  13.277  0.1603 -0.1222 -0.7523
  368MPD2    H3 5565   2.030   4.292  13.392 -0.1338 -0.8906 -3.3882
  368MPD2     N 5566   2.362   4.595  13.415  0.5580  0.2088  0.3319
  368MPD2    H5 5567   2.425   4.521  13.444 -0.7647 -0.9658  0.1791
  368MPD2    N1 5568   1.916   4.684  13.225 -0.1127  1.0491  0.1905
  368MPD2    H7 5569   1.826   4.638  13.213 -0.5570  2.1887 -0.8659
  369TMC3    C1 5570   1.801   0.130  13.156  0.2029  0.0827 -0.4066
  369TMC3    C2 5571   1.797   0.230  13.059 -0.1230  0.3318 -0.4144
  369TMC3    C3 5572   1.685   0.297  13.027  0.8777 -0.7954  0.0205
  369TMC3    C4 5573   1.688   0.084  13.216 -0.3858  0.3647  0.2257
  369TMC3    C5 5574   1.578   0.148  13.171  0.3854 -0.3330  0.6932
  369TMC3    C6 5575   1.568   0.255  13.087  0.3290 -0.0381 -0.4786
  369TMC3     C 5576   1.931   0.074  13.192 -0.4977 -0.5505  0.0399
  369TMC3     O 5577   2.028   0.149  13.191  0.1359 -0.4635  0.1131
  369TMC3     H 5578   1.897   0.264  13.036 -0.9769  2.1837 -1.3427
  369TMC3    H1 5579   1.682   4.738  13.283 -2.4337  0.0548 -0.3699
  369TMC3    H2 5580   1.471   0.295  13.058  1.0900  1.9593 -0.2399
  369TMC3    C7 5581   1.455   0.085  13.224  0.6371  0.2048 -0.0743
  369TMC3    C8 5582   1.703   0.405  12.941  0.3829 -0.0814  0.1147
  369TMC3    O1 5583   1.456   0.047  13.338  0.3773 -0.6335 -0.3105
  369TMC3    O2 5584   1.805   0.417  12.871 -0.5862  0.3039 -1.4173
  370TMC3    C1 5585   1.554   1.102  15.747  0.0309  0.2821  0.0386
  370TMC3    C2 5586   1.440   1.108  15.821 -0.0944  0.4327 -0.0205
  370TMC3    C3 5587   1.332   1.038  15.775  0.3499  1.0203 -0.4334
  370TMC3    C4 5588   1.567   1.025  15.630 -0.5463  0.3261 -0.1992
  370TMC3    C5 5589   1.460   0.949  15.603  0.2200 -0.4910  0.0971
  370TMC3    C6 5590   1.346   0.953  15.670 -0.3331 -0.1341 -0.5962
  370TMC3     C 5591   1.675   1.173  15.786  0.4337  1.0423 -0.7744
  370TMC3     O 5592   1.779   1.147  15.732 -0.3258  0.1672  0.4736
  370TMC3     H 5593   1.438   1.148  15.921 -0.0847 -1.2024  0.6327
  370TMC3    H1 5594   1.659   1.014  15.574  1.0247  1.1118  2.2194
  370TMC3    H2 5595   1.265   0.884  15.648  0.8782 -1.8208  0.2532
  370TMC3    C7 5596   1.490   0.837  15.516 -0.7195 -0.3128  0.3949
  370TMC3    C8 5597   1.199   1.034  15.847  0.1875 -0.0657  0.1363
  370TMC3    O1 5598   1.546   0.867  15.411  0.2978 -0.7081  0.4854
  370TMC3    O2 5599   1.101   1.078  15.784 -0.0509  0.3099  0.0752
  371TMC3    C1 5600   2.533   4.015  15.323 -0.2142 -1.3195  0.9625
  371TMC3    C2 5601   2.433   3.987  15.410 -0.1293 -0.8091 -0.5229
  371TMC3    C3 5602   2.352   4.088  15.440 -0.2664 -0.9248 -0.0408
  371TMC3    C4 5603   2.560   4.144  15.272  0.4775 -0.1573  0.8574
  371TMC3    C5 5604   2.465   4.241  15.298  0.0927 -0.4758 -0.7791
  371TMC3    C6 5605   2.366   4.220  15.395  0.3038  0.1708  0.6115
  371TMC3     C 5606   2.640   3.921  15.304 -0.2377 -0.0457 -0.1483
  371TMC3     O 5607   2.726   3.935  15.221 -0.5142 -0.0829 -0.1368
  371TMC3     H 5608   2.410   3.885  15.437  1.8690 -1.4180 -1.1693
  371TMC3    H1 5609   2.632   4.148  15.191 -0.2245 -0.1860  0.2432
  371TMC3    H2 5610   2.291   4.297  15.408 -0.6067 -0.6701  0.3591
  371TMC3    C7 5611   2.490   4.378  15.273 -0.1088  0.3679  0.2235
  371TMC3    C8 5612   2.248   4.055  15.536 -0.5698  0.0691  0.3257
  371TMC3    O1 5613   2.453   4.466  15.349 -0.5117 -0.9946 -0.2054
  371TMC3    O2 5614   2.250   3.941  15.579  0.0414 -0.8979 -0.2520
  372MPD2     C 5615   2.176   0.540  13.233  0.0956  0.4052 -0.5873
  372MPD2    C1 5616   2.269   0.592  13.312  0.2014  0.2435 -0.2450
  372MPD2    C2 5617   2.271   0.541  13.445  0.3231  0.8210 -0.7440
  372MPD2    C3 5618   2.186   0.438  13.488  0.2630 -0.3354  0.4694
  372MPD2    C4 5619   2.088   0.400  13.400 -0.9692 -0.4728 -0.2830
  372MPD2    C5 5620   2.081   0.459  13.280 -0.2895 -0.2518  0.2314
  372MPD2     H 5621   2.350   0.574  13.511 -0.2530 -0.7275  0.7154
  372MPD2    H1 5622   2.011   0.324  13.408  0.9079 -2.2942  0.4901
  372MPD2    H2 5623   2.180   0.572  13.130  2.5046 -2.3678 -1.3466
  372MPD2    H3 5624   2.002   0.429  13.211 -0.3373 -2.4663  1.2452
  372MPD2     N 5625   2.195   0.391  13.617 -0.6432  0.2018  0.1801
  372MPD2    H5 5626   2.274   0.423  13.672 -0.7787 -0.1852  0.5998
  372MPD2    N1 5627   2.381   0.664  13.274 -0.2091  0.0346 -0.1038
  372MPD2    H7 5628   2.462   0.668  13.335 -0.2340  0.5522 -0.1049
  373TMC3    C1 5629   2.214   0.224  13.771 -0.5022 -0.9316  0.1150
  373TMC3    C2 5630   2.271   0.315  13.861 -0.2071 -0.0037  0.4718
  373TMC3    C3 5631   2.362   0.265  13.953  0.4458  0.7690  0.0229
  373TMC3    C4 5632   2.262   0.096  13.769 -0.2585 -0.1475 -0.1910
  373TMC3    C5 5633   2.354   0.050  13.858  0.1619  0.4082  0.1529
  373TMC3    C6 5634   2.405   0.134  13.954 -0.0634 -0.4446  0.7000
  373TMC3     C 5635   2.151   0.268  13.648  0.5196  0.3185 -0.0086
  373TMC3     O 5636   2.087   0.182  13.588 -0.2060  0.1337 -0.1084
  373TMC3     H 5637   2.212   0.405  13.877  1.8809  1.4632 -0.0649
  373TMC3    H1 5638   2.229   0.023  13.696 -1.1665 -0.8376  0.9122
  373TMC3    H2 5639   2.472   0.099  14.032  0.7372 -2.7442 -1.0091
  373TMC3    C7 5640   2.408   4.660  13.832  0.3850  1.1617 -0.5811
  373TMC3    C8 5641   2.395   0.365  14.055 -0.6116  0.3318 -0.5240
  373TMC3    O1 5642   2.325   4.580  13.794  0.2869  0.3512  0.9138
  373TMC3    O2 5643   2.396   0.483  14.032 -0.2372 -0.4335 -0.0634
  374TMC3    C1 5644   2.478   0.369   9.777  0.2750  0.2347 -0.1303
  374TMC3    C2 5645   2.527   0.501   9.792  0.2373 -0.7024  0.3779
  374TMC3    C3 5646   2.468   0.595   9.717  0.3279  0.2870  0.0042
  374TMC3    C4 5647   2.378   0.337   9.683 -0.2453 -0.7641  0.1339
  374TMC3    C5 5648   2.337   0.441   9.601 -0.0033  0.0477  0.2544
  374TMC3    C6 5649   2.373   0.573   9.627  1.1191 -0.2293 -0.0860
  374TMC3     C 5650   2.548   0.272   9.862 -0.2122 -0.0633  0.1241
  374TMC3     O 5651   2.663   0.299   9.877  0.5103  0.6894  0.3127
  374TMC3     H 5652   2.596   0.529   9.870  0.1626  0.4154  0.0487
  374TMC3    H1 5653   2.329   0.240   9.681  0.3515 -1.1024  2.0533
  374TMC3    H2 5654   2.320   0.655   9.578 -0.6258 -2.0950 -1.3242
  374TMC3    C7 5655   2.267   0.428   9.472  0.0795  0.2753  0.2632
  374TMC3    C8 5656   2.512   0.735   9.732 -0.2178 -1.0683  0.3059
  374TMC3    O1 5657   2.222   0.532   9.427  0.2473 -0.2472 -0.3851
  374TMC3    O2 5658   2.461   0.814   9.656 -0.2935 -0.2389 -0.4157
  375MPD2     C 5659   2.706   1.254  17.311  0.2974  0.1379  0.3207
  375MPD2    C1 5660   2.639   1.253  17.192 -0.3079 -0.2880 -0.5073
  375MPD2    C2 5661   2.647   1.139  17.111  0.6415 -0.0409  0.3537
  375MPD2    C3 5662   2.728   1.032  17.143  0.3796  0.1511  0.1830
  375MPD2    C4 5663   2.800   1.043  17.254 -0.0309 -0.0508  0.2525
  375MPD2    C5 5664   2.782   1.146  17.336  0.7659  0.2059  0.9906
  375MPD2     H 5665   2.603   1.143  17.012 -0.6484  0.6550  0.9442
  375MPD2    H1 5666   2.874   0.969  17.282  1.6776  1.8368  0.7369
  375MPD2    H2 5667   2.724   1.340  17.375 -0.5825  1.2004 -0.8481
  375MPD2    H3 5668   2.840   1.150  17.427  0.1302 -0.1726  1.4146
  375MPD2     N 5669   2.753   0.911  17.066  0.0567 -0.2327  0.6356
  375MPD2    H5 5670   2.814   0.841  17.106 -0.3656 -0.9384  0.0519
  375MPD2    N1 5671   2.559   1.359  17.148  0.2520  0.4420 -0.0382
  375MPD2    H7 5672   2.522   1.358  17.053  2.1305  1.9962 -0.7688
  376TMC3    C1 5673   2.733   0.772  16.871 -0.3919 -0.4053  0.0152
  376TMC3    C2 5674   2.860   0.715  16.868  0.0572 -0.1878  0.2602
  376TMC3    C3 5675   2.875   0.623  16.766 -0.4787 -0.4442  0.9931
  376TMC3    C4 5676   2.635   0.728  16.782  0.0849 -0.2944 -0.2707
  376TMC3    C5 5677   2.660   0.634  16.681 -0.5627  0.8525  0.1365
  376TMC3    C6 5678   2.782   0.580  16.675  0.0255  0.9510 -0.1784
  376TMC3     C 5679   2.700   0.894  16.940  0.1056  0.0366 -0.4421
  376TMC3     O 5680   2.656   0.978  16.863 -0.5972  0.0538  0.1750
  376TMC3     H 5681   2.938   0.765  16.924 -1.6650  1.5853  1.0508
  376TMC3    H1 5682   2.543   0.785  16.777  0.2394 -0.0821 -0.6855
  376TMC3    H2 5683   2.824   0.553  16.579 -1.6665  1.0135 -0.9477
  376TMC3    C7 5684   2.619   0.681  16.547  0.2098 -0.7265  0.2377
  376TMC3    C8 5685   2.993   0.648  16.682  0.5297 -0.0310 -0.5195
  376TMC3    O1 5686   2.579   0.799  16.536  0.4580 -0.0476 -0.7182
  376TMC3    O2 5687   3.001   0.764  16.636 -0.1642  0.2711  0.3367
  377MPD2     C 5688   0.954   0.314  12.346 -0.1266 -0.2834 -0.2384
  377MPD2    C1 5689   1.000   0.398  12.448  0.5049 -0.1846  0.1128
  377MPD2    C2 5690   0.979   0.362  12.581  0.2260 -0.1113 -0.2409
  377MPD2    C3 5691   0.902   0.251  12.613 -0.5288  0.2709  0.0265
  377MPD2    C4 5692   0.859   0.167  12.512  0.5645 -0.3240  0.3788
  377MPD2    C5 5693   0.894   0.194  12.382 -0.0109 -0.2175  0.1837
  377MPD2     H 5694   1.027   0.414  12.663 -2.0696 -0.8218  1.5244
  377MPD2    H1 5695   0.795   0.081  12.532 -0.2646 -0.0541 -1.1571
  377MPD2    H2 5696   0.967   0.334  12.241  3.4637  0.4107  0.3294
  377MPD2    H3 5697   0.849   0.129  12.308  2.5290 -2.0683  0.2666
  377MPD2     N 5698   0.878   0.215  12.753 -0.5001  0.1840  0.4652
  377MPD2    H5 5699   0.843   0.121  12.767  1.5978 -0.8879 -1.4957
  377MPD2    N1 5700   1.065   0.522  12.403 -0.3926  0.0810  0.3822
  377MPD2    H7 5701   1.067   0.548  12.305  2.0713  0.6737  0.5862
  378TMC3    C1 5702   1.090   0.863  12.249 -0.7464  0.2795 -0.4813
  378TMC3    C2 5703   1.059   0.785  12.352  0.0082 -0.3012 -0.7500
  378TMC3    C3 5704   1.159   0.729  12.432  0.5283 -0.6013  0.1786
  378TMC3    C4 5705   1.221   0.898  12.228 -0.3198  0.4384  0.2339
  378TMC3    C5 5706   1.317   0.832  12.299 -0.0323  0.4330 -0.4031
  378TMC3    C6 5707   1.288   0.753  12.407 -0.3907  0.5297  0.7166
  378TMC3     C 5708   0.989   0.880  12.150 -0.7070 -0.9457  0.6729
  378TMC3     O 5709   0.888   0.814  12.167 -0.6358  0.2018  0.2844
  378TMC3     H 5710   0.958   0.753  12.371  0.2149  0.0373  0.8889
  378TMC3    H1 5711   1.236   0.987  12.169  1.8236  0.9043  1.5174
  378TMC3    H2 5712   1.358   0.691  12.462 -2.0958 -0.0803  2.1937
  378TMC3    C7 5713   1.447   0.810  12.234  0.2653 -0.0412  0.9461
  378TMC3    C8 5714   1.132   0.602  12.491 -0.3108 -0.0306  0.2499
  378TMC3    O1 5715   1.518   0.733  12.297 -0.4760 -0.3573  0.4070
  378TMC3    O2 5716   1.168   0.580  12.604  0.3872  0.2373 -0.2795
  379MPD2     C 5717   1.486   3.557  16.500 -0.7178 -0.1544 -0.7030
  379MPD2    C1 5718   1.595   3.545  16.415 -0.1473 -0.1482 -0.4810
  379MPD2    C2 5719   1.705   3.466  16.448 -0.3975 -0.3200  0.2626
  379MPD2    C3 5720   1.697   3.395  16.566 -1.1030 -0.0008 -0.3743
  379MPD2    C4 5721   1.584   3.399  16.641  0.1515 -0.5506 -0.1330
  379MPD2    C5 5722   1.485   3.486  16.619 -0.0517 -0.2298 -0.6848
  379MPD2     H 5723   1.802   3.470  16.400 -0.6483 -0.0458 -0.2154
  379MPD2    H1 5724   1.573   3.342  16.733 -0.3632 -1.4316 -0.7506
  379MPD2    H2 5725   1.407   3.624  16.468  0.2524  1.2367 -0.1930
  379MPD2    H3 5726   1.399   3.497  16.685  1.7243 -1.6160  1.8820
  379MPD2     N 5727   1.795   3.303  16.613 -0.0106 -0.0475 -0.0430
  379MPD2    H5 5728   1.776   3.249  16.697 -0.8568  1.1685  0.5391
  379MPD2    N1 5729   1.599   3.625  16.300  0.2709  0.1866 -0.3654
  379MPD2    H7 5730   1.516   3.680  16.282  1.1811  1.2496 -1.3849
  380TMC3    C1 5731   1.659   3.712  16.086  0.0991  0.0456  0.1010
  380TMC3    C2 5732   1.757   3.696  15.993 -0.1723 -0.7209  0.4627
  380TMC3    C3 5733   1.724   3.730  15.867 -0.4651 -0.3453 -0.3847
  380TMC3    C4 5734   1.532   3.750  16.063 -0.9214  0.0278  0.2210
  380TMC3    C5 5735   1.495   3.757  15.934 -0.1767  0.4312  0.6972
  380TMC3    C6 5736   1.590   3.747  15.835  0.5447  0.7504  0.5019
  380TMC3     C 5737   1.697   3.637  16.207 -0.0674 -0.2061 -0.7442
  380TMC3     O 5738   1.808   3.582  16.214  0.5135 -0.0782 -0.0026
  380TMC3     H 5739   1.859   3.676  16.024  0.7020  1.2391 -1.1038
  380TMC3    H1 5740   1.454   3.763  16.137  0.4229  3.6057  1.0555
  380TMC3    H2 5741   1.559   3.775  15.735  2.9921  0.2266 -0.4000
  380TMC3    C7 5742   1.370   3.816  15.893  0.1136  0.0778  0.2214
  380TMC3    C8 5743   1.818   3.716  15.756 -0.6424  0.1747 -0.0806
  380TMC3    O1 5744   1.309   3.889  15.968  0.1750 -0.2146  0.4317
  380TMC3    O2 5745   1.762   3.701  15.650  0.1316  0.2472 -0.1148
  381TMC3    C1 5746   0.925   0.661  15.791  0.8839 -0.4282  1.2695
  381TMC3    C2 5747   1.059   0.652  15.777 -0.1954  0.3401 -0.5176
  381TMC3    C3 5748   1.120   0.571  15.863 -0.6413  0.7924 -0.3421
  381TMC3    C4 5749   0.849   0.593  15.882  0.1370 -0.3896  0.7886
  381TMC3    C5 5750   0.909   0.496  15.953  0.4832 -0.2443 -0.5456
  381TMC3    C6 5751   1.045   0.478  15.937  0.7827  0.0157  0.0877
  381TMC3     C 5752   0.864   0.744  15.688 -0.2931 -0.3868  0.0368
  381TMC3     O 5753   0.930   0.755  15.582 -0.6572 -0.1453 -0.5858
  381TMC3     H 5754   1.102   0.722  15.706  1.2641 -0.5577 -0.5118
  381TMC3    H1 5755   0.742   0.608  15.889  0.2907  1.6677 -1.0435
  381TMC3    H2 5756   1.095   0.413  16.008  1.9249  3.3438  2.3385
  381TMC3    C7 5757   0.835   0.412  16.048  0.3159  0.3249  0.0476
  381TMC3    C8 5758   1.268   0.593  15.879  0.1653  0.5965  0.1119
  381TMC3    O1 5759   0.888   0.307  16.083  0.3008  0.0311  0.2735
  381TMC3    O2 5760   1.321   0.666  15.796 -0.6912 -0.3843  0.6833
  382MPD2     C 5761   1.017   2.041  16.995  0.6390  0.3441  0.3260
  382MPD2    C1 5762   0.916   2.112  17.050  0.2683 -0.4226  0.2217
  382MPD2    C2 5763   0.828   2.049  17.143  0.1133 -0.1848  0.1380
  382MPD2    C3 5764   0.830   1.915  17.163 -0.0097 -0.1755  0.5771
  382MPD2    C4 5765   0.930   1.843  17.097  0.2545 -0.4922 -0.0265
  382MPD2    C5 5766   1.018   1.906  17.018  0.1380 -0.1190 -0.2840
  382MPD2     H 5767   0.757   2.110  17.196  0.5327  1.1369 -0.8132
  382MPD2    H1 5768   0.951   1.738  17.108 -0.8774 -0.7219  0.0141
  382MPD2    H2 5769   1.095   2.075  16.927 -0.0016  1.8678  0.3464
  382MPD2    H3 5770   1.089   1.845  16.962 -0.5274  0.2319 -1.5212
  382MPD2     N 5771   0.741   1.851  17.246  0.0924 -0.0637 -0.0009
  382MPD2    H5 5772   0.734   1.750  17.254 -1.3319 -0.0921 -1.5191
  382MPD2    N1 5773   0.908   2.252  17.025  0.1684 -0.1134  0.5969
  382MPD2    H7 5774   0.829   2.304  17.061 -0.5035 -1.3688  0.9332
  383TMC3    C1 5775   0.531   1.829  17.362  0.5045  0.0788  0.2755
  383TMC3    C2 5776   0.514   1.702  17.312  0.2872  0.2658  0.3343
  383TMC3    C3 5777   0.402   1.638  17.351 -0.4536 -0.0119  0.6902
  383TMC3    C4 5778   0.429   1.884  17.439  0.3340 -0.6022  0.0670
  383TMC3    C5 5779   0.307   1.818  17.464  0.0071  0.4417  0.2125
  383TMC3    C6 5780   0.295   1.693  17.420  0.0921  0.3697  0.8629
  383TMC3     C 5781   0.651   1.914  17.331  0.0849 -0.7369  0.2071
  383TMC3     O 5782   0.647   2.023  17.382 -0.4816  0.3345  0.1234
  383TMC3     H 5783   0.592   1.658  17.251  0.3790 -2.4092  2.3724
  383TMC3    H1 5784   0.449   1.987  17.469 -1.4383 -0.1062 -0.4370
  383TMC3    H2 5785   0.208   1.630  17.438  1.5590 -2.2092 -0.9332
  383TMC3    C7 5786   0.201   1.880  17.537  0.7885  0.6410 -0.0042
  383TMC3    C8 5787   0.386   1.511  17.288  0.1603  0.0214 -0.1006
  383TMC3    O1 5788   0.089   1.825  17.528 -0.2186  0.3175  0.2132
  383TMC3    O2 5789   0.479   1.435  17.282  0.2478 -0.1772  0.5697
  384MPD2     C 5790   1.062   3.865  12.081  0.3542 -0.6391  0.1292
  384MPD2    C1 5791   1.046   3.738  12.134  0.8320 -0.3427  0.9961
  384MPD2    C2 5792   1.070   3.622  12.058 -0.4129  0.6321  0.1105
  384MPD2    C3 5793   1.098   3.624  11.919  0.0034 -0.0983  0.1081
  384MPD2    C4 5794   1.104   3.750  11.871 -0.1208  0.4327  0.6559
  384MPD2    C5 5795   1.082   3.864  11.945 -0.3186  0.1727 -0.2983
  384MPD2     H 5796   1.070   3.525  12.107 -1.6892  0.4017 -0.3441
  384MPD2    H1 5797   1.133   3.762  11.767 -1.2746  1.7416  0.4743
  384MPD2    H2 5798   1.052   3.961  12.132 -0.2328 -1.2791  1.2275
  384MPD2    H3 5799   1.085   3.957  11.889 -1.1892 -0.5242 -1.5155
  384MPD2     N 5800   1.121   3.509  11.843 -0.4513 -0.2968  0.1557
  384MPD2    H5 5801   1.169   3.525  11.755  0.4697  0.0021  0.7168
  384MPD2    N1 5802   1.056   3.723  12.276 -0.0959  0.0876  0.4321
  384MPD2    H7 5803   1.057   3.631  12.318 -0.0900  0.2040  0.6877
  385TMC3    C1 5804   1.197   3.296  11.806 -0.4349  0.7445  0.0053
  385TMC3    C2 5805   1.197   3.165  11.845 -0.1385  0.0637  0.7057
  385TMC3    C3 5806   1.315   3.102  11.852 -0.4262  0.2259 -0.0100
  385TMC3    C4 5807   1.321   3.354  11.775 -0.6032  0.2874 -0.0820
  385TMC3    C5 5808   1.436   3.292  11.817  0.4333 -0.6979 -0.2165
  385TMC3    C6 5809   1.434   3.163  11.834  0.0342  0.5752  0.5024
  385TMC3     C 5810   1.115   3.380  11.890 -0.2646  0.9971 -0.3057
  385TMC3     O 5811   1.055   3.330  11.985 -0.0878 -0.1152 -0.5326
  385TMC3     H 5812   1.107   3.121  11.888 -0.2050 -1.2688 -0.7905
  385TMC3    H1 5813   1.338   3.460  11.765 -2.2476  0.6189  0.7270
  385TMC3    H2 5814   1.523   3.104  11.856 -0.0035  0.7425  1.1109
  385TMC3    C7 5815   1.496   3.369  11.930 -0.3439  1.0451 -0.9121
  385TMC3    C8 5816   1.302   2.956  11.856 -0.3533 -0.1984 -0.8647
  385TMC3    O1 5817   1.455   3.485  11.948  0.0831 -0.6887 -0.1765
  385TMC3    O2 5818   1.191   2.905  11.877  0.5256  0.1914 -0.6280
  386TMC3    C1 5819   2.452   0.681  11.666  0.3890 -0.3019  0.0591
  386TMC3    C2 5820   2.395   0.705  11.542 -1.0078 -0.2126  0.3576
  386TMC3    C3 5821   2.256   0.709  11.537 -0.3594  0.0218 -0.3869
  386TMC3    C4 5822   2.374   0.669  11.775 -0.0836  0.2394 -0.0491
  386TMC3    C5 5823   2.239   0.681  11.770 -0.6026 -0.0584 -0.4478
  386TMC3    C6 5824   2.178   0.705  11.653 -0.5260 -0.1101  0.8815
  386TMC3     C 5825   2.594   0.662  11.679 -0.5867  1.0241 -0.2826
  386TMC3     O 5826   2.660   0.697  11.580  0.0469 -0.1024 -0.1777
  386TMC3     H 5827   2.461   0.718  11.457 -2.9795  0.0201 -1.1436
  386TMC3    H1 5828   2.413   0.653  11.875  0.9065 -0.4612 -0.5439
  386TMC3    H2 5829   2.071   0.691  11.643 -0.3581 -1.3716  0.7332
  386TMC3    C7 5830   2.171   0.729  11.886  0.1939  0.2631 -0.1379
  386TMC3    C8 5831   2.189   0.742  11.409  0.9144  0.5442 -0.5078
  386TMC3    O1 5832   2.212   0.692  11.999 -0.1486 -0.0128  0.5878
  386TMC3    O2 5833   2.082   0.801  11.422 -0.0176  0.0496 -0.2518
  387MPD2     C 5834   4.070   0.988   9.838 -0.0597 -0.0740  1.0768
  387MPD2    C1 5835   4.187   0.946   9.777 -0.2209  0.6288  0.4058
  387MPD2    C2 5836   4.203   0.813   9.733 -0.7463  0.4149  0.0913
  387MPD2    C3 5837   4.105   0.719   9.776 -0.5099 -1.2298  0.3254
  387MPD2    C4 5838   3.992   0.751   9.839 -0.4022  0.2967 -0.0641
  387MPD2    C5 5839   3.978   0.884   9.874  0.3629  0.1364 -0.0472
  387MPD2     H 5840   4.290   0.770   9.684  0.8661  0.7888  2.6548
  387MPD2    H1 5841   3.909   0.685   9.863 -0.7767  0.3202 -1.3236
  387MPD2    H2 5842   4.051   1.092   9.863 -0.3996  0.1642 -0.1825
  387MPD2    H3 5843   3.894   0.912   9.937 -1.1338  0.6140 -2.2580
  387MPD2     N 5844   4.130   0.582   9.750  0.0339  0.3558  0.0862
  387MPD2    H5 5845   4.221   0.568   9.707  0.6617 -0.6138  1.6823
  387MPD2    N1 5846   4.298   1.036   9.757  0.6703  0.2190 -0.5580
  387MPD2    H7 5847   4.378   0.993   9.713  0.6610  1.1642 -1.4917
  388TMC3    C1 5848   4.453   1.188   9.823 -0.4080 -0.3189  0.7807
  388TMC3    C2 5849   4.489   1.320   9.807 -0.0826 -0.2097  1.3086
  388TMC3    C3 5850   4.628   1.346   9.815  0.3958 -0.3646 -0.2330
  388TMC3    C4 5851   4.537   1.084   9.852  0.0755  0.1036 -0.1195
  388TMC3    C5 5852   4.666   1.116   9.880  0.6252 -0.1602 -0.7121
  388TMC3    C6 5853   4.715   1.245   9.853  0.2356  0.0498  0.0576
  388TMC3     C 5854   4.315   1.161   9.809 -0.5528  0.1896 -0.0724
  388TMC3     O 5855   4.238   1.238   9.863  0.7941  0.4219 -0.0778
  388TMC3     H 5856   4.419   1.396   9.773 -0.3876 -0.0290  2.3414
  388TMC3    H1 5857   4.507   0.981   9.868 -4.4654  1.3335 -0.6863
  388TMC3    H2 5858   0.078   1.277   9.863  0.8774 -1.4637 -1.7690
  388TMC3    C7 5859   0.020   1.016   9.925 -0.0417 -0.1091  0.4007
  388TMC3    C8 5860   4.674   1.482   9.813 -0.4509  0.0323 -0.8332
  388TMC3    O1 5861   0.130   1.018   9.872  0.4646 -0.0197 -0.4057
  388TMC3    O2 5862   4.592   1.562   9.844  0.0748  0.0602  0.8861
  389MPD2     C 5863   3.632   3.864  11.309 -0.3614 -0.0534 -0.1702
  389MPD2    C1 5864   3.542   3.807  11.223 -0.2440  0.2329 -0.0418
  389MPD2    C2 5865   3.433   3.738  11.277  0.1581 -0.0429 -0.1286
  389MPD2    C3 5866   3.416   3.726  11.410 -0.1191  0.9089  0.6003
  389MPD2    C4 5867   3.509   3.781  11.502 -0.4994  0.5993 -0.3693
  389MPD2    C5 5868   3.616   3.855  11.449  0.5026 -0.4447 -0.5786
  389MPD2     H 5869   3.364   3.699  11.203 -0.0982 -0.5974  0.4036
  389MPD2    H1 5870   3.500   3.763  11.608  2.3335  1.7659  0.0756
  389MPD2    H2 5871   3.716   3.924  11.275  0.5674 -2.1731 -1.6125
  389MPD2    H3 5872   3.689   3.907  11.510 -1.3288  0.1887  1.0844
  389MPD2     N 5873   3.317   3.644  11.472 -0.0088 -0.7765  0.2794
  389MPD2    H5 5874   3.322   3.652  11.573 -0.0413 -0.2301  0.2366
  389MPD2    N1 5875   3.565   3.833  11.085 -0.0493  0.0178 -0.0289
  389MPD2    H7 5876   3.643   3.895  11.068  0.2795 -0.5633 -0.6581
  390TMC3    C1 5877   3.107   3.531  11.498 -0.0241 -0.3390 -1.0104
  390TMC3    C2 5878   3.042   3.417  11.464 -0.0724  0.2409  0.5004
  390TMC3    C3 5879   2.939   3.375  11.542  0.8256  0.2530  0.0681
  390TMC3    C4 5880   3.077   3.612  11.605  0.3570 -0.1596 -0.2541
  390TMC3    C5 5881   2.978   3.561  11.685  0.5961 -0.4281 -0.7692
  390TMC3    C6 5882   2.908   3.443  11.653  0.3646  0.0560  0.4511
  390TMC3     C 5883   3.213   3.574  11.412 -0.5953  0.4118 -0.1826
  390TMC3     O 5884   3.210   3.528  11.297 -0.2736 -0.5307  0.5675
  390TMC3     H 5885   3.078   3.352  11.385 -3.4752  1.1853 -1.8431
  390TMC3    H1 5886   3.129   3.705  11.624 -0.0809 -0.0594  0.4571
  390TMC3    H2 5887   2.828   3.397  11.709  0.3313 -0.2287  0.1673
  390TMC3    C7 5888   2.930   3.650  11.789 -0.8402  0.4405 -0.8286
  390TMC3    C8 5889   2.876   3.245  11.513 -0.1463  0.3068  0.0462
  390TMC3    O1 5890   2.976   3.761  11.799 -0.1018 -0.4537 -0.1788
  390TMC3    O2 5891   2.940   3.163  11.448  0.9690  0.6911 -0.5686
  391MPD2     C 5892   3.364   0.646  11.057 -0.8918  0.0650 -0.7299
  391MPD2    C1 5893   3.446   0.728  10.985  0.1063 -0.0518  0.1337
  391MPD2    C2 5894   3.395   0.779  10.867 -0.6081 -0.0646  0.4981
  391MPD2    C3 5895   3.268   0.760  10.820  0.5708  0.6348  0.8103
  391MPD2    C4 5896   3.189   0.671  10.896  1.0763 -0.3017  0.3473
  391MPD2    C5 5897   3.239   0.612  11.007  0.2534 -0.1788 -1.0996
  391MPD2     H 5898   3.456   0.853  10.816  1.8554 -3.4537 -1.4416
  391MPD2    H1 5899   3.086   0.650  10.870  0.5884  2.2132  0.2043
  391MPD2    H2 5900   3.403   0.606  11.150 -0.3204  0.1135 -0.9499
  391MPD2    H3 5901   3.178   0.534  11.051 -0.0075  0.7385  0.1512
  391MPD2     N 5902   3.220   0.836  10.713  0.0349 -0.4564 -0.1690
  391MPD2    H5 5903   3.283   0.894  10.657 -1.9165  1.2881 -0.5747
  391MPD2    N1 5904   3.567   0.758  11.045 -0.5367 -0.4128  0.5346
  391MPD2    H7 5905   3.580   0.720  11.138  2.8215  0.0278  0.2295
  392TMC3    C1 5906   3.070   0.920  10.542  0.6112  0.3434 -0.1606
  392TMC3    C2 5907   2.969   0.900  10.455  0.7009  0.7662 -0.2898
  392TMC3    C3 5908   2.955   0.982  10.349  0.3691 -0.5148 -0.2279
  392TMC3    C4 5909   3.136   1.035  10.539  0.0388 -0.3968 -0.2783
  392TMC3    C5 5910   3.112   1.125  10.436 -0.4663 -0.3200 -0.2605
  392TMC3    C6 5911   3.014   1.103  10.338 -0.2878 -0.2094  0.7274
  392TMC3     C 5912   3.093   0.828  10.655 -0.1162  0.3082  0.4926
  392TMC3     O 5913   3.004   0.748  10.680  0.1247  0.0892 -0.0545
  392TMC3     H 5914   2.917   0.806  10.460 -0.5689  1.5805  1.8820
  392TMC3    H1 5915   3.212   1.063  10.611 -0.6493  0.9441 -0.0700
  392TMC3    H2 5916   2.981   1.182  10.270  1.4238 -1.3678 -1.4612
  392TMC3    C7 5917   3.195   1.239  10.437 -0.2127  0.7241 -0.0383
  392TMC3    C8 5918   2.895   0.933  10.220  0.4896  0.1293 -0.1383
  392TMC3    O1 5919   3.260   1.272  10.533 -0.0208  0.4119 -0.3170
  392TMC3    O2 5920   2.876   0.815  10.211  0.2223 -0.0644 -0.5771
  393TMC3    C1 5921   1.430   3.836  10.832 -0.5560  0.1065 -0.6193
  393TMC3    C2 5922   1.355   3.773  10.740  0.4762  0.0282  0.5875
  393TMC3    C3 5923   1.314   3.643  10.763 -0.5103  0.0908  0.1754
  393TMC3    C4 5924   1.478   3.764  10.936 -0.2411  0.3861 -0.1802
  393TMC3    C5 5925   1.417   3.644  10.971 -0.0146  0.1097  0.2471
  393TMC3    C6 5926   1.337   3.576  10.882 -0.1682 -0.8195  0.2521
  393TMC3     C 5927   1.491   3.962  10.794  0.3268 -0.7264  0.1630
  393TMC3     O 5928   1.508   3.987  10.672  0.0913  0.1902  0.0047
  393TMC3     H 5929   1.324   3.841  10.661  1.1016  1.0441  1.2170
  393TMC3    H1 5930   1.548   3.808  11.006 -0.1304 -1.6089  0.9610
  393TMC3    H2 5931   1.318   3.471  10.899  1.5016 -0.7690  2.4282
  393TMC3    C7 5932   1.500   3.543  11.049  0.4267 -0.0248 -0.4115
  393TMC3    C8 5933   1.214   3.597  10.673 -0.0817  0.0595  0.3605
  393TMC3    O1 5934   1.437   3.443  11.088 -0.2009 -0.6462 -0.0297
  393TMC3    O2 5935   1.199   3.663  10.568 -0.4951 -0.3962 -0.5315
  394TMC3    C1 5936   3.554   3.820  10.849  0.2447  0.2297  0.0841
  394TMC3    C2 5937   3.542   3.729  10.747  0.0438 -0.2567 -0.1222
  394TMC3    C3 5938   3.582   3.774  10.626 -0.6461  0.1801  0.3262
  394TMC3    C4 5939   3.596   3.955  10.834 -0.0593 -0.5510 -0.5627
  394TMC3    C5 5940   3.621   3.991  10.708 -0.6695  0.4271  0.7133
  394TMC3    C6 5941   3.620   3.906  10.599  0.2169  0.2087  1.1677
  394TMC3     C 5942   3.499   3.777  10.976 -0.5873  0.2919  0.3263
  394TMC3     O 5943   3.412   3.691  10.977  0.0544  0.2454  0.4188
  394TMC3     H 5944   3.531   3.623  10.767 -1.4936  0.3258  2.1197
  394TMC3    H1 5945   3.604   4.018  10.922 -2.3159 -0.9517 -0.0820
  394TMC3    H2 5946   3.645   3.943  10.500 -1.2806 -1.9976 -0.0359
  394TMC3    C7 5947   3.669   4.122  10.695 -0.2105 -0.2949 -0.3135
  394TMC3    C8 5948   3.559   3.676  10.520 -0.1030  1.3899 -0.0473
  394TMC3    O1 5949   3.626   4.174  10.592 -0.4182 -0.3170 -0.2036
  394TMC3    O2 5950   3.502   3.571  10.557  0.3903  0.5983 -0.5629
  395TMC3    C1 5951   4.102   0.800  14.578  0.6558 -0.2319 -0.1246
  395TMC3    C2 5952   3.969   0.808  14.539 -0.3709  0.7537  0.3746
  395TMC3    C3 5953   3.908   0.926  14.540 -0.2918 -0.4087  0.2395
  395TMC3    C4 5954   4.177   0.906  14.608 -0.1641  0.6789 -0.3082
  395TMC3    C5 5955   4.110   1.027  14.607  0.6272  0.6306  0.8314
  395TMC3    C6 5956   3.977   1.036  14.581  0.0288 -0.2055  0.0795
  395TMC3     C 5957   4.122   0.688  14.673  0.0105  1.2465  0.3168
  395TMC3     O 5958   4.237   0.670  14.707 -0.1581 -0.0696 -0.6548
  395TMC3     H 5959   3.924   0.710  14.527 -0.4944  0.9750 -0.9789
  395TMC3    H1 5960   4.282   0.901  14.635 -0.4483 -1.7846  0.3335
  395TMC3    H2 5961   3.944   1.140  14.583  1.6639  0.2936  0.6164
  395TMC3    C7 5962   4.180   1.155  14.613 -0.3169 -0.2742 -0.0597
  395TMC3    C8 5963   3.777   0.928  14.606  0.6501 -0.3867 -0.5832
  395TMC3    O1 5964   4.119   1.248  14.655 -0.5329 -0.1683 -0.3956
  395TMC3    O2 5965   3.753   1.020  14.682  0.4451 -0.2142  0.2460
  396MPD2     C 5966   3.740   1.839  17.168  0.2951  0.1111  0.4778
  396MPD2    C1 5967   3.845   1.927  17.158 -0.4776  0.4305 -0.6250
  396MPD2    C2 5968   3.842   2.035  17.078  1.1550 -0.5447 -1.2720
  396MPD2    C3 5969   3.734   2.046  16.986  0.4608 -0.7588  0.3728
  396MPD2    C4 5970   3.640   1.944  16.990 -0.3026 -0.1277 -0.4904
  396MPD2    C5 5971   3.636   1.849  17.082  0.4266 -0.6143 -1.0462
  396MPD2     H 5972   3.921   2.110  17.085  1.2315 -0.6998 -0.5148
  396MPD2    H1 5973   3.557   1.949  16.920 -1.0834  2.7787  0.6391
  396MPD2    H2 5974   3.732   1.760  17.242  1.6479 -0.5470 -0.0889
  396MPD2    H3 5975   3.553   1.779  17.085 -0.6139  0.7697  2.2750
  396MPD2     N 5976   3.733   2.163  16.907 -0.2257  0.3206 -0.4810
  396MPD2    H5 5977   3.803   2.232  16.933  0.1800  0.6539 -2.4544
  396MPD2    N1 5978   3.942   1.900  17.249 -0.2325  0.4930  0.1304
  396MPD2    H7 5979   3.917   1.834  17.322  1.2093 -0.8292 -0.5665
  397TMC3    C1 5980   4.148   1.873  17.336 -0.5072  1.2175 -0.4811
  397TMC3    C2 5981   4.255   1.817  17.265 -0.4099  0.2677 -0.6143
  397TMC3    C3 5982   4.258   1.680  17.248  0.1124  0.5651 -0.3952
  397TMC3    C4 5983   4.068   1.788  17.408 -0.3196 -0.9155 -0.1040
  397TMC3    C5 5984   4.091   1.649  17.404  0.3780 -1.0623  0.2505
  397TMC3    C6 5985   4.187   1.595  17.321  0.4501 -0.1740 -0.7815
  397TMC3     C 5986   4.065   1.953  17.245  0.3136 -0.4819  1.2479
  397TMC3     O 5987   4.123   2.010  17.152 -0.0152 -0.3982  0.0719
  397TMC3     H 5988   4.329   1.878  17.215  0.5387 -1.4682 -1.3401
  397TMC3    H1 5989   3.989   1.811  17.479  0.8143  1.9556  0.2245
  397TMC3    H2 5990   4.188   1.489  17.301  1.2994  0.0984 -2.1999
  397TMC3    C7 5991   3.992   1.556  17.457 -0.4096  0.1397 -0.1330
  397TMC3    C8 5992   4.388   1.619  17.226 -0.0012 -0.0362 -0.3079
  397TMC3    O1 5993   3.953   1.463  17.389  0.6107 -0.2604  0.1300
  397TMC3    O2 5994   4.411   1.517  17.290  0.1185 -0.3873 -0.1617
  398MPD2     C 5995   2.013   3.720   0.294  0.5954 -0.0979  0.4942
  398MPD2    C1 5996   2.084   3.623   0.229 -0.0366 -0.3507  0.5227
  398MPD2    C2 5997   2.192   3.657   0.152 -0.3236  0.2893 -0.0572
  398MPD2    C3 5998   2.237   3.788   0.153 -0.0533 -0.5546  0.8651
  398MPD2    C4 5999   2.172   3.882   0.227 -0.3268 -0.3784 -0.0302
  398MPD2    C5 6000   2.045   3.856   0.276  0.5543 -0.5819  0.7753
  398MPD2     H 6001   2.253   3.587   0.096  0.9862  0.1730  1.4860
  398MPD2    H1 6002   2.208   3.983   0.244 -1.2513 -0.1913  0.8491
  398MPD2    H2 6003   1.934   3.696   0.365 -1.2742 -2.1475 -2.2963
  398MPD2    H3 6004   1.988   3.929   0.333  0.9248  0.6570 -0.4336
  398MPD2     N 6005   2.360   3.816   0.082 -0.0840  0.4835 -0.6737
  398MPD2    H5 6006   2.397   3.739   0.028  1.5716  0.5367  0.3765
  398MPD2    N1 6007   2.049   3.483   0.244 -0.3730  0.1861 -0.0755
  398MPD2    H7 6008   2.090   3.409   0.187 -0.9364  0.5064 -0.9098
  399TMC3    C1 6009   1.926   3.288   0.300  1.2491  0.3775  0.0092
  399TMC3    C2 6010   2.044   3.215   0.295 -0.1747  0.0823  0.4444
  399TMC3    C3 6011   2.031   3.082   0.331 -0.1494 -0.4509  0.1853
  399TMC3    C4 6012   1.802   3.235   0.312 -0.6674 -0.4667 -0.1205
  399TMC3    C5 6013   1.800   3.097   0.323  0.1158  0.3199  0.1623
  399TMC3    C6 6014   1.910   3.026   0.356 -0.1728  0.3062 -0.5729
  399TMC3     C 6015   1.942   3.434   0.319 -0.4618 -0.4611  0.1122
  399TMC3     O 6016   1.874   3.486   0.405 -0.1348  0.1512 -0.6189
  399TMC3     H 6017   2.143   3.253   0.273 -0.5077 -0.3992 -1.8047
  399TMC3    H1 6018   1.717   3.300   0.298  1.2342  1.9778 -0.2991
  399TMC3    H2 6019   1.901   2.920   0.374  0.0214  0.1417 -1.4169
  399TMC3    C7 6020   1.681   3.026   0.289  0.5840  0.4826  0.1738
  399TMC3    C8 6021   2.148   2.997   0.354 -0.3292 -0.2191  0.8140
  399TMC3    O1 6022   1.671   2.909   0.328  0.2387  0.2124 -0.1804
  399TMC3    O2 6023   2.128   2.875   0.334  0.1656  0.1260  0.8672
  400TMC3    C1 6024   0.260   1.080  16.581  0.1156 -0.5737 -0.2030
  400TMC3    C2 6025   0.121   1.103  16.573  0.0562  0.4321  0.3595
  400TMC3    C3 6026   0.072   1.219  16.632 -0.4459 -0.6900  0.9095
  400TMC3    C4 6027   0.344   1.184  16.610 -0.5451  0.1048  0.7081
  400TMC3    C5 6028   0.292   1.299  16.664  0.1285 -0.3710  0.1623
  400TMC3    C6 6029   0.158   1.324  16.670  1.0154 -0.2210 -0.1038
  400TMC3     C 6030   0.287   0.963  16.652 -0.7675 -0.3077  0.4664
  400TMC3     O 6031   0.207   0.871  16.633  0.3000 -0.2559  0.1321
  400TMC3     H 6032   0.056   1.022  16.545 -1.7578  1.4124  1.7030
  400TMC3    H1 6033   0.450   1.161  16.618 -0.4526 -0.1989 -1.4056
  400TMC3    H2 6034   0.126   1.414  16.721 -1.9492 -0.2532 -1.9337
  400TMC3    C7 6035   0.394   1.393  16.707  0.0828 -0.3322 -0.4645
  400TMC3    C8 6036   4.673   1.259  16.600 -0.4014 -0.2319  0.6795
  400TMC3    O1 6037   0.506   1.370  16.667  0.3467  0.4176  0.1900
  400TMC3    O2 6038   4.656   1.381  16.581 -0.5195  0.1353  0.0148
  401MPD2     C 6039   3.838   0.898   1.161 -0.3568 -0.0417  0.2435
  401MPD2    C1 6040   3.941   0.803   1.164  0.3037 -0.3190  0.8779
  401MPD2    C2 6041   3.917   0.692   1.082 -0.5819 -0.0590  0.1206
  401MPD2    C3 6042   3.796   0.663   1.014 -0.7003  0.2856 -0.1343
  401MPD2    C4 6043   3.693   0.754   1.023  0.5792 -0.1507 -0.1745
  401MPD2    C5 6044   3.725   0.871   1.087  0.7387  0.0293 -0.0261
  401MPD2     H 6045   4.001   0.625   1.067 -0.7381 -0.2585  0.1496
  401MPD2    H1 6046   3.592   0.743   0.984  0.4756  0.5341 -0.0882
  401MPD2    H2 6047   3.832   0.994   1.210  2.5980  1.6673 -2.7379
  401MPD2    H3 6048   3.647   0.946   1.086  1.8924  1.2343  0.3622
  401MPD2     N 6049   3.787   0.537   0.949  0.0208  0.6990 -0.3206
  401MPD2    H5 6050   3.866   0.473   0.955  0.6046  1.1407 -3.1231
  401MPD2    N1 6051   4.066   0.818   1.236 -0.5301  0.2972  0.3005
  401MPD2    H7 6052   4.139   0.750   1.222  0.2251  1.0417  0.6229
  402TMC3    C1 6053   3.683   0.373   0.843 -0.4024  0.2355 -1.1679
  402TMC3    C2 6054   3.685   0.304   0.961  0.7343  0.3414 -0.6074
  402TMC3    C3 6055   3.672   0.168   0.948 -0.1268 -0.1968  0.2006
  402TMC3    C4 6056   3.666   0.326   0.718 -0.1488 -0.1536 -0.4846
  402TMC3    C5 6057   3.651   0.192   0.714 -0.1102 -0.8275 -0.9887
  402TMC3    C6 6058   3.662   0.114   0.820 -0.1577 -0.0110  0.0209
  402TMC3     C 6059   3.696   0.512   0.852 -0.1750 -0.1929 -0.1295
  402TMC3     O 6060   3.617   0.589   0.795 -0.1092  0.0150 -0.6095
  402TMC3     H 6061   3.705   0.342   1.060  0.7379  1.8209 -1.1820
  402TMC3    H1 6062   3.690   0.385   0.630  0.6836  1.8052  1.0569
  402TMC3    H2 6063   3.643   0.008   0.807 -0.8843 -0.1683  2.2543
  402TMC3    C7 6064   3.683   0.118   0.593  0.4828 -0.7993 -0.0394
  402TMC3    C8 6065   3.763   0.090   1.021 -0.4830  0.2374 -0.4699
  402TMC3    O1 6066   3.628   0.148   0.484 -0.2395  0.5467 -0.5271
  402TMC3    O2 6067   3.837   0.022   0.959 -0.7034 -0.6040  0.7120
  403MPD2     C 6068   1.494   3.374  12.931  0.2083  0.1285  0.5878
  403MPD2    C1 6069   1.470   3.276  13.026 -0.6637 -0.4009  0.3053
  403MPD2    C2 6070   1.551   3.273  13.141 -0.2935 -0.1799  0.1769
  403MPD2    C3 6071   1.629   3.380  13.172 -0.5169 -0.5185  0.5023
  403MPD2    C4 6072   1.640   3.483  13.085 -0.9703 -0.1623 -0.0374
  403MPD2    C5 6073   1.573   3.479  12.966 -0.0701  0.7380  0.2605
  403MPD2     H 6074   1.545   3.188  13.208 -3.6513  0.2087  0.3744
  403MPD2    H1 6075   1.704   3.569  13.101  0.1122 -1.1198  0.7392
  403MPD2    H2 6076   1.450   3.356  12.834 -0.1057  1.1637  0.5456
  403MPD2    H3 6077   1.577   3.561  12.896 -0.4509  0.3507 -0.2078
  403MPD2     N 6078   1.699   3.378  13.299  0.2987 -0.0253 -0.3950
  403MPD2    H5 6079   1.699   3.291  13.351  0.3374  0.7001  0.8087
  403MPD2    N1 6080   1.363   3.184  13.003  0.4388  0.2174 -0.9005
  403MPD2    H7 6081   1.312   3.201  12.916  1.3482  0.1223 -1.4541
  404TMC3    C1 6082   1.196   3.022  13.046  0.0693  0.3336 -0.2485
  404TMC3    C2 6083   1.138   2.945  13.143 -0.0995  0.0637 -0.2445
  404TMC3    C3 6084   1.036   2.863  13.105  0.3377 -0.3181 -0.8057
  404TMC3    C4 6085   1.168   3.021  12.909  0.3611  0.0736 -0.1547
  404TMC3    C5 6086   1.075   2.924  12.878  0.3004 -1.1904 -0.3563
  404TMC3    C6 6087   1.016   2.840  12.974  0.0894  0.0497 -0.2079
  404TMC3     C 6088   1.315   3.095  13.097  0.4460 -0.7473  0.6241
  404TMC3     O 6089   1.344   3.079  13.213  0.3677 -0.4777  0.1627
  404TMC3     H 6090   1.170   2.960  13.246 -1.9726 -0.6121  0.4422
  404TMC3    H1 6091   1.214   3.083  12.832  2.1789  0.5755  1.3469
  404TMC3    H2 6092   0.949   2.759  12.946 -0.6903  0.3479  0.7750
  404TMC3    C7 6093   1.027   2.937  12.737  0.0059  0.6687  0.3269
  404TMC3    C8 6094   1.011   2.758  13.208  0.4057  0.8005  0.4973
  404TMC3    O1 6095   1.059   3.039  12.683 -0.2271 -0.7698  0.1418
  404TMC3    O2 6096   1.034   2.639  13.177  0.7422  0.8449 -0.2857
  405MPD2     C 6097   2.211   3.821  14.710 -0.8353  0.5888 -0.4321
  405MPD2    C1 6098   2.199   3.703  14.639  0.1308 -0.0080 -0.6500
  405MPD2    C2 6099   2.117   3.703  14.527  0.1914  0.3402 -0.6110
  405MPD2    C3 6100   2.052   3.812  14.474  0.5551 -0.1750  0.5591
  405MPD2    C4 6101   2.067   3.926  14.546 -0.1536 -0.1465  0.4263
  405MPD2    C5 6102   2.147   3.929  14.661  0.5580  0.2885  0.0805
  405MPD2     H 6103   2.101   3.607  14.479 -0.8947 -0.3428  1.0871
  405MPD2    H1 6104   2.025   4.022  14.519  0.0835  0.1810  1.2113
  405MPD2    H2 6105   2.274   3.835  14.797  2.1488 -2.4470 -2.1159
  405MPD2    H3 6106   2.158   4.024  14.712 -0.4594 -0.9025  2.5252
  405MPD2     N 6107   1.964   3.805  14.364 -0.1924  0.6119 -0.0541
  405MPD2    H5 6108   1.959   3.714  14.319 -1.0970  1.7586 -2.2953
  405MPD2    N1 6109   2.250   3.579  14.687 -0.2363 -1.0242  0.6866
  405MPD2    H7 6110   2.294   3.583  14.779 -2.9902  1.2186  1.9000
  406TMC3    C1 6111   1.604   3.812  14.092 -0.5467 -0.1928  0.3189
  406TMC3    C2 6112   1.647   3.700  14.025 -0.2218  0.1230  0.0737
  406TMC3    C3 6113   1.771   3.663  14.047  0.4916  0.4376 -0.6042
  406TMC3    C4 6114   1.680   3.892  14.173  0.6529 -0.3619 -0.0167
  406TMC3    C5 6115   1.798   3.841  14.202  0.6704  0.8563  0.3531
  406TMC3    C6 6116   1.846   3.728  14.136  0.2323 -0.4283 -0.8620
  406TMC3     C 6117   1.457   3.835  14.077 -0.2276  0.5049 -0.1943
  406TMC3     O 6118   1.405   3.801  13.970  0.6941  0.2790  0.4673
  406TMC3     H 6119   1.589   3.643  13.954 -1.3258  0.4827  0.6856
  406TMC3    H1 6120   1.654   3.991  14.208  0.2334 -1.0927  1.7729
  406TMC3    H2 6121   1.951   3.705  14.151  0.3901  1.6581  1.2374
  406TMC3    C7 6122   1.880   3.898  14.310  0.3479  0.3078  0.2238
  406TMC3    C8 6123   1.810   3.529  14.024 -0.0243  0.0093 -0.5180
  406TMC3    O1 6124   1.841   4.007  14.352 -0.3408  0.3499 -0.3992
  406TMC3    O2 6125   1.752   3.473  13.930 -0.0530  0.1399  0.3177
  407MPD2     C 6126   3.446   0.941  10.037  0.1978 -0.6707 -0.0861
  407MPD2    C1 6127   3.571   0.985  10.000  0.3532 -0.2632  0.3978
  407MPD2    C2 6128   3.654   1.045  10.092  0.2399  0.2494  0.4471
  407MPD2    C3 6129   3.604   1.087  10.207 -0.3882  0.0637  0.6319
  407MPD2    C4 6130   3.472   1.066  10.223  0.3994 -0.2003 -0.2007
  407MPD2    C5 6131   3.392   0.990  10.146 -0.2254 -0.3810 -0.1826
  407MPD2     H 6132   3.759   1.057  10.064  0.1515  0.8810  0.3922
  407MPD2    H1 6133   3.425   1.114  10.308  0.1729 -1.8123  0.5867
  407MPD2    H2 6134   3.381   0.875   9.982 -2.7804  1.2580  1.1307
  407MPD2    H3 6135   3.289   0.972  10.176 -0.3237  1.7411  0.7489
  407MPD2     N 6136   3.669   1.169  10.293  0.8127  0.2777  0.0988
  407MPD2    H5 6137   3.607   1.224  10.351  1.2218 -0.9275  1.6822
  407MPD2    N1 6138   3.625   0.953   9.867 -0.6055 -0.2786 -0.0527
  407MPD2    H7 6139   3.716   0.996   9.853 -1.6380  0.7785 -3.5239
  408TMC3    C1 6140   3.672   0.846   9.665 -0.2628  0.1887  0.1235
  408TMC3    C2 6141   3.676   0.724   9.606  0.0968 -0.5174  0.2655
  408TMC3    C3 6142   3.774   0.701   9.509  0.0776 -0.5423  0.6913
  408TMC3    C4 6143   3.756   0.948   9.620  0.1636 -0.6665  0.3260
  408TMC3    C5 6144   3.850   0.924   9.523  0.0516  0.2022  0.2376
  408TMC3    C6 6145   3.859   0.799   9.468  0.4646 -0.4447 -0.0636
  408TMC3     C 6146   3.585   0.858   9.782 -0.0029 -0.0491 -0.3779
  408TMC3     O 6147   3.487   0.784   9.795 -0.1547 -0.3043  0.2609
  408TMC3     H 6148   3.625   0.637   9.644  0.5898 -1.4008 -1.1009
  408TMC3    H1 6149   3.738   1.050   9.651 -0.6285 -0.7875  0.2680
  408TMC3    H2 6150   3.917   0.772   9.380 -0.4487 -2.0625 -0.1707
  408TMC3    C7 6151   3.960   1.014   9.494  0.4435  0.4937  0.0500
  408TMC3    C8 6152   3.811   0.559   9.487  0.1584 -1.1494 -0.2042
  408TMC3    O1 6153   4.034   0.970   9.405 -0.7187  0.9394  0.0570
  408TMC3    O2 6154   3.729   0.472   9.502  0.2346  0.4165 -0.0629
  409MPD2     C 6155   3.762   0.843  17.045  0.1415 -0.3265 -0.7167
  409MPD2    C1 6156   3.891   0.849  17.100 -0.3808  0.1981 -0.4206
  409MPD2    C2 6157   3.978   0.944  17.048  0.2538  0.6318 -0.9158
  409MPD2    C3 6158   3.943   1.032  16.943  0.0265  0.3500  0.8561
  409MPD2    C4 6159   3.819   1.012  16.880  0.2737 -0.1051  0.0680
  409MPD2    C5 6160   3.733   0.921  16.929 -0.2897 -0.8985  0.0478
  409MPD2     H 6161   4.074   0.957  17.097  0.6538  3.0755 -2.3727
  409MPD2    H1 6162   3.802   1.077  16.795  1.9170  0.3884  0.1230
  409MPD2    H2 6163   3.685   0.775  17.079  1.4866 -1.9564 -0.9146
  409MPD2    H3 6164   3.637   0.911  16.879 -0.9984  0.8632  1.0669
  409MPD2     N 6165   4.035   1.124  16.891 -0.5093 -0.2238 -0.3923
  409MPD2    H5 6166   3.999   1.184  16.817 -0.2162 -0.4860 -0.7468
  409MPD2    N1 6167   3.946   0.759  17.191 -0.2895 -0.5061  0.1858
  409MPD2    H7 6168   4.039   0.773  17.230 -1.0078 -0.6866  1.9502
  410TMC3    C1 6169   4.231   1.265  16.880 -0.1493  0.5677 -0.1492
  410TMC3    C2 6170   4.361   1.291  16.922 -0.3981  0.3164  0.0046
  410TMC3    C3 6171   4.433   1.398  16.873  0.4584 -0.7547 -0.2392
  410TMC3    C4 6172   4.184   1.334  16.773 -0.0223  0.0647  0.1119
  410TMC3    C5 6173   4.261   1.430  16.714 -0.1465  0.4760 -0.4941
  410TMC3    C6 6174   4.388   1.473  16.766 -0.5322 -0.5236 -0.4941
  410TMC3     C 6175   4.171   1.138  16.919  0.5663  0.5995  0.0264
  410TMC3     O 6176   4.247   1.048  16.958 -0.1243  0.4188  0.2412
  410TMC3     H 6177   4.406   1.225  16.996  0.1966 -0.4293 -1.0290
  410TMC3    H1 6178   4.082   1.316  16.741 -0.6235 -0.1395  2.1940
  410TMC3    H2 6179   4.452   1.551  16.726 -0.3713  0.2234  1.2252
  410TMC3    C7 6180   4.191   1.516  16.614  0.1875 -0.7010  0.1413
  410TMC3    C8 6181   4.572   1.418  16.919  0.3355  0.0064 -0.2700
  410TMC3    O1 6182   4.074   1.486  16.582  0.0870 -0.0351  0.0120
  410TMC3    O2 6183   4.629   1.526  16.899  0.3275  0.6736  0.0592
  411MPD2     C 6184   4.285   1.768  14.510 -0.1078  0.2462 -0.6431
  411MPD2    C1 6185   4.224   1.812  14.625 -0.4295 -0.2629  0.8943
  411MPD2    C2 6186   4.100   1.753  14.657 -0.1166 -0.1996  1.0426
  411MPD2    C3 6187   4.053   1.640  14.598 -0.2544  0.2136  0.4016
  411MPD2    C4 6188   4.127   1.587  14.496 -0.1316 -0.7267  0.7093
  411MPD2    C5 6189   4.239   1.652  14.454  0.2629 -0.3467 -0.9126
  411MPD2     H 6190   4.039   1.797  14.735 -0.5719  0.2527  0.4297
  411MPD2    H1 6191   4.094   1.497  14.446 -0.7481 -0.1162  0.0350
  411MPD2    H2 6192   4.372   1.820  14.474  1.6772 -2.3696 -0.1158
  411MPD2    H3 6193   4.289   1.621  14.363  1.7563 -0.1003 -0.1741
  411MPD2     N 6194   3.952   1.559  14.646  0.3569  0.3361 -0.1162
  411MPD2    H5 6195   3.922   1.488  14.581  0.1296 -0.5306  0.9266
  411MPD2    N1 6196   4.273   1.933  14.684  0.3745  0.0015 -0.0685
  411MPD2    H7 6197   4.355   1.966  14.634 -0.1868 -0.2806 -1.1764
  412TMC3    C1 6198   3.765   1.490  14.772  0.1778  0.2529 -0.0982
  412TMC3    C2 6199   3.646   1.547  14.770  0.2207  0.3152  0.6311
  412TMC3    C3 6200   3.549   1.506  14.677 -0.3967  0.0124  1.2525
  412TMC3    C4 6201   3.787   1.379  14.701 -0.1564 -0.2815  0.4816
  412TMC3    C5 6202   3.688   1.332  14.617  0.5663 -0.4312  0.3040
  412TMC3    C6 6203   3.567   1.398  14.597  0.0208  0.4493  0.0870
  412TMC3     C 6204   3.867   1.597  14.749  0.3051 -0.6680  0.1552
  412TMC3     O 6205   3.873   1.685  14.838  0.4386 -0.0073  0.0893
  412TMC3     H 6206   3.627   1.644  14.815 -0.0909  0.8033 -0.5489
  412TMC3    H1 6207   3.876   1.317  14.709  0.0690  0.1125  1.0320
  412TMC3    H2 6208   3.499   1.360  14.522  3.2595 -1.5794 -1.8396
  412TMC3    C7 6209   3.750   1.324  14.488 -0.3807  0.2683 -0.8374
  412TMC3    C8 6210   3.503   1.619  14.608 -0.0535 -0.6025  0.0199
  412TMC3    O1 6211   3.839   1.400  14.465  0.2099  0.0705  0.1629
  412TMC3    O2 6212   3.386   1.645  14.611  0.0096  0.1756  0.0240
  413MPD2     C 6213   1.289   0.613  15.125 -0.4421 -0.2741 -0.1295
  413MPD2    C1 6214   1.207   0.538  15.042 -0.5379 -1.3220  0.3760
  413MPD2    C2 6215   1.270   0.436  14.967  0.4929  0.0157  0.2602
  413MPD2    C3 6216   1.403   0.401  14.976 -0.3822 -0.7039 -0.0106
  413MPD2    C4 6217   1.479   0.473  15.073 -0.5822  0.8616 -0.2508
  413MPD2    C5 6218   1.424   0.579  15.135  0.3789 -0.6021  0.1508
  413MPD2     H 6219   1.220   0.365  14.902  1.0961  0.1143 -0.3161
  413MPD2    H1 6220   1.586   0.454  15.082 -0.8202  0.3656  1.5420
  413MPD2    H2 6221   1.257   0.703  15.177 -0.6688 -0.6388  0.3571
  413MPD2    H3 6222   1.479   0.632  15.213  1.5250 -1.0672 -0.3489
  413MPD2     N 6223   1.446   0.287  14.900  0.8139 -0.0759  0.5643
  413MPD2    H5 6224   1.374   0.246  14.841  1.7966  0.6759 -1.1570
  413MPD2    N1 6225   1.065   0.554  15.051  0.5896 -0.0642 -0.0816
  413MPD2    H7 6226   1.023   0.618  15.117  1.0903 -1.7329  1.8637
  414TMC3    C1 6227   1.594   0.110  14.822  0.1931 -0.4564  0.2149
  414TMC3    C2 6228   1.673   0.004  14.877 -0.4247  0.0463  0.6460
  414TMC3    C3 6229   1.669   4.623  14.808 -0.3650  0.2789  0.1818
  414TMC3    C4 6230   1.522   0.102  14.708  0.2177  0.1420  0.1580
  414TMC3    C5 6231   1.524   4.715  14.647 -0.4675 -0.7351  0.1107
  414TMC3    C6 6232   1.587   4.607  14.702  0.1640  0.2742 -0.1797
  414TMC3     C 6233   1.576   0.236  14.905 -0.4915 -0.1873  0.3826
  414TMC3     O 6234   1.667   0.261  14.983  0.0757 -0.2855  0.2808
  414TMC3     H 6235   1.729   0.011  14.969 -1.6867 -2.1194  1.5948
  414TMC3    H1 6236   1.480   0.188  14.657  0.9763  0.6833  0.4504
  414TMC3    H2 6237   1.576   4.509  14.655  1.2645  0.0358  0.0429
  414TMC3    C7 6238   1.451   4.708  14.515 -0.7375 -0.0055  0.5729
  414TMC3    C8 6239   1.757   4.516  14.852 -0.0174  0.2262 -0.7965
  414TMC3    O1 6240   1.333   4.739  14.515  0.0421  0.2681  0.2008
  414TMC3    O2 6241   1.722   4.400  14.820 -0.3726 -0.0399  0.1379
  415TMC3    C1 6242   1.252   3.432  10.332  0.7058 -0.5838 -0.3034
  415TMC3    C2 6243   1.263   3.558  10.280  0.1270 -0.1475 -0.0817
  415TMC3    C3 6244   1.175   3.581  10.176  0.0042 -0.1773  0.1481
  415TMC3    C4 6245   1.169   3.338  10.283  0.1103 -0.0893 -0.2036
  415TMC3    C5 6246   1.074   3.372  10.188 -0.2214 -0.1657  0.7835
  415TMC3    C6 6247   1.067   3.499  10.139  0.0456 -0.1419  0.1272
  415TMC3     C 6248   1.348   3.386  10.432 -0.1980  0.0687  0.5771
  415TMC3     O 6249   1.316   3.278  10.486 -0.3392  0.7348 -0.0417
  415TMC3     H 6250   1.309   3.638  10.337  0.1792 -0.4669  0.3294
  415TMC3    H1 6251   1.166   3.237  10.322  1.5051 -0.7360 -1.7523
  415TMC3    H2 6252   0.983   3.527  10.076 -0.7641 -0.1400  1.1970
  415TMC3    C7 6253   0.986   3.271  10.122  0.1976 -0.5093 -0.0381
  415TMC3    C8 6254   1.176   3.718  10.117 -0.1088 -0.3053 -0.0981
  415TMC3    O1 6255   0.918   3.299  10.024 -0.2549 -0.3685 -0.3140
  415TMC3    O2 6256   1.072   3.747  10.052 -0.3629  0.0147  0.2931
  416MPD2     C 6257   3.383   1.630  11.176  0.5503 -0.0720 -0.2261
  416MPD2    C1 6258   3.323   1.558  11.279 -0.5983 -0.3693  0.8429
  416MPD2    C2 6259   3.300   1.423  11.268 -0.6645  0.0483 -0.0580
  416MPD2    C3 6260   3.330   1.357  11.155 -0.3796 -0.7867 -0.6382
  416MPD2    C4 6261   3.385   1.428  11.048  0.2116  0.0510 -0.0394
  416MPD2    C5 6262   3.412   1.564  11.058 -0.8071 -0.7533  0.5510
  416MPD2     H 6263   3.248   1.364  11.343 -1.3795 -0.0082 -0.5889
  416MPD2    H1 6264   3.431   1.373  10.967 -0.7721  2.9104 -2.5355
  416MPD2    H2 6265   3.403   1.736  11.183  1.8071 -0.2355 -1.3803
  416MPD2    H3 6266   3.476   1.615  10.987 -0.4459 -1.5550  0.2977
  416MPD2     N 6267   3.319   1.218  11.157 -0.3697  0.1324  0.0286
  416MPD2    H5 6268   3.261   1.180  11.230  0.2310 -3.5120 -1.3949
  416MPD2    N1 6269   3.273   1.641  11.382  0.3332 -0.4989  0.2569
  416MPD2    H7 6270   3.268   1.738  11.351 -0.5148 -0.2203  1.2527
  417TMC3    C1 6271   3.158   1.684  11.589  0.7269  0.2858  0.1545
  417TMC3    C2 6272   3.137   1.640  11.714 -0.3539 -0.0968  0.9132
  417TMC3    C3 6273   3.017   1.667  11.780  0.1025  0.1707  0.3287
  417TMC3    C4 6274   3.071   1.761  11.518  0.0952 -0.6270 -0.2210
  417TMC3    C5 6275   2.949   1.780  11.578  0.2930 -0.5352 -0.5719
  417TMC3    C6 6276   2.924   1.738  11.707  0.1981  0.2203  0.3836
  417TMC3     C 6277   3.241   1.599  11.511 -0.0654 -0.8236  0.2781
  417TMC3     O 6278   3.277   1.494  11.563  0.1824 -0.2519 -0.4240
  417TMC3     H 6279   3.206   1.570  11.760 -0.4626 -0.5088  0.4493
  417TMC3    H1 6280   3.086   1.776  11.412 -0.4873  0.9090 -0.0863
  417TMC3    H2 6281   2.844   1.784  11.764  0.7510  0.6264  0.8274
  417TMC3    C7 6282   2.849   1.841  11.499  0.1554  0.4661 -0.2133
  417TMC3    C8 6283   3.018   1.677  11.924  0.9539  0.2948  0.3411
  417TMC3    O1 6284   2.887   1.912  11.409  0.4227 -0.2664 -0.3214
  417TMC3    O2 6285   2.914   1.685  11.983 -0.1426 -0.2502 -0.2151
  418TMC3    C1 6286   2.640   3.762  17.634  0.1994 -0.1209  0.2886
  418TMC3    C2 6287   2.544   3.847  17.666  0.0510 -0.2694  1.1624
  418TMC3    C3 6288   2.559   3.924   0.023  0.7548 -0.9987 -0.8025
  418TMC3    C4 6289   2.757   3.754  17.702  0.2039 -0.0522 -0.2620
  418TMC3    C5 6290   2.768   3.828   0.065  0.5590  0.1360  0.3224
  418TMC3    C6 6291   2.666   3.915   0.101  0.1943  1.3316  0.3472
  418TMC3     C 6292   2.630   3.685  17.512  0.1645 -0.1693 -0.4177
  418TMC3     O 6293   2.541   3.725  17.433 -0.5810  0.5254  0.2372
  418TMC3     H 6294   2.461   3.862  17.598 -1.4339 -0.9732  2.8228
  418TMC3    H1 6295   2.841   3.694  17.669  0.6094  0.4769 -0.1877
  418TMC3    H2 6296   2.661   3.978   0.189  2.0742  1.6348  0.2520
  418TMC3    C7 6297   2.848   3.770   0.174  0.8397  1.3645 -0.5522
  418TMC3    C8 6298   2.437   3.928   0.103 -0.1101  0.1277 -0.2099
  418TMC3    O1 6299   2.871   3.650   0.164  0.5527  0.1199 -0.7742
  418TMC3    O2 6300   2.430   4.015   0.189 -0.3119 -0.2023  0.0902
  419MPD2     C 6301   0.864   1.206  12.117 -0.3364  0.0215 -0.0318
  419MPD2    C1 6302   0.732   1.171  12.130 -0.1028  0.2015 -0.4115
  419MPD2    C2 6303   0.677   1.136  12.255 -0.3223  0.4720 -0.5687
  419MPD2    C3 6304   0.769   1.127  12.364 -0.0379  0.4777  0.5441
  419MPD2    C4 6305   0.901   1.152  12.350  0.5853  0.7506 -0.5889
  419MPD2    C5 6306   0.947   1.190  12.226  0.0648  0.0634 -1.1107
  419MPD2     H 6307   0.572   1.112  12.264 -0.0281 -0.9074 -0.7531
  419MPD2    H1 6308   0.956   1.138  12.442 -0.7443  0.7912  0.2233
  419MPD2    H2 6309   0.903   1.239  12.022 -2.0519  0.1591 -0.6906
  419MPD2    H3 6310   1.053   1.209  12.218 -0.0826  0.8811 -1.0815
  419MPD2     N 6311   0.712   1.083  12.489  0.7879 -0.1279 -0.3634
  419MPD2    H5 6312   0.612   1.098  12.480  0.8064  0.0304 -0.3041
  419MPD2    N1 6313   0.655   1.191  12.019  0.2939  0.4953 -0.6130
  419MPD2    H7 6314   0.690   1.256  11.949 -0.9141  2.1354  0.2880
  420TMC3    C1 6315   0.692   1.027  12.721 -0.9489  0.3026 -0.1685
  420TMC3    C2 6316   0.554   1.008  12.707 -1.4275 -0.2824 -0.2599
  420TMC3    C3 6317   0.481   1.007  12.826 -0.0831  0.1314  0.2602
  420TMC3    C4 6318   0.757   1.038  12.843  0.5200 -0.3590  1.1781
  420TMC3    C5 6319   0.678   1.026  12.954 -0.2155  0.5068  0.0995
  420TMC3    C6 6320   0.545   1.001  12.949  0.4038 -0.1675  0.1842
  420TMC3     C 6321   0.778   1.041  12.603 -0.9027  0.1254 -0.1701
  420TMC3     O 6322   0.899   1.011  12.619 -0.8681 -0.2215 -0.2853
  420TMC3     H 6323   0.508   0.995  12.610  0.1405 -1.5274 -0.8440
  420TMC3    H1 6324   0.859   1.073  12.845  0.0077  1.1556  0.4560
  420TMC3    H2 6325   0.486   0.994  13.039  0.2283  0.0179  0.0846
  420TMC3    C7 6326   0.717   1.105  13.069 -0.0842  0.8453  1.0238
  420TMC3    C8 6327   0.385   1.109  12.835 -0.1321  0.8230  0.5664
  420TMC3    O1 6328   0.628   1.147  13.139 -0.1192  0.5384 -0.0439
  420TMC3    O2 6329   0.316   1.103  12.734 -0.0523  0.6719  0.1605
  421TMC3    C1 6330   1.838   3.455  13.471 -0.7768 -0.6905  0.1032
  421TMC3    C2 6331   1.833   3.555  13.560 -0.1161 -0.3405 -0.7418
  421TMC3    C3 6332   1.904   3.537  13.671  0.3135 -0.4296  0.0644
  421TMC3    C4 6333   1.889   3.332  13.482 -0.4457 -0.1348 -0.0055
  421TMC3    C5 6334   1.947   3.315  13.608 -0.1532 -0.2367 -0.0476
  421TMC3    C6 6335   1.953   3.416  13.698 -0.0037 -0.3730  0.1609
  421TMC3     C 6336   1.774   3.485  13.348 -0.5422 -0.5355 -0.1746
  421TMC3     O 6337   1.795   3.599  13.308  0.1661  0.7666 -0.1777
  421TMC3     H 6338   1.784   3.643  13.520 -0.7027 -0.7288 -0.8757
  421TMC3    H1 6339   1.890   3.260  13.401  1.2998  2.3503 -2.2124
  421TMC3    H2 6340   1.995   3.393  13.795 -0.1337  2.0325  0.7901
  421TMC3    C7 6341   2.050   3.204  13.619 -0.5815 -0.1130  0.5472
  421TMC3    C8 6342   1.951   3.648  13.736  0.2631  0.4259  0.6096
  421TMC3    O1 6343   2.127   3.215  13.713  0.1814 -0.1326 -0.0615
  421TMC3    O2 6344   2.058   3.624  13.786 -0.2573  0.1390  0.4870
  422TMC3    C1 6345   4.184   4.684  12.405  0.1324 -0.1101  0.0462
  422TMC3    C2 6346   4.205   4.717  12.536 -0.5032  0.0459 -0.2402
  422TMC3    C3 6347   4.127   4.669  12.636  0.9068  0.4714 -0.2667
  422TMC3    C4 6348   4.084   4.594  12.375 -0.4408  0.5012 -0.7006
  422TMC3    C5 6349   4.002   4.557  12.481  0.3727 -0.4850 -0.0209
  422TMC3    C6 6350   4.017   4.591  12.614 -0.2357  0.8505  0.6436
  422TMC3     C 6351   4.279   4.715  12.303  0.6345 -0.2252  0.3213
  422TMC3     O 6352   4.390   4.731  12.349 -0.4235 -0.0663 -0.3316
  422TMC3     H 6353   4.296   0.030  12.565  0.2935 -1.9347  0.8197
  422TMC3    H1 6354   4.057   4.563  12.274 -0.5176 -0.5987 -0.3372
  422TMC3    H2 6355   3.947   4.565  12.693 -1.4098  1.3814 -0.2217
  422TMC3    C7 6356   3.916   4.452  12.448  0.7433 -0.2680 -0.4422
  422TMC3    C8 6357   4.169   4.690  12.772 -0.2083 -0.1124 -0.4654
  422TMC3    O1 6358   3.942   4.389  12.341  0.5436 -0.0052 -0.3177
  422TMC3    O2 6359   4.251   0.040  12.798 -0.0952 -0.2372  0.4392
  423MPD2     C 6360   1.500   1.360   0.639 -0.7986  0.0741  0.4740
  423MPD2    C1 6361   1.398   1.269   0.641  0.3866  0.2928 -0.3210
  423MPD2    C2 6362   1.330   1.226   0.528  0.7605  0.0709  0.8971
  423MPD2    C3 6363   1.366   1.268   0.400 -0.0166  0.4167  0.4336
  423MPD2    C4 6364   1.453   1.376   0.404  0.4662  0.1158 -0.3112
  423MPD2    C5 6365   1.529   1.414   0.520  0.2625 -0.0948  0.4771
  423MPD2     H 6366   1.254   1.149   0.541 -0.5287  1.0477 -0.7102
  423MPD2    H1 6367   1.491   1.418   0.312  1.6937 -0.0708  0.1124
  423MPD2    H2 6368   1.545   1.396   0.731  0.9222  2.4254 -1.2711
  423MPD2    H3 6369   1.596   1.499   0.507 -0.6419  0.6750  0.8074
  423MPD2     N 6370   1.317   1.218   0.281 -0.4937  0.4065 -0.3695
  423MPD2    H5 6371   1.373   1.230   0.197 -1.1084 -0.3521 -0.8877
  423MPD2    N1 6372   1.351   1.216   0.769  0.7120  0.4394 -0.0268
  423MPD2    H7 6373   1.264   1.165   0.765  1.3234 -0.6923  1.2792
  424TMC3    C1 6374   1.325   1.180   1.005 -0.4110  0.1296 -0.2491
  424TMC3    C2 6375   1.391   1.099   1.093  0.7889  0.3176 -0.1033
  424TMC3    C3 6376   1.318   1.009   1.168  0.7270  0.5587  0.3331
  424TMC3    C4 6377   1.188   1.185   1.003 -0.0272  0.2089  0.4663
  424TMC3    C5 6378   1.125   1.079   1.061 -0.1660  0.0936  0.3564
  424TMC3    C6 6379   1.188   0.987   1.141  0.1524  0.7155 -0.1389
  424TMC3     C 6380   1.414   1.236   0.890  0.5766 -0.6390  0.8424
  424TMC3     O 6381   1.530   1.259   0.925  0.1635 -0.1054 -0.1034
  424TMC3     H 6382   1.498   1.089   1.077  0.4523 -1.4706 -1.3353
  424TMC3    H1 6383   1.126   1.248   0.940  1.5065  0.6831 -0.5674
  424TMC3    H2 6384   1.131   0.908   1.189 -0.3132  0.6172 -0.8583
  424TMC3    C7 6385   0.993   1.047   1.019 -0.0915  0.3879  0.2227
  424TMC3    C8 6386   1.388   0.910   1.238  0.1338 -0.3054 -0.2527
  424TMC3    O1 6387   0.966   0.926   1.018 -0.7972 -0.0706 -0.2891
  424TMC3    O2 6388   1.330   0.805   1.263 -0.1766 -0.3741  0.8123
  425MPD2     C 6389   0.473   4.732  17.082 -0.6304  0.3195 -0.6098
  425MPD2    C1 6390   0.340   4.703  17.072  0.2729  0.8123 -0.1347
  425MPD2    C2 6391   0.252   0.017  17.164  0.6303 -0.2757  0.8653
  425MPD2    C3 6392   0.301   0.084  17.277  0.9808 -0.4403  0.1197
  425MPD2    C4 6393   0.439   0.100  17.291  0.3914 -0.1320 -0.3072
  425MPD2    C5 6394   0.523   0.065  17.188 -0.0107 -0.0290 -0.7982
  425MPD2     H 6395   0.148   4.727  17.173  0.9134 -1.5837 -0.1843
  425MPD2    H1 6396   0.485   0.148  17.376 -1.5522  1.1975  0.0074
  425MPD2    H2 6397   0.540   4.686  17.010 -0.9784 -1.6613  0.3168
  425MPD2    H3 6398   0.631   0.077  17.195  0.0754 -0.4399 -1.4145
  425MPD2     N 6399   0.209   0.132  17.371 -0.3221 -0.2740  0.0136
  425MPD2    H5 6400   0.111   0.123  17.349 -0.8237  1.8099  1.3705
  425MPD2    N1 6401   0.295   4.612  16.971  0.4838  0.0486  0.6266
  425MPD2    H7 6402   0.365   4.564  16.916 -1.2237  0.4727 -1.8912
  426TMC3    C1 6403   0.170   4.445  16.876  0.4039  0.9976  0.6971
  426TMC3    C2 6404   0.220   4.447  16.748 -0.5078  0.0450  1.0131
  426TMC3    C3 6405   0.186   4.335  16.674  0.0435 -0.7852 -0.3852
  426TMC3    C4 6406   0.110   4.337  16.931  0.4320  0.2874 -0.3933
  426TMC3    C5 6407   0.092   4.225  16.856 -0.7983  0.5163 -0.2711
  426TMC3    C6 6408   0.144   4.215  16.726  0.2848  0.1943 -0.1803
  426TMC3     C 6409   0.164   4.563  16.957  0.2769  0.0398 -0.0857
  426TMC3     O 6410   0.060   4.582  17.022  0.4015 -0.6517 -0.0149
  426TMC3     H 6411   0.257   4.538  16.702 -3.4284  0.5486 -0.3553
  426TMC3    H1 6412   0.063   4.348  17.028  0.5347  0.8037 -0.4041
  426TMC3    H2 6413   0.140   4.123  16.668 -0.5137  0.3559 -0.3750
  426TMC3    C7 6414   0.031   4.103  16.912  0.0220  0.4317  0.1546
  426TMC3    C8 6415   0.193   4.336  16.530  0.2005  0.7023 -0.0706
  426TMC3    O1 6416   0.055   3.993  16.859  0.0758  0.4951 -0.3241
  426TMC3    O2 6417   0.181   4.223  16.480 -0.0732  0.2795 -0.8716
  427MPD2     C 6418   3.444   2.051  14.935  0.9441  0.2532 -0.7488
  427MPD2    C1 6419   3.415   1.995  15.059 -0.1631  0.4441  0.0489
  427MPD2    C2 6420   3.311   2.053  15.129 -0.5382 -0.3660 -0.6438
  427MPD2    C3 6421   3.224   2.142  15.067 -0.3731 -0.4510 -0.3647
  427MPD2    C4 6422   3.241   2.190  14.941  0.5814  0.6098 -0.4370
  427MPD2    C5 6423   3.362   2.155  14.884  0.2947 -0.4535 -0.2439
  427MPD2     H 6424   3.300   2.008  15.227 -0.8140  1.7568  0.3007
  427MPD2    H1 6425   3.173   2.258  14.892 -1.0133  0.2835  1.2978
  427MPD2    H2 6426   3.535   2.024  14.883  2.2432  3.2636 -0.0471
  427MPD2    H3 6427   3.388   2.196  14.787  2.1962  0.3820  0.6218
  427MPD2     N 6428   3.105   2.175  15.135  0.6254  0.0524 -0.3210
  427MPD2    H5 6429   3.043   2.228  15.075  0.0583 -0.7154 -0.4157
  427MPD2    N1 6430   3.501   1.906  15.126  0.7377  0.2010 -0.0523
  427MPD2    H7 6431   3.465   1.874  15.216  0.1652 -0.3449 -0.4736
  428TMC3    C1 6432   3.671   1.756  15.178 -0.2358  0.1357 -0.1106
  428TMC3    C2 6433   3.578   1.660  15.216 -0.4560 -0.4160 -0.0909
  428TMC3    C3 6434   3.631   1.572  15.311  0.9457 -0.1537 -0.8850
  428TMC3    C4 6435   3.803   1.766  15.206 -0.0370  0.3347 -0.3959
  428TMC3    C5 6436   3.840   1.682  15.307  0.2260 -0.2508  0.3075
  428TMC3    C6 6437   3.763   1.578  15.345 -0.4304  0.1036 -0.0614
  428TMC3     C 6438   3.632   1.869  15.095  0.7365  0.3600 -1.1028
  428TMC3     O 6439   3.713   1.901  15.006 -0.1317  0.2398  0.0162
  428TMC3     H 6440   3.476   1.652  15.180 -1.1158  0.2698  1.6357
  428TMC3    H1 6441   3.847   1.865  15.193  0.3070  0.3637  1.0462
  428TMC3    H2 6442   3.789   1.514  15.428  0.8539  1.1334  0.3241
  428TMC3    C7 6443   3.963   1.706  15.373 -0.6419 -0.2436 -0.6766
  428TMC3    C8 6444   3.573   1.441  15.318 -0.0171  0.2446 -0.4736
  428TMC3    O1 6445   3.990   1.640  15.472 -0.2582  0.1929  0.0157
  428TMC3    O2 6446   3.655   1.351  15.320 -0.6859  0.0985  0.0002
  429MPD2     C 6447   4.296   1.897  17.693  0.2730  0.1443 -0.3293
  429MPD2    C1 6448   4.406   1.820  17.680 -0.2218  0.2871 -0.4500
  429MPD2    C2 6449   4.496   1.853  17.586 -0.1147  0.2738 -0.4975
  429MPD2    C3 6450   4.477   1.957  17.504  0.3830  0.1667  0.1691
  429MPD2    C4 6451   4.367   2.041  17.519  0.4271 -0.1183  0.5955
  429MPD2    C5 6452   4.275   2.011  17.619 -0.1139  0.1582 -0.0741
  429MPD2     H 6453   4.586   1.795  17.574  0.2654  1.0413 -1.3075
  429MPD2    H1 6454   4.345   2.128  17.459  2.1875  0.4511  0.7845
  429MPD2    H2 6455   4.222   1.878   0.014 -1.1921 -0.3335 -1.8741
  429MPD2    H3 6456   4.175   2.052  17.617 -0.0322  0.4597  1.8019
  429MPD2     N 6457   4.586   1.984  17.409 -0.6876 -1.1323 -0.4002
  429MPD2    H5 6458   4.671   1.930  17.400 -0.3774 -0.8586  0.7499
  429MPD2    N1 6459   4.433   1.700  17.749 -0.2885  0.0850  0.2629
  429MPD2    H7 6460   4.519   1.650  17.729  0.9958  2.8996 -1.3026
  430TMC3    C1 6461   4.682   2.079  17.210  0.5077  0.8433  1.0925
  430TMC3    C2 6462   4.694   2.182  17.124 -0.5502  0.1820  0.3115
  430TMC3    C3 6463   0.060   2.182  17.041  0.1080 -0.4539  0.2791
  430TMC3    C4 6464   0.029   1.971  17.211 -0.4695  0.5788 -0.4320
  430TMC3    C5 6465   0.133   1.978  17.121 -0.3022  0.1530 -0.0754
  430TMC3    C6 6466   0.151   2.087  17.037 -0.3422 -0.0055  0.6053
  430TMC3     C 6467   4.588   2.091  17.315 -0.2960  0.2559  0.2131
  430TMC3     O 6468   4.507   2.184  17.319  0.1897  0.5235 -0.0149
  430TMC3     H 6469   4.634   2.272  17.131  0.0204  0.5664  0.2753
  430TMC3    H1 6470   0.023   1.893  17.286 -0.2070  0.6745 -0.3114
  430TMC3    H2 6471   0.222   2.083  16.955 -2.1918  1.3659 -1.0617
  430TMC3    C7 6472   0.211   1.864  17.107  0.5112  0.1781  0.1779
  430TMC3    C8 6473   0.035   2.242  16.908 -0.3987 -0.9616  0.9575
  430TMC3    O1 6474   0.156   1.753  17.121 -0.6964  0.0998  0.2546
  430TMC3    O2 6475   4.661   2.237  16.862 -0.5590  0.5105 -0.5024
  431MPD2     C 6476   0.401   1.747  12.479  0.3656 -0.5664  0.6503
  431MPD2    C1 6477   0.418   1.791  12.350  0.7344 -0.4232 -0.2538
  431MPD2    C2 6478   0.393   1.705  12.243  0.3552  0.8580 -0.4793
  431MPD2    C3 6479   0.341   1.572  12.253 -0.6089  0.2678  0.6032
  431MPD2    C4 6480   0.324   1.528  12.384  0.7917  0.0923 -0.1074
  431MPD2    C5 6481   0.355   1.616  12.486  0.5445 -0.4424  0.3198
  431MPD2     H 6482   0.393   1.750  12.145  2.7309  4.8126  1.3346
  431MPD2    H1 6483   0.275   1.432  12.400  2.4822 -0.7506 -0.0217
  431MPD2    H2 6484   0.421   1.807  12.567  0.8459 -0.9561  0.8048
  431MPD2    H3 6485   0.347   1.577  12.587 -1.3601  0.1091  0.3825
  431MPD2     N 6486   0.317   1.490  12.139  0.6158 -0.0023 -0.2661
  431MPD2    H5 6487   0.271   1.401  12.152  0.2797  0.3992  1.3164
  431MPD2    N1 6488   0.447   1.928  12.326 -0.1380 -0.1824  0.0785
  431MPD2    H7 6489   0.445   1.949  12.227  2.3906 -1.4410 -0.2397
  432TMC3    C1 6490   0.330   1.407  11.917 -0.1808  0.4148 -0.1783
  432TMC3    C2 6491   0.376   1.446  11.799  0.3260  0.5497 -0.5456
  432TMC3    C3 6492   0.466   1.365  11.729  0.3333  0.1248 -0.4424
  432TMC3    C4 6493   0.359   1.289  11.965 -0.2280 -0.4689 -0.0429
  432TMC3    C5 6494   0.454   1.215  11.902 -0.3061 -0.0367  0.6454
  432TMC3    C6 6495   0.517   1.252  11.787  0.2109 -0.0215  0.0419
  432TMC3     C 6496   0.358   1.519  12.009 -0.5393  0.4132  0.3675
  432TMC3     O 6497   0.411   1.616  11.960  0.0630  0.3115 -0.0773
  432TMC3     H 6498   0.323   1.531  11.758 -0.2736  0.1513 -0.5962
  432TMC3    H1 6499   0.327   1.269  12.067 -1.3234  0.9363 -0.1092
  432TMC3    H2 6500   0.606   1.212  11.741 -0.0898 -3.4571  2.4255
  432TMC3    C7 6501   0.530   1.138  11.999 -0.0041  0.1519  0.4038
  432TMC3    C8 6502   0.559   1.421  11.635  0.0668  0.3557 -0.2531
  432TMC3    O1 6503   0.472   1.052  12.066  0.3895  0.0599 -0.1045
  432TMC3    O2 6504   0.606   1.350  11.542  0.0396 -0.5097  0.1927
  433MPD2     C 6505   3.855   1.034  10.597 -0.0795 -0.4310 -0.6847
  433MPD2    C1 6506   3.961   0.959  10.643 -0.3113 -0.2017 -0.3841
  433MPD2    C2 6507   4.028   1.011  10.748 -0.2570  0.1342  0.2398
  433MPD2    C3 6508   3.996   1.129  10.812  1.2755 -0.0579 -0.5288
  433MPD2    C4 6509   3.896   1.204  10.764 -0.2885 -0.1800 -0.6093
  433MPD2    C5 6510   3.832   1.160  10.651 -0.2245 -0.4082  0.2100
  433MPD2     H 6511   4.096   0.946  10.802 -0.6038 -0.6146 -0.2236
  433MPD2    H1 6512   3.875   1.298  10.814  1.8559 -0.2091  0.3549
  433MPD2    H2 6513   3.797   0.999  10.512 -4.1884  1.0858  1.4916
  433MPD2    H3 6514   3.750   1.222  10.615  0.4979 -1.4757 -3.2470
  433MPD2     N 6515   4.061   1.147  10.936  0.3886  0.2223  0.2652
  433MPD2    H5 6516   4.117   1.069  10.969 -0.8611 -1.7016 -2.1623
  433MPD2    N1 6517   3.990   0.837  10.578  0.1058 -0.9103 -0.2530
  433MPD2    H7 6518   3.940   0.814  10.492  0.5146 -3.4818  0.2220
  434TMC3    C1 6519   4.091   0.638  10.534  0.5688  0.8139 -0.3654
  434TMC3    C2 6520   4.201   0.557  10.567  0.1804 -0.2969 -0.5230
  434TMC3    C3 6521   4.181   0.426  10.605  0.6894 -0.0646  0.5515
  434TMC3    C4 6522   3.966   0.581  10.514 -0.1530  0.2458 -0.3578
  434TMC3    C5 6523   3.960   0.445  10.532 -0.9658  0.8458  0.0444
  434TMC3    C6 6524   4.060   0.357  10.575  0.0011  0.0080  0.5520
  434TMC3     C 6525   4.101   0.764  10.600  1.2446  0.0553 -0.1436
  434TMC3     O 6526   4.180   0.769  10.688 -0.0804 -0.3949  0.4250
  434TMC3     H 6527   4.301   0.597  10.577  1.3758 -3.1364 -1.1592
  434TMC3    H1 6528   3.890   0.639  10.463 -1.3599 -1.9051 -1.0025
  434TMC3    H2 6529   4.055   0.249  10.586  2.1670  0.1154  2.6382
  434TMC3    C7 6530   3.827   0.392  10.519 -0.2326 -0.3906 -0.1486
  434TMC3    C8 6531   4.267   0.379  10.712  0.6332 -0.3124  0.4891
  434TMC3    O1 6532   3.760   0.452  10.439  0.1092  0.2919 -0.6468
  434TMC3    O2 6533   4.342   0.465  10.750  0.3477 -0.6958  0.7587
  435MPD2     C 6534   1.642   1.281  15.228  0.7562  0.0669 -0.0039
  435MPD2    C1 6535   1.657   1.311  15.365  0.2501  0.1304 -0.0359
  435MPD2    C2 6536   1.746   1.232  15.434  0.3929  0.2161 -0.8319
  435MPD2    C3 6537   1.811   1.127  15.377 -0.7090  0.7155  0.1031
  435MPD2    C4 6538   1.799   1.095  15.245  0.2946 -0.0060 -0.2419
  435MPD2    C5 6539   1.715   1.179  15.173  0.5097 -0.2189  0.3263
  435MPD2     H 6540   1.767   1.264  15.536 -0.8259 -0.5899 -0.3254
  435MPD2    H1 6541   1.841   1.007  15.198  0.9338 -0.4052  1.0718
  435MPD2    H2 6542   1.573   1.338  15.166 -1.4487 -0.9323  1.5515
  435MPD2    H3 6543   1.698   1.144  15.072  1.1663  1.4812 -0.3705
  435MPD2     N 6544   1.883   1.042  15.466 -0.2272 -0.3296  0.4009
  435MPD2    H5 6545   1.885   1.071  15.563  1.5636  1.2117 -0.1101
  435MPD2    N1 6546   1.587   1.408  15.429 -0.6986  0.1218  0.7621
  435MPD2    H7 6547   1.601   1.424  15.528  1.7056 -1.0871  0.6186
  436TMC3    C1 6548   1.278   1.472  15.681 -0.7060 -0.1826  0.2972
  436TMC3    C2 6549   1.395   1.467  15.604  0.3582  0.2948  0.3065
  436TMC3    C3 6550   1.397   1.532  15.485  0.2164  0.6212 -0.4605
  436TMC3    C4 6551   1.169   1.536  15.640 -0.1187  0.8045 -0.6822
  436TMC3    C5 6552   1.170   1.597  15.512 -0.2905  0.4237  0.1720
  436TMC3    C6 6553   1.289   1.601  15.447 -0.2492  0.6267 -0.1026
  436TMC3     C 6554   1.289   1.441  15.821  0.3451  0.8225  0.2876
  436TMC3     O 6555   1.401   1.432  15.868  0.1669 -0.4156  0.0815
  436TMC3     H 6556   1.476   1.410  15.649  1.8641  0.6010 -2.0202
  436TMC3    H1 6557   1.074   1.525  15.690  0.2865  1.4682  0.2269
  436TMC3    H2 6558   1.296   1.666  15.361  0.4578  0.9171  0.1780
  436TMC3    C7 6559   1.045   1.584  15.439 -0.2963 -0.2270 -0.1967
  436TMC3    C8 6560   1.482   1.482  15.380 -0.5835 -0.0242  0.2772
  436TMC3    O1 6561   0.941   1.572  15.501  0.3283 -0.0964  0.1960
  436TMC3    O2 6562   1.430   1.492  15.270 -0.2754 -0.2422  0.1200
  437TMC3    C1 6563   4.542   2.867  12.423 -0.2099  0.1440 -0.3352
  437TMC3    C2 6564   4.437   2.833  12.335  0.4397  0.2605 -0.2839
  437TMC3    C3 6565   4.465   2.832  12.198 -0.7077  0.0431 -0.9376
  437TMC3    C4 6566   4.666   2.876  12.376  0.2525  0.2619  0.3855
  437TMC3    C5 6567   4.692   2.854  12.243 -0.1136  0.3547 -0.2058
  437TMC3    C6 6568   4.590   2.849  12.151  0.0500  0.0228 -0.9721
  437TMC3     C 6569   4.518   2.843  12.566 -0.2058 -0.1729 -0.1643
  437TMC3     O 6570   4.617   2.804  12.632 -0.0376 -0.5761  0.2391
  437TMC3     H 6571   4.334   2.822  12.367  0.9454 -0.4835  1.0486
  437TMC3    H1 6572   0.006   2.910  12.442 -2.4094  2.0716  2.6250
  437TMC3    H2 6573   4.613   2.847  12.045  3.1614  4.3329 -0.3754
  437TMC3    C7 6574   0.088   2.873  12.187 -0.0227  0.7606  0.3758
  437TMC3    C8 6575   4.358   2.840  12.094  0.8977  0.0022 -0.6263
  437TMC3    O1 6576   0.096   2.877  12.067  0.2572 -0.4972 -0.5832
  437TMC3    O2 6577   4.391   2.860  11.978  0.2415 -0.1208 -0.0766
  438MPD2     C 6578   2.517   3.779  16.702  0.0391  0.0502  0.1818
  438MPD2    C1 6579   2.575   3.658  16.756  0.3228  0.1808  0.2157
  438MPD2    C2 6580   2.517   3.602  16.869  0.3471  0.0121  0.1706
  438MPD2    C3 6581   2.403   3.658  16.922 -0.1541  0.1598  0.5252
  438MPD2    C4 6582   2.364   3.786  16.884 -0.3156  0.0946 -0.3734
  438MPD2    C5 6583   2.412   3.839  16.766  0.2807  0.0169  0.2826
  438MPD2     H 6584   2.565   3.515  16.913 -0.7178 -1.1789 -1.0011
  438MPD2    H1 6585   2.280   3.841  16.926  0.0576 -0.1622  0.7061
  438MPD2    H2 6586   2.559   3.825  16.614  1.1050 -0.5407  0.3801
  438MPD2    H3 6587   2.383   3.937  16.732  0.1419  0.4005  1.5072
  438MPD2     N 6588   2.345   3.599  17.034 -0.0314  0.4120 -0.3495
  438MPD2    H5 6589   2.300   3.660  17.102  2.6423  0.4180  1.4306
  438MPD2    N1 6590   2.680   3.596  16.695  0.9263 -0.3355 -0.5229
  438MPD2    H7 6591   2.727   3.517  16.739  1.2014  0.3963  0.4938
  439TMC3    C1 6592   2.858   3.556  16.549 -0.3667 -0.5106  0.2163
  439TMC3    C2 6593   2.898   3.536  16.421 -0.0502 -1.1451  0.1345
  439TMC3    C3 6594   3.022   3.498  16.390  0.3669 -0.1452  0.8420
  439TMC3    C4 6595   2.945   3.532  16.651 -0.1966 -0.4896  0.1773
  439TMC3    C5 6596   3.072   3.489  16.612  0.4589 -0.4326 -0.9838
  439TMC3    C6 6597   3.120   3.478  16.485  0.3397 -0.4803 -0.0421
  439TMC3     C 6598   2.734   3.620  16.571  0.5833  0.2754  0.7535
  439TMC3     O 6599   2.701   3.694  16.479  0.1710  0.4803  0.2889
  439TMC3     H 6600   2.831   3.563  16.340 -0.3130 -4.1214 -0.6224
  439TMC3    H1 6601   2.915   3.544  16.755  3.0127  0.7664  0.9546
  439TMC3    H2 6602   3.222   3.447  16.465  1.6843  2.4122  2.3093
  439TMC3    C7 6603   3.134   3.402  16.711 -0.5583  0.9789  0.0679
  439TMC3    C8 6604   3.056   3.437  16.266  0.5213  0.0071  0.4572
  439TMC3    O1 6605   3.174   3.454  16.817 -0.2308  0.7413 -0.4383
  439TMC3    O2 6606   3.170   3.387  16.267  0.9433 -0.6514  0.4245
  440MPD2     C 6607   1.370   3.817  15.312 -0.3013  0.4745 -0.4022
  440MPD2    C1 6608   1.396   3.876  15.188 -0.0200  0.3992  0.1169
  440MPD2    C2 6609   1.514   3.857  15.122  0.2705 -0.2433 -0.3436
  440MPD2    C3 6610   1.614   3.773  15.178  0.0871 -0.2892  0.1325
  440MPD2    C4 6611   1.587   3.715  15.303 -0.0387 -0.9344 -0.2822
  440MPD2    C5 6612   1.463   3.733  15.360  0.2480  0.0243  0.2251
  440MPD2     H 6613   1.517   3.894  15.020 -1.2224  0.6305 -0.0621
  440MPD2    H1 6614   1.662   3.653  15.350  2.9442  2.4905 -0.5289
  440MPD2    H2 6615   1.273   3.828  15.360 -0.0668  0.2404  0.1180
  440MPD2    H3 6616   1.448   3.682  15.455  1.3857 -0.8061 -0.0433
  440MPD2     N 6617   1.732   3.746  15.111 -0.5572  0.0746  0.2359
  440MPD2    H5 6618   1.794   3.682  15.160 -2.8615 -0.5617  2.2977
  440MPD2    N1 6619   1.299   3.967  15.131  0.2933  0.2601 -0.0101
  440MPD2    H7 6620   1.316   3.992  15.034  0.5528 -0.4634 -0.1468
  441TMC3    C1 6621   1.914   3.761  14.980 -0.0181  1.2895  0.0228
  441TMC3    C2 6622   1.984   3.876  14.966 -0.1596 -0.7223  0.1674
  441TMC3    C3 6623   2.095   3.899  15.041 -0.4939 -0.2191 -0.5789
  441TMC3    C4 6624   1.947   3.667  15.074 -0.0907 -0.6919  0.4530
  441TMC3    C5 6625   2.060   3.695  15.151 -0.0076 -0.2362 -0.0456
  441TMC3    C6 6626   2.137   3.809  15.140  0.1367  0.7637 -0.0869
  441TMC3     C 6627   1.772   3.789  14.989  0.0797  0.2317  0.5511
  441TMC3     O 6628   1.720   3.867  14.914 -0.4164 -0.0418  0.1668
  441TMC3     H 6629   1.946   3.938  14.885  3.5363  0.6417 -0.5265
  441TMC3    H1 6630   1.908   3.566  15.064 -1.6900  0.1412 -1.5403
  441TMC3    H2 6631   2.225   3.834  15.198  0.1435 -0.4688  0.4437
  441TMC3    C7 6632   2.034   3.649  15.283  0.3605  0.1267  0.6760
  441TMC3    C8 6633   2.151   4.035  15.051  0.0431  0.1189 -0.5411
  441TMC3    O1 6634   1.921   3.623  15.312  0.5322 -0.4030 -1.1198
  441TMC3    O2 6635   2.267   4.050  15.087 -0.1673  0.1500 -0.2656
  442MPD2     C 6636   4.416   4.181  16.082 -0.1524  0.5851 -0.0589
  442MPD2    C1 6637   4.332   4.143  16.184  0.2013  0.0612  0.1461
  442MPD2    C2 6638   4.294   4.009  16.189 -0.3856 -0.6554 -0.6442
  442MPD2    C3 6639   4.328   3.928  16.084  0.2580 -0.3068  0.0082
  442MPD2    C4 6640   4.413   3.974  15.981  0.2197 -0.1310 -0.8802
  442MPD2    C5 6641   4.455   4.099  15.985 -0.0031 -0.3621 -0.3114
  442MPD2     H 6642   4.223   3.960  16.255  0.8175  0.1924  1.3057
  442MPD2    H1 6643   4.437   3.909  15.898  0.5088  0.0083 -0.9045
  442MPD2    H2 6644   4.458   4.281  16.076  0.8136  0.2353  0.8229
  442MPD2    H3 6645   4.511   4.132  15.899 -1.0879  0.2062 -0.8029
  442MPD2     N 6646   4.293   3.790  16.070  0.1818 -0.1845 -0.2383
  442MPD2    H5 6647   4.320   3.752  15.980 -1.1396 -0.5958 -0.4491
  442MPD2    N1 6648   4.273   4.237  16.275  0.0663  0.7112  0.2047
  442MPD2    H7 6649   4.209   4.193  16.341  0.6159  3.1670  2.3280
  443TMC3    C1 6650   4.224   4.452  16.380 -0.3110  0.1906  0.0908
  443TMC3    C2 6651   4.190   4.585  16.355  0.2071  0.5794  0.0083
  443TMC3    C3 6652   4.123   4.649  16.453 -0.2943  0.2961 -0.7234
  443TMC3    C4 6653   4.207   4.388  16.500  0.5155 -0.5666  0.3447
  443TMC3    C5 6654   4.151   4.467  16.595 -0.8626 -0.4904 -0.2909
  443TMC3    C6 6655   4.102   4.599  16.579  0.1729  0.1286 -0.4722
  443TMC3     C 6656   4.298   4.377  16.277  0.3267  0.4997  0.5916
  443TMC3     O 6657   4.360   4.444  16.200 -0.4017 -0.2671  0.3097
  443TMC3     H 6658   4.197   4.621  16.253 -1.7376 -0.4235 -0.4788
  443TMC3    H1 6659   4.257   4.294  16.517 -1.4111 -1.5514  0.4632
  443TMC3    H2 6660   4.055   4.654  16.660 -0.8503 -2.7757  0.8877
  443TMC3    C7 6661   4.122   4.403  16.720  0.5701  0.5256 -0.5916
  443TMC3    C8 6662   4.106   0.052  16.440  0.6306  0.3469  0.5776
  443TMC3    O1 6663   4.090   4.288  16.703  0.3900  0.0861 -0.3272
  443TMC3    O2 6664   4.154   0.121  16.534 -0.0147 -0.1517 -0.6119
  444MPD2     C 6665   4.489   4.276  16.803 -0.1649  0.0938 -0.3980
  444MPD2    C1 6666   4.393   4.178  16.812 -0.4591 -0.7980 -0.6238
  444MPD2    C2 6667   4.384   4.082  16.708 -0.0935  0.4107 -0.5837
  444MPD2    C3 6668   4.470   4.092  16.597 -0.2196 -0.2763  0.1216
  444MPD2    C4 6669   4.551   4.201  16.581 -0.0104  0.0821 -0.8610
  444MPD2    C5 6670   4.568   4.283  16.690 -0.5737  0.6414 -0.1340
  444MPD2     H 6671   4.311   4.002  16.707  0.4794 -0.1264  0.8372
  444MPD2    H1 6672   4.594   4.229  16.486  0.2097  2.5067 -0.0589
  444MPD2    H2 6673   4.504   4.342  16.887  0.7023 -2.4169  1.4406
  444MPD2    H3 6674   4.631   4.370  16.673 -0.4522  0.5664 -0.0641
  444MPD2     N 6675   4.467   3.982  16.509  0.1129  0.1195  0.9973
  444MPD2    H5 6676   4.390   3.917  16.524  1.0292 -1.1384  0.2441
  444MPD2    N1 6677   4.299   4.168  16.920  0.5218  0.3389 -0.1929
  444MPD2    H7 6678   4.228   4.097  16.933  0.4816  0.1934 -1.1809
  445TMC3    C1 6679   4.546   3.838  16.332  0.2955 -0.3655 -0.2917
  445TMC3    C2 6680   4.478   3.732  16.388 -0.3598  0.1473  0.3409
  445TMC3    C3 6681   4.509   3.608  16.330  0.0175  0.1874  0.1519
  445TMC3    C4 6682   4.641   3.818  16.234 -0.1800  0.0131 -0.2136
  445TMC3    C5 6683   4.672   3.687  16.185 -0.0349  0.5289  0.5164
  445TMC3    C6 6684   4.597   3.580  16.230 -0.0107  0.4434 -0.3214
  445TMC3     C 6685   4.558   3.955  16.408  0.5771 -0.1843  0.1904
  445TMC3     O 6686   4.666   4.006  16.385  0.3391 -0.1027  0.1785
  445TMC3     H 6687   4.403   3.739  16.466 -2.1937 -0.5298 -1.3404
  445TMC3    H1 6688   4.681   3.903  16.179 -0.9178  1.0492  0.8335
  445TMC3    H2 6689   4.613   3.481  16.188  0.5198  1.4594 -2.4904
  445TMC3    C7 6690   0.076   3.665  16.173 -0.2173  0.2531 -0.5297
  445TMC3    C8 6691   4.457   3.498  16.410 -0.0022 -0.1523 -0.3141
  445TMC3    O1 6692   0.143   3.765  16.190  0.4168  0.7278  0.0169
  445TMC3    O2 6693   4.532   3.401  16.409 -0.0557 -0.4498  0.1214
  446MPD2     C 6694   4.007   0.470  11.256 -0.0656 -0.1239 -0.1675
  446MPD2    C1 6695   3.981   0.492  11.121  0.2470  0.8848 -0.0787
  446MPD2    C2 6696   4.089   0.534  11.047  0.4699  0.3232 -0.0849
  446MPD2    C3 6697   4.211   0.550  11.110 -0.2744 -0.3718 -0.4216
  446MPD2    C4 6698   4.239   0.519  11.240  0.5695  0.7154  1.0814
  446MPD2    C5 6699   4.129   0.481  11.318 -0.6491 -0.1402  0.2326
  446MPD2     H 6700   4.073   0.554  10.942  0.6284 -0.1789 -0.2048
  446MPD2    H1 6701   4.338   0.525  11.285  1.1300  1.6964 -0.2835
  446MPD2    H2 6702   3.921   0.455  11.320  0.4498 -0.8766  0.3397
  446MPD2    H3 6703   4.150   0.462  11.422  0.9130  1.4148  0.2019
  446MPD2     N 6704   4.313   0.602  11.027 -1.2700 -0.8620 -0.1442
  446MPD2    H5 6705   4.277   0.631  10.937 -1.4718 -1.7751 -0.3591
  446MPD2    N1 6706   3.853   0.483  11.060 -0.4101 -0.4185  0.2405
  446MPD2    H7 6707   3.857   0.499  10.960 -1.4478  0.7203  0.3845
  447TMC3    C1 6708   4.515   0.688  10.958 -0.8040  0.5364 -0.5500
  447TMC3    C2 6709   4.454   0.787  10.882 -0.0481 -0.4222 -0.5745
  447TMC3    C3 6710   4.532   0.869  10.799  0.1381 -0.0293 -0.7806
  447TMC3    C4 6711   4.656   0.687  10.963 -0.4056  0.6495 -0.5155
  447TMC3    C5 6712   4.726   0.768  10.878 -0.5780  0.8745 -0.9004
  447TMC3    C6 6713   4.668   0.850  10.791  0.1900 -0.3467 -0.0303
  447TMC3     C 6714   4.443   0.601  11.051  0.2573  0.2910  0.0186
  447TMC3     O 6715   4.511   0.553  11.141 -0.2163 -0.3963 -0.2665
  447TMC3     H 6716   4.347   0.794  10.866  0.1180  2.1058 -0.5926
  447TMC3    H1 6717   4.699   0.606  11.022 -0.3126  1.5061  0.5894
  447TMC3    H2 6718   4.727   0.906  10.719 -0.8868 -0.9139 -1.3651
  447TMC3    C7 6719   0.126   0.730  10.879 -0.4304  0.6021 -0.1414
  447TMC3    C8 6720   4.470   0.972  10.719  0.4715  0.5124  1.0332
  447TMC3    O1 6721   0.152   0.614  10.886  0.0521 -0.1105 -0.2634
  447TMC3    O2 6722   4.375   1.032  10.775 -0.3676 -0.1648 -0.4268
  448TMC3    C1 6723   3.734   0.447  16.848  0.6365  0.2984 -0.0476
  448TMC3    C2 6724   3.778   0.384  16.731 -0.7501 -0.2524  0.8609
  448TMC3    C3 6725   3.893   0.308  16.728 -0.2074  0.5032 -0.0735
  448TMC3    C4 6726   3.798   0.428  16.963  0.1049  0.1331 -1.0640
  448TMC3    C5 6727   3.904   0.343  16.960 -0.5604  0.3158 -0.2225
  448TMC3    C6 6728   3.957   0.294  16.846  0.0009  0.4362  0.4419
  448TMC3     C 6729   3.637   0.547  16.834 -0.0105 -0.2210 -0.3169
  448TMC3     O 6730   3.634   0.590  16.719  0.7326  0.3567  0.5584
  448TMC3     H 6731   3.725   0.399  16.637 -3.0653 -0.8307  2.0621
  448TMC3    H1 6732   3.776   0.477  17.057 -1.1354  1.4570 -2.0569
  448TMC3    H2 6733   4.037   0.221  16.843 -0.2637  0.1001  1.7257
  448TMC3    C7 6734   3.949   0.286  17.079 -0.2651  0.6298 -0.4299
  448TMC3    C8 6735   3.861   0.174  16.682  0.5638  0.6123 -0.3758
  448TMC3    O1 6736   4.066   0.245  17.079 -0.0321 -0.1187  0.5480
  448TMC3    O2 6737   3.856   0.092  16.773 -0.3501  0.0053  0.1256
  449MPD2     C 6738   3.905   3.125  13.995  0.1300 -0.2539  0.1378
  449MPD2    C1 6739   3.803   3.161  13.916  0.0517  0.3110 -0.4692
  449MPD2    C2 6740   3.677   3.107  13.944  0.6816 -0.6809 -0.0649
  449MPD2    C3 6741   3.660   2.999  14.030 -0.2553  0.0133 -0.5672
  449MPD2    C4 6742   3.770   2.950  14.095  0.7663  0.8564 -0.1896
  449MPD2    C5 6743   3.887   3.021  14.081 -0.0063  0.1314  0.1799
  449MPD2     H 6744   3.590   3.147  13.892  1.0900  1.0021  0.5758
  449MPD2    H1 6745   3.776   2.876  14.174  0.3917  0.7410 -0.2668
  449MPD2    H2 6746   4.004   3.172  13.995  0.3273 -0.6809 -0.8486
  449MPD2    H3 6747   3.965   2.996  14.152 -1.1878 -2.1314  0.6744
  449MPD2     N 6748   3.531   2.937  14.041  1.0176  0.3087  0.5186
  449MPD2    H5 6749   3.465   2.982  13.978  0.2510 -2.7593 -0.8491
  449MPD2    N1 6750   3.814   3.260  13.818  0.1214 -0.0358  0.8049
  449MPD2    H7 6751   3.722   3.293  13.792  0.5651 -0.0878 -0.8413
  450TMC3    C1 6752   3.869   3.452  13.708 -0.0353  0.7981 -0.1756
  450TMC3    C2 6753   3.895   3.443  13.574 -0.0889 -0.7691 -0.3778
  450TMC3    C3 6754   3.797   3.503  13.489  0.2826  0.3586  0.1713
  450TMC3    C4 6755   3.760   3.507  13.764 -0.7467 -0.0427 -0.5258
  450TMC3    C5 6756   3.657   3.529  13.675  0.7605 -0.7899 -0.7087
  450TMC3    C6 6757   3.677   3.537  13.538  0.1365  1.1586 -0.0287
  450TMC3     C 6758   3.919   3.336  13.782  0.3637  0.1578  0.5814
  450TMC3     O 6759   4.034   3.310  13.801 -0.4966  0.0425 -0.2476
  450TMC3     H 6760   3.985   3.398  13.535  0.1423 -0.9827  0.4084
  450TMC3    H1 6761   3.739   3.499  13.870  0.6826  1.0138 -0.1591
  450TMC3    H2 6762   3.596   3.577  13.478 -1.7846 -0.4184  1.5534
  450TMC3    C7 6763   3.543   3.462  13.721 -0.0351 -0.4612  0.4762
  450TMC3    C8 6764   3.824   3.524  13.354 -0.3935  0.2425 -0.1780
  450TMC3    O1 6765   3.563   3.385  13.812  0.3903 -0.2744  0.6886
  450TMC3    O2 6766   3.736   3.589  13.301 -0.2629  0.8018 -0.3607
  451MPD2     C 6767   1.754   2.971   0.964  0.0813  0.4209  0.6240
  451MPD2    C1 6768   1.666   2.880   1.015 -0.1862  0.2708  0.0437
  451MPD2    C2 6769   1.691   2.743   1.002 -0.2038  0.0965 -0.0877
  451MPD2    C3 6770   1.805   2.695   0.937  0.1741 -0.3032 -0.1723
  451MPD2    C4 6771   1.889   2.784   0.885 -0.6651  0.2765 -0.1656
  451MPD2    C5 6772   1.864   2.920   0.905  0.5238  0.0404 -0.1374
  451MPD2     H 6773   1.609   2.675   1.023  0.5268 -0.2330  1.7129
  451MPD2    H1 6774   1.979   2.746   0.839 -0.1653  0.7636  0.4124
  451MPD2    H2 6775   1.728   3.074   0.984 -0.9244  1.2383 -4.7744
  451MPD2    H3 6776   1.944   2.988   0.877 -0.5794  0.3613 -2.4845
  451MPD2     N 6777   1.833   2.557   0.916  0.3155  0.2014  0.0087
  451MPD2    H5 6778   1.923   2.524   0.882  0.3604  0.4984 -0.1583
  451MPD2    N1 6779   1.541   2.923   1.067  0.0872 -0.4835 -0.2194
  451MPD2    H7 6780   1.525   3.023   1.056  2.8580 -0.0327  0.0197
  452TMC3    C1 6781   1.819   2.326   0.976 -0.4272  0.5860  0.2261
  452TMC3    C2 6782   1.768   2.264   1.089 -0.6974  0.5366 -0.2531
  452TMC3    C3 6783   1.709   2.143   1.067 -0.2249  0.5136  0.3188
  452TMC3    C4 6784   1.809   2.279   0.852  0.1302  0.8429  0.4997
  452TMC3    C5 6785   1.740   2.159   0.830 -0.6923 -0.2762 -0.1866
  452TMC3    C6 6786   1.694   2.091   0.937 -0.5391  0.0359  0.4762
  452TMC3     C 6787   1.761   2.458   0.984 -0.0883  0.1953  0.0356
  452TMC3     O 6788   1.666   2.467   1.066  0.0649  0.0221  0.0359
  452TMC3     H 6789   1.786   2.312   1.185 -2.9604 -1.9126  1.3742
  452TMC3    H1 6790   1.828   2.344   0.767  0.6016 -2.0949 -1.6370
  452TMC3    H2 6791   1.609   2.025   0.927 -0.7439  0.1277  1.6678
  452TMC3    C7 6792   1.656   2.148   0.710  0.1582 -0.5304  0.1691
  452TMC3    C8 6793   1.588   2.128   1.147 -0.5061 -0.4928 -0.2608
  452TMC3    O1 6794   1.657   2.246   0.630 -0.2048 -0.2223 -0.3683
  452TMC3    O2 6795   1.550   2.015   1.155 -0.5250 -0.3223  0.0286
  453TMC3    C1 6796   1.094   4.180  11.624 -0.5779  0.5557 -0.1612
  453TMC3    C2 6797   1.000   4.099  11.675 -0.4099 -0.1097 -0.3729
  453TMC3    C3 6798   0.950   4.013  11.580  0.7134  0.9108 -0.4192
  453TMC3    C4 6799   1.123   4.186  11.483 -0.3583  0.3684  0.0734
  453TMC3    C5 6800   1.060   4.104  11.397 -0.1620  0.4775  0.8162
  453TMC3    C6 6801   0.977   4.007  11.447  0.0852 -0.0762  0.2582
  453TMC3     C 6802   1.202   4.205  11.716  0.2502 -0.1187 -1.1386
  453TMC3     O 6803   1.217   4.138  11.819  0.0849 -0.1910  0.0263
  453TMC3     H 6804   0.987   4.082  11.782  3.5323 -0.6539  0.0317
  453TMC3    H1 6805   1.197   4.254  11.443  1.0663 -1.7711 -0.9108
  453TMC3    H2 6806   0.912   3.944  11.388  0.0939  0.0379  0.1286
  453TMC3    C7 6807   1.111   4.113  11.265 -0.0967 -0.0106 -0.4573
  453TMC3    C8 6808   0.877   3.897  11.642 -0.3335 -0.3745  0.3467
  453TMC3    O1 6809   1.176   4.213  11.234  0.1787  0.1651 -0.0568
  453TMC3    O2 6810   0.819   3.917  11.750 -0.3563  0.5062  0.4811
  454MPD2     C 6811   0.579   3.756  15.476 -0.4195  0.7704  0.1691
  454MPD2    C1 6812   0.450   3.707  15.497  0.7744 -0.4913 -0.4168
  454MPD2    C2 6813   0.338   3.790  15.501  0.3179  0.2434  0.0202
  454MPD2    C3 6814   0.365   3.928  15.512 -0.2136 -0.0313  0.2125
  454MPD2    C4 6815   0.497   3.976  15.512  0.8700  0.3013 -0.4310
  454MPD2    C5 6816   0.599   3.888  15.499 -0.5105  0.0711  0.2874
  454MPD2     H 6817   0.236   3.754  15.505 -0.8746  3.2206 -3.7605
  454MPD2    H1 6818   0.520   4.081  15.512  0.2231  0.4480  1.6565
  454MPD2    H2 6819   0.666   3.697  15.450 -0.7249 -0.4342  1.8547
  454MPD2    H3 6820   0.702   3.920  15.493  0.3154 -3.3030 -3.6984
  454MPD2     N 6821   0.264   4.029  15.544  0.3082  1.0125 -0.3402
  454MPD2    H5 6822   0.301   4.115  15.582 -0.3841  0.9584  0.4456
  454MPD2    N1 6823   0.423   3.575  15.493 -0.1696 -0.4055  0.2477
  454MPD2    H7 6824   0.325   3.553  15.473 -0.3291 -0.7598  1.4102
  455TMC3    C1 6825   0.076   4.062  15.665  0.3763 -0.3405  0.0347
  455TMC3    C2 6826   0.162   4.162  15.706  0.0643  0.0387 -0.9535
  455TMC3    C3 6827   0.226   4.156  15.825 -0.3371  0.6817 -1.1990
  455TMC3    C4 6828   0.048   3.960  15.750 -0.2667 -0.0632 -0.0577
  455TMC3    C5 6829   0.126   3.946  15.861 -0.6745 -0.2995 -0.3097
  455TMC3    C6 6830   0.215   4.041  15.897  0.1539 -0.0155  0.0645
  455TMC3     C 6831   0.127   4.003  15.542 -0.9684 -0.6726 -0.4155
  455TMC3     O 6832   0.067   3.904  15.497 -0.6373 -0.0290  0.1661
  455TMC3     H 6833   0.164   4.258  15.656  0.7609  1.4491  1.7584
  455TMC3    H1 6834   4.721   3.882  15.713 -0.5750  0.1550  0.0326
  455TMC3    H2 6835   0.289   4.022  15.973  0.9891 -0.2624 -0.8113
  455TMC3    C7 6836   0.172   3.810  15.861 -0.5088  0.0330  0.1796
  455TMC3    C8 6837   0.271   4.277  15.888 -0.2492  0.1344  0.0734
  455TMC3    O1 6838   0.089   3.724  15.832  0.0452 -0.1112  0.6105
  455TMC3    O2 6839   0.304   4.371  15.813 -0.1082  0.1362  0.3694
  456MPD2     C 6840   2.908   3.978  16.483 -0.5404 -0.3089  0.1337
  456MPD2    C1 6841   3.036   3.946  16.442  0.1197 -1.1047  0.4542
  456MPD2    C2 6842   3.134   3.999  16.522 -0.4421 -0.6811 -0.4025
  456MPD2    C3 6843   3.107   4.068  16.636  0.1468  0.1014  0.2072
  456MPD2    C4 6844   2.972   4.103  16.668  0.5128 -0.6979 -0.5670
  456MPD2    C5 6845   2.875   4.056  16.592  0.3271 -0.0176  0.0865
  456MPD2     H 6846   3.237   3.972  16.501 -0.1152 -0.0465  0.3764
  456MPD2    H1 6847   2.945   4.171  16.747 -1.3117 -3.3539  1.1013
  456MPD2    H2 6848   2.827   3.944  16.419 -1.2246  2.0450 -0.2724
  456MPD2    H3 6849   2.774   4.091  16.611  0.6283  0.3684  0.9791
  456MPD2     N 6850   3.220   4.116  16.705 -0.4286 -0.2801  0.0362
  456MPD2    H5 6851   3.307   4.098  16.657 -0.1422  1.7548 -0.2262
  456MPD2    N1 6852   3.055   3.873  16.325  0.5300  0.4067 -0.3221
  456MPD2    H7 6853   2.969   3.837  16.285  0.6417 -1.2596  0.9220
  457TMC3    C1 6854   3.333   4.226  16.882  1.0068 -0.3073  0.3279
  457TMC3    C2 6855   3.410   4.302  16.794  0.3824  0.0396 -0.1644
  457TMC3    C3 6856   3.525   4.360  16.854  0.2932  0.7510  0.2014
  457TMC3    C4 6857   3.346   4.232  17.016  0.2138 -0.0367  0.0839
  457TMC3    C5 6858   3.451   4.304  17.066 -0.6236 -0.5989 -0.0632
  457TMC3    C6 6859   3.543   4.368  16.990 -0.0927 -0.2625  0.4784
  457TMC3     C 6860   3.211   4.168  16.834  0.4035  0.2180  0.1667
  457TMC3     O 6861   3.111   4.172  16.908  0.2211 -0.0009 -0.2426
  457TMC3     H 6862   3.396   4.314  16.687 -1.9931  2.2270  0.3809
  457TMC3    H1 6863   3.274   4.175  17.074  0.7232  0.1151  0.8652
  457TMC3    H2 6864   3.622   4.419  17.044 -0.0101  0.4453 -0.3151
  457TMC3    C7 6865   3.471   4.303  17.205 -0.7487 -0.1701 -0.6783
  457TMC3    C8 6866   3.603   4.456  16.781  0.0104  0.0656  0.9800
  457TMC3    O1 6867   3.423   4.203  17.255 -0.5935  0.4279 -0.0019
  457TMC3    O2 6868   3.688   4.515  16.844 -0.3092  0.0138  0.3370
  458MPD2     C 6869   0.593   2.969  12.254 -0.5777 -0.1617 -0.2522
  458MPD2    C1 6870   0.531   2.926  12.371  0.3202  0.1365 -0.6977
  458MPD2    C2 6871   0.402   2.881  12.370  0.0705 -0.3974  1.0021
  458MPD2    C3 6872   0.320   2.892  12.255  0.1707  0.6921  0.0016
  458MPD2    C4 6873   0.380   2.933  12.139 -0.2711  0.8856 -0.1362
  458MPD2    C5 6874   0.510   2.968  12.141 -0.1258 -0.0771 -0.0669
  458MPD2     H 6875   0.353   2.851  12.462 -1.9134  0.4336  0.2249
  458MPD2    H1 6876   0.322   2.954  12.050  2.0161  0.4472 -1.7169
  458MPD2    H2 6877   0.691   3.014  12.251 -1.0941  0.8522 -1.8454
  458MPD2    H3 6878   0.556   2.996  12.048 -0.7776  1.1287 -0.0234
  458MPD2     N 6879   0.185   2.857  12.278  0.5637  0.3560  0.4775
  458MPD2    H5 6880   0.159   2.822  12.369  0.8621  0.6520  0.6741
  458MPD2    N1 6881   0.603   2.931  12.496 -0.0954  0.2599  0.4793
  458MPD2    H7 6882   0.684   2.991  12.493  1.9006 -2.4918  0.0304
  459TMC3    C1 6883   0.646   2.919  12.728  0.4080 -0.3025 -0.4940
  459TMC3    C2 6884   0.672   3.051  12.734 -0.1879 -0.1871 -0.0269
  459TMC3    C3 6885   0.672   3.113  12.859 -0.5630 -0.0040  0.2974
  459TMC3    C4 6886   0.625   2.838  12.840  0.2923  0.2100 -0.3980
  459TMC3    C5 6887   0.633   2.905  12.966 -0.0466  0.3070  0.4524
  459TMC3    C6 6888   0.659   3.039  12.975  0.0143 -0.1500  0.4925
  459TMC3     C 6889   0.574   2.868  12.615 -0.3927  0.3549  0.2163
  459TMC3     O 6890   0.487   2.783  12.643 -0.6557 -0.1102  0.1796
  459TMC3     H 6891   0.688   3.109  12.645 -1.7785 -1.8417 -1.4058
  459TMC3    H1 6892   0.612   2.730  12.842  0.6165  0.1778 -0.0296
  459TMC3    H2 6893   0.695   3.079  13.069  0.7306  1.4789 -0.4554
  459TMC3    C7 6894   0.672   2.824  13.071 -0.2970 -0.1134  0.4677
  459TMC3    C8 6895   0.727   3.247  12.871 -0.0955  0.4005  0.3925
  459TMC3    O1 6896   0.738   2.725  13.047  0.4618  0.0261  0.5132
  459TMC3    O2 6897   0.787   3.281  12.772  0.3943 -0.3441  0.2397
  460MPD2     C 6898   4.582   1.130  10.407  0.4821  0.2474  0.1177
  460MPD2    C1 6899   4.498   1.103  10.514 -0.0577 -0.4724  0.2086
  460MPD2    C2 6900   4.379   1.174  10.519 -0.3383  0.0033 -1.0640
  460MPD2    C3 6901   4.348   1.280  10.430  0.1635 -0.1713  0.2031
  460MPD2    C4 6902   4.440   1.309  10.333  0.3567 -0.4299  0.1280
  460MPD2    C5 6903   4.558   1.234  10.317  0.1185  0.2604 -0.1795
  460MPD2     H 6904   4.306   1.143  10.593  1.8659  1.1932  1.6069
  460MPD2    H1 6905   4.427   1.392  10.265  1.9324 -0.7570 -0.5821
  460MPD2    H2 6906   4.677   1.079  10.398  0.3990 -0.0560  0.9688
  460MPD2    H3 6907   4.633   1.266  10.245  0.7708 -2.5809 -0.7477
  460MPD2     N 6908   4.219   1.338  10.429  0.0543  0.1817 -0.1143
  460MPD2    H5 6909   4.165   1.327  10.514  0.2557  0.2739  0.0245
  460MPD2    N1 6910   4.533   1.000  10.603 -0.4374 -0.5509  0.1536
  460MPD2    H7 6911   4.619   0.950  10.583  0.4975  0.8377  0.6823
  461TMC3    C1 6912   4.029   1.450  10.348  0.1625 -0.2684 -0.3100
  461TMC3    C2 6913   3.961   1.339  10.400  0.8595 -0.0939  0.1139
  461TMC3    C3 6914   3.834   1.327  10.351 -0.5355  0.8270  0.6400
  461TMC3    C4 6915   3.967   1.544  10.277  0.7067 -0.3217  0.8152
  461TMC3    C5 6916   3.830   1.530  10.254  0.0309 -0.3040 -0.3238
  461TMC3    C6 6917   3.761   1.424  10.295  0.3128  0.4350 -0.9628
  461TMC3     C 6918   4.170   1.427  10.338 -0.5977  0.1992  0.0020
  461TMC3     O 6919   4.214   1.492  10.246 -0.8435 -1.0445  0.3757
  461TMC3     H 6920   4.010   1.247  10.430  0.9670  0.0624  0.4088
  461TMC3    H1 6921   4.025   1.621  10.227 -1.3124 -0.6268 -1.9992
  461TMC3    H2 6922   3.657   1.415  10.267  0.6554 -2.7623 -1.2257
  461TMC3    C7 6923   3.775   1.598  10.136  0.2611 -0.5181  0.5092
  461TMC3    C8 6924   3.800   1.198  10.302 -0.5220  0.5649 -0.3724
  461TMC3    O1 6925   3.727   1.514  10.058  0.3242 -0.1403  0.0253
  461TMC3    O2 6926   3.895   1.122  10.279 -0.2972 -1.0719  0.1834
  462TMC3    C1 6927   0.214   2.095   0.399  0.7872  0.2924 -0.2696
  462TMC3    C2 6928   0.323   2.088   0.316  0.0128 -0.6644 -0.1808
  462TMC3    C3 6929   0.324   1.992   0.217 -0.2056  0.2612  0.6919
  462TMC3    C4 6930   0.101   2.019   0.391  0.3004  0.3064 -1.0195
  462TMC3    C5 6931   0.105   1.926   0.292  0.1600  0.1221  0.6870
  462TMC3    C6 6932   0.213   1.911   0.209 -0.2025  0.2636  0.4097
  462TMC3     C 6933   0.201   2.227   0.450 -0.2466  0.4315  0.1439
  462TMC3     O 6934   0.306   2.287   0.469  0.1623  0.0255 -0.6969
  462TMC3     H 6935   0.411   2.150   0.326 -1.5452  0.9164  3.4891
  462TMC3    H1 6936   0.029   2.004   0.471 -1.4620 -0.6444 -2.7772
  462TMC3    H2 6937   0.202   1.835   0.132 -0.2441  1.0490 -0.3555
  462TMC3    C7 6938   0.040   1.800   0.320 -0.2782  0.5924  0.1147
  462TMC3    C8 6939   0.450   1.954   0.146  0.4489  0.1683 -0.0589
  462TMC3    O1 6940   0.116   1.706   0.309  0.1713 -0.2835  0.2302
  462TMC3    O2 6941   0.533   2.041   0.125  0.1647  0.4775  0.2652
  463MPD2     C 6942   1.557   0.015   1.555  0.5032  0.5598  0.4090
  463MPD2    C1 6943   1.490   0.116   1.497 -0.5890 -0.9650 -0.1319
  463MPD2    C2 6944   1.482   0.242   1.565 -0.3301 -1.2695  0.3079
  463MPD2    C3 6945   1.556   0.265   1.675 -0.3855 -0.0296  0.5414
  463MPD2    C4 6946   1.636   0.165   1.723  0.5659  0.1587 -0.3112
  463MPD2    C5 6947   1.631   0.044   1.666 -0.9327  0.2420  0.4169
  463MPD2     H 6948   1.418   0.318   1.521  0.7518  0.0957  1.0745
  463MPD2    H1 6949   1.698   0.167   1.812  0.5090 -0.4962 -0.2571
  463MPD2    H2 6950   1.552   4.654   1.516  0.5701  0.8187 -0.2731
  463MPD2    H3 6951   1.686   4.705   1.716 -0.7748  1.0855  1.5526
  463MPD2     N 6952   1.569   0.391   1.744  0.5142  0.1520  0.4661
  463MPD2    H5 6953   1.635   0.400   1.821  0.9408  0.6946  0.0310
  463MPD2    N1 6954   1.419   0.101   1.380  0.3844 -0.7529 -0.1217
  463MPD2    H7 6955   1.370   0.185   1.351 -1.2482 -1.6284  0.0894
  464TMC3    C1 6956   1.320   0.021   1.181  0.1398 -0.6246 -0.2014
  464TMC3    C2 6957   1.230   0.114   1.209  0.6150 -0.1061 -0.0313
  464TMC3    C3 6958   1.167   0.169   1.100  0.1236  0.1600 -0.2228
  464TMC3    C4 6959   1.371   0.009   1.051  0.3517  0.5835 -0.3241
  464TMC3    C5 6960   1.306   0.059   0.943  0.4515 -0.0560 -0.3911
  464TMC3    C6 6961   1.195   0.135   0.969 -0.1940  0.0309  0.4836
  464TMC3     C 6962   1.416   4.737   1.287  0.1454  0.5302  0.0767
  464TMC3     O 6963   1.482   4.633   1.288  0.8245 -0.1967 -0.3671
  464TMC3     H 6964   1.198   0.129   1.312 -0.2452  0.4047 -0.3681
  464TMC3    H1 6965   1.462   4.691   1.040  0.0442  0.3487 -1.5775
  464TMC3    H2 6966   1.139   0.187   0.892  2.1813  1.8928  0.0055
  464TMC3    C7 6967   1.292   4.701   0.837 -0.1633 -0.4551 -0.6723
  464TMC3    C8 6968   1.035   0.218   1.117  0.2046  1.1261  0.3855
  464TMC3    O1 6969   1.366   4.602   0.841  0.1341  0.4372  0.4926
  464TMC3    O2 6970   1.004   0.329   1.079 -0.2773 -0.1387  0.5257
  465MPD2     C 6971   1.943   4.003  16.238  0.0119 -0.3654 -0.5021
  465MPD2    C1 6972   1.876   3.945  16.349 -0.6802 -0.7660 -0.1593
  465MPD2    C2 6973   1.741   3.972  16.363  0.1494 -0.2685  0.5265
  465MPD2    C3 6974   1.675   4.056  16.279 -0.1438 -0.6252  0.7035
  465MPD2    C4 6975   1.747   4.135  16.186  0.0493 -0.0577  0.0881
  465MPD2    C5 6976   1.881   4.103  16.175  0.2723 -0.3424 -0.3607
  465MPD2     H 6977   1.691   3.923  16.446  2.3085 -2.9427  0.2194
  465MPD2    H1 6978   1.706   4.213  16.123 -0.8803 -1.3294 -0.9067
  465MPD2    H2 6979   2.045   3.983  16.210  0.6427 -0.7333  2.0152
  465MPD2    H3 6980   1.939   4.160  16.103  0.5683  0.0479  0.1851
  465MPD2     N 6981   1.533   4.079  16.291  0.0851  0.1704  0.1519
  465MPD2    H5 6982   1.490   4.150  16.232  2.8583  1.3759 -0.4162
  465MPD2    N1 6983   1.930   3.854  16.436  0.6727  0.0556 -0.0903
  465MPD2    H7 6984   1.869   3.825  16.512 -0.2260 -2.3229 -1.7365
  466TMC3    C1 6985   1.088   3.989  16.402  0.1988 -0.8497 -0.5683
  466TMC3    C2 6986   1.048   4.109  16.351 -0.3441 -0.3736 -0.4509
  466TMC3    C3 6987   1.155   4.194  16.320  0.3731 -0.6467 -0.0081
  466TMC3    C4 6988   1.217   3.941  16.398 -0.4399  0.3571  0.1846
  466TMC3    C5 6989   1.312   4.024  16.348 -0.5144 -0.8459 -1.0541
  466TMC3    C6 6990   1.281   4.155  16.323  0.2763  0.7398  0.2626
  466TMC3     C 6991   0.983   3.910  16.466 -0.0848 -0.1459  0.1698
  466TMC3     O 6992   0.953   3.803  16.415 -0.2937 -0.0564 -0.5269
  466TMC3     H 6993   0.944   4.139  16.360  0.3920  1.3477  2.2471
  466TMC3    H1 6994   1.240   3.840  16.428 -0.5087 -0.2989 -1.9682
  466TMC3    H2 6995   1.351   4.227  16.281 -1.8410  2.3563 -0.4752
  466TMC3    C7 6996   1.452   3.985  16.344 -0.6570  0.2295  0.0199
  466TMC3    C8 6997   1.115   4.334  16.324  0.3253  0.5091  0.3442
  466TMC3    O1 6998   1.474   3.867  16.375  0.5307  0.2917  0.3331
  466TMC3    O2 6999   1.198   4.414  16.370 -0.1982 -0.2229 -0.0120
  467TMC3    C1 7000   3.155   2.323  13.901 -0.0425 -0.2031 -0.0660
  467TMC3    C2 7001   3.112   2.317  13.769  0.5438  0.4085  0.6563
  467TMC3    C3 7002   2.974   2.319  13.753 -0.1279  0.1184  0.6215
  467TMC3    C4 7003   3.074   2.344  14.002 -0.0323  0.3159 -0.3266
  467TMC3    C5 7004   2.943   2.341  13.981  0.0411  0.1347 -0.0436
  467TMC3    C6 7005   2.887   2.325  13.856 -0.4414 -0.0771  0.0436
  467TMC3     C 7006   3.300   2.336  13.928  0.1045 -0.6124  0.2931
  467TMC3     O 7007   3.324   2.432  13.997 -0.1621 -0.0679 -0.4301
  467TMC3     H 7008   3.188   2.299  13.694 -1.0595 -1.6732 -0.4682
  467TMC3    H1 7009   3.113   2.362  14.102 -0.2226 -1.8915  0.1499
  467TMC3    H2 7010   2.780   2.324  13.846 -0.3058  0.2511 -1.4488
  467TMC3    C7 7011   2.862   2.324  14.095  0.3940 -0.7896 -0.0842
  467TMC3    C8 7012   2.916   2.344  13.619 -0.2230 -0.1848  0.2051
  467TMC3    O1 7013   2.912   2.297  14.205 -0.3256 -0.7153 -0.6503
  467TMC3    O2 7014   2.793   2.330  13.608 -0.3702  0.1721  0.5658
  468MPD2     C 7015   1.369   1.004  10.803  0.6212  0.1372 -0.8120
  468MPD2    C1 7016   1.504   0.971  10.792  0.0605  0.1594 -0.0511
  468MPD2    C2 7017   1.540   0.837  10.788  0.1394  0.4441  0.1626
  468MPD2    C3 7018   1.436   0.743  10.794  0.3157 -0.9241  0.5046
  468MPD2    C4 7019   1.301   0.782  10.792  0.1778  0.1601 -0.4536
  468MPD2    C5 7020   1.265   0.909  10.802 -0.7764  0.9178  0.2977
  468MPD2     H 7021   1.640   0.806  10.762 -0.7795 -2.6598  0.3508
  468MPD2    H1 7022   1.224   0.707  10.805 -0.4124  0.6907 -0.8974
  468MPD2    H2 7023   1.336   1.107  10.800  0.1534 -0.0342 -1.4888
  468MPD2    H3 7024   1.161   0.932  10.821 -1.0646 -1.7591  1.8093
  468MPD2     N 7025   1.463   0.602  10.788 -0.4248  0.3761 -0.2083
  468MPD2    H5 7026   1.385   0.539  10.782  0.0637 -0.2383 -0.0746
  468MPD2    N1 7027   1.607   1.062  10.775 -0.5376 -0.6029  0.6515
  468MPD2    H7 7028   1.700   1.020  10.775 -1.2971 -2.2740  0.3541
  469TMC3    C1 7029   1.722   1.244  10.809 -0.1804 -0.3816 -0.1164
  469TMC3    C2 7030   1.835   1.175  10.781  0.2034  0.0681 -0.3392
  469TMC3    C3 7031   1.933   1.165  10.879 -0.3339 -0.2464 -0.6281
  469TMC3    C4 7032   1.715   1.314  10.926 -0.2274  0.3253  0.3064
  469TMC3    C5 7033   1.808   1.296  11.023  0.1050 -0.0543 -0.1826
  469TMC3    C6 7034   1.922   1.222  11.005  0.0447  0.3996 -0.0858
  469TMC3     C 7035   1.593   1.193  10.767  0.2777  0.4756  0.4790
  469TMC3     O 7036   1.497   1.266  10.773  0.4325  0.6876  0.3832
  469TMC3     H 7037   1.841   1.121  10.687  2.2085  0.0992 -0.2159
  469TMC3    H1 7038   1.619   1.359  10.948  0.1884  0.3832  2.0331
  469TMC3    H2 7039   2.006   1.221  11.074 -0.3488 -0.0422  0.3932
  469TMC3    C7 7040   1.788   1.371  11.147  0.2366 -0.9298  0.4406
  469TMC3    C8 7041   2.015   1.043  10.867 -0.5969 -0.3010  0.2104
  469TMC3    O1 7042   1.699   1.454  11.136  0.2864  0.5086 -0.1512
  469TMC3    O2 7043   2.018   0.984  10.760 -0.4322  0.4270 -0.0061
  470TMC3    C1 7044   4.049   1.650   0.894  0.2704  0.5047  0.3293
  470TMC3    C2 7045   4.181   1.680   0.877  0.0642  0.0480 -0.1300
  470TMC3    C3 7046   4.233   1.764   0.970  0.6350 -0.0865  0.1109
  470TMC3    C4 7047   3.972   1.697   0.988  0.3150 -0.1253 -0.2700
  470TMC3    C5 7048   4.029   1.791   1.073  0.3079  0.0078  0.4876
  470TMC3    C6 7049   4.160   1.830   1.065  0.0383 -0.0575  0.1615
  470TMC3     C 7050   3.993   1.555   0.812  0.3414  0.1472 -0.0098
  470TMC3     O 7051   3.868   1.553   0.809 -0.4081 -0.0129  0.1539
  470TMC3     H 7052   4.235   1.648   0.788 -1.0949 -0.6971 -0.5608
  470TMC3    H1 7053   3.869   1.666   0.996  0.6487 -0.6786  2.1588
  470TMC3    H2 7054   4.213   1.903   1.125 -1.3536  0.7688  0.3784
  470TMC3    C7 7055   3.951   1.821   1.190 -0.1660 -0.5488  0.1133
  470TMC3    C8 7056   4.370   1.820   0.959  0.1336  0.6699  0.0195
  470TMC3    O1 7057   3.869   1.742   1.228 -0.7491  0.1694  0.4146
  470TMC3    O2 7058   4.406   1.892   1.053  0.2817 -0.5188 -0.2791
  471MPD2     C 7059   0.197   2.445  16.463  0.4357  0.3357 -0.1428
  471MPD2    C1 7060   0.080   2.378  16.494 -0.5551  0.2864  0.1475
  471MPD2    C2 7061   0.062   2.320  16.617  0.3041  0.5434 -0.0466
  471MPD2    C3 7062   0.159   2.336  16.717  0.0719  0.3308  0.2429
  471MPD2    C4 7063   0.270   2.413  16.685  0.0150  0.7181  1.0426
  471MPD2    C5 7064   0.293   2.461  16.564  0.3165  0.6072  0.0721
  471MPD2     H 7065   4.719   2.250  16.625  0.7830 -0.2240 -1.9004
  471MPD2    H1 7066   0.350   2.434  16.755  1.6835  0.4941 -0.7904
  471MPD2    H2 7067   0.227   2.472  16.362 -1.6285  1.6026 -0.4231
  471MPD2    H3 7068   0.391   2.499  16.538 -0.0689  2.8829  1.8966
  471MPD2     N 7069   0.151   2.289  16.854 -0.0269 -0.1599 -0.0287
  471MPD2    H5 7070   0.225   2.307  16.921 -0.5729 -0.8403  0.7509
  471MPD2    N1 7071   4.721   2.349  16.397 -0.3241  0.0341  0.1992
  471MPD2    H7 7072   4.649   2.286  16.430 -0.9886  0.8294  0.2532
  472TMC3    C1 7073   4.636   2.315  16.184  0.0883  0.3813 -0.1807
  472TMC3    C2 7074   4.543   2.372  16.101  0.3579  0.3274  0.4243
  472TMC3    C3 7075   4.448   2.286  16.048  0.3115  0.5610 -0.2221
  472TMC3    C4 7076   4.636   2.177  16.218 -0.4959 -0.1917  0.3939
  472TMC3    C5 7077   4.529   2.102  16.167 -0.5227  0.2351 -0.5776
  472TMC3    C6 7078   4.447   2.149  16.071 -0.2716 -0.3216 -0.9841
  472TMC3     C 7079   4.722   2.398  16.267 -0.1678  0.0966  0.1353
  472TMC3     O 7080   0.040   2.495  16.219  0.1649 -0.5847 -0.0424
  472TMC3     H 7081   4.531   2.479  16.114  0.6438  0.2302  1.5167
  472TMC3    H1 7082   4.706   2.129  16.285 -0.8221 -2.5489 -0.9694
  472TMC3    H2 7083   4.361   2.097  16.029 -1.0810  0.7870 -0.7018
  472TMC3    C7 7084   4.478   2.005  16.258 -0.1004  0.3066 -0.2235
  472TMC3    C8 7085   4.321   2.346  16.035 -0.1561  0.3494 -0.1696
  472TMC3    O1 7086   4.548   1.965  16.350  0.7405 -0.0802  0.2244
  472TMC3    O2 7087   4.286   2.379  15.921  0.1272 -0.0193 -0.3211
  473MPD2     C 7088   4.490   4.471  14.092 -0.4198  0.3602 -0.3757
  473MPD2    C1 7089   4.411   4.568  14.040 -0.8944  0.8711 -0.5531
  473MPD2    C2 7090   4.417   4.692  14.105  0.5185  0.3046  0.0271
  473MPD2    C3 7091   4.497   4.726  14.214  0.5333  0.8529  0.5782
  473MPD2    C4 7092   4.584   4.625  14.250 -0.0534 -0.7930  0.5732
  473MPD2    C5 7093   4.576   4.497  14.193 -0.2433  0.3778 -1.0383
  473MPD2     H 7094   4.354   0.030  14.063 -0.1870 -0.3049 -0.0280
  473MPD2    H1 7095   4.656   4.637  14.330  0.8273  0.8514 -0.4585
  473MPD2    H2 7096   4.503   4.380  14.035 -1.4962  0.1042 -0.2272
  473MPD2    H3 7097   4.640   4.417  14.227 -1.3432 -1.0611 -2.3513
  473MPD2     N 7098   4.501   0.107  14.285  0.0580 -0.0347  0.3142
  473MPD2    H5 7099   4.583   0.123  14.342 -0.2967  0.6416  0.6298
  473MPD2    N1 7100   4.346   4.535  13.917  0.2086 -0.3392  0.3713
  473MPD2    H7 7101   4.343   4.434  13.901 -0.7953 -0.0468 -1.2570
  474TMC3    C1 7102   4.439   0.333  14.328  0.9993 -0.3876 -0.1198
  474TMC3    C2 7103   4.345   0.430  14.319 -0.4241 -0.4957  0.3027
  474TMC3    C3 7104   4.380   0.554  14.359 -0.4875  0.2123 -0.4491
  474TMC3    C4 7105   4.571   0.366  14.358 -0.1823  0.5939 -1.0081
  474TMC3    C5 7106   4.601   0.494  14.406 -0.4653 -1.2242  0.4741
  474TMC3    C6 7107   4.503   0.592  14.411  0.9851 -0.0576 -0.4674
  474TMC3     C 7108   4.407   0.204  14.264 -0.5757 -0.1815 -0.0057
  474TMC3     O 7109   4.300   0.197  14.206 -0.7880  0.3299 -0.0867
  474TMC3     H 7110   4.245   0.410  14.282 -0.0166 -0.1551 -1.0089
  474TMC3    H1 7111   4.649   0.291  14.341  0.7516  1.2599  0.3742
  474TMC3    H2 7112   4.515   0.696  14.438  0.6921 -0.0657 -0.3132
  474TMC3    C7 7113   4.737   0.532  14.435  0.2345 -0.3756 -0.5960
  474TMC3    C8 7114   4.282   0.660  14.335 -0.1295 -1.0623  0.1401
  474TMC3    O1 7115   0.086   0.480  14.373 -0.2083 -0.3675 -0.6028
  474TMC3    O2 7116   4.171   0.617  14.357 -0.6366  0.0402  0.1088
  475MPD2     C 7117   1.955   3.354  11.202  0.2054 -1.1941  0.1214
  475MPD2    C1 7118   1.978   3.485  11.166  0.6226  0.5232 -0.4612
  475MPD2    C2 7119   1.869   3.553  11.118  0.3061 -0.3351  0.7820
  475MPD2    C3 7120   1.742   3.505  11.103  0.1375 -0.8044  0.1496
  475MPD2    C4 7121   1.724   3.380  11.149 -0.7956  0.2631  0.3731
  475MPD2    C5 7122   1.830   3.301  11.191 -0.3392 -0.8352 -0.2482
  475MPD2     H 7123   1.885   3.654  11.083 -1.8655  0.0383  0.8742
  475MPD2    H1 7124   1.637   3.317  11.137 -1.3497  1.3589 -1.3746
  475MPD2    H2 7125   2.034   3.297  11.249  0.6857 -0.9482 -0.3894
  475MPD2    H3 7126   1.819   3.196  11.216  2.5291 -0.7305  1.4240
  475MPD2     N 7127   1.636   3.582  11.050  0.0950  0.7736 -0.1788
  475MPD2    H5 7128   1.665   3.667  11.003  0.0853  1.0912  0.3842
  475MPD2    N1 7129   2.098   3.560  11.176  0.3977 -0.1219  0.4729
  475MPD2    H7 7130   2.083   3.660  11.166  1.3926  0.0766  0.9132
  476TMC3    C1 7131   2.309   3.609  11.230  0.0794  0.4258 -0.0583
  476TMC3    C2 7132   2.403   3.637  11.135  1.0077 -0.9074 -0.9117
  476TMC3    C3 7133   2.470   3.760  11.140 -0.0013  0.7745 -0.3766
  476TMC3    C4 7134   2.283   3.694  11.332  0.0303  0.9014  0.3291
  476TMC3    C5 7135   2.359   3.806  11.347  0.5169 -0.6824  0.2774
  476TMC3    C6 7136   2.457   3.840  11.248  0.0856 -0.8512 -0.1070
  476TMC3     C 7137   2.219   3.505  11.213  0.7235 -0.4352  0.1402
  476TMC3     O 7138   2.255   3.391  11.190 -0.2108 -0.2598  0.2554
  476TMC3     H 7139   2.415   3.563  11.057 -1.3278  0.2742 -2.3862
  476TMC3    H1 7140   2.201   3.669  11.399  1.2539 -0.1050  1.4526
  476TMC3    H2 7141   2.516   3.931  11.255 -0.3931 -0.6447  1.2855
  476TMC3    C7 7142   2.308   3.900  11.444  0.3086  0.1789  0.2659
  476TMC3    C8 7143   2.587   3.783  11.057 -0.0326  0.4712  0.2629
  476TMC3    O1 7144   2.229   3.866  11.531  0.3550 -0.4728  0.2252
  476TMC3    O2 7145   2.664   3.869  11.088 -0.2262  0.0131  0.2881
  477MPD2     C 7146   0.544   0.200  11.695  0.2256 -0.1925 -0.6978
  477MPD2    C1 7147   0.430   0.136  11.666  0.0102 -0.3196  0.4386
  477MPD2    C2 7148   0.392   0.016  11.731 -0.0488  0.0110  0.2810
  477MPD2    C3 7149   0.480   4.696  11.818 -0.1904 -0.5633 -0.2835
  477MPD2    C4 7150   0.604   0.023  11.845  0.9914 -0.4862 -0.6662
  477MPD2    C5 7151   0.632   0.142  11.787  0.2456  0.0541 -0.2284
  477MPD2     H 7152   0.308   4.694  11.698 -1.9259  2.7263  0.0528
  477MPD2    H1 7153   0.675   4.725  11.917 -0.0694 -0.3699  0.4478
  477MPD2    H2 7154   0.578   0.298  11.664  1.5197 -0.4474 -0.0762
  477MPD2    H3 7155   0.722   0.192  11.819 -0.0434  0.1400  0.4595
  477MPD2     N 7156   0.449   4.568  11.875  0.1616 -0.0355  0.1718
  477MPD2    H5 7157   0.365   4.521  11.843  2.3414 -3.3114 -0.6727
  477MPD2    N1 7158   0.357   0.187  11.559 -0.0616  0.1608 -0.7052
  477MPD2    H7 7159   0.375   0.284  11.536  0.0674 -0.2567 -2.3684
  478TMC3    C1 7160   0.160   0.223  11.438  0.0722 -0.8511 -0.0369
  478TMC3    C2 7161   0.136   0.348  11.489 -0.0976  0.3558  0.7340
  478TMC3    C3 7162   0.032   0.415  11.426 -0.1358  0.3165 -0.2087
  478TMC3    C4 7163   0.078   0.168  11.349 -0.5222  0.3125  0.5759
  478TMC3    C5 7164   4.727   0.246  11.282 -0.4231 -0.3237  0.4807
  478TMC3    C6 7165   4.697   0.369  11.327 -0.0832  0.1289 -0.0996
  478TMC3     C 7166   0.244   0.134  11.514  0.1065  0.0256 -0.2712
  478TMC3     O 7167   0.217   0.015  11.494  0.3421 -0.6372 -0.2751
  478TMC3     H 7168   0.200   0.384  11.568  1.4542 -3.1945  1.0805
  478TMC3    H1 7169   0.097   0.067  11.314  2.5804  1.2940 -0.5176
  478TMC3    H2 7170   4.606   0.423  11.303  1.1255  1.5554 -1.4847
  478TMC3    C7 7171   4.611   0.177  11.226  0.2457  0.3445 -0.0870
  478TMC3    C8 7172   4.726   0.515  11.529 -0.0837 -0.0172  0.4363
  478TMC3    O1 7173   4.609   0.055  11.251 -0.7376 -0.6225 -0.3644
  478TMC3    O2 7174   0.022   0.501  11.645 -0.0128  0.0135  0.6340
  479MPD2     C 7175   4.196   1.984  15.304  0.4806 -0.0163  0.1524
  479MPD2    C1 7176   4.145   1.880  15.376  0.1748 -0.1968  0.4937
  479MPD2    C2 7177   4.194   1.862  15.504  0.1587 -0.4205  0.0604
  479MPD2    C3 7178   4.276   1.962  15.563  0.4740  0.5664  0.0916
  479MPD2    C4 7179   4.336   2.057  15.476 -0.8587  0.0458  0.2196
  479MPD2    C5 7180   4.303   2.059  15.348 -0.4551 -0.2665 -0.3212
  479MPD2     H 7181   4.149   1.790  15.571  1.8483  0.8934  2.6091
  479MPD2    H1 7182   4.400   2.138  15.509  0.0239 -0.3489 -0.5171
  479MPD2    H2 7183   4.162   1.988  15.201  1.2908 -1.0031 -0.1591
  479MPD2    H3 7184   4.340   2.141  15.289  2.1521  0.6321  2.5284
  479MPD2     N 7185   4.288   1.994  15.700  0.1128  0.4518  0.0858
  479MPD2    H5 7186   4.371   2.041  15.735  2.7094 -2.3128 -2.3648
  479MPD2    N1 7187   4.036   1.812  15.316 -0.1650  0.0685 -0.2074
  479MPD2    H7 7188   4.019   1.827  15.217  0.6243  0.2620 -0.3089
  480TMC3    C1 7189   3.877   1.783  15.814  0.0497  0.5168  0.5450
  480TMC3    C2 7190   3.808   1.849  15.710  0.9013  0.2234  0.4169
  480TMC3    C3 7191   3.862   1.955  15.649 -0.4531  1.3102  1.0498
  480TMC3    C4 7192   4.004   1.819  15.842  0.3133  0.1097 -0.5034
  480TMC3    C5 7193   4.066   1.917  15.763  0.0524 -0.1221  0.0109
  480TMC3    C6 7194   3.995   1.991  15.676 -0.1775  0.2623 -0.4432
  480TMC3     C 7195   3.817   1.674  15.884  0.2359 -0.3541  0.2277
  480TMC3     O 7196   3.703   1.643  15.858  0.1501  0.0332  0.0510
  480TMC3     H 7197   3.705   1.819  15.695  0.9968  0.5196 -0.8147
  480TMC3    H1 7198   4.069   1.760  15.905 -0.3400  0.7912  0.7994
  480TMC3    H2 7199   4.029   2.085  15.634  0.7355  0.3044  0.3728
  480TMC3    C7 7200   4.206   1.943  15.798  0.0480 -0.3399 -0.0691
  480TMC3    C8 7201   3.776   2.016  15.550  0.2830 -0.3288 -0.1126
  480TMC3    O1 7202   4.223   1.932  15.918  0.4862  0.3446 -0.0545
  480TMC3    O2 7203   3.656   2.016  15.568 -0.5055  0.2069  0.5944
  481MPD2     C 7204   1.011   1.893  14.027 -0.9141 -0.6318  0.3328
  481MPD2    C1 7205   0.919   1.796  14.052  0.1456  0.1000 -1.2316
  481MPD2    C2 7206   0.866   1.785  14.180 -0.1890  0.0943 -0.1314
  481MPD2    C3 7207   0.911   1.858  14.280  0.3431 -0.1461 -0.0335
  481MPD2    C4 7208   1.014   1.946  14.256  0.7807 -0.5747 -0.5329
  481MPD2    C5 7209   1.065   1.964  14.130 -0.9160 -0.1032 -0.7046
  481MPD2     H 7210   0.793   1.706  14.198 -0.7674  0.2405 -1.7725
  481MPD2    H1 7211   1.059   2.003  14.337  2.1952 -1.5347 -0.6479
  481MPD2    H2 7212   1.059   1.911  13.932  0.1166 -0.0394  0.9609
  481MPD2    H3 7213   1.149   2.029  14.106 -0.6089 -0.0743  0.4910
  481MPD2     N 7214   0.868   1.843  14.419  0.0058 -0.1505  0.7083
  481MPD2    H5 7215   0.901   1.914  14.484  1.3915  0.9022 -1.1542
  481MPD2    N1 7216   0.877   1.731  13.938  0.6927  0.3965 -0.5502
  481MPD2    H7 7217   0.937   1.750  13.858  1.1937  1.1681  0.0017
  482TMC3    C1 7218   0.744   1.601  13.796  0.5217  0.6504  0.0939
  482TMC3    C2 7219   0.627   1.535  13.775  0.1627 -0.3601 -0.2109
  482TMC3    C3 7220   0.576   1.548  13.655  0.2716 -0.1762  0.4728
  482TMC3    C4 7221   0.820   1.646  13.689  0.0221 -0.1992  0.0734
  482TMC3    C5 7222   0.776   1.618  13.565  0.3352 -1.0936 -0.3136
  482TMC3    C6 7223   0.647   1.589  13.544 -0.3472  0.3863  0.7949
  482TMC3     C 7224   0.782   1.631  13.933 -0.8998  0.4059 -0.2671
  482TMC3     O 7225   0.709   1.577  14.018  0.3772  0.6729 -0.0741
  482TMC3     H 7226   0.567   1.517  13.863 -1.6847  2.3851 -0.9130
  482TMC3    H1 7227   0.926   1.665  13.704  0.0675 -1.8140  1.8301
  482TMC3    H2 7228   0.605   1.584  13.444 -1.8948 -0.4121  1.4906
  482TMC3    C7 7229   0.881   1.566  13.477  0.0826  0.2781  0.7696
  482TMC3    C8 7230   0.440   1.517  13.630  0.2500  0.1531  0.2725
  482TMC3    O1 7231   0.998   1.601  13.506  0.0693  0.8671 -0.5749
  482TMC3    O2 7232   0.373   1.596  13.568  0.1316 -0.1051  0.3048
  483TMC3    C1 7233   4.194   0.877   1.414  0.1769 -0.3753 -0.5402
  483TMC3    C2 7234   4.282   0.980   1.425  0.3816  0.5443 -0.6723
  483TMC3    C3 7235   4.417   0.957   1.426  0.2799 -0.0028 -0.1660
  483TMC3    C4 7236   4.243   0.749   1.406 -0.9511 -0.4132  0.2440
  483TMC3    C5 7237   4.371   0.726   1.391  0.0517 -0.2750 -0.0251
  483TMC3    C6 7238   4.460   0.826   1.408  0.5604  0.3250  0.1069
  483TMC3     C 7239   4.077   0.906   1.338  0.0371 -0.5610 -0.2493
  483TMC3     O 7240   4.006   1.001   1.364 -0.8317 -0.1515  0.0387
  483TMC3     H 7241   4.245   1.082   1.420 -2.4637 -0.5282 -1.3596
  483TMC3    H1 7242   4.167   0.672   1.411 -0.8936 -0.4927 -0.1045
  483TMC3    H2 7243   4.566   0.817   1.385  0.0513 -1.0279 -1.7701
  483TMC3    C7 7244   4.386   0.606   1.309 -0.8767  0.6738  0.1642
  483TMC3    C8 7245   4.505   1.056   1.367  0.0954  0.0502 -0.0772
  483TMC3    O1 7246   4.288   0.580   1.241  0.5079  0.3603  0.2912
  483TMC3    O2 7247   4.446   1.148   1.303 -0.3230  0.1695  0.2240
  484MPD2     C 7248   0.695   3.529  13.112  0.6184 -0.2809  0.0186
  484MPD2    C1 7249   0.742   3.454  13.004 -0.6884  0.1899 -0.4189
  484MPD2    C2 7250   0.842   3.516  12.926 -0.2451 -0.4239  0.7777
  484MPD2    C3 7251   0.879   3.650  12.943 -0.1924 -0.6069  0.6461
  484MPD2    C4 7252   0.823   3.720  13.049  0.7989  0.2828  0.4360
  484MPD2    C5 7253   0.730   3.659  13.132 -0.0475 -0.2278  0.3120
  484MPD2     H 7254   0.886   3.466  12.840 -2.1294 -1.8038  0.6403
  484MPD2    H1 7255   0.847   3.822  13.078  2.5862 -0.4574  1.6014
  484MPD2    H2 7256   0.614   3.485  13.170  0.0117 -0.1595 -0.7493
  484MPD2    H3 7257   0.684   3.709  13.217 -0.3208 -1.8548  1.1029
  484MPD2     N 7258   0.969   3.713  12.855 -0.3102 -1.0342 -0.1754
  484MPD2    H5 7259   0.972   3.815  12.864 -0.3622 -1.1501  1.1959
  484MPD2    N1 7260   0.691   3.320  12.983  0.4892  0.6740 -0.5504
  484MPD2    H7 7261   0.631   3.280  13.055 -0.1198  0.8457 -0.9621
  485TMC3    C1 7262   1.154   3.736  12.713 -0.2590 -0.1370 -0.2908
  485TMC3    C2 7263   1.273   3.678  12.694  0.0658  0.0855  0.3753
  485TMC3    C3 7264   1.321   3.670  12.571 -0.0211 -0.0628  0.3324
  485TMC3    C4 7265   1.086   3.786  12.604 -0.0247  0.0989 -1.1136
  485TMC3    C5 7266   1.143   3.772  12.477 -0.7315 -0.0488 -0.7418
  485TMC3    C6 7267   1.260   3.717  12.462 -0.4680  0.1419  0.3919
  485TMC3     C 7268   1.070   3.648  12.792 -0.0104  0.5303 -0.3182
  485TMC3     O 7269   1.104   3.528  12.794  0.2894 -0.3026  0.1740
  485TMC3     H 7270   1.313   3.615  12.773  1.4018  2.7536  1.7959
  485TMC3    H1 7271   0.995   3.844  12.609  0.4470  0.8731 -1.4456
  485TMC3    H2 7272   1.304   3.740  12.365 -0.8001  0.8034  0.4004
  485TMC3    C7 7273   1.075   3.825  12.369  0.0302  0.8280  0.5608
  485TMC3    C8 7274   1.423   3.563  12.546 -0.2776 -0.2946  0.2686
  485TMC3    O1 7275   1.059   3.947  12.361 -0.6243 -0.1734 -0.0601
  485TMC3    O2 7276   1.486   3.522  12.644  0.5169  0.4585  0.3648
  486MPD2     C 7277   3.617   2.199  12.722 -1.0135  0.0020 -0.4608
  486MPD2    C1 7278   3.488   2.151  12.709 -0.0201  0.0080  0.0451
  486MPD2    C2 7279   3.382   2.241  12.693 -0.3805  0.1212 -0.2389
  486MPD2    C3 7280   3.405   2.376  12.706  0.4569  0.4330  0.0836
  486MPD2    C4 7281   3.536   2.422  12.725 -0.0199 -0.9794 -0.2368
  486MPD2    C5 7282   3.639   2.332  12.728  0.1591 -0.2415 -0.4172
  486MPD2     H 7283   3.283   2.205  12.668 -0.8129 -0.7379  2.6752
  486MPD2    H1 7284   3.553   2.529  12.732 -0.2334 -0.9684  0.1148
  486MPD2    H2 7285   3.703   2.135  12.708 -0.6469  0.4870 -0.4364
  486MPD2    H3 7286   3.744   2.361  12.736  1.4798 -5.4170  0.8257
  486MPD2     N 7287   3.290   2.461  12.693 -0.4047  0.5498  0.1351
  486MPD2    H5 7288   3.202   2.416  12.667 -0.5618 -0.1850  1.9231
  486MPD2    N1 7289   3.467   2.010  12.716  0.0705  0.3031 -0.3254
  486MPD2    H7 7290   3.546   1.949  12.736 -2.0149 -2.3892 -0.3864
  487TMC3    C1 7291   3.337   1.816  12.780 -0.6941 -0.1899 -0.1056
  487TMC3    C2 7292   3.220   1.750  12.778 -0.6222 -0.0748 -0.7174
  487TMC3    C3 7293   3.201   1.638  12.852  0.3032  0.7889 -0.3115
  487TMC3    C4 7294   3.439   1.768  12.851 -0.1428 -0.6239 -0.7226
  487TMC3    C5 7295   3.426   1.653  12.922  0.1472  0.5067  0.2101
  487TMC3    C6 7296   3.306   1.590  12.932  0.3721 -0.2045 -0.0084
  487TMC3     C 7297   3.345   1.949  12.719  0.6580  0.7535 -0.1674
  487TMC3     O 7298   3.234   1.996  12.689 -0.0070  0.5998  0.4220
  487TMC3     H 7299   3.141   1.804  12.728 -0.1864  0.5116 -0.7723
  487TMC3    H1 7300   3.542   1.801  12.844  0.0274 -1.0605 -0.2722
  487TMC3    H2 7301   3.300   1.495  12.983  1.2652  0.4935  1.3751
  487TMC3    C7 7302   3.488   1.657  13.049 -0.6922  0.2918 -0.3213
  487TMC3    C8 7303   3.086   1.640  12.936  0.9257  0.1377  0.1018
  487TMC3    O1 7304   3.597   1.711  13.068  0.3069  0.3569  0.1826
  487TMC3    O2 7305   3.108   1.633  13.056  0.5320 -0.1463 -0.8081
  488MPD2     C 7306   3.838   3.658  16.343 -0.3170 -0.6580 -0.0408
  488MPD2    C1 7307   3.845   3.790  16.386  0.2679 -0.2989  0.2848
  488MPD2    C2 7308   3.815   3.822  16.513  0.8139  0.1854 -0.2275
  488MPD2    C3 7309   3.787   3.725  16.604  0.7547  0.2432  0.3156
  488MPD2    C4 7310   3.796   3.594  16.571 -0.4019  0.3874 -0.3682
  488MPD2    C5 7311   3.822   3.561  16.440 -0.5826  0.6786  0.5632
  488MPD2     H 7312   3.825   3.924  16.550 -1.6280  0.2924  0.1776
  488MPD2    H1 7313   3.770   3.513  16.638 -1.5955  0.9540 -0.1416
  488MPD2    H2 7314   3.842   3.630  16.238 -1.3909 -1.0332  0.0159
  488MPD2    H3 7315   3.825   3.460  16.402 -3.4021  0.4960  0.8265
  488MPD2     N 7316   3.764   3.775  16.740  0.0658 -0.5569  0.1296
  488MPD2    H5 7317   3.756   3.874  16.759  0.1645 -1.4823  5.0102
  488MPD2    N1 7318   3.870   3.905  16.303  0.1378 -0.0002  0.8557
  488MPD2    H7 7319   3.873   3.999  16.342  0.6747 -0.7511  2.6109
  489TMC3    C1 7320   3.688   3.775  16.960 -0.2872  0.3396 -0.3375
  489TMC3    C2 7321   3.682   3.909  16.947 -0.3048  0.6903 -0.2490
  489TMC3    C3 7322   3.711   3.992  17.055 -0.0760 -0.2106 -0.1778
  489TMC3    C4 7323   3.705   3.720  17.085  0.2141  0.4827 -0.1633
  489TMC3    C5 7324   3.732   3.801  17.194  0.0508  0.0733  1.0671
  489TMC3    C6 7325   3.739   3.942  17.179 -0.1461 -0.0034  0.4819
  489TMC3     C 7326   3.710   3.694  16.838  0.2271 -0.1910  0.3458
  489TMC3     O 7327   3.698   3.572  16.849 -0.8681 -0.0639  0.2487
  489TMC3     H 7328   3.636   3.957  16.862 -1.2664 -1.5319 -0.9701
  489TMC3    H1 7329   3.719   3.613  17.080 -0.5113  0.3469  0.6749
  489TMC3    H2 7330   3.792   4.000  17.254 -0.4391  0.4791  0.3157
  489TMC3    C7 7331   3.735   3.748  17.325 -0.0768 -0.0378  1.0327
  489TMC3    C8 7332   3.780   4.115  17.013 -0.8684  0.8778 -0.3315
  489TMC3    O1 7333   3.791   3.812  17.417  0.6457  0.1505 -0.0355
  489TMC3    O2 7334   3.785   4.126  16.892 -0.2011 -0.2466 -0.2069
  490MPD2     C 7335   4.466   3.653  16.793 -0.0453  0.1887 -0.3569
  490MPD2    C1 7336   4.506   3.520  16.771  0.4250  0.1223  0.5420
  490MPD2    C2 7337   4.638   3.508  16.716 -0.3656  0.4874  0.0811
  490MPD2    C3 7338   4.703   3.618  16.668  0.2205  0.4849  0.6223
  490MPD2    C4 7339   4.655   3.746  16.684 -0.1877 -1.0089 -0.2849
  490MPD2    C5 7340   4.535   3.760  16.745 -0.6959 -0.3498 -0.5076
  490MPD2     H 7341   4.679   3.408  16.707  0.1135  0.6969 -0.0493
  490MPD2    H1 7342   4.709   3.836  16.655  0.7636 -1.7732 -0.8739
  490MPD2    H2 7343   4.373   3.681  16.842  0.4254  1.1459  0.0098
  490MPD2    H3 7344   4.499   3.855  16.781  0.5149  0.1293 -0.5778
  490MPD2     N 7345   0.103   3.608  16.624  0.0937  0.0119 -0.2948
  490MPD2    H5 7346   0.143   3.698  16.600 -0.1750  0.5068  1.1021
  490MPD2    N1 7347   4.442   3.402  16.813 -0.7259  0.3135 -0.0612
  490MPD2    H7 7348   4.493   3.314  16.815 -1.4302 -0.0734  1.4184
  491TMC3    C1 7349   4.287   3.281  16.939 -0.0189 -0.6499 -0.2520
  491TMC3    C2 7350   4.353   3.257  17.051 -0.5378  0.0374 -0.8889
  491TMC3    C3 7351   4.282   3.181  17.144  0.0012  0.0136 -0.3876
  491TMC3    C4 7352   4.154   3.254  16.917 -0.0358  0.0661 -0.2578
  491TMC3    C5 7353   4.084   3.187  17.020  0.6802  0.0567 -0.1717
  491TMC3    C6 7354   4.152   3.149  17.131 -0.2918  0.0630  0.9522
  491TMC3     C 7355   4.316   3.407  16.873  0.6061 -0.0024 -0.4756
  491TMC3     O 7356   4.227   3.487  16.847  0.0960  0.0722 -0.2503
  491TMC3     H 7357   4.456   3.282  17.071 -0.8908  0.4618  0.3717
  491TMC3    H1 7358   4.107   3.286  16.825 -1.4023  1.7214  1.0181
  491TMC3    H2 7359   4.104   3.098  17.213 -0.8656 -1.2589 -0.2218
  491TMC3    C7 7360   3.983   3.090  16.984  0.0048 -0.2538 -0.1178
  491TMC3    C8 7361   4.334   3.167  17.278 -0.2627 -0.7217 -0.0620
  491TMC3    O1 7362   3.988   2.980  17.037  0.5360 -0.0925  0.0118
  491TMC3    O2 7363   4.302   3.065  17.335  0.2146 -0.1626  0.4406
  492MPD2     C 7364   4.610   3.214  11.564  0.6034 -0.6160  0.0174
  492MPD2    C1 7365   4.504   3.158  11.493 -0.0252 -0.1715 -0.0780
  492MPD2    C2 7366   4.438   3.050  11.547 -0.4043 -0.0573 -0.3140
  492MPD2    C3 7367   4.491   2.993  11.663  0.2680 -0.3148 -0.6752
  492MPD2    C4 7368   4.583   3.061  11.742  0.2258 -0.1199 -0.1941
  492MPD2    C5 7369   4.648   3.173  11.691  0.0770  0.0678 -0.8048
  492MPD2     H 7370   4.357   3.006  11.489  0.8481 -0.3558 -1.8556
  492MPD2    H1 7371   4.618   3.008  11.830 -1.2164  1.5218  1.3510
  492MPD2    H2 7372   4.664   3.298  11.524 -0.3718  0.8666  1.8085
  492MPD2    H3 7373   4.735   3.218  11.739 -1.3009  1.2120  0.5987
  492MPD2     N 7374   4.448   2.865  11.705 -0.9412  0.9775  0.4217
  492MPD2    H5 7375   4.493   2.826  11.787 -1.5651  0.9423  0.7538
  492MPD2    N1 7376   4.467   3.228  11.377 -0.3308 -0.5277 -0.4277
  492MPD2    H7 7377   4.523   3.311  11.357  0.9031 -0.7253  2.1675
  493TMC3    C1 7378   4.338   3.324  11.223  0.0132  0.3690  0.4242
  493TMC3    C2 7379   4.410   3.440  11.246  0.0070  0.8062  0.6220
  493TMC3    C3 7380   4.419   3.536  11.149 -0.5961 -0.0641 -0.7082
  493TMC3    C4 7381   4.276   3.310  11.108  0.4560  0.2051 -0.0202
  493TMC3    C5 7382   4.290   3.409  11.012  0.3816  0.1381  0.6817
  493TMC3    C6 7383   4.356   3.525  11.032 -0.6847  0.2174 -0.0638
  493TMC3     C 7384   4.346   3.214  11.313 -0.1088 -0.2024  0.1108
  493TMC3     O 7385   4.263   3.130  11.313  0.2521 -0.5220  0.2585
  493TMC3     H 7386   4.445   3.470  11.344 -0.3846  2.7541  0.1669
  493TMC3    H1 7387   4.220   3.217  11.103  1.5615 -0.4143 -0.8866
  493TMC3    H2 7388   4.384   3.585  10.946  0.6015 -0.9013 -0.4334
  493TMC3    C7 7389   4.182   3.410  10.917 -0.1288  0.0011  0.3364
  493TMC3    C8 7390   4.487   3.657  11.195  0.2577  0.0103  0.2500
  493TMC3    O1 7391   4.102   3.317  10.917 -0.3092  0.2451 -0.2251
  493TMC3    O2 7392   4.566   3.645  11.290 -0.2034  0.5396  0.0513
  494TMC3    C1 7393   0.736   0.506   0.262 -0.6647 -0.0263 -0.0391
  494TMC3    C2 7394   0.795   0.389   0.284 -0.6935  0.0089  0.9751
  494TMC3    C3 7395   0.827   0.316   0.178  0.2814 -0.5042  0.3408
  494TMC3    C4 7396   0.711   0.557   0.141  0.0719  0.1522  0.0411
  494TMC3    C5 7397   0.760   0.488   0.032  0.2714 -0.6821 -0.1397
  494TMC3    C6 7398   0.817   0.359   0.047 -0.8064  0.7468  0.0834
  494TMC3     C 7399   0.650   0.554   0.370 -0.2561  0.1898  0.1488
  494TMC3     O 7400   0.610   0.476   0.452 -0.0976 -0.2988  0.1905
  494TMC3     H 7401   0.812   0.358   0.387  2.3131 -4.0257 -0.7578
  494TMC3    H1 7402   0.654   0.647   0.119 -1.3169 -0.4659  1.1428
  494TMC3    H2 7403   0.858   0.309  17.715 -1.8352 -0.5319  0.3358
  494TMC3    C7 7404   0.775   0.549  17.661  0.1383  0.8562 -0.0636
  494TMC3    C8 7405   0.880   0.185   0.196  0.3240 -0.4706 -0.1752
  494TMC3    O1 7406   0.767   0.471  17.563  0.6770  0.1209 -0.4215
  494TMC3    O2 7407   0.963   0.180   0.287 -0.2259 -0.3831 -0.2450
  495TMC3    C1 7408   4.254   2.146  14.789 -0.1960  0.9341 -0.1655
  495TMC3    C2 7409   4.207   2.196  14.670 -0.1659 -0.0767 -0.0045
  495TMC3    C3 7410   4.104   2.285  14.669 -0.5094  0.7271  0.1721
  495TMC3    C4 7411   4.228   2.206  14.910  0.7919  0.5695 -0.2356
  495TMC3    C5 7412   4.121   2.290  14.907 -0.1728  0.4289  0.5924
  495TMC3    C6 7413   4.066   2.337  14.793  0.0962 -0.2405  0.0261
  495TMC3     C 7414   4.214   2.005  14.784 -0.2162  0.0346 -0.3545
  495TMC3     O 7415   4.133   1.961  14.858 -0.4339  0.3034 -0.4550
  495TMC3     H 7416   4.240   2.146  14.580  2.6506  0.1158  0.9210
  495TMC3    H1 7417   4.256   2.161  15.004 -4.0841 -0.2421  0.8379
  495TMC3    H2 7418   3.980   2.402  14.803  1.9310  2.2561 -0.1958
  495TMC3    C7 7419   4.051   2.317  15.028  0.5158  0.5908 -0.3254
  495TMC3    C8 7420   4.016   2.306  14.553 -0.0051  0.4025  0.3263
  495TMC3    O1 7421   4.122   2.311  15.128 -0.3938  0.2019 -0.1364
  495TMC3    O2 7422   3.914   2.377  14.565  0.6385 -0.1396 -0.1182
  496MPD2     C 7423   1.113   2.321  14.951 -0.0779  0.1959  0.0769
  496MPD2    C1 7424   1.177   2.337  15.071  0.4961  0.2976  0.4435
  496MPD2    C2 7425   1.103   2.307  15.186 -0.1986 -0.1018 -0.3277
  496MPD2    C3 7426   0.977   2.249  15.172 -0.3905  0.8957 -0.1580
  496MPD2    C4 7427   0.925   2.227  15.047 -0.1985  0.2573  0.0108
  496MPD2    C5 7428   0.991   2.263  14.935 -0.0010  0.1066  0.4568
  496MPD2     H 7429   1.147   2.307  15.285  3.1101 -1.3679 -1.7875
  496MPD2    H1 7430   0.830   2.178  15.030 -0.4767  0.6188  0.5011
  496MPD2    H2 7431   1.163   2.353  14.860  1.3779  1.3165  1.2702
  496MPD2    H3 7432   0.951   2.230  14.839  0.1990 -0.5521  0.5972
  496MPD2     N 7433   0.896   2.192  15.276 -0.4209  0.0687 -0.0284
  496MPD2    H5 7434   0.817   2.138  15.240 -0.8609 -1.0009  2.5464
  496MPD2    N1 7435   1.318   2.369  15.076 -0.0309 -0.3910  0.3924
  496MPD2    H7 7436   1.363   2.377  14.985 -0.1151 -0.7817  0.3158
  497TMC3    C1 7437   0.806   2.178  15.493 -1.0694  0.1536  0.1271
  497TMC3    C2 7438   0.690   2.136  15.440 -0.4193  0.5545  0.5416
  497TMC3    C3 7439   0.587   2.091  15.521 -0.0603 -0.1954 -0.0829
  497TMC3    C4 7440   0.825   2.188  15.629  0.2999 -0.0389  0.0716
  497TMC3    C5 7441   0.727   2.132  15.710 -0.4115  0.2959 -0.1715
  497TMC3    C6 7442   0.605   2.088  15.663 -0.4338  0.2960 -0.3527
  497TMC3     C 7443   0.903   2.235  15.407 -0.5844  0.5993  0.1436
  497TMC3     O 7444   0.976   2.317  15.466  0.0625 -0.0415  0.6217
  497TMC3     H 7445   0.672   2.158  15.335  0.5515  1.2407  0.5189
  497TMC3    H1 7446   0.916   2.240  15.654  1.1196 -2.0328  1.2151
  497TMC3    H2 7447   0.532   2.041  15.727  0.3673  0.0391  0.3758
  497TMC3    C7 7448   0.748   2.113  15.853 -0.0600  0.0514 -0.0518
  497TMC3    C8 7449   0.457   2.077  15.455  0.2180 -0.6207  0.2346
  497TMC3    O1 7450   0.655   2.065  15.909 -0.5131 -0.4879 -0.0999
  497TMC3    O2 7451   0.448   2.046  15.336  0.2990 -0.5835  0.0961
  498MPD2     C 7452   1.401   4.168  10.005  0.1008  0.1802 -0.3168
  498MPD2    C1 7453   1.498   4.092  10.064 -0.0383 -0.6891 -0.1993
  498MPD2    C2 7454   1.452   3.968  10.120  0.0956  0.4300  0.4901
  498MPD2    C3 7455   1.328   3.918  10.089 -0.7117 -0.3142 -0.6093
  498MPD2    C4 7456   1.245   3.985  10.013  0.0829 -0.4053 -0.7034
  498MPD2    C5 7457   1.277   4.115   9.989 -0.7072 -0.0544  0.0125
  498MPD2     H 7458   1.525   3.901  10.164 -0.6325  0.9197  2.4270
  498MPD2    H1 7459   1.147   3.943   9.991 -1.0411  0.6229  2.2848
  498MPD2    H2 7460   1.420   4.269   9.971  0.9359 -0.2226 -1.0694
  498MPD2    H3 7461   1.202   4.176   9.940 -0.5934  1.2096  1.4228
  498MPD2     N 7462   1.297   3.783  10.128 -0.3288 -0.2379 -0.7489
  498MPD2    H5 7463   1.368   3.736  10.183 -1.6822 -0.3966  0.8334
  498MPD2    N1 7464   1.631   4.134  10.094 -0.1869  0.0427 -0.1342
  498MPD2    H7 7465   1.694   4.092  10.161  1.8189 -0.1151 -2.1263
  499TMC3    C1 7466   1.832   4.225  10.047 -0.2195  0.1552 -0.9280
  499TMC3    C2 7467   1.875   4.207  10.175 -0.3478 -0.5601  0.5982
  499TMC3    C3 7468   2.012   4.192  10.178 -0.3618  0.5547 -0.9379
  499TMC3    C4 7469   1.914   4.245   9.935  0.5102 -0.4641 -0.0903
  499TMC3    C5 7470   2.046   4.227   9.949 -0.1712  0.2471 -0.1426
  499TMC3    C6 7471   2.100   4.195  10.069 -0.2697  0.3605  0.0803
  499TMC3     C 7472   1.695   4.227  10.024  0.1681  0.0928 -0.2448
  499TMC3     O 7473   1.654   4.279   9.922 -0.8991  0.0513  0.2511
  499TMC3     H 7474   1.807   4.231  10.255  0.7664  0.7797  1.1559
  499TMC3    H1 7475   1.871   4.281   9.842 -0.2961  0.9618  0.8262
  499TMC3    H2 7476   2.199   4.154  10.084 -0.1809  1.0125  1.3206
  499TMC3    C7 7477   2.124   4.190   9.836 -0.0968  0.8791 -0.0014
  499TMC3    C8 7478   2.080   4.199  10.301 -0.0700 -0.0054 -0.4386
  499TMC3    O1 7479   2.241   4.167   9.852  0.1138 -0.8168 -0.2954
  499TMC3    O2 7480   2.186   4.259  10.298  0.4403  0.1571  0.0469
  500MPD2     C 7481   3.279   4.026  11.028 -0.5360 -0.1120 -0.4287
  500MPD2    C1 7482   3.316   4.136  10.946 -0.1084  0.2928  0.4108
  500MPD2    C2 7483   3.253   4.154  10.828  1.1253  0.3125  0.5003
  500MPD2    C3 7484   3.140   4.088  10.798 -0.2749  0.8798 -0.0723
  500MPD2    C4 7485   3.099   3.986  10.882 -0.4090  0.3985  0.3574
  500MPD2    C5 7486   3.171   3.951  10.993  0.0198 -0.5366 -0.0497
  500MPD2     H 7487   3.295   4.239  10.774  0.7646 -0.5435 -1.1225
  500MPD2    H1 7488   3.010   3.928  10.861  0.1652  0.4504 -2.2951
  500MPD2    H2 7489   3.336   4.008  11.119 -1.9201 -2.2684  0.0045
  500MPD2    H3 7490   3.134   3.872  11.058  0.3791 -0.8314 -0.2031
  500MPD2     N 7491   3.068   4.108  10.680 -0.3618 -0.2540 -0.7087
  500MPD2    H5 7492   2.984   4.052  10.669 -0.5798 -0.0634  0.0336
  500MPD2    N1 7493   3.410   4.236  10.971 -0.0232  0.2485 -0.7666
  500MPD2    H7 7494   3.426   4.311  10.905  1.2319  0.7611  0.1273
  501TMC3    C1 7495   3.570   4.351  11.101  0.1218 -0.1155  0.2273
  501TMC3    C2 7496   3.555   4.454  11.019 -0.0245  0.6028 -0.1994
  501TMC3    C3 7497   3.650   4.562  11.030  0.8897 -0.5986 -0.0762
  501TMC3    C4 7498   3.684   4.328  11.173  0.1664  0.4940  0.4805
  501TMC3    C5 7499   3.777   4.433  11.181 -0.2812 -0.1960 -0.0644
  501TMC3    C6 7500   3.763   4.549  11.113  0.1180 -0.2152  0.1478
  501TMC3     C 7501   3.480   4.239  11.093  0.4721 -0.1195 -0.2048
  501TMC3     O 7502   3.489   4.149  11.175 -0.6199 -0.3352  0.4647
  501TMC3     H 7503   3.457   4.463  10.973 -0.1744  2.6146  0.4948
  501TMC3    H1 7504   3.695   4.227  11.211 -0.8793  0.4084  0.5648
  501TMC3    H2 7505   3.848   4.614  11.094 -0.4177  0.8848  1.5354
  501TMC3    C7 7506   3.897   4.408  11.259 -0.3712 -0.7796  0.1625
  501TMC3    C8 7507   3.659   4.676  10.944 -1.3780  0.8227 -0.6563
  501TMC3    O1 7508   3.912   4.294  11.300 -0.5657 -0.2257 -0.4940
  501TMC3    O2 7509   3.727   0.029  10.981 -0.1919  0.5601 -0.3020
  502TMC3    C1 7510   3.594   3.169  14.899 -0.2122 -0.4630 -0.6465
  502TMC3    C2 7511   3.584   3.311  14.905  0.1176 -0.4000 -0.1489
  502TMC3    C3 7512   3.462   3.369  14.932  0.0622 -0.6629 -0.3563
  502TMC3    C4 7513   3.474   3.098  14.894  0.3014  1.1146 -0.5301
  502TMC3    C5 7514   3.357   3.162  14.934 -0.1289  0.7146 -0.9750
  502TMC3    C6 7515   3.349   3.300  14.943  0.0218 -0.2573 -0.0850
  502TMC3     C 7516   3.705   3.106  14.967 -0.3120  0.5457 -0.0940
  502TMC3     O 7517   3.819   3.151  14.952 -0.5451  0.3561 -0.2111
  502TMC3     H 7518   3.680   3.358  14.923 -0.1585 -0.5361  1.7397
  502TMC3    H1 7519   3.478   2.993  14.864 -1.0330  0.1706  2.6799
  502TMC3    H2 7520   3.263   3.341  14.994  0.2479  2.1018 -1.6244
  502TMC3    C7 7521   3.291   3.074  15.029  0.0839  0.2358  0.8213
  502TMC3    C8 7522   3.452   3.513  14.912 -0.6512 -1.0083  0.4844
  502TMC3    O1 7523   3.367   2.990  15.079 -0.0338  0.0337  0.1052
  502TMC3    O2 7524   3.556   3.575  14.915 -0.4720  0.4621  0.2031
  503MPD2     C 7525   1.247   4.201  17.094 -0.0314 -0.1221 -0.5478
  503MPD2    C1 7526   1.318   4.279  17.185  0.0665  0.0979  0.2015
  503MPD2    C2 7527   1.423   4.220  17.248  0.3803 -0.4368  0.4229
  503MPD2    C3 7528   1.457   4.093  17.220  0.1784 -0.0600 -1.0081
  503MPD2    C4 7529   1.395   4.025  17.124 -0.3832  0.4261 -0.0401
  503MPD2    C5 7530   1.289   4.077  17.056  0.1414 -0.4517 -0.1993
  503MPD2     H 7531   1.485   4.274  17.320  0.6822 -2.9128  2.0041
  503MPD2    H1 7532   1.425   3.924  17.098  0.9070  1.1795 -1.5212
  503MPD2    H2 7533   1.162   4.245  17.045 -1.0686 -0.5854  0.8267
  503MPD2    H3 7534   1.226   4.013  16.996 -0.6575  1.6753 -1.6466
  503MPD2     N 7535   1.568   4.040  17.289  0.4080  0.4192 -0.7647
  503MPD2    H5 7536   1.607   4.094  17.365  0.3065  0.2718 -0.6078
  503MPD2    N1 7537   1.279   4.412  17.204  0.5977  0.2745  0.0230
  503MPD2    H7 7538   1.339   4.458  17.272 -1.5129  0.6826  1.6069
  504TMC3    C1 7539   1.726   3.882  17.366  0.8597 -0.0586 -0.6347
  504TMC3    C2 7540   1.658   3.867  17.481 -0.2371 -0.1609  0.3056
  504TMC3    C3 7541   1.688   3.758  17.556 -0.6379 -0.1503  0.4014
  504TMC3    C4 7542   1.791   3.774  17.310  0.3453 -0.1983  0.1315
  504TMC3    C5 7543   1.804   3.662  17.384  0.7481  0.0814  0.0307
  504TMC3    C6 7544   1.764   3.650  17.516 -0.2569  0.2550  0.5800
  504TMC3     C 7545   1.646   3.927  17.259 -0.4348 -0.4529 -0.0390
  504TMC3     O 7546   1.638   3.857  17.158 -0.2755  0.7036 -0.9653
  504TMC3     H 7547   1.584   3.940  17.513  0.2411  1.4974 -2.3654
  504TMC3    H1 7548   1.846   3.780  17.217 -0.7348  0.8148 -0.4541
  504TMC3    H2 7549   1.779   3.561  17.575  0.7227 -1.3516 -2.1035
  504TMC3    C7 7550   1.872   3.551  17.319 -0.0969 -0.1483  0.1680
  504TMC3    C8 7551   1.588   3.714  17.648 -0.0886 -0.2411  0.1356
  504TMC3    O1 7552   1.924   3.565  17.214  0.5021  0.0394 -0.6754
  504TMC3    O2 7553   1.476   3.740  17.614  0.0822 -0.0262  0.0623
  505MPD2     C 7554   0.730   3.022  10.968  0.3212  1.0112 -0.0162
  505MPD2    C1 7555   0.828   2.925  10.954 -0.7134 -0.1808  0.3112
  505MPD2    C2 7556   0.949   2.934  11.015  0.6600  0.0473  0.0093
  505MPD2    C3 7557   0.991   3.047  11.081  0.5390  0.4381 -0.2553
  505MPD2    C4 7558   0.896   3.144  11.097  0.1414  0.5852  0.0209
  505MPD2    C5 7559   0.768   3.131  11.044 -0.1019  0.0445  0.4536
  505MPD2     H 7560   1.025   2.865  10.981  1.0459 -0.1612  1.2875
  505MPD2    H1 7561   0.915   3.239  11.145  0.8837 -1.1891  3.1819
  505MPD2    H2 7562   0.631   3.010  10.925 -0.0647  3.5382  0.1335
  505MPD2    H3 7563   0.692   3.208  11.053 -1.1033 -0.8856 -0.0124
  505MPD2     N 7564   1.124   3.079  11.115  0.1672  0.0086  0.8418
  505MPD2    H5 7565   1.138   3.165  11.169  1.3826  0.2430  0.1350
  505MPD2    N1 7566   0.797   2.812  10.874 -0.4225 -0.2446  0.6219
  505MPD2    H7 7567   0.717   2.834  10.816  0.6020 -1.3994 -1.2110
  506TMC3    C1 7568   0.815   2.595  10.768  0.4120  0.1345  1.2279
  506TMC3    C2 7569   0.811   2.648  10.638 -0.1789  0.7021  0.0745
  506TMC3    C3 7570   0.858   2.569  10.534  0.4704  0.0663  0.3149
  506TMC3    C4 7571   0.868   2.473  10.781 -0.1288 -0.0527  0.1497
  506TMC3    C5 7572   0.923   2.403  10.677  0.1571 -0.5754 -0.5631
  506TMC3    C6 7573   0.905   2.443  10.544 -0.2871  0.2268  0.4551
  506TMC3     C 7574   0.859   2.691  10.875 -0.5133 -0.1596  0.4576
  506TMC3     O 7575   0.931   2.645  10.968  0.6364  0.6430  0.6507
  506TMC3     H 7576   0.774   2.750  10.627 -1.6718  0.3389  1.6654
  506TMC3    H1 7577   0.885   2.444  10.884 -0.0983 -2.4513 -0.5322
  506TMC3    H2 7578   0.955   2.389  10.464 -0.5201  2.4477 -1.1822
  506TMC3    C7 7579   1.062   2.361  10.707  0.5360 -1.0248  0.1246
  506TMC3    C8 7580   0.828   2.613  10.401  0.3668  0.2515  0.4167
  506TMC3    O1 7581   1.121   2.283  10.634  0.2576 -0.5443  0.0856
  506TMC3    O2 7582   0.811   2.522  10.322 -0.0400  0.2491  0.6403
  507TMC3    C1 7583   2.121   3.260  14.843 -0.0479 -0.2137 -0.4058
  507TMC3    C2 7584   2.089   3.160  14.756 -0.1441 -0.9263 -0.8288
  507TMC3    C3 7585   2.171   3.149  14.647 -0.3789 -0.2065 -1.1710
  507TMC3    C4 7586   2.218   3.349  14.821 -0.3120 -0.8083  0.9039
  507TMC3    C5 7587   2.293   3.344  14.703 -0.1035  0.0604  0.3125
  507TMC3    C6 7588   2.275   3.236  14.622 -0.5991  0.0936  0.8340
  507TMC3     C 7589   2.023   3.303  14.938  0.6088 -0.1798 -0.4547
  507TMC3     O 7590   2.061   3.386  15.018  0.1512 -0.2713  0.2377
  507TMC3     H 7591   2.005   3.092  14.767 -0.3824 -0.2469  1.5110
  507TMC3    H1 7592   2.224   3.437  14.885 -1.5699  1.0207 -1.5236
  507TMC3    H2 7593   2.323   3.222  14.526  0.9287  0.9387  1.4835
  507TMC3    C7 7594   2.270   3.460  14.613 -0.3870  0.3619 -0.0817
  507TMC3    C8 7595   2.098   3.110  14.528  0.3074  0.4542 -0.3476
  507TMC3    O1 7596   2.272   3.438  14.489  0.0769  0.1574  0.1165
  507TMC3    O2 7597   2.019   3.017  14.541 -0.2416  0.4114 -0.0682
  508MPD2     C 7598   2.642   0.527  16.219  0.2490  0.2263 -0.1069
  508MPD2    C1 7599   2.626   0.628  16.307  0.0499  0.3439  0.0237
  508MPD2    C2 7600   2.631   0.756  16.259 -0.3525  0.5821  0.0653
  508MPD2    C3 7601   2.641   0.774  16.124  0.2140  0.2932  0.3940
  508MPD2    C4 7602   2.649   0.666  16.032  1.0260  0.6342 -0.4198
  508MPD2    C5 7603   2.652   0.541  16.086 -0.3592  0.1661  0.2496
  508MPD2     H 7604   2.634   0.845  16.321 -0.5251 -0.4210  1.5169
  508MPD2    H1 7605   2.661   0.672  15.925 -1.7796  0.8905 -0.7051
  508MPD2    H2 7606   2.654   0.426  16.256  0.4872  0.2655 -0.0759
  508MPD2    H3 7607   2.663   0.460  16.015 -2.4801 -2.4709  2.9538
  508MPD2     N 7608   2.644   0.911  16.078  0.2899 -0.5688 -0.5413
  508MPD2    H5 7609   2.666   0.971  16.157  0.8397  0.2825 -1.3437
  508MPD2    N1 7610   2.634   0.597  16.444  0.4008 -0.0024 -0.6813
  508MPD2    H7 7611   2.638   0.499  16.469 -5.3303  0.1852  0.8043
  509TMC3    C1 7612   2.636   1.269  15.765 -0.0028 -0.4708 -0.4572
  509TMC3    C2 7613   2.740   1.335  15.830  0.0661  0.1257  0.3106
  509TMC3    C3 7614   2.819   1.265  15.918 -0.1150  0.3178 -0.2764
  509TMC3    C4 7615   2.607   1.136  15.796 -0.1748  1.0963 -0.1578
  509TMC3    C5 7616   2.672   1.074  15.902  0.7798  0.2359 -0.1644
  509TMC3    C6 7617   2.780   1.135  15.965  0.1952 -0.5260 -0.0709
  509TMC3     C 7618   2.587   1.312  15.638 -0.0572 -0.1930 -0.2879
  509TMC3     O 7619   2.519   1.234  15.573  0.1706 -0.6146  0.2478
  509TMC3     H 7620   2.753   1.438  15.802 -0.6049 -0.0864 -0.7848
  509TMC3    H1 7621   2.530   1.085  15.739  1.5861 -0.9544 -0.7126
  509TMC3    H2 7622   2.838   1.075  16.035 -0.6067 -1.5292 -0.2570
  509TMC3    C7 7623   2.622   0.942  15.949 -0.3767  0.6072 -0.4134
  509TMC3    C8 7624   2.955   1.311  15.954  0.1524  0.1043  0.0991
  509TMC3    O1 7625   2.558   0.878  15.867 -0.0752 -0.1506  0.0934
  509TMC3    O2 7626   3.035   1.237  16.010 -0.5456 -0.3374 -0.2700
  510MPD2     C 7627   0.322   2.285  14.361 -0.0109 -0.0823 -0.1301
  510MPD2    C1 7628   0.390   2.352  14.458  0.0447 -0.3250  0.5213
  510MPD2    C2 7629   0.498   2.439  14.430 -0.2959 -0.7503 -0.1482
  510MPD2    C3 7630   0.541   2.451  14.297 -0.3776 -0.1298 -0.4891
  510MPD2    C4 7631   0.475   2.376  14.198  0.4328 -0.3083 -0.1299
  510MPD2    C5 7632   0.371   2.301  14.236 -0.4245 -0.4660  0.0730
  510MPD2     H 7633   0.542   2.499  14.510  0.8798 -3.0988  0.9696
  510MPD2    H1 7634   0.495   2.390  14.092 -0.4895 -0.9664 -0.3908
  510MPD2    H2 7635   0.234   2.223  14.374  0.7494 -1.4675 -1.6143
  510MPD2    H3 7636   0.316   2.248  14.158  0.3951 -0.9204 -0.2022
  510MPD2     N 7637   0.647   2.538  14.271 -0.3385  0.1370  0.5655
  510MPD2    H5 7638   0.682   2.584  14.354  3.2753  0.2753 -1.0264
  510MPD2    N1 7639   0.340   2.336  14.585  0.0761 -0.0988  0.3675
  510MPD2    H7 7640   0.275   2.260  14.599 -1.7984  1.4537 -0.0455
  511TMC3    C1 7641   0.345   2.326  14.823 -0.2320 -0.4434 -1.0069
  511TMC3    C2 7642   0.333   2.396  14.937 -0.3087  0.1075  0.1317
  511TMC3    C3 7643   0.268   2.330  15.041  0.0103  0.2778  0.4336
  511TMC3    C4 7644   0.309   2.198  14.807 -0.2302 -0.3635  0.0163
  511TMC3    C5 7645   0.240   2.137  14.913  0.1013  0.5538  0.5228
  511TMC3    C6 7646   0.227   2.201  15.035  0.0552  0.7460  0.1489
  511TMC3     C 7647   0.385   2.399  14.700 -0.0790  0.3530 -0.3255
  511TMC3     O 7648   0.440   2.508  14.717  0.5625 -0.0777  0.7731
  511TMC3     H 7649   0.369   2.498  14.931  0.4489 -0.2519 -1.4632
  511TMC3    H1 7650   0.322   2.138  14.717  1.2561  0.7617 -0.5176
  511TMC3    H2 7651   0.175   2.159  15.121 -0.3919 -0.4879 -0.7144
  511TMC3    C7 7652   0.198   1.997  14.900 -0.0373 -0.1623 -0.2874
  511TMC3    C8 7653   0.267   2.392  15.180  0.1415 -0.0530 -0.1509
  511TMC3    O1 7654   0.164   1.959  14.786  0.0679 -0.6174  0.2924
  511TMC3    O2 7655   0.170   2.382  15.252 -0.1781 -0.4547  0.5108
  512TMC3    C1 7656   4.097   1.497  13.475  0.3141 -0.3439 -0.2110
  512TMC3    C2 7657   4.194   1.532  13.567 -0.0530  0.1574  1.5320
  512TMC3    C3 7658   4.260   1.432  13.640  0.4306  0.2620  0.1209
  512TMC3    C4 7659   4.059   1.369  13.457 -0.1262  0.9901  0.2348
  512TMC3    C5 7660   4.116   1.277  13.539  0.4912  0.4773  0.1632
  512TMC3    C6 7661   4.215   1.305  13.628 -0.4219  0.9232  1.3129
  512TMC3     C 7662   4.007   1.597  13.412 -0.7498  0.7789 -0.3314
  512TMC3     O 7663   3.891   1.563  13.389  0.1340 -0.4126  0.0607
  512TMC3     H 7664   4.216   1.637  13.582  0.9815  0.1920 -0.1780
  512TMC3    H1 7665   3.994   1.342  13.374  1.1062 -0.2943 -0.3108
  512TMC3    H2 7666   4.273   1.219  13.661 -1.3891  0.3491  1.5262
  512TMC3    C7 7667   4.100   1.139  13.496  0.6265 -0.5316  0.4669
  512TMC3    C8 7668   4.376   1.469  13.718  0.5549 -0.8385  0.4160
  512TMC3    O1 7669   4.096   1.056  13.583 -0.2596  0.1554  0.0433
  512TMC3    O2 7670   4.409   1.386  13.799 -0.0268 -1.1215  0.1061
  513MPD2     C 7671   0.845   1.815  13.271  0.3433  0.3202  0.0134
  513MPD2    C1 7672   0.932   1.773  13.174 -0.2808  0.2428  0.5888
  513MPD2    C2 7673   1.063   1.806  13.184 -0.6403 -0.7120 -0.1973
  513MPD2    C3 7674   1.114   1.885  13.281 -0.6043  0.3404 -0.7348
  513MPD2    C4 7675   1.023   1.939  13.377  0.7487 -0.2900  1.1167
  513MPD2    C5 7676   0.891   1.896  13.371  0.0333 -0.0266 -0.3949
  513MPD2     H 7677   1.133   1.770  13.109 -2.6269 -1.5558 -1.6265
  513MPD2    H1 7678   1.049   2.018  13.446 -1.2389  0.6257  0.8167
  513MPD2    H2 7679   0.739   1.793  13.268  0.5341 -0.8517  1.5787
  513MPD2    H3 7680   0.819   1.931  13.443 -0.1818  0.0173 -0.6310
  513MPD2     N 7681   1.259   1.907  13.281 -0.0354  0.6875 -0.4474
  513MPD2    H5 7682   1.303   1.877  13.195 -2.8902 -0.0127 -1.6611
  513MPD2    N1 7683   0.893   1.703  13.062  0.4131 -0.2574 -0.2527
  513MPD2    H7 7684   0.971   1.687  12.999  1.1187  0.4664  0.4475
  514TMC3    C1 7685   0.783   1.540  12.932  0.2859 -0.8279 -0.2506
  514TMC3    C2 7686   0.697   1.531  12.827 -0.4432 -0.0632  0.1754
  514TMC3    C3 7687   0.736   1.441  12.730 -0.7637  0.6310 -0.0123
  514TMC3    C4 7688   0.902   1.471  12.942 -0.0246  0.3244 -0.8300
  514TMC3    C5 7689   0.925   1.375  12.842 -0.5147  0.0118  0.5976
  514TMC3    C6 7690   0.852   1.363  12.729  0.3763  0.0880 -0.2790
  514TMC3     C 7691   0.771   1.632  13.042  0.3170 -0.2398 -0.3192
  514TMC3     O 7692   0.664   1.656  13.094  0.1416  0.6604 -0.5021
  514TMC3     H 7693   0.608   1.593  12.822  1.0331  2.1211  0.5549
  514TMC3    H1 7694   0.946   1.460  13.040 -0.4066  1.1367 -0.5662
  514TMC3    H2 7695   0.883   1.311  12.639 -0.5969 -2.9506  1.1672
  514TMC3    C7 7696   1.068   1.324  12.842  0.5312  0.1089 -1.0012
  514TMC3    C8 7697   0.669   1.454  12.594 -0.2711  0.4033  0.3416
  514TMC3    O1 7698   1.092   1.211  12.803 -0.1766  0.4580  0.3192
  514TMC3    O2 7699   0.611   1.348  12.561  0.2001 -0.0907 -0.0247
  515MPD2     C 7700   4.396   3.707  14.165 -0.3632 -0.1541  0.2521
  515MPD2    C1 7701   4.369   3.647  14.280  0.3345  0.3052  0.1959
  515MPD2    C2 7702   4.457   3.649  14.387  0.0895  0.2935  0.6900
  515MPD2    C3 7703   4.574   3.726  14.381 -0.1885  0.2917  0.1220
  515MPD2    C4 7704   4.597   3.790  14.264 -0.0655 -0.2183 -0.8330
  515MPD2    C5 7705   4.513   3.776  14.149  0.0955 -0.1706 -0.5835
  515MPD2     H 7706   4.441   3.598  14.481  0.3224  1.0393  1.1309
  515MPD2    H1 7707   4.682   3.858  14.265  0.6694 -1.1357 -1.4081
  515MPD2    H2 7708   4.319   3.703  14.089 -0.3448 -1.2825  0.2935
  515MPD2    H3 7709   4.549   3.832  14.064  0.2727 -2.7776 -2.2071
  515MPD2     N 7710   4.664   3.760  14.485 -0.5406 -0.1037 -0.7352
  515MPD2    H5 7711   4.730   3.835  14.467 -0.6709 -0.1078 -1.2376
  515MPD2    N1 7712   4.251   3.575  14.289 -0.4019  1.1239 -1.1761
  515MPD2    H7 7713   4.189   3.576  14.209  0.0007  0.6563 -1.4952
  516TMC3    C1 7714   4.079   3.429  14.364 -0.4790 -0.0595 -0.0762
  516TMC3    C2 7715   3.983   3.506  14.296  0.3226  0.5032  0.5054
  516TMC3    C3 7716   3.866   3.450  14.265 -0.6072  0.3053 -0.0970
  516TMC3    C4 7717   4.062   3.307  14.411 -0.0877 -0.2131  0.1815
  516TMC3    C5 7718   3.937   3.255  14.391  0.5097  0.4629 -0.0707
  516TMC3    C6 7719   3.841   3.321  14.304  0.2064 -0.3420 -0.3318
  516TMC3     C 7720   4.208   3.495  14.394  0.3806 -0.5407 -0.1965
  516TMC3     O 7721   4.268   3.463  14.495  0.1694  0.3087 -0.3344
  516TMC3     H 7722   3.995   3.614  14.300 -1.5375  0.7177  0.2652
  516TMC3    H1 7723   4.143   3.265  14.470 -0.3315  0.0708  0.7108
  516TMC3    H2 7724   3.747   3.281  14.267 -0.4100  0.0717  0.8097
  516TMC3    C7 7725   3.908   3.136  14.474 -0.1805  0.3094 -0.6302
  516TMC3    C8 7726   3.764   3.518  14.190 -0.4313  0.0754  0.3460
  516TMC3    O1 7727   4.005   3.077  14.522  0.3088 -0.4891  0.0056
  516TMC3    O2 7728   3.655   3.468  14.174  0.0542 -0.4125  0.0121
  517MPD2     C 7729   0.110   0.290   0.482 -0.0039 -0.2872  0.4437
  517MPD2    C1 7730   0.040   0.367   0.388  0.4244 -0.0339  0.2277
  517MPD2    C2 7731   4.724   0.487   0.424  0.1171 -0.6284 -0.4112
  517MPD2    C3 7732   0.003   0.535   0.553  0.6412  0.1963  0.4014
  517MPD2    C4 7733   0.066   0.454   0.648 -0.1076 -0.1473 -0.2412
  517MPD2    C5 7734   0.119   0.336   0.608 -0.6764  1.0229  0.5863
  517MPD2     H 7735   4.670   0.541   0.346 -0.2269  0.6791  0.7268
  517MPD2    H1 7736   0.097   0.497   0.743 -2.0200 -0.0351  0.3318
  517MPD2    H2 7737   0.155   0.193   0.464 -0.1748 -0.4217  0.7433
  517MPD2    H3 7738   0.185   0.284   0.677 -1.8049 -2.3014 -0.8439
  517MPD2     N 7739   4.711   0.666   0.590  0.0032 -0.3033  0.1041
  517MPD2    H5 7740   4.728   0.687   0.688  0.8520  0.5434 -0.2314
  517MPD2    N1 7741   0.023   0.325   0.256  0.2350  0.2371 -0.5634
  517MPD2    H7 7742   4.688   0.376   0.211 -0.1612 -0.9861 -1.2792
  518TMC3    C1 7743   0.045   0.203   0.053 -0.1705 -0.3190  0.6596
  518TMC3    C2 7744   4.655   0.182   0.015 -1.2955 -0.6597  0.5930
  518TMC3    C3 7745   4.634   0.172  17.636  0.0640  0.5460 -0.0498
  518TMC3    C4 7746   0.153   0.198  17.723  0.7516  0.3532 -0.1903
  518TMC3    C5 7747   0.123   0.193  17.585  0.1511 -0.3174 -0.2707
  518TMC3    C6 7748   4.732   0.172  17.537  0.8191  0.4812  0.3652
  518TMC3     C 7749   0.082   0.223   0.186  0.3095 -0.0809  0.1279
  518TMC3     O 7750   0.188   0.168   0.213  0.4291 -0.2274  0.2810
  518TMC3     H 7751   4.579   0.190   0.092 -1.3604  0.1681  0.4389
  518TMC3    H1 7752   0.257   0.209  17.754  0.7720  1.3959 -0.6376
  518TMC3    H2 7753   4.707   0.160  17.433 -1.2064  1.4270  0.7476
  518TMC3    C7 7754   0.239   0.166  17.496  0.1449 -1.1364  0.1434
  518TMC3    C8 7755   4.533   0.070  17.598 -0.1746  0.0606 -0.1855
  518TMC3    O1 7756   0.348   0.173  17.550 -0.6839 -0.0129  0.0725
  518TMC3    O2 7757   4.566   4.732  17.508 -0.2814 -0.6068  0.5633
  519MPD2     C 7758   0.932   3.448  14.474  0.2095 -0.3972 -0.3091
  519MPD2    C1 7759   0.918   3.479  14.339  0.3564 -0.4137  1.0430
  519MPD2    C2 7760   0.984   3.404  14.242  0.2084  0.0619  0.3385
  519MPD2    C3 7761   1.085   3.311  14.292  0.1192 -0.2244  0.2790
  519MPD2    C4 7762   1.106   3.294  14.428 -0.5778 -0.1579  0.2924
  519MPD2    C5 7763   1.020   3.358  14.519  0.1309 -0.0344  0.1218
  519MPD2     H 7764   0.964   3.421  14.137 -0.7920 -1.0588  0.3487
  519MPD2    H1 7765   1.173   3.222  14.472  1.1611  0.5857 -1.1520
  519MPD2    H2 7766   0.880   3.508  14.548  1.4196  0.9842 -0.5891
  519MPD2    H3 7767   1.040   3.334  14.623  1.4584  2.8527  0.5495
  519MPD2     N 7768   1.163   3.240  14.202 -0.2581  0.3301  0.1227
  519MPD2    H5 7769   1.262   3.231  14.221 -0.5452 -1.2933  0.8000
  519MPD2    N1 7770   0.816   3.574  14.308 -0.4378  0.4066  0.4055
  519MPD2    H7 7771   0.762   3.613  14.384 -1.6692 -0.6393  0.0791
  520TMC3    C1 7772   1.226   3.178  13.990 -0.5813 -0.7394  0.1747
  520TMC3    C2 7773   1.205   3.209  13.860 -0.6878  0.7953  0.4305
  520TMC3    C3 7774   1.285   3.152  13.768  0.0934 -0.1946  0.3009
  520TMC3    C4 7775   1.323   3.093  14.034 -0.5951 -0.4662  0.6017
  520TMC3    C5 7776   1.397   3.038  13.936 -0.2115 -0.7194 -0.1963
  520TMC3    C6 7777   1.380   3.060  13.804 -0.3261  0.0652  0.4108
  520TMC3     C 7778   1.117   3.205  14.079  0.8185 -0.3188 -0.0418
  520TMC3     O 7779   1.005   3.219  14.032  0.4906  0.1369 -0.4305
  520TMC3     H 7780   1.134   3.287  13.833  0.1420  1.4214  0.0865
  520TMC3    H1 7781   1.323   3.050  14.133  1.0358  1.4264  1.4090
  520TMC3    H2 7782   1.430   3.000  13.730 -1.6844 -0.8657  0.2545
  520TMC3    C7 7783   1.492   2.940  13.985 -0.0325  0.2305  0.0628
  520TMC3    C8 7784   1.253   3.162  13.623 -1.3899  0.2832  0.1353
  520TMC3    O1 7785   1.478   2.890  14.099 -0.5852  0.5629  0.1184
  520TMC3    O2 7786   1.347   3.181  13.542  0.7040  0.0128 -0.0115
  521MPD2     C 7787   1.754   1.818  17.576 -0.1140  0.2013  0.1082
  521MPD2    C1 7788   1.723   1.776  17.450  0.1412  0.1593 -0.0667
  521MPD2    C2 7789   1.826   1.760  17.364  0.5224 -0.8244  0.4266
  521MPD2    C3 7790   1.955   1.787  17.395 -0.0758 -0.1387  0.4695
  521MPD2    C4 7791   1.984   1.829  17.525 -0.1324 -0.0669 -0.2981
  521MPD2    C5 7792   1.882   1.856  17.612 -0.5236 -0.6044  0.7661
  521MPD2     H 7793   1.806   1.705  17.273  0.6542  0.8297 -0.6042
  521MPD2    H1 7794   2.081   1.845  17.570 -0.0482  2.6344 -1.4619
  521MPD2    H2 7795   1.674   1.828  17.649  1.0615  2.0020  1.1400
  521MPD2    H3 7796   1.909   1.897  17.708  0.2726 -0.3974  0.4528
  521MPD2     N 7797   2.051   1.749  17.298  0.5140 -0.5899  0.1538
  521MPD2    H5 7798   2.015   1.692  17.223  0.0877 -1.0059  0.6804
  521MPD2    N1 7799   1.588   1.752  17.418  0.4424  0.1187 -0.3441
  521MPD2    H7 7800   1.528   1.735  17.498 -0.3825 -1.3814 -1.2756
  522TMC3    C1 7801   2.264   1.712  17.206  0.6378  0.4449  0.5209
  522TMC3    C2 7802   2.375   1.653  17.245 -0.3247 -0.5534  0.3278
  522TMC3    C3 7803   2.422   1.553  17.167  0.2402 -0.2610  0.0484
  522TMC3    C4 7804   2.195   1.688  17.090  0.7439  0.5250  0.6904
  522TMC3    C5 7805   2.242   1.576  17.019  0.5223 -0.3307  0.1179
  522TMC3    C6 7806   2.361   1.511  17.052 -0.6687 -0.0412  0.0225
  522TMC3     C 7807   2.185   1.778  17.305  0.9569 -0.2639 -0.1168
  522TMC3     O 7808   2.248   1.839  17.393 -0.4086 -0.3409  0.2051
  522TMC3     H 7809   2.406   1.671  17.347 -0.6875 -0.6343  0.4525
  522TMC3    H1 7810   2.112   1.749  17.057  1.3079 -0.0348 -1.7947
  522TMC3    H2 7811   2.392   1.423  16.997 -0.2324  0.0181  0.1765
  522TMC3    C7 7812   2.195   1.568  16.887  1.0774  0.6250 -0.6423
  522TMC3    C8 7813   2.509   1.459  17.225 -0.1266  0.1771 -0.4364
  522TMC3    O1 7814   2.270   1.509  16.812 -0.0545 -0.1501 -0.0673
  522TMC3    O2 7815   2.522   1.469  17.345  0.1277 -0.2481 -0.1261
  523MPD2     C 7816   3.815   1.947  10.037 -0.1966 -0.6509  0.3597
  523MPD2    C1 7817   3.799   1.814  10.010  0.0284 -0.4138 -0.5250
  523MPD2    C2 7818   3.753   1.783   9.885  0.3435  0.2311  0.2334
  523MPD2    C3 7819   3.739   1.875   9.781  0.7067  0.0040  0.0074
  523MPD2    C4 7820   3.767   1.999   9.810 -0.1975 -0.6024  0.3943
  523MPD2    C5 7821   3.792   2.039   9.935  0.4435  0.1018 -0.5147
  523MPD2     H 7822   3.730   1.682   9.854  0.0639  0.5571 -0.6260
  523MPD2    H1 7823   3.738   2.082   9.747  0.6026 -1.2186 -0.7828
  523MPD2    H2 7824   3.841   1.981  10.136  1.3495  2.3549 -1.0734
  523MPD2    H3 7825   3.797   2.146   9.954  1.4725  0.0949 -0.7725
  523MPD2     N 7826   3.683   1.848   9.651 -0.2857  0.5008 -0.3051
  523MPD2    H5 7827   3.671   1.929   9.591 -0.8423  1.2150  0.7749
  523MPD2    N1 7828   3.822   1.726  10.118  0.1467  0.2428 -0.0645
  523MPD2    H7 7829   3.863   1.770  10.200  0.0885 -0.8889  0.5664
  524TMC3    C1 7830   3.597   1.740   9.456  0.1427 -0.0620  0.2943
  524TMC3    C2 7831   3.581   1.624   9.384 -0.1414 -0.0101 -0.5098
  524TMC3    C3 7832   3.533   1.637   9.252  0.1589  0.9385  0.0514
  524TMC3    C4 7833   3.559   1.860   9.405  1.1543 -0.2338 -0.4050
  524TMC3    C5 7834   3.519   1.869   9.276  0.6602  0.3595 -0.6504
  524TMC3    C6 7835   3.502   1.757   9.192 -1.0601  1.2846  0.2903
  524TMC3     C 7836   3.650   1.725   9.590  0.3052  0.1573  0.3197
  524TMC3     O 7837   3.656   1.614   9.640  0.1890 -0.8554 -0.5379
  524TMC3     H 7838   3.613   1.529   9.423  1.1384  0.0005 -1.5555
  524TMC3    H1 7839   3.555   1.947   9.469  0.7319  0.2728 -1.1168
  524TMC3    H2 7840   3.476   1.769   9.087  0.4301 -0.6191 -0.2907
  524TMC3    C7 7841   3.462   1.995   9.234 -0.3885  0.1130 -0.3044
  524TMC3    C8 7842   3.535   1.518   9.170  0.9299 -0.0961  0.4367
  524TMC3    O1 7843   3.490   2.096   9.302  0.1101  0.7903 -0.0467
  524TMC3    O2 7844   3.475   1.528   9.061  0.4111 -0.4282  0.2094
  525MPD2     C 7845   2.353   2.891  14.510  0.3871 -0.0777 -0.6568
  525MPD2    C1 7846   2.467   2.920  14.580 -0.3207  0.0809  0.3743
  525MPD2    C2 7847   2.562   2.996  14.518  0.0243 -0.2028  0.0922
  525MPD2    C3 7848   2.542   3.057  14.400  0.1992  0.6016 -0.0634
  525MPD2    C4 7849   2.417   3.042  14.334  0.2781 -0.4355  0.1210
  525MPD2    C5 7850   2.322   2.952  14.390  0.9338 -0.3405 -0.0660
  525MPD2     H 7851   2.654   3.014  14.573  1.2761  1.5671 -2.5334
  525MPD2    H1 7852   2.400   3.096  14.242  1.0606  3.0228  2.0207
  525MPD2    H2 7853   2.278   2.826  14.553 -1.1725  1.1038 -1.6203
  525MPD2    H3 7854   2.221   2.941  14.353 -0.4550  1.7709  3.0368
  525MPD2     N 7855   2.634   3.137  14.338  0.7901 -0.6993 -0.2362
  525MPD2    H5 7856   2.606   3.187  14.254  0.7501 -0.8218 -0.2967
  525MPD2    N1 7857   2.498   2.867  14.706 -0.1367  0.2119 -0.2689
  525MPD2    H7 7858   2.585   2.879  14.757 -2.1037  0.2437  3.0849
  526TMC3    C1 7859   2.473   2.746  14.910 -0.4195 -0.6971  0.5370
  526TMC3    C2 7860   2.392   2.723  15.018 -0.1034 -0.3925 -0.4667
  526TMC3    C3 7861   2.442   2.641  15.119  0.0656  0.1602  0.4099
  526TMC3    C4 7862   2.595   2.683  14.898 -0.0574 -0.5489 -0.2344
  526TMC3    C5 7863   2.645   2.602  14.998 -0.0224 -0.1561  0.2807
  526TMC3    C6 7864   2.565   2.588  15.109  0.6374  0.5439  0.1835
  526TMC3     C 7865   2.411   2.800  14.792 -0.4809  0.1083 -0.1229
  526TMC3     O 7866   2.292   2.779  14.771 -0.5805 -0.1200  0.7217
  526TMC3     H 7867   2.293   2.765  15.024  0.8888  1.9451 -0.4157
  526TMC3    H1 7868   2.644   2.707  14.804  1.7124 -0.6058  0.6760
  526TMC3    H2 7869   2.610   2.527  15.187 -2.4761 -0.6343  1.0617
  526TMC3    C7 7870   2.784   2.577  15.013 -1.1723 -0.1416 -0.0949
  526TMC3    C8 7871   2.378   2.646  15.250  0.2353  0.4494  0.6858
  526TMC3    O1 7872   2.837   2.554  15.122 -0.0928 -0.3606 -0.2218
  526TMC3    O2 7873   2.444   2.600  15.347  0.4841  0.1580  0.3912
  527MPD2     C 7874   0.541   1.159   0.789 -0.0956  0.7462 -0.1763
  527MPD2    C1 7875   0.566   1.251   0.893 -0.4009  0.7844 -0.1583
  527MPD2    C2 7876   0.693   1.249   0.953  0.0623  0.1422 -0.6246
  527MPD2    C3 7877   0.786   1.150   0.933  0.4292 -0.0855  0.5449
  527MPD2    C4 7878   0.755   1.055   0.842 -0.2951 -0.3092 -0.3160
  527MPD2    C5 7879   0.640   1.070   0.766  0.6102  0.2925  0.0017
  527MPD2     H 7880   0.721   1.338   1.007  1.1430  0.1766 -1.2269
  527MPD2    H1 7881   0.833   0.992   0.802  0.0464 -1.6379  2.4877
  527MPD2    H2 7882   0.451   1.150   0.728 -1.0766  0.2277  1.3440
  527MPD2    H3 7883   0.618   0.991   0.694  0.7805 -0.7823  1.1262
  527MPD2     N 7884   0.907   1.158   0.999 -0.7675 -0.6688 -0.3269
  527MPD2    H5 7885   0.940   1.248   1.034 -0.1189 -0.5897 -1.1422
  527MPD2    N1 7886   0.465   1.339   0.939 -0.2349  0.3837  0.0020
  527MPD2    H7 7887   0.481   1.396   1.021 -0.6354 -0.9321  1.0075
  528TMC3    C1 7888   0.240   1.405   0.982  0.1349 -0.4808  0.0036
  528TMC3    C2 7889   0.273   1.412   1.116  0.6399 -0.3158 -0.2425
  528TMC3    C3 7890   0.189   1.457   1.206 -0.5020  0.4092  0.2810
  528TMC3    C4 7891   0.118   1.440   0.943  0.1405  0.1421 -0.2963
  528TMC3    C5 7892   0.031   1.484   1.046 -0.4581  0.3901  0.2268
  528TMC3    C6 7893   0.070   1.503   1.177  0.2739 -0.4188  0.7272
  528TMC3     C 7894   0.336   1.348   0.891  1.1174  0.2115  0.1101
  528TMC3     O 7895   0.303   1.326   0.775  0.6817  0.9417  0.1349
  528TMC3     H 7896   0.369   1.381   1.157  1.1355  0.0673 -1.1074
  528TMC3    H1 7897   0.093   1.433   0.837 -1.8785 -2.2199  0.3604
  528TMC3    H2 7898   0.008   1.529   1.263 -0.7318 -1.0109  0.1811
  528TMC3    C7 7899   4.635   1.483   1.014  0.6580  0.1652 -0.1107
  528TMC3    C8 7900   0.259   1.499   1.326 -0.9402  0.3833 -0.3644
  528TMC3    O1 7901   4.597   1.410   0.923 -0.3135 -0.2434  0.0443
  528TMC3    O2 7902   0.364   1.440   1.358 -0.2739 -0.1449 -0.2500
  529MPD2     C 7903   3.254   0.197   0.803  0.5625  0.0051 -0.1422
  529MPD2    C1 7904   3.328   0.097   0.750 -0.4108  0.1314 -0.3545
  529MPD2    C2 7905   3.359   0.099   0.616 -0.2118 -0.4596 -0.2190
  529MPD2    C3 7906   3.309   0.199   0.535 -0.4635  0.2917  0.4700
  529MPD2    C4 7907   3.224   0.297   0.586 -0.4013  0.1364  0.1047
  529MPD2    C5 7908   3.204   0.296   0.724  0.1417  0.1318  0.8262
  529MPD2     H 7909   3.415   0.020   0.568 -0.1694 -0.8823  0.5259
  529MPD2    H1 7910   3.189   0.389   0.540 -0.0412 -0.5097 -1.4573
  529MPD2    H2 7911   3.228   0.204   0.908 -0.1461 -0.4241 -0.2833
  529MPD2    H3 7912   3.158   0.381   0.772 -1.0506 -0.1539  0.1795
  529MPD2     N 7913   3.348   0.199   0.401 -0.3640  0.1226  0.5974
  529MPD2    H5 7914   3.423   0.137   0.370  0.5725  1.6355 -0.1642
  529MPD2    N1 7915   3.354   4.716   0.816 -0.0469  0.1665  0.3623
  529MPD2    H7 7916   3.395   4.641   0.762  1.6658  1.4371 -0.0988
  530TMC3    C1 7917   3.394   4.558   1.000 -0.3255 -0.5831  0.1526
  530TMC3    C2 7918   3.477   4.548   1.108  0.2554 -0.0767  0.3365
  530TMC3    C3 7919   3.539   4.435   1.131 -0.2578  0.0113 -0.4662
  530TMC3    C4 7920   3.376   4.452   0.920  0.7464  0.4760 -0.0768
  530TMC3    C5 7921   3.431   4.333   0.954 -0.1133 -0.1186 -0.3912
  530TMC3    C6 7922   3.526   4.324   1.051  1.0369  0.7761  0.5793
  530TMC3     C 7923   3.349   4.695   0.958 -0.6851  0.2541 -0.0029
  530TMC3     O 7924   3.352   0.047   1.038 -0.4521  0.0406 -1.0358
  530TMC3     H 7925   3.490   4.632   1.176 -0.4135  0.2484  0.0568
  530TMC3    H1 7926   3.305   4.457   0.838  0.7922 -0.0060 -0.1452
  530TMC3    H2 7927   3.567   4.227   1.073 -3.3215 -0.6671  2.2185
  530TMC3    C7 7928   3.382   4.217   0.881 -0.5839 -0.1166 -0.4002
  530TMC3    C8 7929   3.630   4.433   1.243  0.0041 -0.2725  0.4306
  530TMC3    O1 7930   3.326   4.240   0.771 -0.1001 -0.3564  0.5025
  530TMC3    O2 7931   3.606   4.501   1.340 -0.1222  0.5828  0.1836
  531MPD2     C 7932   1.556   1.382  13.012 -0.3479  0.5106 -0.5090
  531MPD2    C1 7933   1.483   1.498  13.040  0.1575  0.0881  0.1622
  531MPD2    C2 7934   1.343   1.496  13.019 -0.2485 -0.6680  0.6774
  531MPD2    C3 7935   1.279   1.393  12.952 -0.4396  0.0082  0.5426
  531MPD2    C4 7936   1.352   1.271  12.936 -1.0562 -0.6298 -0.7533
  531MPD2    C5 7937   1.490   1.267  12.968  0.4006 -0.1178 -0.3243
  531MPD2     H 7938   1.281   1.581  13.045  0.4729  0.8617 -2.6388
  531MPD2    H1 7939   1.299   1.180  12.913 -2.4848  0.3334 -1.2831
  531MPD2    H2 7940   1.662   1.382  13.033 -0.5767  1.7880  0.6435
  531MPD2    H3 7941   1.551   1.177  12.966 -0.5597 -0.7610 -0.6724
  531MPD2     N 7942   1.147   1.415  12.909  0.0647 -0.5352  0.7734
  531MPD2    H5 7943   1.103   1.506  12.922  2.3934  0.6283  0.5216
  531MPD2    N1 7944   1.553   1.612  13.088 -0.2505 -0.6285 -0.5738
  531MPD2    H7 7945   1.649   1.605  13.120  0.1795 -1.5801 -2.0366
  532TMC3    C1 7946   1.565   1.829  13.172 -0.7050 -0.3668  0.1003
  532TMC3    C2 7947   1.476   1.925  13.208  1.1230 -0.3677 -0.1084
  532TMC3    C3 7948   1.469   1.969  13.333  0.4673  0.0509 -0.1150
  532TMC3    C4 7949   1.641   1.767  13.274  0.3863  0.6412  0.4913
  532TMC3    C5 7950   1.645   1.823  13.399 -0.4455 -0.0497  0.2173
  532TMC3    C6 7951   1.546   1.913  13.434  0.0530 -0.2936 -0.2013
  532TMC3     C 7952   1.495   1.737  13.091  0.1923 -0.4382  0.0415
  532TMC3     O 7953   1.388   1.778  13.052  0.3767  0.2574  0.2329
  532TMC3     H 7954   1.437   1.978  13.122  1.6396  1.5674  0.8420
  532TMC3    H1 7955   1.719   1.697  13.248 -1.4924 -0.4234 -2.3112
  532TMC3    H2 7956   1.544   1.963  13.530 -1.1110 -1.3779  0.3374
  532TMC3    C7 7957   1.749   1.805  13.495  0.1604  0.4147 -0.3062
  532TMC3    C8 7958   1.328   1.982  13.371  0.0083  0.3312 -0.2031
  532TMC3    O1 7959   1.774   1.905  13.563  0.0150 -0.2541 -0.0958
  532TMC3    O2 7960   1.291   2.010  13.483  0.5864  0.3768  0.4141
  533TMC3    C1 7961   2.789   3.310  14.338  0.1279 -0.5193 -0.7613
  533TMC3    C2 7962   2.918   3.347  14.348  0.3083  0.3095  0.5685
  533TMC3    C3 7963   2.943   3.483  14.374  0.7943  0.3926  0.2738
  533TMC3    C4 7964   2.689   3.389  14.385 -0.1079  0.2772 -0.5283
  533TMC3    C5 7965   2.720   3.513  14.438  0.2641 -0.3187  0.2919
  533TMC3    C6 7966   2.845   3.567  14.427  0.1580  0.4999  0.0063
  533TMC3     C 7967   2.761   3.179  14.379 -0.3157 -0.1228 -0.3977
  533TMC3     O 7968   2.838   3.143  14.466 -0.0629 -0.3817 -0.3446
  533TMC3     H 7969   2.995   3.291  14.296 -1.1175  0.3421 -1.5406
  533TMC3    H1 7970   2.584   3.362  14.384 -0.2399  0.7948 -1.0155
  533TMC3    H2 7971   2.876   3.652  14.486  0.7100  0.4770 -0.2493
  533TMC3    C7 7972   2.656   3.517  14.568 -0.2086 -0.6136  0.0343
  533TMC3    C8 7973   3.079   3.522  14.397 -1.1052 -0.0328  0.4385
  533TMC3    O1 7974   2.598   3.415  14.601  0.2716  0.2378  0.2995
  533TMC3    O2 7975   3.116   3.636  14.378 -0.5424  0.1759  0.2275
  534MPD2     C 7976   1.129   4.497   0.673  0.7363 -0.0987  0.1968
  534MPD2    C1 7977   1.101   4.631   0.682  0.0941 -0.5720 -0.3746
  534MPD2    C2 7978   1.000   4.693   0.611 -0.0154 -0.2337  0.0643
  534MPD2    C3 7979   0.928   4.612   0.528 -0.2571  0.3558  0.1606
  534MPD2    C4 7980   0.970   4.482   0.501  0.0951  0.4654 -0.0127
  534MPD2    C5 7981   1.069   4.425   0.573 -0.2034 -0.5244 -0.4677
  534MPD2     H 7982   0.996   0.062   0.613 -1.0529 -0.2697 -0.0621
  534MPD2    H1 7983   0.917   4.405   0.446  0.7354  1.0310 -1.3987
  534MPD2    H2 7984   1.222   4.457   0.713  0.4654  0.4724  1.3890
  534MPD2    H3 7985   1.092   4.319   0.564 -1.3989 -0.6763 -1.7457
  534MPD2     N 7986   0.806   4.653   0.465  0.0092 -0.3057  0.2238
  534MPD2    H5 7987   0.756   4.600   0.395  0.6336  0.3916 -0.7523
  534MPD2    N1 7988   1.178   4.720   0.762  0.4369 -0.3806 -0.2227
  534MPD2    H7 7989   1.136   0.073   0.765  0.1924 -0.5343  1.3848
  535TMC3    C1 7990   0.617   0.053   0.444 -0.0296 -0.2412 -0.1031
  535TMC3    C2 7991   0.529   0.084   0.546 -0.0090  0.1395 -0.3380
  535TMC3    C3 7992   0.399   0.065   0.515 -0.0962 -0.0857  0.5475
  535TMC3    C4 7993   0.586   0.001   0.326  0.2587 -0.4574 -0.3006
  535TMC3    C5 7994   0.460   4.719   0.300 -0.0155 -0.3560  1.0665
  535TMC3    C6 7995   0.359   0.011   0.389 -0.2377 -0.1574  0.2263
  535TMC3     C 7996   0.748   0.032   0.496  0.4920  0.7452  1.1589
  535TMC3     O 7997   0.778   0.119   0.577 -0.7585 -0.0155 -0.5414
  535TMC3     H 7998   0.576   0.088   0.643  0.2422 -0.5922 -0.4228
  535TMC3    H1 7999   0.662   4.722   0.251 -0.1200  0.8013 -0.9811
  535TMC3    H2 8000   0.256   4.716   0.385 -0.4309  0.5238 -0.6089
  535TMC3    C7 8001   0.429   4.626   0.193 -0.3226  0.7909  1.3016
  535TMC3    C8 8002   0.311   0.041   0.632  0.4507 -0.2275 -0.2700
  535TMC3    O1 8003   0.525   4.555   0.166 -0.7560  0.0128  0.4046
  535TMC3    O2 8004   0.212   4.709   0.610 -0.0581 -0.4364  0.5073
  536MPD2     C 8005   3.952   2.565  16.171  0.5557  0.0558 -0.4292
  536MPD2    C1 8006   3.828   2.523  16.204  0.2555  0.1182  0.4000
  536MPD2    C2 8007   3.718   2.566  16.131 -0.0765  0.9128  0.0936
  536MPD2    C3 8008   3.735   2.640  16.017 -0.0685 -0.7100 -0.8334
  536MPD2    C4 8009   3.860   2.697  15.991  0.3087  1.0397  0.3837
  536MPD2    C5 8010   3.966   2.650  16.063 -0.5782  0.6698  0.1968
  536MPD2     H 8011   3.618   2.540  16.164 -0.2550  0.8441 -0.5124
  536MPD2    H1 8012   3.876   2.771  15.913 -0.3563  0.5480 -0.2197
  536MPD2    H2 8013   4.041   2.536  16.225  1.0580  1.4258 -0.4992
  536MPD2    H3 8014   4.065   2.679  16.030  0.3932 -2.5492  0.1914
  536MPD2     N 8015   3.628   2.696  15.937 -0.8285 -0.3114 -0.4455
  536MPD2    H5 8016   3.646   2.777  15.879  2.5155  0.3865  1.5648
  536MPD2    N1 8017   3.815   2.481  16.337  0.5820 -0.6140 -0.7301
  536MPD2    H7 8018   3.899   2.487  16.392 -1.1302  1.3019  1.6825
  537TMC3    C1 8019   3.723   2.421  16.545 -0.5606  0.0167  0.2715
  537TMC3    C2 8020   3.797   2.521  16.611  0.1338  0.2073 -0.0814
  537TMC3    C3 8021   3.788   2.518  16.746  0.7610  0.3026 -0.3089
  537TMC3    C4 8022   3.659   2.323  16.611  0.8144  0.2616  0.3161
  537TMC3    C5 8023   3.680   2.315  16.748  0.0507 -0.3960 -0.0433
  537TMC3    C6 8024   3.732   2.417  16.822 -0.1825  0.4845  0.1746
  537TMC3     C 8025   3.702   2.433  16.400  0.1341 -0.4255 -0.8234
  537TMC3     O 8026   3.603   2.387  16.344  0.1633  0.6903 -0.0329
  537TMC3     H 8027   3.832   2.607  16.554  2.0038  0.0358  0.8136
  537TMC3    H1 8028   3.606   2.247  16.555  3.2168  0.6282 -2.4858
  537TMC3    H2 8029   3.734   2.410  16.930 -1.0975 -2.5026  0.0162
  537TMC3    C7 8030   3.637   2.187  16.814 -0.7911 -0.1910  0.3999
  537TMC3    C8 8031   3.773   2.647  16.800 -0.1067  0.0925 -0.2139
  537TMC3    O1 8032   3.553   2.113  16.769  0.3296 -0.2012 -0.1846
  537TMC3    O2 8033   3.803   2.655  16.919 -0.4012 -0.6811 -0.4853
  538TMC3    C1 8034   4.564   1.326  11.020 -0.2552 -0.5396 -0.1554
  538TMC3    C2 8035   4.671   1.258  10.957 -0.7947 -0.8542  0.5408
  538TMC3    C3 8036   4.675   1.269  10.822 -0.1973  0.0105 -0.3060
  538TMC3    C4 8037   4.477   1.409  10.953  0.2009 -0.3888  0.7870
  538TMC3    C5 8038   4.502   1.430  10.824  0.5741  0.0296 -0.5557
  538TMC3    C6 8039   4.594   1.352  10.754  0.9134  0.1666 -1.0319
  538TMC3     C 8040   4.572   1.369  11.159 -0.0945 -0.7396 -0.4098
  538TMC3     O 8041   4.532   1.482  11.178 -0.3330  0.1714 -0.2815
  538TMC3     H 8042   4.738   1.190  11.008 -0.1710 -0.9817 -0.4516
  538TMC3    H1 8043   4.392   1.457  11.001  0.6530  1.4069 -0.2245
  538TMC3    H2 8044   4.601   1.358  10.646 -0.3061  2.2280 -1.0074
  538TMC3    C7 8045   4.397   1.499  10.748 -0.4459 -1.0242  0.2818
  538TMC3    C8 8046   0.042   1.193  10.759  0.7328  0.7888 -0.1180
  538TMC3    O1 8047   4.300   1.531  10.819  0.4462 -0.4477  0.5311
  538TMC3    O2 8048   0.092   1.109  10.830 -0.3392 -0.4002  0.0899
  539MPD2     C 8049   4.545   0.708  11.660 -0.1481  0.0030 -0.9635
  539MPD2    C1 8050   4.567   0.705  11.526  0.2504  0.2660 -0.0929
  539MPD2    C2 8051   4.505   0.802  11.446  0.2954 -0.6894 -0.2160
  539MPD2    C3 8052   4.402   0.882  11.494  0.0606 -0.5392  0.5879
  539MPD2    C4 8053   4.373   0.865  11.628 -0.3256 -0.2809  0.5423
  539MPD2    C5 8054   4.448   0.788  11.711  0.0377  0.3627 -0.0384
  539MPD2     H 8055   4.538   0.809  11.342 -0.1021  0.3375 -0.2725
  539MPD2    H1 8056   4.307   0.929  11.686  0.9174  0.0925  1.5467
  539MPD2    H2 8057   4.602   0.644  11.726 -0.6167 -0.9480 -1.4817
  539MPD2    H3 8058   4.428   0.786  11.817  0.7230 -0.0551  0.0850
  539MPD2     N 8059   4.338   0.986  11.421  0.1787  0.0725  0.5259
  539MPD2    H5 8060   4.285   1.049  11.481 -0.1360  0.7927 -0.5087
  539MPD2    N1 8061   4.652   0.610  11.465  0.5920 -0.0458 -0.0771
  539MPD2    H7 8062   4.645   0.603  11.364  4.0457 -1.3740 -0.2253
  540TMC3    C1 8063   4.302   1.138  11.259  0.0835  0.3561  0.0626
  540TMC3    C2 8064   4.241   1.152  11.138  0.0377  0.1632  0.5130
  540TMC3    C3 8065   4.146   1.253  11.128 -0.6571  0.1827 -0.4186
  540TMC3    C4 8066   4.275   1.230  11.360  0.8277 -0.3094 -0.3810
  540TMC3    C5 8067   4.174   1.318  11.340  0.0539  0.0984  0.0566
  540TMC3    C6 8068   4.111   1.347  11.220  0.2275 -0.0555  0.4182
  540TMC3     C 8069   4.362   1.016  11.289  0.3240  0.3520  0.6733
  540TMC3     O 8070   4.415   0.952  11.198 -0.4215  0.5665 -0.2293
  540TMC3     H 8071   4.272   1.097  11.050 -1.5574 -0.6867  0.4776
  540TMC3    H1 8072   4.328   1.230  11.455 -1.2663  1.0258  0.8017
  540TMC3    H2 8073   4.027   1.415  11.209  1.4585  1.0908 -1.9326
  540TMC3    C7 8074   4.108   1.365  11.455 -0.8710  0.0066  0.8325
  540TMC3    C8 8075   4.065   1.263  11.002 -0.1988 -0.0405 -0.5215
  540TMC3    O1 8076   4.104   1.279  11.538 -0.0536 -0.5457  0.0695
  540TMC3    O2 8077   4.021   1.375  10.969  0.0704  0.5142  0.4785
  541MPD2     C 8078   3.156   2.052  13.252  0.0008 -0.0352 -0.0987
  541MPD2    C1 8079   3.022   2.042  13.233 -0.0480  0.1388  0.0658
  541MPD2    C2 8080   2.967   2.049  13.108  0.4331  0.3452 -0.7756
  541MPD2    C3 8081   3.042   2.066  12.995 -0.2087  0.2155  1.1845
  541MPD2    C4 8082   3.178   2.067  13.014 -0.0168  0.4004  0.8182
  541MPD2    C5 8083   3.233   2.063  13.140  0.3436  0.5649  0.7572
  541MPD2     H 8084   2.859   2.040  13.102  0.5251 -0.6736 -0.8670
  541MPD2    H1 8085   3.237   2.082  12.924 -2.8651 -1.1768 -1.3093
  541MPD2    H2 8086   3.220   2.045  13.339  0.2327 -0.2359 -0.2864
  541MPD2    H3 8087   3.340   2.072  13.153  0.4780 -0.4690  0.4100
  541MPD2     N 8088   2.997   2.079  12.864 -0.2892 -0.2235  0.3274
  541MPD2    H5 8089   3.058   2.059  12.785 -0.6567  0.9556 -0.2564
  541MPD2    N1 8090   2.932   2.024  13.343 -1.2835  0.4249  0.0730
  541MPD2    H7 8091   2.833   2.023  13.321 -1.2476  0.9990 -0.0935
  542TMC3    C1 8092   2.836   2.114  12.692 -0.1875  0.3419  0.1814
  542TMC3    C2 8093   2.895   2.017  12.606  0.0461 -0.3331 -0.5640
  542TMC3    C3 8094   2.838   2.013  12.482  0.6959 -0.4873  0.0178
  542TMC3    C4 8095   2.722   2.186  12.664 -0.9107 -0.8167 -0.3226
  542TMC3    C5 8096   2.675   2.169  12.540  0.3028  0.2911  0.4431
  542TMC3    C6 8097   2.732   2.089  12.446  1.4628  0.5885 -0.5519
  542TMC3     C 8098   2.868   2.108  12.837 -0.0964  0.2613 -0.5352
  542TMC3     O 8099   2.779   2.140  12.915  0.9246 -0.4570 -0.3071
  542TMC3     H 8100   2.967   1.940  12.632  0.5860  0.6857  0.9879
  542TMC3    H1 8101   2.676   2.244  12.743  1.1254 -2.3943  2.0223
  542TMC3    H2 8102   2.683   2.093  12.349  2.0217 -1.9656 -0.9428
  542TMC3    C7 8103   2.560   2.252  12.496  0.8380  0.8765 -0.6294
  542TMC3    C8 8104   2.900   1.932  12.380  0.4518  0.0049  0.3114
  542TMC3    O1 8105   2.540   2.274  12.378  0.0618  0.2226  0.2439
  542TMC3    O2 8106   2.840   1.922  12.271 -0.6656 -0.1366  0.4125
  543TMC3    C1 8107   2.284   3.429  17.186  0.2723  0.4505  0.3989
  543TMC3    C2 8108   2.333   3.316  17.239  0.0623  0.6739 -0.0474
  543TMC3    C3 8109   2.336   3.295  17.374 -1.1934 -0.0683  0.6126
  543TMC3    C4 8110   2.238   3.528  17.277 -0.3382  0.0871 -0.2613
  543TMC3    C5 8111   2.242   3.505  17.415 -0.1269  0.2318 -0.1340
  543TMC3    C6 8112   2.298   3.388  17.463 -0.1563 -0.4811 -0.3422
  543TMC3     C 8113   2.333   3.462  17.049  0.0240 -0.6495  0.2714
  543TMC3     O 8114   2.365   3.369  16.975 -0.0387 -0.1687 -0.3479
  543TMC3     H 8115   2.384   3.242  17.178 -0.5527 -0.7665  1.1768
  543TMC3    H1 8116   2.193   3.618  17.236 -2.8511 -0.3882  1.4004
  543TMC3    H2 8117   2.292   3.370  17.570 -1.1974  2.6085  0.1142
  543TMC3    C7 8118   2.186   3.595  17.516  0.1700 -0.7469 -0.8520
  543TMC3    C8 8119   2.413   3.175  17.418  0.9358  0.4230 -0.3716
  543TMC3    O1 8120   2.172   3.556  17.633  0.5353  0.2594  0.1660
  543TMC3    O2 8121   2.426   3.083  17.334  0.0879  0.3577  0.0332
  544MPD2     C 8122   2.629   2.874   0.012  0.1256 -0.0410 -0.3841
  544MPD2    C1 8123   2.580   2.849  17.641  0.0862  0.2347  0.1154
  544MPD2    C2 8124   2.523   2.946  17.570 -0.2662 -0.1499  0.2166
  544MPD2    C3 8125   2.528   3.076  17.613  0.7467 -0.2301 -0.3749
  544MPD2    C4 8126   2.583   3.107  17.733  0.2106 -0.6162  0.6054
  544MPD2    C5 8127   2.634   3.005   0.055  0.1307 -0.7217  0.4713
  544MPD2     H 8128   2.480   2.928  17.472  0.3493 -3.0388  0.4653
  544MPD2    H1 8129   2.588   3.206   0.023  1.4473  1.0632 -3.2227
  544MPD2    H2 8130   2.656   2.791   0.077  0.1636  0.6950  0.5405
  544MPD2    H3 8131   2.661   3.021   0.159  2.6628  0.5376 -0.3914
  544MPD2     N 8132   2.470   3.188  17.543  0.5269 -0.4195 -0.3000
  544MPD2    H5 8133   2.457   3.278  17.588  1.1293 -1.2345  1.4848
  544MPD2    N1 8134   2.585   2.716  17.598  0.1355  0.1669 -0.4966
  544MPD2    H7 8135   2.625   2.647  17.661 -3.0408 -1.0544  0.1714
  545TMC3    C1 8136   2.540   2.527  17.457 -0.3577 -0.0583  0.5189
  545TMC3    C2 8137   2.521   2.488  17.323  0.9288  0.1890  0.0952
  545TMC3    C3 8138   2.456   2.369  17.299 -0.1826  0.5577 -0.1442
  545TMC3    C4 8139   2.506   2.440  17.563  0.1457 -0.3074  0.6004
  545TMC3    C5 8140   2.443   2.321  17.529 -0.7984  0.2243  0.2789
  545TMC3    C6 8141   2.424   2.277  17.399  0.5758 -0.0668  0.3978
  545TMC3     C 8142   2.549   2.675  17.475  0.3846  0.6021  0.6441
  545TMC3     O 8143   2.538   2.740  17.372  0.2880 -0.1829  0.1160
  545TMC3     H 8144   2.564   2.553  17.247 -0.4180  0.2610 -0.6154
  545TMC3    H1 8145   2.518   2.465  17.667 -1.3133  1.4282  0.3440
  545TMC3    H2 8146   2.388   2.179  17.369  2.0543 -1.5932  3.5938
  545TMC3    C7 8147   2.457   2.211  17.622 -0.3519 -0.1372 -0.3084
  545TMC3    C8 8148   2.386   2.349  17.164  0.4282 -0.0091  0.6395
  545TMC3    O1 8149   2.386   2.115  17.611 -0.5221 -0.1066 -0.0836
  545TMC3    O2 8150   2.324   2.239  17.157 -0.2116  0.1852 -0.4899
  546MPD2     C 8151   4.114   3.440  17.549 -0.0446 -0.6829  0.6390
  546MPD2    C1 8152   4.040   3.471  17.435 -0.3718 -0.0584 -0.2978
  546MPD2    C2 8153   4.040   3.602  17.384 -0.3482 -0.2933  0.3004
  546MPD2    C3 8154   4.123   3.696  17.436  0.7950  0.0870 -0.6853
  546MPD2    C4 8155   4.195   3.664  17.548  0.1999 -0.1325 -0.0321
  546MPD2    C5 8156   4.200   3.539  17.599  0.2014 -0.4293  0.1030
  546MPD2     H 8157   3.976   3.637  17.303  0.2713  0.5171  0.1701
  546MPD2    H1 8158   4.271   3.726  17.594 -0.7183 -0.7392  2.3163
  546MPD2    H2 8159   4.130   3.342  17.593  1.6922 -0.3534  0.7706
  546MPD2    H3 8160   4.265   3.522  17.684  2.3365  1.3194 -1.1868
  546MPD2     N 8161   4.131   3.827  17.390 -0.7038  0.3777 -0.3999
  546MPD2    H5 8162   4.163   3.894  17.460 -0.7809  0.6372 -0.6116
  546MPD2    N1 8163   3.951   3.374  17.390  0.2740 -0.1870  0.4082
  546MPD2    H7 8164   3.942   3.291  17.449  0.7654  0.0468  0.8102
  547TMC3    C1 8165   3.795   3.258  17.253  0.2804 -0.4252 -0.2495
  547TMC3    C2 8166   3.724   3.266  17.137  0.2455 -0.2529 -0.3370
  547TMC3    C3 8167   3.626   3.174  17.119  0.7129 -0.1367 -0.0533
  547TMC3    C4 8168   3.766   3.180  17.360  0.2524 -0.5368  0.4075
  547TMC3    C5 8169   3.669   3.086  17.337 -0.0118 -1.0300  0.5803
  547TMC3    C6 8170   3.590   3.090  17.223  0.2593 -0.4737 -0.2130
  547TMC3     C 8171   3.884   3.371  17.272 -0.0356  0.0338  0.0210
  547TMC3     O 8172   3.889   3.461  17.186  0.1020  0.3965 -0.1377
  547TMC3     H 8173   3.745   3.343  17.064 -0.8467  0.3629 -0.0158
  547TMC3    H1 8174   3.822   3.167  17.452 -0.0291  2.7748  1.0483
  547TMC3    H2 8175   3.501   3.032  17.203 -0.1372 -0.2662  0.9679
  547TMC3    C7 8176   3.631   3.002  17.447  0.1547  0.3821  0.1165
  547TMC3    C8 8177   3.526   3.201  17.018 -0.4112  0.2916 -0.1405
  547TMC3    O1 8178   3.688   3.018  17.554 -0.0197  0.6161  0.0155
  547TMC3    O2 8179   3.511   3.312  16.968  0.5924 -0.5661 -0.3867
  548MPD2     C 8180   3.138   3.783  12.124  0.7128 -1.0454 -0.0486
  548MPD2    C1 8181   3.127   3.685  12.220  0.9796  0.2141  0.2543
  548MPD2    C2 8182   3.234   3.594  12.235 -0.0308 -0.6584  0.2636
  548MPD2    C3 8183   3.350   3.617  12.169  0.3507  0.1969 -0.0727
  548MPD2    C4 8184   3.364   3.711  12.068 -0.1768  0.0734  0.2338
  548MPD2    C5 8185   3.252   3.790  12.039  0.3673 -0.5347 -0.2677
  548MPD2     H 8186   3.228   3.522  12.316  2.6276 -1.1357  0.0117
  548MPD2    H1 8187   3.455   3.735  12.014 -0.7565  0.7321 -0.4519
  548MPD2    H2 8188   3.053   3.846  12.100  0.6658 -0.7670  0.8331
  548MPD2    H3 8189   3.268   3.864  11.962 -1.8081  0.5805  0.3818
  548MPD2     N 8190   3.455   3.526  12.205 -0.0095 -0.5798 -0.3214
  548MPD2    H5 8191   3.429   3.451  12.268  2.9153 -1.5446 -0.2789
  548MPD2    N1 8192   3.005   3.672  12.286  0.3069  0.0684 -0.2043
  548MPD2    H7 8193   2.950   3.757  12.276  3.2528  1.7527 -1.8478
  549TMC3    C1 8194   2.847   3.584  12.419 -0.2154  0.5054  0.3174
  549TMC3    C2 8195   2.796   3.709  12.412 -0.1710  0.3936 -0.0902
  549TMC3    C3 8196   2.721   3.751  12.513  0.0792  1.0228  0.9501
  549TMC3    C4 8197   2.827   3.499  12.529  0.2678 -0.0119  0.4036
  549TMC3    C5 8198   2.749   3.548  12.628  0.2345 -0.0437  0.1643
  549TMC3    C6 8199   2.695   3.673  12.620  0.2049  0.3551  1.0593
  549TMC3     C 8200   2.962   3.556  12.349  0.6103  0.5509 -0.8194
  549TMC3     O 8201   3.013   3.443  12.351  0.0428  0.2322 -0.2548
  549TMC3     H 8202   2.806   3.767  12.321 -0.6421  1.3397  0.4557
  549TMC3    H1 8203   2.878   3.403  12.540  0.8690  0.1663 -0.8395
  549TMC3    H2 8204   2.629   3.706  12.700  0.3882 -0.2908  1.4782
  549TMC3    C7 8205   2.765   3.491  12.765  0.1194  0.2662  0.9002
  549TMC3    C8 8206   2.613   3.846  12.488  0.6213  0.4312  0.9665
  549TMC3    O1 8207   2.744   3.552  12.868  0.0007  0.4588 -0.3987
  549TMC3    O2 8208   2.510   3.828  12.552 -0.6822 -0.4223 -0.3023
  550TMC3    C1 8209   1.755   1.522  12.474 -0.2273  0.2415 -0.0234
  550TMC3    C2 8210   1.820   1.570  12.582 -0.1873 -0.0831 -0.0870
  550TMC3    C3 8211   1.873   1.695  12.573  0.7804  0.4477 -0.4337
  550TMC3    C4 8212   1.758   1.578  12.351  0.5945  0.3081 -0.3958
  550TMC3    C5 8213   1.824   1.702  12.345 -0.5094 -0.4490  0.3754
  550TMC3    C6 8214   1.873   1.762  12.456 -0.8663  0.4784  0.2406
  550TMC3     C 8215   1.626   1.468  12.511 -0.5548 -0.9722 -0.6560
  550TMC3     O 8216   1.610   1.415  12.620 -0.2003 -0.3426 -0.4311
  550TMC3     H 8217   1.813   1.521  12.678  1.6592 -0.7244 -0.2821
  550TMC3    H1 8218   1.718   1.531  12.262 -2.2915  1.1400  0.4678
  550TMC3    H2 8219   1.919   1.860  12.450 -0.3666  0.2058 -0.4036
  550TMC3    C7 8220   1.724   1.789  12.274 -0.5036  0.6516  0.1579
  550TMC3    C8 8221   1.828   1.776  12.684 -0.0889  0.4591  0.3150
  550TMC3    O1 8222   1.613   1.737  12.273  0.1391  0.2147  0.6382
  550TMC3    O2 8223   1.876   1.756  12.795  0.0138  0.1281  0.1654
  551TMC3    C1 8224   4.704   4.177  13.260 -0.4837  0.4435  0.4221
  551TMC3    C2 8225   0.076   4.109  13.214 -0.0462 -0.1318 -0.2026
  551TMC3    C3 8226   0.193   4.139  13.279  0.0057  0.9805 -0.2445
  551TMC3    C4 8227   4.701   4.256  13.372 -0.6968  0.8918 -0.1283
  551TMC3    C5 8228   0.075   4.252  13.447  0.2110 -0.4405  0.4612
  551TMC3    C6 8229   0.195   4.195  13.405 -0.3333 -0.4741  0.3120
  551TMC3     C 8230   4.594   4.183  13.169  0.2779 -0.0377  0.1789
  551TMC3     O 8231   4.584   4.085  13.100 -0.0647  0.2775 -0.5344
  551TMC3     H 8232   0.070   4.058  13.118 -0.1791  1.6432 -1.1268
  551TMC3    H1 8233   4.610   4.292  13.419  0.3844  2.4479  0.7594
  551TMC3    H2 8234   0.285   4.197  13.465 -0.6833  1.7719  0.7621
  551TMC3    C7 8235   0.087   4.321  13.572  0.1354 -0.6436 -0.0687
  551TMC3    C8 8236   0.309   4.150  13.198 -0.3043  0.8249  0.2109
  551TMC3    O1 8237   0.179   4.286  13.643 -0.3811 -0.0990 -0.5409
  551TMC3    O2 8238   0.308   4.059  13.113  0.1183 -0.5126 -0.3332
  552MPD2     C 8239   1.845   1.772  13.886  0.1684 -0.4440 -0.3762
  552MPD2    C1 8240   1.838   1.640  13.918 -0.3866  0.4469 -0.7410
  552MPD2    C2 8241   1.943   1.587  13.997 -0.5131  0.7535 -0.1419
  552MPD2    C3 8242   2.037   1.666  14.059 -0.0910  0.0137 -0.5435
  552MPD2    C4 8243   2.025   1.801  14.034  0.5528  0.0867 -0.2883
  552MPD2    C5 8244   1.927   1.857  13.955  0.5126 -0.0550  0.0429
  552MPD2     H 8245   1.961   1.480  13.993 -0.9286  0.6706  0.1643
  552MPD2    H1 8246   2.096   1.873  14.073  0.3755  0.1886 -0.1543
  552MPD2    H2 8247   1.785   1.818  13.808  0.7649 -1.6993 -1.5823
  552MPD2    H3 8248   1.918   1.965  13.943 -0.4511 -0.2463 -0.9006
  552MPD2     N 8249   2.148   1.621  14.137 -0.2400  0.8611  0.1422
  552MPD2    H5 8250   2.211   1.697  14.162 -0.1553  0.1748  2.0137
  552MPD2    N1 8251   1.746   1.557  13.854 -0.0104  0.1814 -0.4208
  552MPD2    H7 8252   1.753   1.458  13.878  1.8305  0.3321 -0.3425
  553TMC3    C1 8253   1.580   1.473  13.714 -0.3406 -0.4859 -0.5549
  553TMC3    C2 8254   1.554   1.485  13.579 -0.0295 -0.4476  0.6565
  553TMC3    C3 8255   1.506   1.372  13.513  0.0425  0.3375  0.4628
  553TMC3    C4 8256   1.549   1.361  13.791 -0.3022  0.0701  0.2710
  553TMC3    C5 8257   1.499   1.257  13.721 -1.0902  0.2353  0.4522
  553TMC3    C6 8258   1.462   1.261  13.584  0.1717 -0.1898  0.1172
  553TMC3     C 8259   1.650   1.586  13.765 -0.3217  0.2648  0.9313
  553TMC3     O 8260   1.617   1.694  13.719 -0.0764  0.2174  0.5373
  553TMC3     H 8261   1.597   1.567  13.522  0.9006 -1.6814 -0.4067
  553TMC3    H1 8262   1.585   1.355  13.893  1.4049 -0.7475 -0.3677
  553TMC3    H2 8263   1.428   1.168  13.541 -0.9740  0.4881 -0.4162
  553TMC3    C7 8264   1.522   1.130  13.785 -0.6722  0.1160 -0.0988
  553TMC3    C8 8265   1.588   1.336  13.401 -0.0158 -0.3937  0.3560
  553TMC3    O1 8266   1.432   1.047  13.800 -0.1482  0.1846 -0.6525
  553TMC3    O2 8267   1.678   1.410  13.367 -0.1155  0.3325 -0.3194
  554TMC3    C1 8268   3.818   0.940  11.296  0.0389  0.0908 -0.0065
  554TMC3    C2 8269   3.785   0.845  11.197 -0.9920 -0.1564 -0.3042
  554TMC3    C3 8270   3.747   0.893  11.079 -0.9950  0.0537  0.3845
  554TMC3    C4 8271   3.830   1.079  11.276  0.4974  0.2334  0.5697
  554TMC3    C5 8272   3.767   1.119  11.160  0.1478  0.1424 -0.6153
  554TMC3    C6 8273   3.730   1.027  11.062 -0.0900  0.4302  0.5282
  554TMC3     C 8274   3.893   0.894  11.410 -0.7225  0.2571 -0.0060
  554TMC3     O 8275   3.983   0.969  11.440 -0.3670  0.1617  0.2588
  554TMC3     H 8276   3.812   0.740  11.210 -1.2254  0.0699  1.9765
  554TMC3    H1 8277   3.871   1.152  11.344 -0.7659  1.5260 -0.0570
  554TMC3    H2 8278   3.670   1.054  10.976  3.1757 -0.9016 -2.1518
  554TMC3    C7 8279   3.745   1.254  11.126 -0.3502 -0.0444  0.5500
  554TMC3    C8 8280   3.670   0.832  10.984 -0.9087  0.0360 -0.4844
  554TMC3    O1 8281   3.709   1.265  11.007  0.3513  0.2275  0.0118
  554TMC3    O2 8282   3.695   0.863  10.872 -0.3216  0.3187 -0.3553
  555TMC3    C1 8283   2.666   0.536  15.240  0.4790  0.2470 -0.1803
  555TMC3    C2 8284   2.736   0.573  15.355 -0.0479 -0.1539 -0.3056
  555TMC3    C3 8285   2.754   0.474  15.445  0.1498 -0.0603 -0.0884
  555TMC3    C4 8286   2.637   0.407  15.205 -0.1458 -0.6847 -0.4277
  555TMC3    C5 8287   2.670   0.314  15.296 -0.6625  0.2581  0.7737
  555TMC3    C6 8288   2.724   0.344  15.416 -0.4433  0.4135  0.2078
  555TMC3     C 8289   2.679   0.624  15.123  0.2595  0.0516 -0.2853
  555TMC3     O 8290   2.787   0.684  15.111 -0.1176 -0.2294 -0.2002
  555TMC3     H 8291   2.767   0.675  15.375  3.5271 -1.2578 -0.1357
  555TMC3    H1 8292   2.585   0.375  15.116  1.7266 -2.7936 -0.7330
  555TMC3    H2 8293   2.773   0.269  15.477 -2.2900 -2.0697 -1.3144
  555TMC3    C7 8294   2.661   0.170  15.266 -1.0659  0.3263  0.3272
  555TMC3    C8 8295   2.860   0.503  15.537  0.1940  0.4676  0.5063
  555TMC3    O1 8296   2.660   0.093  15.360 -0.2293  0.4795  0.4362
  555TMC3    O2 8297   2.955   0.576  15.506  0.2050  0.0928  0.8376
  556MPD2     C 8298   0.767   1.896  10.272  0.1417 -0.2101  0.2679
  556MPD2    C1 8299   0.667   1.827  10.333 -0.2264 -0.6356  0.8480
  556MPD2    C2 8300   0.575   1.762  10.251  0.3112 -0.4954 -0.7088
  556MPD2    C3 8301   0.600   1.748  10.118  0.4321 -0.3765 -0.9765
  556MPD2    C4 8302   0.706   1.805  10.059  0.2465 -0.2871 -0.2402
  556MPD2    C5 8303   0.785   1.884  10.135 -0.3005 -0.3005  0.2322
  556MPD2     H 8304   0.485   1.712  10.286  0.5343 -1.2963 -1.2664
  556MPD2    H1 8305   0.727   1.794   9.954  0.2710  0.4022 -0.3019
  556MPD2    H2 8306   0.848   1.943  10.327  1.2410 -0.2867 -1.2874
  556MPD2    H3 8307   0.865   1.946  10.097 -1.7667  0.6525 -1.3437
  556MPD2     N 8308   0.516   1.657  10.053 -0.7043  0.3368 -0.0172
  556MPD2    H5 8309   0.448   1.605  10.109  0.8784 -2.1770 -0.4082
  556MPD2    N1 8310   0.654   1.843  10.469 -0.6492 -0.4827  0.4400
  556MPD2    H7 8311   0.722   1.912  10.500 -0.0626 -2.0343  2.6392
  557TMC3    C1 8312   0.431   1.500   9.899  0.3620  0.6345 -0.3288
  557TMC3    C2 8313   0.472   1.400   9.806 -0.7169  0.2127  0.4446
  557TMC3    C3 8314   0.420   1.271   9.820  0.3036 -0.0504  0.2703
  557TMC3    C4 8315   0.341   1.474   9.998  0.3756  0.4036  0.1206
  557TMC3    C5 8316   0.302   1.344  10.008 -0.7050  0.6656  0.2113
  557TMC3    C6 8317   0.340   1.243   9.927  0.2563 -0.1390  0.1226
  557TMC3     C 8318   0.524   1.615   9.920 -0.4546 -0.1640 -0.1450
  557TMC3     O 8319   0.610   1.633   9.835  0.8945 -0.2821 -0.2417
  557TMC3     H 8320   0.558   1.421   9.743 -0.5943 -1.8122 -0.0869
  557TMC3    H1 8321   0.311   1.553  10.066  2.6600  1.5929 -0.2780
  557TMC3    H2 8322   0.298   1.146   9.951 -2.2740  1.1853  0.9947
  557TMC3    C7 8323   0.251   1.309  10.141  0.0373  0.0244  0.2814
  557TMC3    C8 8324   0.465   1.167   9.730 -0.3811  0.0103  0.1379
  557TMC3    O1 8325   0.200   1.407  10.197 -0.0490  0.0714  0.1470
  557TMC3    O2 8326   0.561   1.204   9.671 -0.2466 -0.0725  0.6112
  558TMC3    C1 8327   3.017   4.181  10.467 -0.0306 -0.1183  0.0231
  558TMC3    C2 8328   2.886   4.210  10.495  0.3433 -0.1946 -0.1721
  558TMC3    C3 8329   2.799   4.226  10.386  0.6340 -0.2580 -0.0982
  558TMC3    C4 8330   3.067   4.183  10.338 -0.2257  0.4947 -0.1638
  558TMC3    C5 8331   2.976   4.205  10.239 -0.4501  0.4262 -0.1675
  558TMC3    C6 8332   2.844   4.215  10.263 -0.7814  1.5731 -0.7129
  558TMC3     C 8333   3.108   4.178  10.569 -0.1633  0.2432  0.1928
  558TMC3     O 8334   3.215   4.240  10.542  0.0034  0.8726  0.2469
  558TMC3     H 8335   2.848   4.199  10.596  1.1824 -1.7504 -0.0081
  558TMC3    H1 8336   3.172   4.167  10.318 -0.0661  0.2180  0.8938
  558TMC3    H2 8337   2.779   4.243  10.181 -0.3072 -1.1129 -1.9791
  558TMC3    C7 8338   3.035   4.264  10.122 -0.2820  0.1518  0.3571
  558TMC3    C8 8339   2.662   4.277  10.412 -0.2002  0.2389 -0.2165
  558TMC3    O1 8340   3.153   4.287  10.130 -0.3202  0.0578  0.1266
  558TMC3    O2 8341   2.581   4.271  10.320  0.0267 -0.3939 -0.8233
  559MPD2     C 8342   3.168   0.653  10.342 -0.2333  0.2968 -0.0194
  559MPD2    C1 8343   3.101   0.561  10.415 -0.2469  0.2714 -0.5557
  559MPD2    C2 8344   3.164   0.488  10.515 -0.9902 -0.1781 -0.6969
  559MPD2    C3 8345   3.289   0.531  10.555 -0.1725 -0.0520  0.8375
  559MPD2    C4 8346   3.356   0.624  10.475 -0.0502  0.3345 -0.3398
  559MPD2    C5 8347   3.299   0.692  10.368 -0.0211  0.1872  0.3120
  559MPD2     H 8348   3.102   0.423  10.575  1.2363 -0.8458  0.8651
  559MPD2    H1 8349   3.456   0.662  10.491  0.4595 -1.3097  0.3280
  559MPD2    H2 8350   3.119   0.722  10.273 -1.4501 -0.2659  0.2840
  559MPD2    H3 8351   3.356   0.762  10.309 -0.4711 -1.4019 -2.0401
  559MPD2     N 8352   3.354   0.459  10.660  0.3516  0.1540 -0.6683
  559MPD2    H5 8353   3.297   0.396  10.714  0.2859  2.8279  2.4138
  559MPD2    N1 8354   2.963   0.552  10.395 -0.0236  0.1976  0.2958
  559MPD2    H7 8355   2.916   0.633  10.354 -2.5350 -1.6402 -0.4503
  560TMC3    C1 8356   3.510   0.394  10.818  0.3124 -0.1922  0.6672
  560TMC3    C2 8357   3.426   0.287  10.850 -1.1499  0.9598 -0.2485
  560TMC3    C3 8358   3.454   0.224  10.967  0.1763  0.5786 -0.3519
  560TMC3    C4 8359   3.610   0.446  10.903  0.1275  0.1523  0.0594
  560TMC3    C5 8360   3.625   0.385  11.024 -0.2831 -0.5478  0.4933
  560TMC3    C6 8361   3.552   0.270  11.054 -0.2419  0.3164  0.4246
  560TMC3     C 8362   3.483   0.478  10.703 -0.6959 -0.4342 -0.1139
  560TMC3     O 8363   3.560   0.567  10.671  0.1171  0.0609  0.1991
  560TMC3     H 8364   3.353   0.252  10.778 -0.8963  0.1121 -0.0848
  560TMC3    H1 8365   3.667   0.536  10.881 -1.6127  0.7729 -1.9209
  560TMC3    H2 8366   3.570   0.230  11.153  0.2502 -0.6030 -0.0446
  560TMC3    C7 8367   3.739   0.421  11.121 -0.3638 -0.2291 -0.0023
  560TMC3    C8 8368   3.367   0.115  11.002 -0.1427  0.0501 -0.3071
  560TMC3    O1 8369   3.726   0.404  11.240  0.2972  0.0980  0.0353
  560TMC3    O2 8370   3.269   0.104  10.936 -0.4147 -0.0409  0.1735
  561TMC3    C1 8371   0.810   4.223  10.815 -0.2949  0.0852  0.1142
  561TMC3    C2 8372   0.750   4.129  10.893  0.3697  0.0520 -0.2222
  561TMC3    C3 8373   0.752   4.152  11.024 -0.0739  0.3134 -0.2237
  561TMC3    C4 8374   0.854   4.343  10.863  0.0813 -0.1506 -0.0875
  561TMC3    C5 8375   0.845   4.360  11.002  0.4997  0.1588 -1.0305
  561TMC3    C6 8376   0.797   4.264  11.089 -0.2537  0.2945 -0.1546
  561TMC3     C 8377   0.832   4.182  10.677  0.5892 -0.7967  0.1022
  561TMC3     O 8378   0.828   4.065  10.658 -0.1791 -0.7294  0.4228
  561TMC3     H 8379   0.714   4.036  10.850  2.0972  0.0003 -1.5697
  561TMC3    H1 8380   0.896   4.423  10.803  0.1631  1.9350  2.7457
  561TMC3    H2 8381   0.825   4.277  11.193 -0.8378  2.5093 -0.2583
  561TMC3    C7 8382   0.875   4.488  11.065  0.6719 -0.5431 -0.6068
  561TMC3    C8 8383   0.707   4.041  11.100  0.3649  0.4902 -0.6133
  561TMC3    O1 8384   0.848   4.498  11.183 -0.1072 -0.2815 -0.0761
  561TMC3    O2 8385   0.671   3.935  11.051 -0.5574  0.6194 -0.2867
  562TMC3    C1 8386   2.251   0.798  16.417  0.2065 -0.8538  0.1299
  562TMC3    C2 8387   2.305   0.898  16.349 -0.4458  0.1164 -0.0247
  562TMC3    C3 8388   2.293   0.912  16.215 -0.8357  0.5167  0.4029
  562TMC3    C4 8389   2.191   0.696  16.356  0.8480 -0.5619  0.4246
  562TMC3    C5 8390   2.193   0.700  16.217 -0.0853 -0.5116 -0.0974
  562TMC3    C6 8391   2.235   0.807  16.141 -0.6930  0.1736 -0.2551
  562TMC3     C 8392   2.223   0.811  16.560  0.0997  0.7313  0.3824
  562TMC3     O 8393   2.188   0.710  16.618  0.0318 -0.1656 -0.1624
  562TMC3     H 8394   2.356   0.976  16.405 -0.5289 -1.0948  1.7143
  562TMC3    H1 8395   2.129   0.633  16.419  0.7916  1.5708  2.5011
  562TMC3    H2 8396   2.207   0.823  16.037 -0.1158  0.8630 -0.3073
  562TMC3    C7 8397   2.121   0.602  16.146 -0.4051  0.5048  0.1159
  562TMC3    C8 8398   2.301   1.050  16.164  0.7885 -1.0317  0.8261
  562TMC3    O1 8399   2.081   0.622  16.029 -0.3517 -0.5442  0.0817
  562TMC3    O2 8400   2.338   1.135  16.247 -0.1621 -0.0486 -0.1016
  563MPD2     C 8401   4.657   1.791  15.587 -0.5591 -0.0572 -0.0574
  563MPD2    C1 8402   4.672   1.730  15.716  1.1511 -0.2610 -0.1600
  563MPD2    C2 8403   0.051   1.737  15.780  0.1642  0.1382  0.2773
  563MPD2    C3 8404   0.158   1.784  15.710  0.6901  0.8385 -0.5487
  563MPD2    C4 8405   0.158   1.813  15.578 -0.1693  0.2087  0.2585
  563MPD2    C5 8406   0.035   1.814  15.517 -0.4039  0.0605 -0.7968
  563MPD2     H 8407   0.051   1.715  15.886  1.4326  1.8630  0.6396
  563MPD2    H1 8408   0.246   1.851  15.529 -1.1015  3.2048  0.9268
  563MPD2    H2 8409   4.558   1.805  15.544  0.4557  0.8797 -2.0378
  563MPD2    H3 8410   0.035   1.855  15.417 -2.6719 -2.8895 -1.9959
  563MPD2     N 8411   0.277   1.787  15.790 -0.0137 -0.1498  0.4095
  563MPD2    H5 8412   0.262   1.775  15.890  0.3961 -0.9369  0.3737
  563MPD2    N1 8413   4.573   1.683  15.803  0.7789  0.8658 -0.2640
  563MPD2    H7 8414   4.605   1.678  15.899 -0.7223  3.5192  0.3786
  564TMC3    C1 8415   4.356   1.664  15.897  0.1491  0.1528 -0.3330
  564TMC3    C2 8416   4.268   1.555  15.907 -0.6634  0.3512  0.2726
  564TMC3    C3 8417   4.246   1.495  16.032  0.6308 -0.2588 -0.3432
  564TMC3    C4 8418   4.423   1.704  16.009 -0.1769  0.2673 -0.9369
  564TMC3    C5 8419   4.414   1.629  16.124  0.4866  0.2174 -0.0214
  564TMC3    C6 8420   4.316   1.538  16.140  0.5562 -0.1642  0.4196
  564TMC3     C 8421   4.438   1.672  15.773  0.6064 -0.5022 -0.1452
  564TMC3     O 8422   4.381   1.646  15.667 -0.4158  0.5079  0.5729
  564TMC3     H 8423   4.233   1.520  15.811 -0.2427  1.3494 -0.2409
  564TMC3    H1 8424   4.489   1.790  16.010  1.0327 -0.6749  0.3254
  564TMC3    H2 8425   4.302   1.483  16.233 -1.0262  4.6361  3.0409
  564TMC3    C7 8426   4.546   1.577  16.150  0.1894  0.1765  0.4206
  564TMC3    C8 8427   4.196   1.359  16.035 -0.0636  0.1288  0.2259
  564TMC3    O1 8428   4.649   1.649  16.137  0.1299  0.2968 -0.1088
  564TMC3    O2 8429   4.230   1.290  16.132 -0.0623 -0.0348  0.0578
  565TMC3    C1 8430   4.492   3.139  10.269 -0.5208  0.4685  0.2020
  565TMC3    C2 8431   4.574   3.053  10.330 -0.0640  0.1275 -0.4642
  565TMC3    C3 8432   4.536   2.920  10.337 -0.0391  0.5365  0.3889
  565TMC3    C4 8433   4.379   3.099  10.203 -0.7569 -0.0213 -0.4110
  565TMC3    C5 8434   4.364   2.965  10.190 -0.4085 -0.0389  0.0375
  565TMC3    C6 8435   4.442   2.873  10.250  0.1330  0.2285  0.1584
  565TMC3     C 8436   4.540   3.280  10.250 -0.6425  0.0981  0.1191
  565TMC3     O 8437   4.470   3.342  10.170 -0.6356  0.5726  0.3926
  565TMC3     H 8438   4.671   3.083  10.367  0.0199  0.4992 -0.9802
  565TMC3    H1 8439   4.313   3.177  10.166 -1.0588 -0.8624 -1.6151
  565TMC3    H2 8440   4.406   2.772  10.240 -0.1011  0.1386  2.0270
  565TMC3    C7 8441   4.258   2.917  10.109  0.0908  0.1618  0.1528
  565TMC3    C8 8442   4.636   2.823  10.380  0.2742 -0.5094  0.4972
  565TMC3    O1 8443   4.274   2.817  10.034  0.0862  0.0623 -0.1443
  565TMC3    O2 8444   4.689   2.839  10.489 -0.4096  0.2762  0.0513
  566MPD2     C 8445   2.407   0.501  14.552 -0.2476 -0.2983 -0.9762
  566MPD2    C1 8446   2.473   0.559  14.445 -0.4900 -0.3709  0.2853
  566MPD2    C2 8447   2.451   0.506  14.319  0.3555  0.0548 -0.9127
  566MPD2    C3 8448   2.383   0.386  14.301  0.3662  0.5248  0.5865
  566MPD2    C4 8449   2.331   0.325  14.414 -0.3146  0.4833  0.1023
  566MPD2    C5 8450   2.342   0.385  14.538  0.5930 -0.3644  0.3572
  566MPD2     H 8451   2.497   0.555  14.234 -0.0864 -0.9033 -1.7061
  566MPD2    H1 8452   2.265   0.239  14.417 -0.9980  0.9606 -1.3017
  566MPD2    H2 8453   2.406   0.540  14.653 -0.0839  0.9122 -1.4452
  566MPD2    H3 8454   2.295   0.348  14.628  1.5582 -1.6211  0.3371
  566MPD2     N 8455   2.374   0.311  14.179 -0.8375  0.3111  0.2924
  566MPD2    H5 8456   2.353   0.213  14.193 -3.0016  0.7540  0.0911
  566MPD2    N1 8457   2.557   0.671  14.466 -0.0438  0.5907  0.0660
  566MPD2    H7 8458   2.540   0.719  14.554 -0.7763  2.7234 -1.2416
  567TMC3    C1 8459   2.718   0.673  14.277 -0.0331 -0.5024  0.1118
  567TMC3    C2 8460   2.710   0.741  14.159  0.3734 -0.4310 -0.0105
  567TMC3    C3 8461   2.756   0.674  14.056  0.1091  0.7512  0.3346
  567TMC3    C4 8462   2.779   0.557  14.298  1.1013  0.9475  0.3534
  567TMC3    C5 8463   2.822   0.494  14.184  0.7484 -0.0867  0.6768
  567TMC3    C6 8464   2.823   0.555  14.064  0.4608 -0.5760 -0.4432
  567TMC3     C 8465   2.649   0.741  14.385  0.7735  0.7900 -0.0465
  567TMC3     O 8466   2.687   0.855  14.407 -0.0278 -0.3737 -0.2920
  567TMC3     H 8467   2.641   0.823  14.148 -0.6233 -1.0520  1.7095
  567TMC3    H1 8468   2.777   0.521  14.400  2.0986 -0.9286 -0.3028
  567TMC3    H2 8469   2.854   0.498  13.977  2.2718 -0.8517  0.3867
  567TMC3    C7 8470   2.780   0.357  14.171  0.2032 -0.0731 -0.1507
  567TMC3    C8 8471   2.754   0.744  13.923 -0.1904  0.3816 -0.4799
  567TMC3    O1 8472   2.747   0.316  14.062  0.0457 -0.4707 -0.3563
  567TMC3    O2 8473   2.737   0.674  13.826 -0.7446 -0.8198  0.7003
  568MPD2     C 8474   4.511   0.155  16.398  0.2271  0.2875 -0.5633
  568MPD2    C1 8475   4.524   0.251  16.493  0.8114  0.2027 -0.2898
  568MPD2    C2 8476   4.451   0.363  16.481  0.3710 -1.0763 -0.4571
  568MPD2    C3 8477   4.344   0.375  16.390  0.3358 -0.2411 -0.3157
  568MPD2    C4 8478   4.330   0.266  16.301 -0.7081 -0.4838 -0.6380
  568MPD2    C5 8479   4.405   0.158  16.313  0.2421 -0.0365  0.1537
  568MPD2     H 8480   4.462   0.446  16.550  0.0232 -1.1178 -0.3530
  568MPD2    H1 8481   4.259   0.267  16.219  0.6139  1.7149 -1.7624
  568MPD2    H2 8482   4.576   0.069  16.389 -0.8053 -0.5105 -0.3418
  568MPD2    H3 8483   4.397   0.076  16.242  1.3150  0.5401 -0.6317
  568MPD2     N 8484   4.255   0.487  16.390 -0.3186  1.2762 -0.2268
  568MPD2    H5 8485   4.285   0.568  16.442 -0.4825  1.5564 -0.5692
  568MPD2    N1 8486   4.627   0.232  16.588  0.0599  0.7090  0.2659
  568MPD2    H7 8487   4.683   0.148  16.577 -1.2302  0.0611 -1.3926
  569TMC3    C1 8488   4.063   0.611  16.330 -0.0926 -1.0960 -0.3381
  569TMC3    C2 8489   4.085   0.696  16.433  1.0818 -0.4445  0.0428
  569TMC3    C3 8490   3.997   0.806  16.438 -0.6650 -0.4737 -0.5179
  569TMC3    C4 8491   3.961   0.627  16.242  0.1526  0.1262  0.1038
  569TMC3    C5 8492   3.875   0.734  16.253 -0.0758 -0.2166  0.4208
  569TMC3    C6 8493   3.892   0.821  16.354 -0.4797 -0.5738 -0.3132
  569TMC3     C 8494   4.138   0.487  16.315  0.5611 -0.0636  0.0364
  569TMC3     O 8495   4.072   0.396  16.273 -0.0064 -0.0334 -0.0135
  569TMC3     H 8496   4.166   0.688  16.505  0.2492 -1.8160  0.8257
  569TMC3    H1 8497   3.943   0.552  16.166 -1.1415 -0.1746  0.7109
  569TMC3    H2 8498   3.817   0.899  16.363  1.4867  1.2992 -0.0575
  569TMC3    C7 8499   3.858   0.785  16.121  0.0471  0.4210 -1.2113
  569TMC3    C8 8500   4.033   0.936  16.500  0.3762  0.3403 -0.1083
  569TMC3    O1 8501   3.803   0.720  16.034 -0.4971 -0.5189 -0.4449
  569TMC3    O2 8502   3.945   1.020  16.515 -0.1166  0.2162  0.0882
  570TMC3    C1 8503   3.937   4.036  16.127 -0.4852  0.2105 -0.3031
  570TMC3    C2 8504   3.986   4.044  16.002 -0.3814  0.2814  0.5652
  570TMC3    C3 8505   3.983   4.166  15.939  0.0077 -0.2276  0.2364
  570TMC3    C4 8506   3.854   4.133  16.175  0.2700  0.1572 -0.2952
  570TMC3    C5 8507   3.836   4.245  16.093  0.1977  0.0922  0.4102
  570TMC3    C6 8508   3.891   4.256  15.972 -0.7597  0.3207 -0.1203
  570TMC3     C 8509   3.920   3.900  16.177 -0.9327  0.2427  0.1761
  570TMC3     O 8510   3.948   3.806  16.109  0.5773 -0.3602  0.1179
  570TMC3     H 8511   4.051   3.964  15.968  1.9012  2.3325  0.1548
  570TMC3    H1 8512   3.792   4.132  16.264 -2.3355 -1.6590 -2.0922
  570TMC3    H2 8513   3.885   4.347  15.914  1.9076  0.8553  0.4183
  570TMC3    C7 8514   3.845   4.367  16.168  1.2095  1.0243  0.4698
  570TMC3    C8 8515   4.092   4.209  15.854  0.0651  0.2655 -0.6408
  570TMC3    O1 8516   3.918   4.357  16.272  0.0345  0.0084 -0.6347
  570TMC3    O2 8517   4.098   4.328  15.828  0.0223  0.0653 -0.1720
  571MPD2     C 8518   1.977   1.355  17.715  0.1499  0.0794  0.6606
  571MPD2    C1 8519   1.963   1.357   0.097 -0.5720  0.5028 -0.7807
  571MPD2    C2 8520   2.014   1.465   0.167 -0.2708  0.1443  0.0632
  571MPD2    C3 8521   2.078   1.568   0.104 -0.6597 -0.2797  0.7448
  571MPD2    C4 8522   2.098   1.564  17.723 -0.4261  0.3685  0.2310
  571MPD2    C5 8523   2.054   1.451  17.656  0.2392  0.5474 -0.2119
  571MPD2     H 8524   2.024   1.469   0.275 -1.4280  2.5873  0.0832
  571MPD2    H1 8525   2.153   1.642  17.672 -0.7018 -0.3170 -1.1098
  571MPD2    H2 8526   1.944   1.269  17.657  1.3168  0.8670 -1.1928
  571MPD2    H3 8527   2.087   1.445  17.553 -0.0462 -0.6727 -0.2256
  571MPD2     N 8528   2.128   1.679   0.180 -0.1634  0.3714  0.2408
  571MPD2    H5 8529   2.176   1.752   0.128 -0.6787  1.1765  0.9050
  571MPD2    N1 8530   1.894   1.258   0.160 -0.4086  0.3034 -0.3224
  571MPD2    H7 8531   1.864   1.178   0.104  1.9759 -0.9295  0.1489
  572TMC3    C1 8532   2.202   1.818   0.360  0.0201 -0.6634  0.3568
  572TMC3    C2 8533   2.250   1.819   0.491 -0.4402  0.3644 -0.3526
  572TMC3    C3 8534   2.330   1.925   0.529 -0.4199 -0.3228 -0.2646
  572TMC3    C4 8535   2.211   1.924   0.275 -0.7842  0.0734  0.4994
  572TMC3    C5 8536   2.292   2.033   0.319 -0.3443  0.9473 -0.0091
  572TMC3    C6 8537   2.353   2.032   0.444  0.6208  0.1913 -1.1101
  572TMC3     C 8538   2.134   1.692   0.317 -0.2389  0.4848 -0.0996
  572TMC3     O 8539   2.082   1.625   0.405 -0.0733  0.0782  0.0016
  572TMC3     H 8540   2.257   1.729   0.551 -0.6864  0.4711 -0.1651
  572TMC3    H1 8541   2.150   1.940   0.187  0.6135 -1.7679 -0.8074
  572TMC3    H2 8542   2.421   2.110   0.476  0.9244  0.1482 -1.6469
  572TMC3    C7 8543   2.255   2.165   0.265 -0.2922  0.1356 -0.0854
  572TMC3    C8 8544   2.433   1.903   0.630 -0.5987  0.3724  0.5568
  572TMC3    O1 8545   2.136   2.176   0.245  0.0671 -0.0534 -0.6096
  572TMC3    O2 8546   2.547   1.938   0.603 -0.5615  0.1216 -0.1265
  573MPD2     C 8547   2.773   2.445   1.145 -0.0585 -0.4998 -0.1160
  573MPD2    C1 8548   2.905   2.485   1.117 -0.5656 -0.6947 -0.3596
  573MPD2    C2 8549   2.968   2.436   1.008 -0.0358  0.1404  0.0471
  573MPD2    C3 8550   2.901   2.354   0.915  0.3083 -0.1231  0.8556
  573MPD2    C4 8551   2.781   2.302   0.959 -0.6103 -0.0623 -0.0208
  573MPD2    C5 8552   2.720   2.349   1.069  0.1868 -0.1365 -0.2202
  573MPD2     H 8553   3.071   2.465   0.989 -0.6340  2.2747  0.0771
  573MPD2    H1 8554   2.740   2.224   0.896 -1.3287  0.1499  0.1931
  573MPD2    H2 8555   2.716   2.499   1.220  0.7016  2.4956 -1.6800
  573MPD2    H3 8556   2.621   2.315   1.096 -0.3412 -0.1948 -2.2356
  573MPD2     N 8557   2.954   2.304   0.793 -0.0414 -0.5285  0.1714
  573MPD2    H5 8558   2.889   2.244   0.744 -0.2438 -0.2743  0.1299
  573MPD2    N1 8559   2.972   2.566   1.214  0.1161 -0.1956  0.1666
  573MPD2    H7 8560   2.925   2.603   1.296 -0.7844 -0.3422 -0.2851
  574TMC3    C1 8561   3.102   2.258   0.620  0.9096  0.0743 -0.5717
  574TMC3    C2 8562   2.997   2.213   0.549  0.4359  0.1901  0.2801
  574TMC3    C3 8563   3.034   2.124   0.451 -0.3217 -0.0833  0.1629
  574TMC3    C4 8564   3.232   2.217   0.603 -0.6174 -0.1247 -0.9597
  574TMC3    C5 8565   3.262   2.126   0.509 -0.3138 -0.5005  0.4727
  574TMC3    C6 8566   3.162   2.074   0.433 -0.1054 -0.3060  0.5242
  574TMC3     C 8567   3.081   2.336   0.745  0.5073  0.6319  0.4088
  574TMC3     O 8568   3.180   2.373   0.806 -0.1933  0.1189 -0.4141
  574TMC3     H 8569   2.895   2.244   0.571 -0.4596 -1.2837 -1.7648
  574TMC3    H1 8570   3.307   2.252   0.673 -0.7695 -1.2234 -0.2387
  574TMC3    H2 8571   3.174   2.006   0.349 -1.4348 -1.4149  1.2296
  574TMC3    C7 8572   3.390   2.099   0.456 -0.7551  0.5978 -0.3299
  574TMC3    C8 8573   2.932   2.042   0.392  0.0176 -0.7196 -0.4087
  574TMC3    O1 8574   3.396   2.003   0.380 -0.0122 -0.5764 -0.1901
  574TMC3    O2 8575   2.946   1.920   0.390  0.1458  0.0509 -0.1777
  575TMC3    C1 8576   0.164   2.413  11.045  0.2561  0.0621  0.6112
  575TMC3    C2 8577   0.150   2.279  11.057 -0.4220  0.6579  0.6706
  575TMC3    C3 8578   0.143   2.200  10.945 -0.3242 -0.2940 -0.8307
  575TMC3    C4 8579   0.192   2.469  10.930  0.8157  0.3761 -0.2656
  575TMC3    C5 8580   0.173   2.393  10.817 -0.1432  1.0360 -0.2588
  575TMC3    C6 8581   0.140   2.261  10.825 -0.1038  0.6100  0.6587
  575TMC3     C 8582   0.171   2.493  11.168 -0.7904 -0.9159 -0.4249
  575TMC3     O 8583   0.212   2.437  11.269 -0.3354  0.6931 -0.9485
  575TMC3     H 8584   0.134   2.235  11.155 -0.4335  0.0595  0.3989
  575TMC3    H1 8585   0.218   2.574  10.928 -0.3076  0.6949  1.2672
  575TMC3    H2 8586   0.093   2.211  10.742 -2.1387  0.3987  1.9234
  575TMC3    C7 8587   0.147   2.477  10.704 -0.2567 -0.0395 -0.0353
  575TMC3    C8 8588   0.122   2.058  10.954  0.7804 -0.1579  0.0042
  575TMC3    O1 8589   0.135   2.596  10.719 -0.0071  0.2935 -0.0058
  575TMC3    O2 8590   0.095   2.014  11.066 -0.8664  0.1890  0.0726
  576MPD2     C 8591   0.377   4.039  12.531 -0.2782  0.1579  0.6393
  576MPD2    C1 8592   0.350   4.162  12.471 -0.0851  0.2853  0.2715
  576MPD2    C2 8593   0.293   4.265  12.553 -0.3226 -0.1024  0.5729
  576MPD2    C3 8594   0.255   4.241  12.681 -0.0582  0.3596  0.0540
  576MPD2    C4 8595   0.266   4.106  12.731 -0.2996 -0.0130 -0.0192
  576MPD2    C5 8596   0.335   4.015  12.660 -0.0375  0.8561 -0.0137
  576MPD2     H 8597   0.276   4.365  12.515 -2.4237 -0.7329 -0.1463
  576MPD2    H1 8598   0.229   4.076  12.828  1.6766  0.2787  0.8040
  576MPD2    H2 8599   0.427   3.965  12.469  0.0051  0.5727  0.3724
  576MPD2    H3 8600   0.350   3.914  12.697  0.1227  1.5926  1.9211
  576MPD2     N 8601   0.209   4.353  12.759 -0.4310 -0.0697  0.5168
  576MPD2    H5 8602   0.225   4.444  12.718 -1.1100 -0.2642 -0.1768
  576MPD2    N1 8603   0.385   4.196  12.339 -0.9445 -0.3506  0.5685
  576MPD2    H7 8604   0.354   4.286  12.304  1.2754 -0.1926 -0.9445
  577TMC3    C1 8605   0.454   4.181  12.124 -0.2350  0.2030 -0.2368
  577TMC3    C2 8606   0.415   4.105  12.014 -0.6621 -0.2740  0.0296
  577TMC3    C3 8607   0.413   4.165  11.888  0.5279  0.2728  0.8258
  577TMC3    C4 8608   0.482   4.316  12.109  1.2937  0.3461 -0.1925
  577TMC3    C5 8609   0.467   4.367  11.980 -0.5504  0.7959  0.4226
  577TMC3    C6 8610   0.440   4.295  11.867 -0.0028  0.6232 -0.4338
  577TMC3     C 8611   0.447   4.119  12.248 -0.0139  0.2182 -0.1447
  577TMC3     O 8612   0.485   4.003  12.254  0.4889 -0.1357 -0.6313
  577TMC3     H 8613   0.407   3.998  12.030 -0.9808  0.2465  3.4246
  577TMC3    H1 8614   0.501   4.379  12.195 -0.6186  0.1168  0.3947
  577TMC3    H2 8615   0.438   4.333  11.765 -0.3582 -0.3563 -0.7854
  577TMC3    C7 8616   0.517   4.502  11.970 -0.3327 -0.3882  0.2487
  577TMC3    C8 8617   0.415   4.061  11.781  0.2446 -0.4769 -0.0080
  577TMC3    O1 8618   0.610   4.535  12.039  0.3482 -0.0582  0.1418
  577TMC3    O2 8619   0.362   3.952  11.811 -0.4974  0.4164  0.1816
  578MPD2     C 8620   3.811   0.082   1.390 -0.2730 -0.6062 -0.6767
  578MPD2    C1 8621   3.840   0.056   1.254  0.2894  0.0423  0.5224
  578MPD2    C2 8622   3.941   4.703   1.226 -0.7901  0.1835 -0.6003
  578MPD2    C3 8623   4.032   4.663   1.327  0.2628 -0.6902  0.1341
  578MPD2    C4 8624   4.011   4.712   1.457 -0.1632 -0.0550  0.4029
  578MPD2    C5 8625   3.900   0.049   1.489  0.7479  0.2449 -0.0193
  578MPD2     H 8626   3.946   4.669   1.123  0.1943  0.3662 -0.6176
  578MPD2    H1 8627   4.077   4.699   1.542  3.9480  0.4483 -2.7133
  578MPD2    H2 8628   3.723   0.137   1.420  1.5248  2.5231 -1.1319
  578MPD2    H3 8629   3.874   0.083   1.589 -1.7129 -0.5820 -0.3939
  578MPD2     N 8630   4.151   4.592   1.288 -0.1207  0.7241 -0.0485
  578MPD2    H5 8631   4.148   4.551   1.195  0.3834 -1.2299  0.7799
  578MPD2    N1 8632   3.752   0.111   1.153 -0.4198  0.5035  0.1063
  578MPD2    H7 8633   3.675   0.169   1.186 -0.8032 -2.7274  4.8485
  579TMC3    C1 8634   4.377   4.543   1.282 -0.3809 -0.6447 -0.3997
  579TMC3    C2 8635   4.496   4.619   1.285 -0.7837  1.1190 -0.3051
  579TMC3    C3 8636   4.585   4.602   1.183  0.9719  0.0592 -0.0196
  579TMC3    C4 8637   4.345   4.458   1.180  0.1331 -0.5159  0.3178
  579TMC3    C5 8638   4.442   4.438   1.082 -0.1321  0.1372  0.1582
  579TMC3    C6 8639   4.563   4.504   1.088  0.3033  0.2241 -0.2206
  579TMC3     C 8640   4.272   4.610   1.352  0.5185  0.2635  0.3881
  579TMC3     O 8641   4.295   4.683   1.449 -0.8571  0.6615  0.3919
  579TMC3     H 8642   4.502   4.690   1.366 -0.7566  0.5547  0.1882
  579TMC3    H1 8643   4.252   4.403   1.189 -0.4508  0.3752 -0.2743
  579TMC3    H2 8644   4.639   4.467   1.020  1.5783  1.3751  0.5726
  579TMC3    C7 8645   4.426   4.329   0.986 -0.1693 -0.3004 -0.5417
  579TMC3    C8 8646   4.697   4.697   1.180 -0.1727  0.4011  0.6628
  579TMC3    O1 8647   4.534   4.280   0.954  0.6793  0.7382 -0.3779
  579TMC3    O2 8648   4.708   0.040   1.268 -0.3704 -0.4137  0.0895
  580TMC3    C1 8649   2.203   3.234  12.217  0.1425  0.1968  0.6030
  580TMC3    C2 8650   2.230   3.355  12.279 -0.1533 -0.2345  0.2865
  580TMC3    C3 8651   2.356   3.376  12.328  0.0754 -0.2647 -0.3415
  580TMC3    C4 8652   2.297   3.138  12.206  0.1514 -0.3166 -0.2712
  580TMC3    C5 8653   2.415   3.161  12.266  0.6591 -1.0040  0.3700
  580TMC3    C6 8654   2.451   3.280  12.330  0.0336  0.7673  0.3555
  580TMC3     C 8655   2.114   3.253  12.102 -0.0501 -0.9501 -0.5716
  580TMC3     O 8656   2.176   3.253  11.993 -0.2183 -0.0077  0.5121
  580TMC3     H 8657   2.161   3.438  12.278 -0.4060 -0.4344  1.0207
  580TMC3    H1 8658   2.271   3.043  12.162 -1.3889 -0.8115  1.7172
  580TMC3    H2 8659   2.549   3.291  12.375  0.2667 -0.1758  0.0918
  580TMC3    C7 8660   2.486   3.043  12.319  0.0292  0.3862 -0.7930
  580TMC3    C8 8661   2.407   3.503  12.289  0.4065  0.4291  0.1996
  580TMC3    O1 8662   2.541   3.073  12.424 -0.7215  0.3602  0.5875
  580TMC3    O2 8663   2.329   3.599  12.293 -0.1044  0.1954  0.6368
  581MPD2     C 8664   1.294   3.083  14.917  0.4943  0.2234 -0.0589
  581MPD2    C1 8665   1.257   3.186  15.006 -0.2273  0.3053  0.9102
  581MPD2    C2 8666   1.131   3.245  14.995  0.2936 -0.4231  0.6336
  581MPD2    C3 8667   1.045   3.199  14.897  0.2903 -0.1030 -0.3934
  581MPD2    C4 8668   1.084   3.104  14.807 -0.5615  0.4918 -0.2358
  581MPD2    C5 8669   1.212   3.052  14.806  0.6980 -0.0014 -1.2823
  581MPD2     H 8670   1.092   3.307  15.075 -2.0005  0.9593 -1.5878
  581MPD2    H1 8671   1.017   3.058  14.734  0.2694 -0.6360 -0.2779
  581MPD2    H2 8672   1.396   3.048  14.924  0.0400  0.1742  5.9582
  581MPD2    H3 8673   1.242   2.974  14.737 -1.3158 -0.3464 -1.7725
  581MPD2     N 8674   0.918   3.250  14.890 -0.2445  0.3933  0.2756
  581MPD2    H5 8675   0.902   3.340  14.933 -3.4563  0.8438 -1.8650
  581MPD2    N1 8676   1.353   3.226  15.108  0.4802  1.0181  0.3008
  581MPD2    H7 8677   1.440   3.174  15.114 -0.4349 -0.2614  2.4222
  582TMC3    C1 8678   1.432   3.294  15.315  0.1180 -0.2215 -0.8513
  582TMC3    C2 8679   1.433   3.374  15.426 -0.4914  1.0785  0.0596
  582TMC3    C3 8680   1.524   3.345  15.525 -0.1066 -0.2895 -0.0082
  582TMC3    C4 8681   1.508   3.179  15.309 -0.3073 -0.1114 -0.0241
  582TMC3    C5 8682   1.583   3.152  15.419  0.0811 -0.4919  0.1980
  582TMC3    C6 8683   1.607   3.238  15.523 -1.0460 -0.4810 -0.2811
  582TMC3     C 8684   1.325   3.314  15.213 -0.5664 -0.2272 -0.2312
  582TMC3     O 8685   1.230   3.388  15.226 -0.1018 -0.4266 -0.2135
  582TMC3     H 8686   1.359   3.452  15.442 -1.4990 -0.2674  1.9149
  582TMC3    H1 8687   1.514   3.106  15.229  0.2194  2.1228 -2.0437
  582TMC3    H2 8688   1.646   3.203  15.618 -0.3331  2.7755  0.6006
  582TMC3    C7 8689   1.634   3.022  15.442 -1.0192 -0.2698 -0.0149
  582TMC3    C8 8690   1.512   3.422  15.639 -0.2030 -0.5632  0.5138
  582TMC3    O1 8691   1.716   3.010  15.533 -0.0956 -1.0128  0.1531
  582TMC3    O2 8692   1.443   3.525  15.636  0.2120 -0.2603 -0.2125
  583MPD2     C 8693   0.673   0.313  16.276 -0.2406 -0.1112 -0.5806
  583MPD2    C1 8694   0.693   0.448  16.243 -0.3959  0.5342 -0.0896
  583MPD2    C2 8695   0.675   0.537  16.345 -0.4034 -0.3044 -0.2223
  583MPD2    C3 8696   0.655   0.496  16.474  0.6677  0.4546  1.1830
  583MPD2    C4 8697   0.624   0.365  16.498  0.0179  0.0867  0.1219
  583MPD2    C5 8698   0.633   0.277  16.401  0.0313 -0.2455 -0.1825
  583MPD2     H 8699   0.682   0.644  16.327 -1.4540 -0.3525 -0.8982
  583MPD2    H1 8700   0.599   0.332  16.599 -0.9712  0.0188 -0.1402
  583MPD2    H2 8701   0.688   0.244  16.193 -0.8769  0.7899 -1.4438
  583MPD2    H3 8702   0.609   0.173  16.418 -0.8869 -0.1559 -0.9340
  583MPD2     N 8703   0.664   0.595  16.582  1.0254  0.0942 -0.8533
  583MPD2    H5 8704   0.685   0.693  16.562  2.9397 -0.2365 -0.4293
  583MPD2    N1 8705   0.741   0.482  16.117  0.4587 -0.2434  0.1910
  583MPD2    H7 8706   0.728   0.580  16.094 -0.0209  0.3492  3.0284
  584TMC3    C1 8707   0.711   0.677  16.795 -0.9809  0.3132 -0.1378
  584TMC3    C2 8708   0.801   0.762  16.729  0.3378  0.1756  0.3825
  584TMC3    C3 8709   0.896   0.811  16.803  0.6545 -0.1122  0.3802
  584TMC3    C4 8710   0.726   0.645  16.928  0.1128 -0.4792  0.4402
  584TMC3    C5 8711   0.821   0.715  16.992  0.1994  0.2374  0.2049
  584TMC3    C6 8712   0.917   0.795  16.938  0.4176 -0.0351  0.4395
  584TMC3     C 8713   0.659   0.565  16.716 -0.0602  0.2608  0.1961
  584TMC3     O 8714   0.623   0.466  16.778 -0.1225  0.5310  0.5060
  584TMC3     H 8715   0.792   0.789  16.624 -0.7112  2.2199  1.0129
  584TMC3    H1 8716   0.655   0.575  16.971  0.7091 -1.7443 -0.6301
  584TMC3    H2 8717   1.006   0.834  16.987 -0.2229  0.1460  1.4581
  584TMC3    C7 8718   0.824   0.695  17.137 -0.5398  0.0389  0.5481
  584TMC3    C8 8719   0.983   0.896  16.726 -0.2498 -0.2338  0.5795
  584TMC3    O1 8720   0.762   0.600  17.185  0.0036  0.3696  0.0154
  584TMC3    O2 8721   0.978   0.897  16.604 -0.7982 -0.5533 -0.1127
  585MPD2     C 8722   0.935   3.919  17.009  0.1391  0.0547  0.6018
  585MPD2    C1 8723   0.813   3.968  16.988 -0.2039 -0.2838 -0.1143
  585MPD2    C2 8724   0.734   3.894  16.904  0.1946  0.4995  0.1345
  585MPD2    C3 8725   0.779   3.789  16.826  0.8509 -1.1511 -0.4724
  585MPD2    C4 8726   0.914   3.766  16.830  0.2025  0.7047  0.2498
  585MPD2    C5 8727   0.990   3.823  16.931  0.5810 -0.0238 -0.3567
  585MPD2     H 8728   0.630   3.920  16.890  0.2210  1.6406  2.1030
  585MPD2    H1 8729   0.958   3.683  16.776  0.1293  0.8063  0.0333
  585MPD2    H2 8730   1.007   3.967  17.075  0.1662  1.6810 -0.6219
  585MPD2    H3 8731   1.095   3.793  16.930  0.9334  1.2317 -1.8946
  585MPD2     N 8732   0.704   3.712  16.731  0.3784 -0.3537 -0.2530
  585MPD2    H5 8733   0.754   3.635  16.689  0.5736  0.9809 -2.4578
  585MPD2    N1 8734   0.777   4.088  17.054  0.0986  0.4525  0.6355
  585MPD2    H7 8735   0.849   4.135  17.107 -1.9607  1.8751  2.1669
  586TMC3    C1 8736   0.501   3.601  16.658  0.0610 -0.0971  0.9806
  586TMC3    C2 8737   0.573   3.491  16.636 -0.7785  0.8602  0.7153
  586TMC3    C3 8738   0.511   3.383  16.579 -0.0706  0.2587  0.5950
  586TMC3    C4 8739   0.372   3.621  16.603 -0.1379  0.0141  0.3853
  586TMC3    C5 8740   0.311   3.508  16.553  0.1173 -0.0019  0.4976
  586TMC3    C6 8741   0.381   3.394  16.536  0.1972 -0.7554 -0.1522
  586TMC3     C 8742   0.569   3.716  16.722  0.9272  0.0451 -0.2831
  586TMC3     O 8743   0.499   3.813  16.744  0.3124  0.1220  0.6690
  586TMC3     H 8744   0.673   3.470  16.671  0.2193  1.3452 -1.8131
  586TMC3    H1 8745   0.314   3.707  16.634  2.5613  0.6673  3.5544
  586TMC3    H2 8746   0.336   3.309  16.485  0.1334 -0.9142  0.1624
  586TMC3    C7 8747   0.168   3.495  16.577  0.0904  0.9120  0.4679
  586TMC3    C8 8748   0.577   3.255  16.588 -0.0602 -1.5710  1.2161
  586TMC3    O1 8749   0.119   3.384  16.566  0.2554 -0.2956  0.3155
  586TMC3    O2 8750   0.516   3.154  16.577  0.0466  0.6075 -0.0484
  587TMC3    C1 8751   2.465   2.279  16.290 -0.2817 -0.4429 -0.8020
  587TMC3    C2 8752   2.503   2.402  16.246 -0.6936 -0.1551  0.9617
  587TMC3    C3 8753   2.631   2.436  16.232 -0.1945 -0.3668  0.2073
  587TMC3    C4 8754   2.559   2.192  16.337 -0.2391  0.3626  0.3788
  587TMC3    C5 8755   2.693   2.229  16.304  0.7302  0.5576 -0.4069
  587TMC3    C6 8756   2.730   2.353  16.260  0.0320 -1.1952  0.3459
  587TMC3     C 8757   2.327   2.269  16.335  0.3024  0.7356 -0.0075
  587TMC3     O 8758   2.265   2.373  16.339 -0.6060 -0.5359  0.0946
  587TMC3     H 8759   2.427   2.466  16.201  1.6453  0.5797 -1.9626
  587TMC3    H1 8760   2.532   2.098  16.382  2.4034  0.4892  2.2283
  587TMC3    H2 8761   2.831   2.388  16.242  0.2628 -1.0938  1.8028
  587TMC3    C7 8762   2.782   2.113  16.305 -0.1676 -0.1079 -0.5160
  587TMC3    C8 8763   2.654   2.572  16.178 -0.4404  0.7494  0.7399
  587TMC3    O1 8764   2.748   2.002  16.263  0.5800 -0.3239 -0.6169
  587TMC3    O2 8765   2.745   2.590  16.096  0.0936 -0.0875  0.2620
  588TMC3    C1 8766   4.152   0.369   9.849 -0.0093  0.5346  0.5757
  588TMC3    C2 8767   4.115   0.244   9.833  1.0631 -0.4533  0.0929
  588TMC3    C3 8768   4.208   0.136   9.845 -0.6933 -0.0761 -0.5658
  588TMC3    C4 8769   4.276   0.405   9.890 -0.7150 -0.4115  0.7907
  588TMC3    C5 8770   4.367   0.302   9.909  0.1177 -0.8238  0.7048
  588TMC3    C6 8771   4.328   0.164   9.897 -0.4167 -0.4573 -0.6545
  588TMC3     C 8772   4.064   0.467   9.789 -0.2106  0.3405 -0.2374
  588TMC3     O 8773   3.943   0.456   9.810 -0.1020 -0.2974  0.7627
  588TMC3     H 8774   4.029   0.225   9.771  0.6457  2.4301 -0.1996
  588TMC3    H1 8775   4.307   0.508   9.895  2.8389 -1.4432  0.4599
  588TMC3    H2 8776   4.405   0.090   9.915  1.1184  1.9307  2.4653
  588TMC3    C7 8777   4.510   0.336   9.926  0.1057  0.3697  0.6255
  588TMC3    C8 8778   4.149   0.007   9.877 -0.4247 -0.1601 -0.3395
  588TMC3    O1 8779   4.597   0.265   9.889  0.6057  0.3717  1.0479
  588TMC3    O2 8780   4.040   4.716   9.834 -0.4381 -0.2079  0.1123
  589TMC3    C1 8781   0.113   2.535   1.016  0.5230 -0.9127  0.1621
  589TMC3    C2 8782   0.252   2.524   1.032 -0.3468 -0.3455 -0.5686
  589TMC3    C3 8783   0.314   2.405   1.005  0.2872  0.0802  0.7286
  589TMC3    C4 8784   0.039   2.433   0.973 -0.2230 -0.3879  0.7368
  589TMC3    C5 8785   0.105   2.315   0.944  0.2075 -0.5603  0.2460
  589TMC3    C6 8786   0.240   2.300   0.960  0.2451  0.1411 -0.7746
  589TMC3     C 8787   0.048   2.661   1.053  0.2447 -0.0505  0.3690
  589TMC3     O 8788   4.682   2.691   1.001 -0.5402  0.1799  0.1579
  589TMC3     H 8789   0.312   2.612   1.054 -0.5910 -0.5120  0.7713
  589TMC3    H1 8790   4.670   2.435   0.959  0.1634  0.0912 -2.2048
  589TMC3    H2 8791   0.283   2.202   0.946 -0.7875 -0.7293  2.2492
  589TMC3    C7 8792   0.023   2.201   0.910  0.1628  1.0219 -0.1359
  589TMC3    C8 8793   0.451   2.390   1.041  0.6766 -0.0762 -0.3467
  589TMC3    O1 8794   4.644   2.209   0.948  0.3558  0.1361  0.0550
  589TMC3    O2 8795   0.507   2.284   1.024 -0.3013  0.1030 -0.1536
  590MPD2     C 8796   3.248   0.404  16.582 -0.0765  0.1485  0.4076
  590MPD2    C1 8797   3.175   0.518  16.578 -0.0757 -0.4997  0.4920
  590MPD2    C2 8798   3.209   0.622  16.488 -0.2023 -0.1258 -0.0176
  590MPD2    C3 8799   3.319   0.605  16.403  0.0606  0.4934 -0.3415
  590MPD2    C4 8800   3.395   0.494  16.420  0.3583  0.0179  0.2525
  590MPD2    C5 8801   3.361   0.393  16.507 -0.3450  0.3876  0.1669
  590MPD2     H 8802   3.150   0.712  16.472  0.1885 -0.1265 -1.4991
  590MPD2    H1 8803   3.487   0.470  16.368 -1.5652 -0.8105 -2.7746
  590MPD2    H2 8804   3.221   0.325  16.651 -2.3444 -0.6385 -1.3947
  590MPD2    H3 8805   3.428   0.310  16.525  0.1210  0.0925 -2.9037
  590MPD2     N 8806   3.345   0.700  16.305 -0.0384 -0.2708  0.0733
  590MPD2    H5 8807   3.314   0.797  16.313  1.2806  0.0965  0.6637
  590MPD2    N1 8808   3.060   0.533  16.659  0.2654  0.1172  0.6984
  590MPD2    H7 8809   3.027   0.445  16.696 -3.0381  1.9468  2.1240
  591TMC3    C1 8810   3.454   0.787  16.109  0.4111  0.3410  0.6694
  591TMC3    C2 8811   3.479   0.766  15.981 -0.3716  0.0020  0.4276
  591TMC3    C3 8812   3.549   0.860  15.912  0.4174 -0.5457 -0.2954
  591TMC3    C4 8813   3.500   0.897  16.170 -0.1458  0.3110  0.3578
  591TMC3    C5 8814   3.556   0.999  16.094  0.0449  0.3417  0.3393
  591TMC3    C6 8815   3.597   0.971  15.966 -0.2601 -1.2200  0.5756
  591TMC3     C 8816   3.414   0.671  16.191 -0.0283  0.1434 -0.2876
  591TMC3     O 8817   3.431   0.560  16.147  0.0889 -0.6818  0.1302
  591TMC3     H 8818   3.456   0.667  15.943  0.7862 -0.4156  0.8269
  591TMC3    H1 8819   3.486   0.899  16.277 -0.4882 -0.6053  0.3274
  591TMC3    H2 8820   3.672   1.033  15.919 -0.0845 -2.3994 -0.7322
  591TMC3    C7 8821   3.632   1.091  16.175  0.4395  0.2698  0.0093
  591TMC3    C8 8822   3.608   0.818  15.789 -0.5026  0.1043 -0.1104
  591TMC3    O1 8823   3.647   1.057  16.290  0.4053 -0.0181  0.1436
  591TMC3    O2 8824   3.611   0.701  15.763 -0.4563 -0.8748 -0.3500
  592MPD2     C 8825   3.553   2.777  11.292  0.2105  0.2635  0.2846
  592MPD2    C1 8826   3.533   2.844  11.411 -0.2479  0.9505  0.2569
  592MPD2    C2 8827   3.493   2.779  11.527 -0.3345 -0.1116 -0.6340
  592MPD2    C3 8828   3.473   2.640  11.514 -0.2591 -0.3681 -0.2424
  592MPD2    C4 8829   3.491   2.576  11.398  0.3486 -0.3019 -0.0513
  592MPD2    C5 8830   3.529   2.646  11.288  0.4221  0.6285 -0.5462
  592MPD2     H 8831   3.486   2.835  11.619  0.3244 -1.5488  0.3014
  592MPD2    H1 8832   3.493   2.468  11.385  0.2407  0.1746 -4.0171
  592MPD2    H2 8833   3.587   2.824  11.201 -0.4832  0.3769  0.0831
  592MPD2    H3 8834   3.566   2.599  11.197 -1.1090 -0.7614 -0.4384
  592MPD2     N 8835   3.444   2.573  11.632 -0.4624 -0.0453 -0.1017
  592MPD2    H5 8836   3.442   2.626  11.719  0.9916  1.4534 -0.9826
  592MPD2    N1 8837   3.553   2.989  11.409  0.0707  0.0169  0.0093
  592MPD2    H7 8838   3.592   3.035  11.327 -1.7511 -1.3946 -1.6357
  593TMC3    C1 8839   3.556   3.213  11.468 -0.1402 -0.0382 -0.4665
  593TMC3    C2 8840   3.486   3.319  11.526 -0.1901 -0.3046 -0.3718
  593TMC3    C3 8841   3.534   3.445  11.529  0.5066 -0.2609 -0.0478
  593TMC3    C4 8842   3.683   3.236  11.416  0.5851 -0.3366 -0.4447
  593TMC3    C5 8843   3.724   3.366  11.403 -0.6114  0.1781 -0.2002
  593TMC3    C6 8844   3.652   3.468  11.460 -0.1844  0.5536 -1.0951
  593TMC3     C 8845   3.511   3.078  11.498 -0.6018  0.2633  0.1019
  593TMC3     O 8846   3.425   3.071  11.588  0.4729  0.1244  0.7703
  593TMC3     H 8847   3.390   3.295  11.571 -0.8414 -1.1801 -2.2560
  593TMC3    H1 8848   3.750   3.157  11.382  0.6804 -0.0715 -0.8669
  593TMC3    H2 8849   3.686   3.570  11.449  0.9290  0.3391  0.2623
  593TMC3    C7 8850   3.865   3.394  11.422 -0.2793  0.3102  0.0454
  593TMC3    C8 8851   3.579   3.468  11.666  0.7209 -0.3202  0.3259
  593TMC3    O1 8852   3.896   3.506  11.390 -0.1671  0.5439  0.7039
  593TMC3    O2 8853   3.668   3.552  11.675  0.0373  0.2341  0.5009
  594MPD2     C 8854   2.682   1.873  14.002  0.1180  0.0233  0.1530
  594MPD2    C1 8855   2.703   1.828  14.135  0.7157  0.3453 -0.0949
  594MPD2    C2 8856   2.817   1.858  14.196 -0.0789  0.3390  0.1237
  594MPD2    C3 8857   2.912   1.936  14.134  0.1921  0.3164  0.3966
  594MPD2    C4 8858   2.886   1.994  14.013 -0.3891  0.4686  0.1725
  594MPD2    C5 8859   2.770   1.963  13.947 -0.2593  0.8349  0.2084
  594MPD2     H 8860   2.833   1.831  14.300  1.3378 -1.2949 -0.5145
  594MPD2    H1 8861   2.937   2.079  13.970 -0.5109 -0.7071 -2.2779
  594MPD2    H2 8862   2.586   1.857  13.955  0.1366 -2.0178  0.8055
  594MPD2    H3 8863   2.751   2.016  13.854 -2.3910 -1.0957 -0.4528
  594MPD2     N 8864   3.028   1.957  14.210 -0.0704  0.5014  0.3902
  594MPD2    H5 8865   3.020   1.933  14.308 -1.8767 -1.0099 -0.1365
  594MPD2    N1 8866   2.612   1.728  14.180 -0.4421  0.3691 -0.0896
  594MPD2    H7 8867   2.541   1.709  14.110 -0.5990  3.4185 -0.7800
  595TMC3    C1 8868   3.413   2.211  14.311 -0.3946 -0.3715  0.5506
  595TMC3    C2 8869   3.361   2.112  14.233  0.1669 -0.2578  0.7014
  595TMC3    C3 8870   3.223   2.079  14.265  0.1247 -0.6875  0.5276
  595TMC3    C4 8871   3.356   2.280  14.414 -0.5964 -0.2105 -0.6934
  595TMC3    C5 8872   3.226   2.246  14.434  0.6531 -0.5327  0.3137
  595TMC3    C6 8873   3.163   2.144  14.366 -0.5013 -0.0596 -0.2406
  595TMC3     C 8874   3.552   2.247  14.308 -0.3659  0.4425 -0.0387
  595TMC3     O 8875   3.581   2.350  14.366  0.0872 -0.8814 -0.0832
  595TMC3     H 8876   3.419   2.081  14.147 -0.9895 -0.4332 -0.0197
  595TMC3    H1 8877   3.397   2.364  14.469  0.8742 -1.5501  0.2591
  595TMC3    H2 8878   3.056   2.129  14.375 -0.5047  0.1688  0.1382
  595TMC3    C7 8879   3.146   2.309  14.530  0.2153  0.0841  0.9296
  595TMC3    C8 8880   3.138   2.024  14.164  0.9100 -0.3908 -0.3523
  595TMC3    O1 8881   3.026   2.320  14.511  0.7164 -0.1230 -0.5788
  595TMC3    O2 8882   3.178   2.031  14.044 -0.4649 -0.5962 -0.0050
  596MPD2     C 8883   1.664   0.144  16.677 -0.2292 -0.1781 -0.8451
  596MPD2    C1 8884   1.601   0.224  16.578  0.6565 -0.1434  0.2517
  596MPD2    C2 8885   1.583   0.174  16.452 -0.0050 -0.3133 -0.7454
  596MPD2    C3 8886   1.647   0.062  16.406  0.7599  0.6046  0.1977
  596MPD2    C4 8887   1.717   4.731  16.505 -0.3211  0.3581  0.3450
  596MPD2    C5 8888   1.722   0.028  16.638 -0.4258 -0.1617  0.4737
  596MPD2     H 8889   1.548   0.239  16.373 -1.1074 -0.0604 -0.0604
  596MPD2    H1 8890   1.765   4.638  16.478 -0.8605  0.3734 -0.6657
  596MPD2    H2 8891   1.672   0.172  16.782 -2.0535  0.5367 -0.8921
  596MPD2    H3 8892   1.777   4.701  16.704 -1.2616 -0.7248  0.5998
  596MPD2     N 8893   1.642   0.019  16.268 -0.3880  0.3354  0.3531
  596MPD2    H5 8894   1.715   4.691  16.244 -0.0136  0.7988  0.1915
  596MPD2    N1 8895   1.538   0.344  16.601 -0.2076  0.0288  0.2780
  596MPD2    H7 8896   1.469   0.381  16.537  0.9089 -2.1114 -2.1419
  597TMC3    C1 8897   1.482   0.542  16.727  0.1651  0.2171 -0.3246
  597TMC3    C2 8898   1.429   0.598  16.618  0.1576  0.1074 -0.1144
  597TMC3    C3 8899   1.375   0.721  16.626 -0.6528  0.3685  0.4544
  597TMC3    C4 8900   1.502   0.611  16.843  0.1877  0.1650  0.7483
  597TMC3    C5 8901   1.443   0.733  16.843  1.2183 -0.3610  0.1644
  597TMC3    C6 8902   1.385   0.794  16.736  0.0576 -0.2317  0.5639
  597TMC3     C 8903   1.550   0.414  16.718  0.0091 -0.1639 -0.1271
  597TMC3     O 8904   1.628   0.403  16.812 -0.0993 -0.2450 -0.1974
  597TMC3     H 8905   1.446   0.543  16.526 -0.0594 -1.0154  0.5254
  597TMC3    H1 8906   1.540   0.563  16.932  1.0666 -1.3073 -0.4279
  597TMC3    H2 8907   1.326   0.885  16.741  0.4819  0.1234 -0.9856
  597TMC3    C7 8908   1.418   0.790  16.976 -0.3834  0.0784 -0.0746
  597TMC3    C8 8909   1.357   0.784  16.499 -0.0428  0.4000  0.5056
  597TMC3    O1 8910   1.425   0.710  17.064  0.1083  0.6677  0.8735
  597TMC3    O2 8911   1.315   0.700  16.422 -0.0898 -0.3351 -0.7803
  598TMC3    C1 8912   0.048   1.419  15.654  0.3538  0.1190 -0.1237
  598TMC3    C2 8913   4.681   1.364  15.716 -0.2816 -0.1288 -0.1301
  598TMC3    C3 8914   4.573   1.322  15.641 -0.1690 -0.2207 -0.2130
  598TMC3    C4 8915   0.038   1.467  15.526  0.2841 -0.1531  0.4829
  598TMC3    C5 8916   4.663   1.428  15.457 -0.2480 -0.0828 -0.6438
  598TMC3    C6 8917   4.572   1.340  15.503 -0.2528 -0.1982 -0.2532
  598TMC3     C 8918   0.174   1.405  15.722 -0.0460 -0.0924  0.3007
  598TMC3     O 8919   0.170   1.417  15.844  0.6512  0.1058 -0.5309
  598TMC3     H 8920   4.701   1.343  15.820 -2.1181 -0.2792  0.2001
  598TMC3    H1 8921   0.118   1.530  15.487 -1.5812  1.7200 -0.3007
  598TMC3    H2 8922   4.493   1.293  15.445  0.5606 -0.0829 -1.4553
  598TMC3    C7 8923   4.664   1.461  15.314 -0.1256 -0.4454  0.9332
  598TMC3    C8 8924   4.492   1.234  15.711 -0.4536  0.0275 -0.1213
  598TMC3    O1 8925   4.621   1.374  15.236 -0.2121  0.3881 -0.5178
  598TMC3    O2 8926   4.492   1.234  15.834 -0.2017  0.0501  0.2988
  599MPD2     C 8927   4.617   2.944  15.633 -0.4984 -0.7212  0.0682
  599MPD2    C1 8928   4.653   3.076  15.639 -0.0640  0.0240  0.5322
  599MPD2    C2 8929   4.571   3.164  15.711  0.5291 -0.6722  0.1021
  599MPD2    C3 8930   4.459   3.123  15.778 -0.0079  0.2158  0.1119
  599MPD2    C4 8931   4.414   2.997  15.758  0.5013 -0.0136  0.6363
  599MPD2    C5 8932   4.500   2.908  15.697  0.1107  0.2975  0.8641
  599MPD2     H 8933   4.585   3.272  15.720 -0.1178 -0.5555 -0.3128
  599MPD2    H1 8934   4.320   2.969  15.803  0.4983  2.5959  2.1941
  599MPD2    H2 8935   4.685   2.868  15.598  1.0915  0.1694  1.2087
  599MPD2    H3 8936   4.477   2.802  15.698 -1.7992  0.7085  0.6651
  599MPD2     N 8937   4.381   3.204  15.861  0.9404 -0.7220  0.2612
  599MPD2    H5 8938   4.300   3.163  15.907  1.3660 -1.8087  0.0272
  599MPD2    N1 8939   0.036   3.100  15.580  0.1875  0.1261  0.1588
  599MPD2    H7 8940   0.073   3.029  15.518 -1.1101 -0.9334  0.6072
  600TMC3    C1 8941   4.327   3.381  16.013  0.0303  0.5461  0.3390
  600TMC3    C2 8942   4.226   3.303  16.071  0.5808  0.0196 -0.3764
  600TMC3    C3 8943   4.126   3.363  16.141  0.5268 -0.4793 -0.0680
  600TMC3    C4 8944   4.321   3.518  16.026 -0.5283  0.1146  0.0350
  600TMC3    C5 8945   4.219   3.574  16.101 -0.5606  0.3299 -0.4366
  600TMC3    C6 8946   4.118   3.498  16.152 -0.0352 -0.1592 -0.4040
  600TMC3     C 8947   4.410   3.331  15.906  0.7037 -0.1938 -0.1958
  600TMC3     O 8948   4.496   3.410  15.874 -0.4054  0.5127  0.4207
  600TMC3     H 8949   4.212   3.198  16.050  1.8968 -0.0585 -0.9084
  600TMC3    H1 8950   4.403   3.581  15.993  0.3217 -0.8757  0.2671
  600TMC3    H2 8951   4.043   3.535  16.220  0.5963 -1.9730  1.2770
  600TMC3    C7 8952   4.223   3.710  16.156 -0.2113  0.4766  0.0493
  600TMC3    C8 8953   3.999   3.290  16.166 -0.2397 -0.2293  0.0762
  600TMC3    O1 8954   4.179   3.727  16.270  0.0457  0.7780  0.1737
  600TMC3    O2 8955   4.003   3.170  16.198  0.1944  0.2226 -0.0892
  601MPD2     C 8956   2.343   2.663   0.149 -0.1525  0.1307  0.8201
  601MPD2    C1 8957   2.227   2.592   0.143  0.2576  0.6387 -0.3318
  601MPD2    C2 8958   2.229   2.457   0.177  0.6864  0.4122  0.1474
  601MPD2    C3 8959   2.343   2.391   0.214 -0.2851 -0.3342  0.3715
  601MPD2    C4 8960   2.459   2.464   0.223  0.5624  0.1739 -0.3064
  601MPD2    C5 8961   2.457   2.594   0.184  0.2504 -0.5070  0.0771
  601MPD2     H 8962   2.137   2.401   0.164  1.0523  0.0977 -1.1300
  601MPD2    H1 8963   2.556   2.430   0.256  1.1652 -0.2941 -2.5417
  601MPD2    H2 8964   2.354   2.762   0.105  1.7255 -1.1346 -1.5392
  601MPD2    H3 8965   2.548   2.652   0.195 -0.6644  0.5877  2.0219
  601MPD2     N 8966   2.357   2.257   0.256 -0.0941 -0.3687  0.0484
  601MPD2    H5 8967   2.455   2.232   0.257  0.4634  1.7158 -2.0031
  601MPD2    N1 8968   2.103   2.644   0.097  0.5286 -0.6700  0.4810
  601MPD2    H7 8969   2.025   2.578   0.099 -0.4448  0.4506 -0.8037
  602TMC3    C1 8970   1.947   2.798   0.014  0.0335 -0.4696  0.5784
  602TMC3    C2 8971   1.907   2.932  17.749  0.1388 -1.0110  0.2346
  602TMC3    C3 8972   1.781   2.957  17.696 -0.2265 -0.2503 -0.4707
  602TMC3    C4 8973   1.860   2.698  17.753  0.8611 -0.4562 -0.4314
  602TMC3    C5 8974   1.735   2.730  17.702  0.5792 -0.0454 -0.2489
  602TMC3    C6 8975   1.689   2.857  17.683  0.0075 -0.8729  0.2633
  602TMC3     C 8976   2.079   2.767   0.048 -0.5043 -0.2284 -0.6340
  602TMC3     O 8977   2.156   2.860   0.027 -0.2413 -0.2813  0.2552
  602TMC3     H 8978   1.978   3.012   0.009 -1.2657  0.4623 -1.0142
  602TMC3    H1 8979   1.889   2.593   0.005 -0.8458 -0.6802  2.7808
  602TMC3    H2 8980   1.585   2.885  17.681  0.1881 -0.2616 -0.5777
  602TMC3    C7 8981   1.646   2.623  17.658 -0.5511 -0.2398  0.0377
  602TMC3    C8 8982   1.728   3.086  17.680  0.2940 -0.1622  0.0466
  602TMC3    O1 8983   1.674   2.507  17.690  0.3479  0.9475 -0.0660
  602TMC3    O2 8984   1.777   3.177  17.744 -0.1433 -0.9008 -0.2913
  603TMC3    C1 8985   4.497   2.378  10.573  0.4194 -0.1269  0.6451
  603TMC3    C2 8986   4.535   2.332  10.697  0.8930 -0.3219 -0.4462
  603TMC3    C3 8987   4.546   2.426  10.796  0.5074 -0.5107 -0.3428
  603TMC3    C4 8988   4.464   2.501  10.539 -0.1282 -0.2706 -0.4803
  603TMC3    C5 8989   4.455   2.584  10.647 -0.2125 -0.5967  0.8029
  603TMC3    C6 8990   4.518   2.555  10.768 -0.0417 -0.3523 -0.6951
  603TMC3     C 8991   4.489   2.285  10.466  0.9059  0.8848  0.0961
  603TMC3     O 8992   4.404   2.298  10.380 -0.0498 -0.3399 -0.1835
  603TMC3     H 8993   4.548   2.229  10.730 -0.0489 -0.3588 -0.1836
  603TMC3    H1 8994   4.436   2.537  10.441 -1.6525  1.5709  0.6230
  603TMC3    H2 8995   4.497   2.628  10.845 -0.1533 -1.3497  0.2247
  603TMC3    C7 8996   4.361   2.694  10.636 -0.3997  0.0332  0.1218
  603TMC3    C8 8997   4.568   2.384  10.931 -0.2666 -0.0408 -0.1310
  603TMC3    O1 8998   4.373   2.787  10.721 -0.2653 -0.3730 -0.3507
  603TMC3    O2 8999   4.556   2.266  10.955 -0.1651  0.6322  0.0543
  604MPD2     C 9000   1.114   1.247  16.267 -0.4926 -0.3926 -0.3408
  604MPD2    C1 9001   1.005   1.279  16.182 -0.6832 -0.0414 -0.2507
  604MPD2    C2 9002   1.031   1.335  16.059 -0.6832 -0.2340 -0.6759
  604MPD2    C3 9003   1.154   1.354  16.013 -0.1136 -0.3585 -0.2292
  604MPD2    C4 9004   1.258   1.317  16.097  0.3329  0.7013 -0.9617
  604MPD2    C5 9005   1.235   1.274  16.221 -0.0157  0.2127 -0.5626
  604MPD2     H 9006   0.945   1.370  16.003  1.3553  1.4906 -2.7381
  604MPD2    H1 9007   1.362   1.321  16.068  0.8180  0.1044  0.6788
  604MPD2    H2 9008   1.101   1.202  16.364  0.7960  1.7353  0.8414
  604MPD2    H3 9009   1.308   1.251  16.298 -2.1230  1.0254  1.7148
  604MPD2     N 9010   1.172   1.408  15.883 -0.2217 -0.5809 -0.4939
  604MPD2    H5 9011   1.088   1.407  15.826  0.2190 -1.3460 -1.1233
  604MPD2    N1 9012   0.875   1.249  16.245  0.1855 -1.1615 -0.4830
  604MPD2    H7 9013   0.891   1.221  16.342  0.8220 -0.6442 -0.4399
  605TMC3    C1 9014   0.644   1.310  16.295  0.1275  0.5745 -0.3011
  605TMC3    C2 9015   0.702   1.389  16.389  0.4217 -0.0654  0.2452
  605TMC3    C3 9016   0.634   1.497  16.440  0.5523 -0.4978  0.0708
  605TMC3    C4 9017   0.529   1.353  16.240  0.0030  0.0083 -0.2916
  605TMC3    C5 9018   0.454   1.459  16.290  0.2724 -0.4913 -0.3655
  605TMC3    C6 9019   0.510   1.525  16.393  0.1125  0.6115 -0.5988
  605TMC3     C 9020   0.749   1.279  16.192  0.2038  0.3174 -0.1039
  605TMC3     O 9021   0.724   1.320  16.077  0.4470  0.1930  0.2763
  605TMC3     H 9022   0.789   1.352  16.442  0.9652 -0.5108 -0.9418
  605TMC3    H1 9023   0.494   1.295  16.156 -0.6343  0.0450 -0.0576
  605TMC3    H2 9024   0.450   1.588  16.458 -1.8943 -2.6112  0.6612
  605TMC3    C7 9025   0.307   1.458  16.287 -0.1226 -0.3431  0.6916
  605TMC3    C8 9026   0.719   1.594  16.511  0.9845 -0.1648  0.3850
  605TMC3    O1 9027   0.252   1.562  16.320 -0.1304 -0.5489  0.1903
  605TMC3    O2 9028   0.839   1.564  16.534  0.3346  0.4125 -0.0081
  606TMC3    C1 9029   2.602   0.018  16.951  0.2510 -0.0738  0.2300
  606TMC3    C2 9030   2.711   0.048  17.029 -0.2845  0.2310  0.8464
  606TMC3    C3 9031   2.746   4.700  17.135 -0.1894 -0.1106 -0.3180
  606TMC3    C4 9032   2.524   4.645  16.974 -0.2102  0.8948 -0.0526
  606TMC3    C5 9033   2.566   4.562  17.074  0.0190 -0.8552 -0.8967
  606TMC3    C6 9034   2.680   4.583  17.155 -0.8969 -0.5145  0.0737
  606TMC3     C 9035   2.563   0.112  16.847 -0.2000 -0.4995  0.0686
  606TMC3     O 9036   2.639   0.206  16.837  0.6667  0.3398 -0.3470
  606TMC3     H 9037   2.774   0.135  17.014  0.2775 -0.3846 -0.2489
  606TMC3    H1 9038   2.445   4.620  16.905  0.5590  1.1771 -1.0341
  606TMC3    H2 9039   2.710   4.520  17.238  1.0223  1.4986  0.9070
  606TMC3    C7 9040   2.478   4.445  17.101  0.2624 -0.3242  0.3447
  606TMC3    C8 9041   2.799   0.013  17.258  0.4124 -0.3234  0.8442
  606TMC3    O1 9042   2.522   4.351  17.165 -0.5078 -0.0905 -0.4806
  606TMC3    O2 9043   2.843   4.675  17.341 -0.2138  0.4389 -0.2139
  607MPD2     C 9044   3.839   2.333  12.012  0.0997  0.4254 -0.0270
  607MPD2    C1 9045   3.962   2.372  12.059 -0.1377  0.1518  0.0031
  607MPD2    C2 9046   3.984   2.362  12.191 -0.2797 -0.9056 -0.9737
  607MPD2    C3 9047   3.897   2.298  12.281  0.2709  0.5215 -0.6633
  607MPD2    C4 9048   3.780   2.243  12.231  0.2750  0.5302  0.3242
  607MPD2    C5 9049   3.752   2.271  12.101 -0.1785  0.8978  0.0980
  607MPD2     H 9050   4.087   2.376  12.222  0.2595 -1.8637 -2.3690
  607MPD2    H1 9051   3.709   2.199  12.300  0.6474  1.8414  1.5456
  607MPD2    H2 9052   3.812   2.339  11.907 -1.6353 -1.2448  0.3172
  607MPD2    H3 9053   3.653   2.245  12.065 -0.7407 -0.0879  2.3996
  607MPD2     N 9054   3.948   2.278  12.412  0.0143 -0.7331  0.2029
  607MPD2    H5 9055   4.033   2.332  12.425 -0.3920  0.2149 -1.1286
  607MPD2    N1 9056   4.076   2.423  11.981 -0.3450 -0.2656 -0.2679
  607MPD2    H7 9057   4.162   2.444  12.031 -0.9887  0.0214  0.7011
  608TMC3    C1 9058   4.207   2.494  11.799  0.2795 -0.5096  0.6692
  608TMC3    C2 9059   4.317   2.450  11.879 -0.6033 -0.7959 -0.0990
  608TMC3    C3 9060   4.440   2.517  11.862 -0.9045 -0.3816  0.5071
  608TMC3    C4 9061   4.225   2.588  11.703  0.1650  0.6836 -0.0822
  608TMC3    C5 9062   4.353   2.649  11.693 -0.2568  0.1352  0.5045
  608TMC3    C6 9063   4.459   2.619  11.772  0.0756  0.4318  0.0935
  608TMC3     C 9064   4.076   2.453  11.845 -0.3899  0.5581 -0.3749
  608TMC3     O 9065   3.982   2.460  11.768  0.1090 -0.1899 -0.1948
  608TMC3     H 9066   4.306   2.355  11.930  0.7014 -0.7762  0.2282
  608TMC3    H1 9067   4.158   2.610  11.621 -0.0130  0.5840  0.0381
  608TMC3    H2 9068   4.558   2.661  11.759  1.1105 -2.4947 -1.5016
  608TMC3    C7 9069   4.361   2.783  11.630  0.4059 -0.8405 -0.1138
  608TMC3    C8 9070   4.534   2.527  11.967  0.2422 -0.2176  0.0942
  608TMC3    O1 9071   4.267   2.817  11.558  0.4111 -0.7980  0.4574
  608TMC3    O2 9072   4.637   2.594  11.945 -0.0589 -0.5119 -0.0321
  609TMC3    C1 9073   2.142   1.926   9.171  0.0969  0.7038 -0.0536
  609TMC3    C2 9074   2.050   1.822   9.172  0.5734  0.6499  0.1737
  609TMC3    C3 9075   2.081   1.711   9.098  0.0654 -0.1891  0.4584
  609TMC3    C4 9076   2.262   1.923   9.100 -0.5914 -0.1584 -0.1541
  609TMC3    C5 9077   2.289   1.811   9.028 -0.8665 -0.6379 -0.5287
  609TMC3    C6 9078   2.202   1.702   9.031 -0.5501 -0.0756  0.5010
  609TMC3     C 9079   2.134   2.028   9.273 -0.3597 -0.7042  0.3261
  609TMC3     O 9080   2.016   2.045   9.308 -0.3182 -0.4725 -0.5965
  609TMC3     H 9081   1.957   1.841   9.225 -1.1044 -3.1065 -1.4202
  609TMC3    H1 9082   2.324   2.012   9.100 -1.4018  0.3963  2.6142
  609TMC3    H2 9083   2.236   1.608   8.989 -1.7663 -0.3573  0.1554
  609TMC3    C7 9084   2.426   1.810   8.979  0.7259 -0.5866  0.4415
  609TMC3    C8 9085   1.990   1.595   9.092 -0.1038 -0.1395  0.2985
  609TMC3    O1 9086   2.506   1.893   9.023  0.0494  0.2609 -0.5282
  609TMC3    O2 9087   2.026   1.505   9.021 -0.5595  0.1007 -0.2213
  610TMC3    C1 9088   4.653   1.842  12.597  0.1168 -0.4626 -0.4933
  610TMC3    C2 9089   4.681   1.871  12.470  0.1808 -0.3046  0.3197
  610TMC3    C3 9090   4.737   1.764  12.397  0.1040  0.6764 -0.3281
  610TMC3    C4 9091   4.666   1.713  12.655 -0.1464  0.1896  0.2364
  610TMC3    C5 9092   4.715   1.613  12.585  0.1791  0.2208  0.6584
  610TMC3    C6 9093   0.017   1.639  12.456 -0.0286  0.3315 -0.2293
  610TMC3     C 9094   4.595   1.954  12.675 -0.6979  0.3432 -0.5879
  610TMC3     O 9095   4.494   1.915  12.735  0.1026 -0.1211 -0.1111
  610TMC3     H 9096   4.677   1.976  12.445  1.0642  0.0408  1.6575
  610TMC3    H1 9097   4.633   1.699  12.757  2.3266 -0.0928  0.9973
  610TMC3    H2 9098   0.059   1.570  12.384  0.5402 -0.0086  0.4222
  610TMC3    C7 9099   0.065   1.515  12.654 -0.1798 -0.3045 -0.5281
  610TMC3    C8 9100   0.045   1.776  12.253  0.2527 -0.2756  0.6497
  610TMC3    O1 9101   0.054   1.398  12.614 -0.7170  0.3241  0.4108
  610TMC3    O2 9102   0.068   1.674  12.184  0.1799 -0.0720  0.1280
  611MPD2     C 9103   2.942   2.745  10.314 -0.5520  0.2955 -0.4926
  611MPD2    C1 9104   2.988   2.664  10.208  0.7026  0.1120 -0.4441
  611MPD2    C2 9105   3.095   2.711  10.132 -0.3346 -0.0105 -0.0099
  611MPD2    C3 9106   3.162   2.826  10.170 -0.2829 -0.6968  0.5351
  611MPD2    C4 9107   3.114   2.900  10.277  0.4080  0.1627 -0.0666
  611MPD2    C5 9108   3.004   2.855  10.350 -0.2155  0.1884 -0.1625
  611MPD2     H 9109   3.132   2.652  10.049  1.8477 -0.6520  1.4323
  611MPD2    H1 9110   3.167   2.982  10.324  0.8289  0.1209 -0.4653
  611MPD2    H2 9111   2.872   2.704  10.385  1.2496 -0.5358  0.7810
  611MPD2    H3 9112   2.972   2.904  10.442 -2.0344  0.3336 -0.8766
  611MPD2     N 9113   3.279   2.864  10.108 -0.2056 -0.4062  0.1861
  611MPD2    H5 9114   3.330   2.943  10.148 -1.1021  1.9054 -3.1867
  611MPD2    N1 9115   2.924   2.535  10.176 -0.7163 -0.1501 -0.1100
  611MPD2    H7 9116   2.843   2.504  10.228 -1.2365  2.8298  0.8859
  612TMC3    C1 9117   3.483   2.836   9.987 -0.1825  0.4243  0.9333
  612TMC3    C2 9118   3.551   2.853  10.098  0.6854  0.2753  0.4073
  612TMC3    C3 9119   3.678   2.799  10.117  0.1134 -0.3969  0.5950
  612TMC3    C4 9120   3.544   2.755   9.891  0.0019 -0.3996 -0.0593
  612TMC3    C5 9121   3.673   2.704   9.905  0.1039 -0.4312  0.3421
  612TMC3    C6 9122   3.748   2.720  10.019  0.8925 -0.2092  0.2065
  612TMC3     C 9123   3.338   2.806  10.000 -0.0496  1.2307  0.7093
  612TMC3     O 9124   3.296   2.725   9.921 -0.6880  0.3335  0.3582
  612TMC3     H 9125   3.510   2.922  10.171 -0.7999 -0.8862  0.6881
  612TMC3    H1 9126   3.498   2.733   9.795  0.9648  2.9506 -1.3028
  612TMC3    H2 9127   3.845   2.674  10.032  0.4451 -1.1358  0.2962
  612TMC3    C7 9128   3.745   2.659   9.782 -0.0004 -0.4603  1.1493
  612TMC3    C8 9129   3.744   2.843  10.243  0.2147  0.0407  0.5734
  612TMC3    O1 9130   3.711   2.707   9.675  0.1866  0.9875  0.9064
  612TMC3    O2 9131   3.675   2.912  10.319 -0.2170 -0.4170 -0.1612
  613MPD2     C 9132   2.788   4.411  16.747 -0.0064  0.0240 -0.0061
  613MPD2    C1 9133   2.749   4.530  16.679 -0.5342  0.6110 -0.5727
  613MPD2    C2 9134   2.619   4.541  16.641 -0.0375 -1.3017 -0.7729
  613MPD2    C3 9135   2.530   4.443  16.683  0.2381 -0.1544  0.0631
  613MPD2    C4 9136   2.571   4.332  16.758  0.3720  0.3468  0.0910
  613MPD2    C5 9137   2.702   4.320  16.790  0.4038 -0.4929 -0.3163
  613MPD2     H 9138   2.587   4.632  16.591  0.7031 -1.0229 -0.7475
  613MPD2    H1 9139   2.506   4.247  16.775  0.9158  0.2045  1.5079
  613MPD2    H2 9140   2.892   4.393  16.772  0.5578  1.2311 -1.4866
  613MPD2    H3 9141   2.731   4.226  16.836  1.6863  0.3436  0.5801
  613MPD2     N 9142   2.394   4.431  16.643 -0.1081  0.5809  0.5704
  613MPD2    H5 9143   2.344   4.347  16.673 -0.3978  1.1500  1.6520
  613MPD2    N1 9144   2.849   4.632  16.661 -0.1122 -0.0646 -1.0324
  613MPD2    H7 9145   2.943   4.595  16.676 -0.9478 -1.4211  0.8145
  614TMC3    C1 9146   2.950   0.007  16.483  0.2484  0.1651  0.5042
  614TMC3    C2 9147   2.953   4.635  16.406 -0.4714  0.2276  0.3694
  614TMC3    C3 9148   2.918   4.647  16.275 -0.1094 -0.4158 -0.3661
  614TMC3    C4 9149   2.956   0.131  16.419 -0.0678 -0.1813  0.2268
  614TMC3    C5 9150   2.941   0.132  16.285  0.7775  0.2657 -0.1390
  614TMC3    C6 9151   2.919   0.020  16.209 -0.5357 -0.2337 -0.0753
  614TMC3     C 9152   2.834   4.736  16.572 -0.0410  0.6006 -0.1938
  614TMC3     O 9153   2.735   0.065  16.553  0.1577 -0.1545  0.1815
  614TMC3     H 9154   2.967   4.536  16.449  0.7741 -0.6990 -2.1981
  614TMC3    H1 9155   2.968   0.223  16.475 -0.3658 -0.5874  0.9550
  614TMC3    H2 9156   2.877   0.037  16.111 -0.5706 -0.7494 -0.1485
  614TMC3    C7 9157   2.977   0.262  16.227  0.2358  0.1955  1.0985
  614TMC3    C8 9158   2.809   4.555  16.261 -0.2610 -0.0232 -0.5902
  614TMC3    O1 9159   3.057   0.339  16.282 -0.3185 -0.4712  0.3492
  614TMC3    O2 9160   2.782   4.477  16.352 -0.4903  0.0201  0.3156
  615MPD2     C 9161   2.569   1.711  15.913 -0.3905 -0.3439  0.0380
  615MPD2    C1 9162   2.632   1.805  15.995  1.3330  0.7141 -0.2971
  615MPD2    C2 9163   2.646   1.936  15.950 -0.0985  0.5669  0.0658
  615MPD2    C3 9164   2.618   1.969  15.810 -0.0725 -0.7075  0.4350
  615MPD2    C4 9165   2.554   1.873  15.739  0.2132 -0.6145 -0.0991
  615MPD2    C5 9166   2.522   1.748  15.793 -0.2491 -0.5632  0.4329
  615MPD2     H 9167   2.694   2.013  16.010  2.1919 -0.3760 -0.5796
  615MPD2    H1 9168   2.528   1.892  15.635 -0.9261  1.7357  0.5982
  615MPD2    H2 9169   2.547   1.614  15.957 -0.2010  0.8029  2.6952
  615MPD2    H3 9170   2.473   1.680  15.724 -0.3493 -0.6699  0.6091
  615MPD2     N 9171   2.649   2.087  15.746 -0.2476 -0.0890  0.3883
  615MPD2    H5 9172   2.598   2.113  15.663  0.4934 -1.3857 -0.4723
  615MPD2    N1 9173   2.682   1.771  16.123  0.4709 -0.0277  0.0437
  615MPD2    H7 9174   2.702   1.849  16.184 -1.7914  0.0800  0.6145
  616TMC3    C1 9175   2.756   1.636  16.304  0.0311 -0.2212  0.1187
  616TMC3    C2 9176   2.857   1.546  16.321 -0.4958  0.3942 -0.3941
  616TMC3    C3 9177   2.923   1.556  16.438 -0.4901 -0.4413  0.5506
  616TMC3    C4 9178   2.740   1.740  16.394 -0.3089  0.5294  0.1180
  616TMC3    C5 9179   2.815   1.745  16.505  0.3255 -0.3512 -0.5198
  616TMC3    C6 9180   2.907   1.653  16.535  0.0380  0.9616 -0.3895
  616TMC3     C 9181   2.709   1.639  16.164 -0.4718 -0.1546 -0.2797
  616TMC3     O 9182   2.710   1.540  16.092 -0.0764  0.5112 -0.8246
  616TMC3     H 9183   2.893   1.495  16.233  2.4256  0.9367  0.4900
  616TMC3    H1 9184   2.668   1.819  16.373  1.0277  1.9154  0.7700
  616TMC3    H2 9185   2.962   1.653  16.628  0.8416 -1.8035 -0.8655
  616TMC3    C7 9186   2.823   1.868  16.581  0.0387  0.3566 -0.0035
  616TMC3    C8 9187   3.044   1.478  16.444  0.6633  0.2551 -0.3822
  616TMC3    O1 9188   2.930   1.891  16.637 -0.4524  0.4341 -0.4634
  616TMC3    O2 9189   3.024   1.365  16.396  0.2996 -0.1421  0.3266
  617MPD2     C 9190   0.723   4.225  13.588 -0.0583  0.8949 -0.3509
  617MPD2    C1 9191   0.753   4.190  13.719  0.2620 -0.8458 -0.5135
  617MPD2    C2 9192   0.657   4.183  13.811 -0.2450 -0.3862 -0.5244
  617MPD2    C3 9193   0.524   4.210  13.772  0.0996 -0.6518 -1.1046
  617MPD2    C4 9194   0.499   4.264  13.650  0.2409 -0.0947  0.0078
  617MPD2    C5 9195   0.593   4.256  13.558 -0.3228 -0.5014 -1.2092
  617MPD2     H 9196   0.672   4.155  13.914  0.0667  0.0870 -0.4399
  617MPD2    H1 9197   0.405   4.314  13.630  0.9688  0.7493 -1.3521
  617MPD2    H2 9198   0.786   4.227  13.499 -0.5283  1.7688 -0.6653
  617MPD2    H3 9199   0.579   4.304  13.462 -1.3478  3.5257  0.9484
  617MPD2     N 9200   0.410   4.202  13.856  0.3013 -0.6304 -0.5209
  617MPD2    H5 9201   0.326   4.223  13.803 -0.7757  0.9378  1.8104
  617MPD2    N1 9202   0.888   4.153  13.740  0.1742  0.2103 -0.2846
  617MPD2    H7 9203   0.945   4.134  13.658  2.9605  2.5480  1.0979
  618TMC3    C1 9204   1.077   4.079  13.846 -0.3750  0.2490 -0.4103
  618TMC3    C2 9205   1.105   3.993  13.747 -0.6983 -0.4170 -0.3485
  618TMC3    C3 9206   1.236   3.988  13.712  0.4799  0.3824 -0.1948
  618TMC3    C4 9207   1.172   4.154  13.915 -1.1527 -0.3552 -0.4382
  618TMC3    C5 9208   1.293   4.153  13.865 -0.1896  0.1170  0.1410
  618TMC3    C6 9209   1.335   4.063  13.772 -0.2810 -0.1146  0.0889
  618TMC3     C 9210   0.938   4.124  13.861  0.2485  0.3419 -0.3643
  618TMC3     O 9211   0.899   4.133  13.978  0.4677  0.2510 -0.1911
  618TMC3     H 9212   1.026   3.949  13.687 -0.2976  0.3201 -1.4247
  618TMC3    H1 9213   1.145   4.224  13.993  1.3148 -0.0090  0.1130
  618TMC3    H2 9214   1.441   4.042  13.760 -0.2276  0.2882 -0.1661
  618TMC3    C7 9215   1.393   4.224  13.939  0.2537  0.2746 -0.0911
  618TMC3    C8 9216   1.266   3.928  13.583  0.0725  0.1121 -0.4257
  618TMC3    O1 9217   1.388   4.204  14.060 -1.0462 -0.1555  0.0783
  618TMC3    O2 9218   1.170   3.876  13.528  0.1772  0.6689  0.4291
  619MPD2     C 9219   2.149   0.749  13.718  0.7382 -0.0641  0.4415
  619MPD2    C1 9220   2.077   0.799  13.610 -0.1730  0.0237  0.5766
  619MPD2    C2 9221   1.939   0.780  13.604 -0.1063  0.2069 -0.1779
  619MPD2    C3 9222   1.877   0.696  13.690  0.1118  0.1891  0.0581
  619MPD2    C4 9223   1.951   0.628  13.789 -0.2814  0.9402  0.1733
  619MPD2    C5 9224   2.090   0.661  13.804 -0.8493  0.2123  0.3556
  619MPD2     H 9225   1.881   0.833  13.528 -2.1531 -1.1187  0.4721
  619MPD2    H1 9226   1.909   0.561  13.864 -2.9051  2.0461 -0.2766
  619MPD2    H2 9227   2.246   0.789  13.742  0.9006  0.2016 -0.6460
  619MPD2    H3 9228   2.158   0.612  13.873 -0.4207 -0.9839 -0.9230
  619MPD2     N 9229   1.743   0.681  13.700 -0.4535 -0.2283 -0.0339
  619MPD2    H5 9230   1.718   0.622  13.779  0.9497 -0.8206 -0.0324
  619MPD2    N1 9231   2.139   0.882  13.515 -0.0878 -0.5454  0.5232
  619MPD2    H7 9232   2.073   0.931  13.455  1.8304  2.4892  0.8713
  620TMC3    C1 9233   2.299   1.015  13.404  0.2953  0.8470 -0.0406
  620TMC3    C2 9234   2.209   1.015  13.301  0.1097 -0.3867 -0.3478
  620TMC3    C3 9235   2.187   1.134  13.233 -0.0432  0.6010  0.3189
  620TMC3    C4 9236   2.357   1.135  13.438  0.0469 -0.6899  0.8815
  620TMC3    C5 9237   2.351   1.244  13.361  0.5236 -0.2279  0.3693
  620TMC3    C6 9238   2.262   1.245  13.254 -0.2239 -0.2818  0.8431
  620TMC3     C 9239   2.271   0.919  13.509  0.0116 -0.1858 -0.6352
  620TMC3     O 9240   2.366   0.889  13.575 -0.0947 -0.1410 -0.3993
  620TMC3     H 9241   2.163   0.921  13.273  2.1472 -1.2118 -0.8883
  620TMC3    H1 9242   2.402   1.139  13.537  1.6350  6.0780 -0.0872
  620TMC3    H2 9243   2.257   1.335  13.193  1.3553  0.4451  1.7706
  620TMC3    C7 9244   2.330   1.366  13.447 -0.0929 -0.4940 -0.4338
  620TMC3    C8 9245   2.057   1.176  13.206  1.0545 -0.1603 -0.1419
  620TMC3    O1 9246   2.413   1.391  13.539 -0.4237 -0.4305  0.2598
  620TMC3    O2 9247   2.029   1.296  13.222 -0.1245 -0.0552 -0.0822
  621MPD2     C 9248   2.288   0.742  10.458  0.0760  0.0237  0.1888
  621MPD2    C1 9249   2.255   0.702  10.328  0.5413  0.2833 -0.4894
  621MPD2    C2 9250   2.230   0.802  10.241  0.5882 -0.2335 -0.0331
  621MPD2    C3 9251   2.225   0.934  10.269 -0.7848  0.3344  0.2658
  621MPD2    C4 9252   2.258   0.977  10.401  0.5250 -0.6190  0.2923
  621MPD2    C5 9253   2.287   0.875  10.495  0.0023  0.2844  0.4254
  621MPD2     H 9254   2.219   0.769  10.138  0.8263  1.2020 -0.5167
  621MPD2    H1 9255   2.263   1.083  10.424 -1.2900 -0.3814 -0.4336
  621MPD2    H2 9256   2.298   0.672  10.540  1.3666  0.5799  0.4891
  621MPD2    H3 9257   2.315   0.902  10.597 -0.4520  0.1610  0.5845
  621MPD2     N 9258   2.212   1.018  10.157 -0.3833 -0.7173 -0.7035
  621MPD2    H5 9259   2.217   0.971  10.068 -2.3393 -0.8042 -0.7652
  621MPD2    N1 9260   2.237   0.575  10.278 -0.4367  0.6129 -0.0938
  621MPD2    H7 9261   2.218   0.570  10.179 -0.7918  0.2557 -0.0054
  622TMC3    C1 9262   2.134   0.370  10.285  0.4931  0.2477  0.1236
  622TMC3    C2 9263   2.004   0.355  10.323 -0.2002 -0.2583  0.4247
  622TMC3    C3 9264   1.907   0.317  10.237 -0.4021 -0.4525  0.5534
  622TMC3    C4 9265   2.169   0.344  10.155  0.2105  0.4925 -0.3457
  622TMC3    C5 9266   2.068   0.285  10.075 -0.3750  0.2521 -0.8611
  622TMC3    C6 9267   1.940   0.267  10.120 -0.0281  0.4223  0.1651
  622TMC3     C 9268   2.199   0.473  10.356  0.1936 -0.1986  0.1240
  622TMC3     O 9269   2.182   0.475  10.479  0.5715 -0.2325  0.1571
  622TMC3     H 9270   1.982   0.377  10.427  2.3946 -0.0016  0.9338
  622TMC3    H1 9271   2.271   0.353  10.121  0.4838  0.5445  0.4863
  622TMC3    H2 9272   1.860   0.235  10.055 -2.3310  2.0140  2.2535
  622TMC3    C7 9273   2.103   0.248   9.944 -0.2873  0.0099  0.5348
  622TMC3    C8 9274   1.766   0.307  10.282  0.1059  0.7710 -0.4200
  622TMC3    O1 9275   2.203   0.181   9.930 -0.2040 -0.3820  0.0612
  622TMC3    O2 9276   1.691   0.215  10.241  0.1385 -0.1055  0.0564
  623MPD2     C 9277   1.061   1.791  15.814  0.0022  0.5094  0.2420
  623MPD2    C1 9278   0.992   1.765  15.928  0.0137 -0.2802 -0.1596
  623MPD2    C2 9279   1.055   1.797  16.048 -0.4955 -0.2905 -0.7755
  623MPD2    C3 9280   1.182   1.840  16.062 -0.5410 -0.0977  0.0927
  623MPD2    C4 9281   1.252   1.845  15.945 -0.6778  0.4950 -0.4461
  623MPD2    C5 9282   1.192   1.819  15.825  0.8807  0.0548  0.4150
  623MPD2     H 9283   0.996   1.788  16.139 -0.6596 -2.3519 -1.0684
  623MPD2    H1 9284   1.360   1.844  15.953 -0.9822  1.2716  3.8961
  623MPD2    H2 9285   1.019   1.767  15.717  0.7450  0.9027 -0.1743
  623MPD2    H3 9286   1.247   1.824  15.731  1.8759 -0.3298  0.9823
  623MPD2     N 9287   1.223   1.862  16.193 -0.2969  0.1096  0.4325
  623MPD2    H5 9288   1.157   1.834  16.265  0.4112 -1.3313  0.5128
  623MPD2    N1 9289   0.852   1.737  15.924  0.0380 -0.2911 -0.2967
  623MPD2    H7 9290   0.809   1.746  15.832  1.4294 -2.4170 -1.1461
  624TMC3    C1 9291   1.501   1.850  16.559 -0.4332  0.6413  0.7723
  624TMC3    C2 9292   1.398   1.861  16.644 -0.4665  0.1161  0.3075
  624TMC3    C3 9293   1.280   1.899  16.592 -0.0897 -0.0365 -0.3918
  624TMC3    C4 9294   1.487   1.861  16.421 -0.4839  0.5278  0.1275
  624TMC3    C5 9295   1.365   1.886  16.375  0.0768 -0.2850 -0.5249
  624TMC3    C6 9296   1.260   1.910  16.456  0.3971  0.7469 -0.3729
  624TMC3     C 9297   1.616   1.778  16.625 -0.0106  0.2825  0.1179
  624TMC3     O 9298   1.630   1.782  16.748  0.4726 -0.1736 -0.3438
  624TMC3     H 9299   1.416   1.845  16.749 -1.3936 -1.5437  0.2056
  624TMC3    H1 9300   1.571   1.839  16.356 -0.3888 -0.6952  0.6652
  624TMC3    H2 9301   1.159   1.930  16.423 -0.9972  0.5332  3.7669
  624TMC3    C7 9302   1.351   1.901  16.235 -0.8566 -0.1999 -0.0149
  624TMC3    C8 9303   1.157   1.870  16.667  0.4704  0.2123 -0.6063
  624TMC3    O1 9304   1.450   1.889  16.163 -0.6452  0.3247  0.6179
  624TMC3    O2 9305   1.152   1.761  16.718  0.0797  0.2306 -0.5528
  625MPD2     C 9306   2.097   3.036   0.686  0.9400  0.0844 -0.4266
  625MPD2    C1 9307   2.117   3.165   0.744 -0.2504 -0.2107  0.9465
  625MPD2    C2 9308   2.243   3.217   0.782 -0.0647  0.2709 -0.1743
  625MPD2    C3 9309   2.349   3.137   0.772  0.3638  0.4584  0.5392
  625MPD2    C4 9310   2.327   3.001   0.733 -0.4253 -0.2295  0.0023
  625MPD2    C5 9311   2.211   2.958   0.681  0.2907 -0.3162  0.2767
  625MPD2     H 9312   2.250   3.315   0.829  0.2530  1.5841 -2.9548
  625MPD2    H1 9313   2.403   2.924   0.739  0.8503  1.1252  1.3432
  625MPD2    H2 9314   2.005   2.997   0.645  0.0661  0.5747  1.0608
  625MPD2    H3 9315   2.201   2.863   0.631 -0.0235 -0.4307  0.5630
  625MPD2     N 9316   2.472   3.186   0.808 -0.2038  0.5790  0.4865
  625MPD2    H5 9317   2.486   3.286   0.798  0.5076  0.4017 -0.3505
  625MPD2    N1 9318   2.013   3.260   0.757 -0.5555 -0.0631 -0.2413
  625MPD2    H7 9319   2.050   3.341   0.806  0.4850 -1.2166  0.8866
  626TMC3    C1 9320   1.805   3.353   0.736 -0.5506 -0.1116 -0.8427
  626TMC3    C2 9321   1.706   3.374   0.647  0.3984  0.5019 -0.2702
  626TMC3    C3 9322   1.617   3.469   0.679  0.5590  0.8607 -1.0121
  626TMC3    C4 9323   1.799   3.406   0.861  0.1321  0.0498 -0.1784
  626TMC3    C5 9324   1.717   3.509   0.886  0.3688 -0.2352  0.7925
  626TMC3    C6 9325   1.616   3.547   0.796  0.4286 -0.5918 -0.0370
  626TMC3     C 9326   1.888   3.238   0.712  0.7886 -0.2589 -0.0117
  626TMC3     O 9327   1.823   3.144   0.661 -0.3331 -0.1096  0.3207
  626TMC3     H 9328   1.706   3.321   0.553  0.7981  1.2913 -0.7124
  626TMC3    H1 9329   1.879   3.375   0.928  0.2820 -0.0850 -0.4197
  626TMC3    H2 9330   1.532   3.611   0.817  0.3611 -0.2503 -1.3884
  626TMC3    C7 9331   1.744   3.586   1.009 -0.0467  0.1698 -0.1876
  626TMC3    C8 9332   1.531   3.523   0.565 -0.1424  0.8411 -0.4366
  626TMC3    O1 9333   1.817   3.540   1.098  0.9416  0.1816  0.0017
  626TMC3    O2 9334   1.420   3.565   0.584 -0.3505  0.4507 -0.1714
  627MPD2     C 9335   0.250   3.144  14.301 -0.6657 -0.1179 -0.3006
  627MPD2    C1 9336   0.254   3.105  14.431 -1.6294  0.2145 -0.7760
  627MPD2    C2 9337   0.150   3.020  14.484  0.4696  0.4735  0.1765
  627MPD2    C3 9338   0.047   2.967  14.408  0.1206 -0.4338 -0.4269
  627MPD2    C4 9339   0.040   3.014  14.281  0.5710  0.8278 -0.1176
  627MPD2    C5 9340   0.137   3.102  14.230  0.1650 -0.6078 -0.0599
  627MPD2     H 9341   0.147   3.011  14.591 -1.0232 -0.0418  0.0819
  627MPD2    H1 9342   4.680   3.012  14.237  1.1195 -0.9513 -1.2477
  627MPD2    H2 9343   0.336   3.199  14.265 -1.1978  1.3654  0.6861
  627MPD2    H3 9344   0.118   3.145  14.132 -0.1886 -1.3145 -0.3026
  627MPD2     N 9345   4.689   2.883  14.467 -0.3111 -0.1015 -0.3071
  627MPD2    H5 9346   4.699   2.856  14.564  1.9706 -0.3218 -0.5979
  627MPD2    N1 9347   0.361   3.153  14.505 -0.8297 -0.2251 -0.5004
  627MPD2    H7 9348   0.426   3.223  14.472 -0.9189 -0.6644 -1.5995
  628TMC3    C1 9349   0.496   3.207  14.684  0.2845 -0.0651  0.2599
  628TMC3    C2 9350   0.585   3.157  14.776  0.9780  0.0076 -0.8379
  628TMC3    C3 9351   0.693   3.238  14.811  0.0653 -0.9486 -0.5273
  628TMC3    C4 9352   0.494   3.334  14.655 -0.3839 -0.1834 -0.3039
  628TMC3    C5 9353   0.593   3.410  14.698 -0.4876 -0.4653 -0.9492
  628TMC3    C6 9354   0.707   3.364  14.761 -1.4535 -0.1516  0.2934
  628TMC3     C 9355   0.390   3.122  14.637  0.3413  0.0999  0.0352
  628TMC3     O 9356   0.349   3.032  14.712 -0.0162  0.4564  0.6962
  628TMC3     H 9357   0.570   3.058  14.817  0.8439  1.3498  2.3319
  628TMC3    H1 9358   0.407   3.373  14.604 -1.0572  0.3061  1.2119
  628TMC3    H2 9359   0.783   3.431  14.800 -2.0242  0.4430  0.3806
  628TMC3    C7 9360   0.597   3.555  14.684  0.2233 -0.1688 -0.4601
  628TMC3    C8 9361   0.810   3.164  14.850  0.0540 -0.1696 -0.2411
  628TMC3    O1 9362   0.700   3.610  14.722  1.4694 -0.1860 -0.2667
  628TMC3    O2 9363   0.803   3.039  14.851  0.5586  0.7776  0.2022
  629MPD2     C 9364   3.553   1.435  16.477  0.0167  0.2792 -0.4194
  629MPD2    C1 9365   3.514   1.555  16.529  0.1660 -0.5059  0.2530
  629MPD2    C2 9366   3.383   1.586  16.538 -0.2449 -0.3134 -0.3354
  629MPD2    C3 9367   3.285   1.504  16.488  0.1265 -0.2554 -0.2686
  629MPD2    C4 9368   3.320   1.379  16.435  0.2751 -0.3614  0.3536
  629MPD2    C5 9369   3.457   1.346  16.432 -0.7263 -0.5786  0.2108
  629MPD2     H 9370   3.361   1.684  16.579 -1.9216 -1.0523  0.5583
  629MPD2    H1 9371   3.251   1.302  16.402  3.3206 -2.4724 -1.0677
  629MPD2    H2 9372   3.657   1.404  16.477 -0.3943 -1.1410 -1.5112
  629MPD2    H3 9373   3.488   1.254  16.384  1.9791  0.6555 -0.4081
  629MPD2     N 9374   3.154   1.556  16.482  0.6350 -0.3867  0.9186
  629MPD2    H5 9375   3.133   1.647  16.522  0.7142  0.0505 -0.0314
  629MPD2    N1 9376   3.618   1.643  16.579  0.3005  0.3731  0.4225
  629MPD2    H7 9377   3.708   1.599  16.598  0.3677  0.7827  1.0707
  630TMC3    C1 9378   3.726   1.844  16.633  0.3605  0.2022  0.2048
  630TMC3    C2 9379   3.741   1.965  16.568 -0.0059  0.5695 -0.0209
  630TMC3    C3 9380   3.865   2.022  16.576 -0.0771 -0.3935 -0.3402
  630TMC3    C4 9381   3.831   1.789  16.708  0.0737 -0.5615 -0.0963
  630TMC3    C5 9382   3.949   1.864  16.720 -0.5355 -0.1564  0.2662
  630TMC3    C6 9383   3.966   1.974  16.654 -0.3015  0.3679 -0.0615
  630TMC3     C 9384   3.603   1.778  16.602 -0.5826  0.0309  0.3987
  630TMC3     O 9385   3.510   1.854  16.576 -0.1118  0.2132 -0.3608
  630TMC3     H 9386   3.665   2.007  16.504 -0.4435  2.9504  2.0577
  630TMC3    H1 9387   3.798   1.728  16.791 -1.3818  2.3895  1.5091
  630TMC3    H2 9388   4.052   2.038  16.671 -1.4733  1.9882 -0.1825
  630TMC3    C7 9389   4.047   1.812  16.816 -0.3236  0.3088  0.2387
  630TMC3    C8 9390   3.901   2.139  16.492  0.3875  0.0291  0.1495
  630TMC3    O1 9391   4.018   1.729  16.898  0.1124  0.9160 -0.2498
  630TMC3    O2 9392   3.994   2.205  16.534  0.6459 -0.1668  0.0818
  631MPD2     C 9393   1.924   2.227  15.510  0.3826 -0.3379 -0.3752
  631MPD2    C1 9394   1.957   2.353  15.445  0.0207  0.3305  0.5458
  631MPD2    C2 9395   2.088   2.390  15.444 -0.4558 -0.4157  0.0482
  631MPD2    C3 9396   2.188   2.311  15.501  0.7225  0.5670 -1.3318
  631MPD2    C4 9397   2.159   2.191  15.566 -0.4054  0.1112  0.1071
  631MPD2    C5 9398   2.027   2.154  15.564  0.1593 -0.7115  0.1084
  631MPD2     H 9399   2.122   2.474  15.384  0.0610  0.8600  2.1370
  631MPD2    H1 9400   2.236   2.136  15.619  0.5729  1.6958  0.3361
  631MPD2    H2 9401   1.825   2.186  15.491 -0.4979  1.2684  0.8298
  631MPD2    H3 9402   2.005   2.059  15.611 -2.2304 -0.4798 -0.5885
  631MPD2     N 9403   2.321   2.359  15.494  0.1286  0.0396 -0.2369
  631MPD2    H5 9404   2.331   2.448  15.446  0.8864 -0.5905 -1.2478
  631MPD2    N1 9405   1.850   2.407  15.367 -0.8064  0.0937  0.5445
  631MPD2    H7 9406   1.759   2.372  15.398  0.2067 -3.4950 -0.6451
  632TMC3    C1 9407   1.752   2.510  15.182 -0.2361  0.4313 -0.6404
  632TMC3    C2 9408   1.630   2.454  15.233 -0.1447  0.2538 -0.4318
  632TMC3    C3 9409   1.537   2.395  15.144 -0.7920  0.2648  0.6753
  632TMC3    C4 9410   1.785   2.490  15.051  1.3471  0.1943  0.2261
  632TMC3    C5 9411   1.684   2.436  14.965  0.0893  0.1544 -0.5435
  632TMC3    C6 9412   1.560   2.402  15.011  0.4576 -0.4239 -0.3113
  632TMC3     C 9413   1.869   2.487  15.261  0.2076 -0.7789 -0.1320
  632TMC3     O 9414   1.972   2.517  15.202  0.7019  0.1665  1.1617
  632TMC3     H 9415   1.604   2.462  15.338 -1.2931  0.7572 -0.7577
  632TMC3    H1 9416   1.877   2.533  15.013 -0.1654  2.4991 -0.8411
  632TMC3    H2 9417   1.502   2.338  14.945 -0.8308  0.9417 -0.5128
  632TMC3    C7 9418   1.735   2.376  14.844 -0.4515 -0.1789 -0.1377
  632TMC3    C8 9419   1.401   2.370  15.188 -0.1519  0.0025  1.0740
  632TMC3    O1 9420   1.648   2.374  14.758 -0.3380  0.1282 -0.4037
  632TMC3    O2 9421   1.375   2.363  15.307 -0.5435 -0.0206 -0.3441
  633MPD2     C 9422   1.289   0.341  16.947 -0.2188 -0.3476 -0.1682
  633MPD2    C1 9423   1.259   0.269  16.831 -0.2319  0.1039 -0.2054
  633MPD2    C2 9424   1.310   0.143  16.826 -0.5513  0.2446  0.4631
  633MPD2    C3 9425   1.394   0.091  16.924 -0.6082  0.1086  0.2347
  633MPD2    C4 9426   1.424   0.164  17.029  0.2632  0.4360 -0.2952
  633MPD2    C5 9427   1.370   0.290  17.045  0.4317 -0.9220  0.2559
  633MPD2     H 9428   1.289   0.084  16.738  0.0516  2.2982 -1.0685
  633MPD2    H1 9429   1.501   0.125  17.096  2.3531  2.3706 -1.5726
  633MPD2    H2 9430   1.257   0.444  16.962  1.7038  0.1711  0.3512
  633MPD2    H3 9431   1.392   0.344  17.136  0.7516 -0.6267  0.0048
  633MPD2     N 9432   1.430   4.695  16.901 -0.0295  0.0765 -0.6025
  633MPD2    H5 9433   1.408   4.650  16.812 -0.6768 -0.6739 -0.0650
  633MPD2    N1 9434   1.167   0.309  16.738  0.4529  0.2885  0.7159
  633MPD2    H7 9435   1.143   0.242  16.666 -2.6012  1.6210  0.5096
  634TMC3    C1 9436   1.006   0.420  16.622  0.0467 -0.4200 -0.7076
  634TMC3    C2 9437   0.965   0.291  16.597 -0.3295 -0.3800  0.5411
  634TMC3    C3 9438   0.976   0.256  16.464  0.1301  0.2585 -0.4451
  634TMC3    C4 9439   1.033   0.519  16.534 -0.0386  0.0450 -0.0691
  634TMC3    C5 9440   1.057   0.475  16.406 -0.1414  0.1461 -0.2936
  634TMC3    C6 9441   1.034   0.345  16.376 -0.3766 -0.4143  0.6804
  634TMC3     C 9442   1.092   0.423  16.733  0.0101  0.1972  0.0547
  634TMC3     O 9443   1.122   0.534  16.780  0.1048 -0.3452  0.2034
  634TMC3     H 9444   0.945   0.216  16.672 -0.9597 -1.2778 -0.5410
  634TMC3    H1 9445   1.085   0.608  16.568  1.4976  0.4888 -3.6066
  634TMC3    H2 9446   1.058   0.314  16.275  1.0064  2.6059  0.0868
  634TMC3    C7 9447   1.092   0.557  16.300  0.3011 -0.6941  0.3192
  634TMC3    C8 9448   0.982   0.124  16.421 -0.1692  0.0402 -0.8077
  634TMC3    O1 9449   1.166   0.517  16.213  0.4203 -0.1095 -0.3105
  634TMC3    O2 9450   1.025   0.046  16.504  0.3797 -0.6357 -0.0516
  635TMC3    C1 9451   1.746   1.162   0.333 -0.2649 -0.1724 -0.3863
  635TMC3    C2 9452   1.670   1.102   0.237  0.0804  0.4604  0.0822
  635TMC3    C3 9453   1.601   0.994   0.271 -0.5295 -0.1401  0.1624
  635TMC3    C4 9454   1.737   1.116   0.467  0.0224  0.1526 -0.1497
  635TMC3    C5 9455   1.654   1.013   0.492 -0.0154  0.0450 -0.1431
  635TMC3    C6 9456   1.589   0.946   0.397 -0.8731 -0.2719  0.4008
  635TMC3     C 9457   1.857   1.249   0.298  0.2229  0.4357  0.4164
  635TMC3     O 9458   1.897   1.307   0.394  0.1477 -0.5223 -0.0394
  635TMC3     H 9459   1.677   1.141   0.137  0.8479 -0.7834 -0.3509
  635TMC3    H1 9460   1.800   1.154   0.547  0.8688 -2.6750  0.5064
  635TMC3    H2 9461   1.527   0.859   0.410 -0.3642 -0.3232  2.4162
  635TMC3    C7 9462   1.646   0.964   0.630 -0.0340 -0.0151  0.7298
  635TMC3    C8 9463   1.538   0.922   0.164  0.0516  0.1368 -0.4011
  635TMC3    O1 9464   1.724   1.004   0.711 -0.1647  0.0981 -0.5479
  635TMC3    O2 9465   1.434   0.860   0.192 -0.0264  0.0597  0.3233
  636MPD2     C 9466   1.994   0.343  16.040 -0.3245 -0.0243 -0.0806
  636MPD2    C1 9467   2.065   0.356  16.157  0.3477  0.2777  0.0325
  636MPD2    C2 9468   2.088   0.236  16.227  0.2057  0.3575 -0.1389
  636MPD2    C3 9469   2.047   0.110  16.187  0.1633 -0.0874 -0.4603
  636MPD2    C4 9470   1.971   0.105  16.071 -0.6002  1.0603 -0.4220
  636MPD2    C5 9471   1.942   0.220  16.003  0.6921 -0.0692 -0.6110
  636MPD2     H 9472   2.135   0.246  16.324 -1.7394  0.4824  0.7947
  636MPD2    H1 9473   1.936   0.010  16.032  0.7910 -0.3633  1.8036
  636MPD2    H2 9474   1.981   0.425  15.971  1.5293 -1.0822 -1.7009
  636MPD2    H3 9475   1.893   0.230  15.907  0.0546  1.8657 -0.0747
  636MPD2     N 9476   2.070   4.733  16.264  0.1905 -0.2310 -0.3128
  636MPD2    H5 9477   2.150   4.730  16.326 -1.3918  0.8224  1.7517
  636MPD2    N1 9478   2.124   0.477  16.207  0.2180  0.5523  0.1966
  636MPD2    H7 9479   2.183   0.466  16.289  1.0991  1.0101 -0.3713
  637TMC3    C1 9480   2.056   4.513  16.333  0.0707 -0.5055  0.7375
  637TMC3    C2 9481   2.130   4.547  16.443  0.1031  0.0369  0.0771
  637TMC3    C3 9482   2.216   4.451  16.494  0.1173  0.2742 -0.7429
  637TMC3    C4 9483   2.061   4.392  16.270  0.4024  0.1945  0.2771
  637TMC3    C5 9484   2.163   4.315  16.306 -0.1277 -0.1708 -0.4611
  637TMC3    C6 9485   2.242   4.339  16.420  0.0056  0.6995 -0.2052
  637TMC3     C 9486   1.987   4.621  16.265  0.7496 -0.4074 -0.2744
  637TMC3     O 9487   1.881   4.603  16.210 -0.4436 -0.4808 -0.2698
  637TMC3     H 9488   2.127   4.645  16.488 -1.0145 -0.5089  1.1807
  637TMC3    H1 9489   2.000   4.380  16.181 -1.2086 -1.5582  1.6114
  637TMC3    H2 9490   2.312   4.262  16.450  0.5150  0.3763 -2.2502
  637TMC3    C7 9491   2.242   4.272  16.193  0.1963 -0.0612  0.0300
  637TMC3    C8 9492   2.336   4.515  16.552 -0.0495  0.0695 -0.7200
  637TMC3    O1 9493   2.185   4.236  16.091  0.1056  0.4854 -0.0281
  637TMC3    O2 9494   2.373   4.621  16.509  0.0181 -0.5807  0.4935
  638MPD2     C 9495   2.558   3.788  14.784  0.1368  0.9461  0.4728
  638MPD2    C1 9496   2.580   3.656  14.749 -1.1837  0.1963 -0.3156
  638MPD2    C2 9497   2.559   3.560  14.842  0.1719 -0.3003  0.0616
  638MPD2    C3 9498   2.518   3.587  14.977  0.0747  0.2914  0.1282
  638MPD2    C4 9499   2.505   3.720  15.008  0.3210  0.7602 -0.2661
  638MPD2    C5 9500   2.524   3.813  14.914 -0.3042  0.0257  0.5333
  638MPD2     H 9501   2.574   3.455  14.819 -1.5888 -0.9360  1.9380
  638MPD2    H1 9502   2.467   3.761  15.101  1.2871  0.8745  0.0716
  638MPD2    H2 9503   2.595   3.871  14.724 -0.1004  0.3618 -0.4720
  638MPD2    H3 9504   2.530   3.915  14.950 -0.8542 -0.3306  1.6104
  638MPD2     N 9505   2.497   3.483  15.067 -0.0590 -0.0981  0.4328
  638MPD2    H5 9506   2.528   3.391  15.037  0.4407  0.9346 -2.1885
  638MPD2    N1 9507   2.653   3.634  14.629 -0.3118  0.1053 -0.2167
  638MPD2    H7 9508   2.685   3.715  14.577 -3.0932  1.9262  0.8376
  639TMC3    C1 9509   2.413   3.363  15.251 -0.6432  0.3566  0.6329
  639TMC3    C2 9510   2.289   3.299  15.244 -0.2000  0.1064 -0.5887
  639TMC3    C3 9511   2.286   3.168  15.271  0.3872 -0.0406 -0.2317
  639TMC3    C4 9512   2.529   3.295  15.272  0.0350 -0.3792 -0.6460
  639TMC3    C5 9513   2.523   3.171  15.317  0.0463 -0.8912 -0.3177
  639TMC3    C6 9514   2.402   3.108  15.321  0.4735  0.7942  0.8512
  639TMC3     C 9515   2.438   3.490  15.189  0.2999 -0.4168  0.2044
  639TMC3     O 9516   2.379   3.583  15.240 -0.0391  0.2350 -0.6563
  639TMC3     H 9517   2.195   3.351  15.225  0.0260  1.1771  1.2576
  639TMC3    H1 9518   2.624   3.345  15.262 -0.2295  1.2518  5.0381
  639TMC3    H2 9519   2.389   3.005  15.352  3.7941 -0.5814 -2.3632
  639TMC3    C7 9520   2.638   3.082  15.330  0.1125 -0.0832 -0.0396
  639TMC3    C8 9521   2.228   3.083  15.166 -0.2544 -0.0706  0.0004
  639TMC3    O1 9522   2.627   2.995  15.413  0.8261  0.4879  0.1833
  639TMC3    O2 9523   2.302   3.037  15.079  0.1945  0.1903 -0.3466
  640MPD2     C 9524   3.179   3.056   9.734  0.7753 -0.1946  0.2572
  640MPD2    C1 9525   3.047   3.023   9.738  0.9636 -0.0704 -0.0857
  640MPD2    C2 9526   2.973   3.059   9.842 -0.2791 -0.6399  0.3047
  640MPD2    C3 9527   3.022   3.131   9.945  0.6088 -0.3392 -0.2004
  640MPD2    C4 9528   3.156   3.168   9.941 -0.0836 -0.3644  0.3858
  640MPD2    C5 9529   3.232   3.122   9.837  0.0377 -1.1619  0.4430
  640MPD2     H 9530   2.873   3.016   9.840 -0.2034 -0.6585 -2.1127
  640MPD2    H1 9531   3.201   3.223  10.022  1.7204  1.5616 -1.9327
  640MPD2    H2 9532   3.251   3.010   9.667  3.8241  1.1514  2.5631
  640MPD2    H3 9533   3.337   3.147   9.843 -0.0815 -0.9866  1.7702
  640MPD2     N 9534   2.943   3.190  10.042  0.1544  0.2244 -0.0622
  640MPD2    H5 9535   2.986   3.251  10.111 -1.6464  1.5782 -0.1553
  640MPD2    N1 9536   2.989   2.948   9.631  0.7339 -0.0972 -0.0958
  640MPD2    H7 9537   3.058   2.914   9.565  0.9722  1.2151 -0.5207
  641TMC3    C1 9538   2.825   2.859   9.488 -0.1803 -0.9148  0.8992
  641TMC3    C2 9539   2.908   2.751   9.472 -0.1745 -0.6113 -0.3949
  641TMC3    C3 9540   2.857   2.658   9.384  0.4262 -0.6644  0.7314
  641TMC3    C4 9541   2.710   2.883   9.419  0.5047 -0.1499  0.3644
  641TMC3    C5 9542   2.671   2.787   9.329 -0.3311 -0.3511 -0.4840
  641TMC3    C6 9543   2.739   2.668   9.312  0.6037 -0.6709 -0.5155
  641TMC3     C 9544   2.853   2.948   9.593  0.6283  0.5795 -0.1316
  641TMC3     O 9545   2.764   3.024   9.635  0.2121 -0.1628  0.1616
  641TMC3     H 9546   3.006   2.739   9.518 -0.7722 -1.4893  0.6497
  641TMC3    H1 9547   2.657   2.978   9.426  1.2486  0.4058 -1.2913
  641TMC3    H2 9548   2.701   2.589   9.249  0.5972 -0.5729 -0.6352
  641TMC3    C7 9549   2.537   2.798   9.270 -0.4825  0.3967  0.1913
  641TMC3    C8 9550   2.921   2.525   9.378 -0.2283  0.2690 -0.6772
  641TMC3    O1 9551   2.463   2.886   9.313  0.2667 -0.3825 -0.0362
  641TMC3    O2 9552   2.894   2.456   9.280  0.2179 -0.7440 -0.1743
  642TMC3    C1 9553   3.667   3.419  12.198  0.1297  0.2912 -0.2548
  642TMC3    C2 9554   3.799   3.441  12.231  0.2624 -0.2546 -0.5394
  642TMC3    C3 9555   3.872   3.348  12.303 -0.2123  0.0359 -0.6446
  642TMC3    C4 9556   3.607   3.294  12.226 -0.4069  0.2605 -0.2335
  642TMC3    C5 9557   3.683   3.196  12.287 -0.4682 -0.3417 -0.2136
  642TMC3    C6 9558   3.814   3.228  12.331 -0.1302 -0.1876  0.1705
  642TMC3     C 9559   3.587   3.528  12.162 -0.2564 -0.2413  0.2170
  642TMC3     O 9560   3.639   3.624  12.105  0.1628  0.6496  0.5495
  642TMC3     H 9561   3.838   3.537  12.199 -1.9162  0.1843 -1.8882
  642TMC3    H1 9562   3.503   3.276  12.201 -0.5282  0.9799 -0.2587
  642TMC3    H2 9563   3.869   3.149  12.381  0.8879  2.0314  2.5418
  642TMC3    C7 9564   3.633   3.066  12.307  0.4916  0.8371 -0.4101
  642TMC3    C8 9565   4.004   3.372  12.343  0.1500  0.0006  1.1102
  642TMC3    O1 9566   3.511   3.048  12.306 -0.1157  0.3026  0.7727
  642TMC3    O2 9567   4.058   3.288  12.410 -0.2122  0.3938 -0.0231
  643TMC3    C1 9568   3.431   3.012   0.453 -0.5867  0.4307  0.1722
  643TMC3    C2 9569   3.312   3.062   0.411 -0.4285 -0.0071  0.0985
  643TMC3    C3 9570   3.265   3.018   0.294 -0.3600  0.0330  0.1037
  643TMC3    C4 9571   3.491   2.908   0.392 -0.0919  0.3898  0.2050
  643TMC3    C5 9572   3.434   2.861   0.272  0.9464 -0.0492  0.0762
  643TMC3    C6 9573   3.313   2.909   0.227 -0.4176  0.3150  0.5247
  643TMC3     C 9574   3.521   3.123   0.488 -0.9998  0.4702 -0.3446
  643TMC3     O 9575   3.506   3.232   0.430  0.0909 -0.3423 -0.2370
  643TMC3     H 9576   3.271   3.153   0.454 -0.7498 -0.0633 -0.0844
  643TMC3    H1 9577   3.594   2.888   0.418  0.4931  0.8709 -1.7373
  643TMC3    H2 9578   3.274   2.879   0.130  0.1702 -0.9197  0.6667
  643TMC3    C7 9579   3.524   2.818   0.168  0.2583  0.4035 -0.2163
  643TMC3    C8 9580   3.205   3.118   0.212  0.2051  0.3694 -0.4827
  643TMC3    O1 9581   3.590   2.915   0.124  0.4700  0.1876  0.2692
  643TMC3    O2 9582   3.121   3.091   0.128 -0.3542 -0.0774  0.6113
  644MPD2     C 9583   2.150   2.135   8.779  0.4947 -0.4750 -0.0291
  644MPD2    C1 9584   2.269   2.166   8.841  0.3850  0.1284 -0.1209
  644MPD2    C2 9585   2.263   2.233   8.964 -0.5434 -0.0428 -0.4638
  644MPD2    C3 9586   2.140   2.278   9.017  0.6726  0.1975 -0.1181
  644MPD2    C4 9587   2.023   2.251   8.944  0.3238 -0.1066 -0.3048
  644MPD2    C5 9588   2.027   2.171   8.837  0.5092 -0.0436 -0.6253
  644MPD2     H 9589   2.357   2.260   9.010 -0.6568  0.1854 -0.3662
  644MPD2    H1 9590   1.926   2.275   8.988 -1.1791 -3.0211 -2.0057
  644MPD2    H2 9591   2.144   2.082   8.684 -1.2624  1.2658 -0.8869
  644MPD2    H3 9592   1.932   2.150   8.790  0.3900 -3.2589  1.1024
  644MPD2     N 9593   2.139   2.342   9.144  0.0103 -0.7696 -0.9186
  644MPD2    H5 9594   2.224   2.361   9.196 -0.0157 -1.5396 -0.5835
  644MPD2    N1 9595   2.394   2.123   8.788 -0.5929  0.0510  0.2302
  644MPD2    H7 9596   2.380   2.080   8.697  1.4516 -0.1631  0.0387
  645TMC3    C1 9597   2.067   2.464   9.333  0.1054 -0.1052  0.1737
  645TMC3    C2 9598   1.965   2.479   9.426  1.0457 -0.7467  0.9066
  645TMC3    C3 9599   1.991   2.514   9.550 -0.3545  0.2913  0.1413
  645TMC3    C4 9600   2.200   2.480   9.361  0.1320  0.5556  0.2011
  645TMC3    C5 9601   2.222   2.528   9.486  0.0109  0.2066  0.4981
  645TMC3    C6 9602   2.120   2.538   9.581 -0.1179  0.0980 -0.1117
  645TMC3     C 9603   2.033   2.390   9.210 -0.3445  0.0813 -0.9375
  645TMC3     O 9604   1.917   2.380   9.182  0.0079 -0.4586 -0.3021
  645TMC3     H 9605   1.866   2.447   9.396  1.1740  0.8330 -1.1854
  645TMC3    H1 9606   2.280   2.474   9.288 -0.0082  0.8499  0.0245
  645TMC3    H2 9607   2.153   2.555   9.683  1.0093  0.5037 -0.5344
  645TMC3    C7 9608   2.361   2.538   9.525 -0.2406  0.1623 -0.3403
  645TMC3    C8 9609   1.896   2.477   9.657  0.9218 -0.3769 -0.1153
  645TMC3    O1 9610   2.443   2.502   9.444 -0.4293  0.1649 -0.6085
  645TMC3    O2 9611   1.810   2.398   9.624 -0.3019  0.6782  0.1095
  646MPD2     C 9612   2.721   2.257  14.750  0.1402 -0.0178  0.1953
  646MPD2    C1 9613   2.635   2.278  14.848  0.6950 -0.2518 -0.1626
  646MPD2    C2 9614   2.513   2.329  14.826 -0.0102  0.6716 -0.6287
  646MPD2    C3 9615   2.487   2.378  14.699  0.0409  0.2220  0.9064
  646MPD2    C4 9616   2.583   2.368  14.600 -0.5550 -0.3462  0.2770
  646MPD2    C5 9617   2.693   2.292  14.629 -0.5743  0.2670  0.3222
  646MPD2     H 9618   2.439   2.345  14.904  2.1463 -0.2701  1.5674
  646MPD2    H1 9619   2.582   2.412  14.502 -0.1540 -0.1215  0.3721
  646MPD2    H2 9620   2.816   2.210  14.776 -0.6950 -1.7856  0.0344
  646MPD2    H3 9621   2.768   2.268  14.554  1.0015  1.1629  1.5848
  646MPD2     N 9622   2.358   2.443  14.679  0.6652 -0.3335 -0.0111
  646MPD2    H5 9623   2.286   2.429  14.748 -1.4630 -0.2768 -2.2084
  646MPD2    N1 9624   2.682   2.230  14.970  0.1049 -0.1350  0.3986
  646MPD2    H7 9625   2.772   2.184  14.962 -0.0092 -0.2583 -0.2172
  647TMC3    C1 9626   2.713   2.188  15.187  0.5173  0.7712  0.2381
  647TMC3    C2 9627   2.654   2.096  15.274 -0.5352 -0.2337 -0.0817
  647TMC3    C3 9628   2.738   2.033  15.364  0.2652 -0.0157 -0.2892
  647TMC3    C4 9629   2.848   2.212  15.193  0.1710  0.0811  0.0262
  647TMC3    C5 9630   2.924   2.145  15.284  0.3544  0.7518 -0.8012
  647TMC3    C6 9631   2.877   2.055  15.375 -0.4199 -0.4693 -0.0833
  647TMC3     C 9632   2.631   2.252  15.095  0.4360 -1.1846  0.2268
  647TMC3     O 9633   2.519   2.278  15.134  0.2852  0.5023 -0.5943
  647TMC3     H 9634   2.547   2.084  15.273 -0.4316 -1.1166 -0.8578
  647TMC3    H1 9635   2.886   2.295  15.133 -1.2095  1.1459  0.6428
  647TMC3    H2 9636   2.939   1.997  15.443 -0.4216 -2.3227 -1.6558
  647TMC3    C7 9637   3.068   2.131  15.263 -0.6302  0.3627 -0.4152
  647TMC3    C8 9638   2.700   1.908  15.417 -0.4725  0.7552  0.1955
  647TMC3    O1 9639   3.130   2.075  15.350  0.4880 -0.1774 -0.5762
  647TMC3    O2 9640   2.759   1.882  15.517 -0.0271 -0.2877 -0.4793
  648TMC3    C1 9641   1.623   0.018  16.037 -0.4145 -0.3843 -0.3332
  648TMC3    C2 9642   1.667   4.632  16.026  0.2192  0.0507 -0.9081
  648TMC3    C3 9643   1.707   4.598  15.901  0.2695  0.4199 -0.0505
  648TMC3    C4 9644   1.632   0.113  15.936 -0.2866 -0.1410 -0.2488
  648TMC3    C5 9645   1.680   0.069  15.811 -0.0092 -0.5673 -0.9680
  648TMC3    C6 9646   1.713   4.677  15.796  0.3788  0.2225  0.3518
  648TMC3     C 9647   1.581   0.078  16.162  0.2013 -0.1717 -0.2298
  648TMC3     O 9648   1.510   0.179  16.163  0.2116  0.4543  0.2707
  648TMC3     H 9649   1.648   4.555  16.099  1.1542  2.0979  1.5208
  648TMC3    H1 9650   1.582   0.209  15.944 -0.4055 -0.1805 -0.5341
  648TMC3    H2 9651   1.733   4.630  15.700 -2.3369  1.6540 -0.9238
  648TMC3    C7 9652   1.690   0.157  15.699  0.1611  0.2943  0.1534
  648TMC3    C8 9653   1.724   4.450  15.883 -0.2006 -0.4933  0.0184
  648TMC3    O1 9654   1.725   0.102  15.592 -0.1794 -0.1902 -1.1145
  648TMC3    O2 9655   1.653   4.373  15.945 -0.2318 -0.7663  0.0590
  649TMC3    C1 9656   0.792   0.609  13.138 -0.0244 -0.3579  0.0600
  649TMC3    C2 9657   0.927   0.618  13.117  0.4432 -0.3664  0.6219
  649TMC3    C3 9658   1.008   0.599  13.225  0.1316  0.8343  0.1681
  649TMC3    C4 9659   0.738   0.604  13.263 -0.1772 -0.6420 -0.9407
  649TMC3    C5 9660   0.817   0.598  13.373 -0.4671  0.7477  0.0397
  649TMC3    C6 9661   0.954   0.597  13.358 -0.1489 -0.3232  0.1971
  649TMC3     C 9662   0.690   0.640  13.035 -0.1309 -0.5486  0.5406
  649TMC3     O 9663   0.571   0.659  13.060  0.3474 -0.1581  0.3120
  649TMC3     H 9664   0.965   0.624  13.016  1.2626 -0.4734  0.9266
  649TMC3    H1 9665   0.631   0.588  13.261  0.0236 -2.4160  2.8602
  649TMC3    H2 9666   1.023   0.599  13.442 -0.7077 -1.5881  0.6814
  649TMC3    C7 9667   0.754   0.632  13.499  0.2996 -0.4014  0.2898
  649TMC3    C8 9668   1.151   0.597  13.200  0.5710 -0.2114 -0.1125
  649TMC3    O1 9669   0.692   0.736  13.512 -0.0362  0.2265 -0.5599
  649TMC3    O2 9670   1.201   0.659  13.108 -0.3392  0.3367 -0.5224
  650TMC3    C1 9671   3.135   2.632  12.713  0.3431 -0.0402 -0.7607
  650TMC3    C2 9672   3.085   2.725  12.799  0.5939 -0.2985 -0.3706
  650TMC3    C3 9673   2.947   2.733  12.821  0.3385 -0.3934  0.7914
  650TMC3    C4 9674   3.051   2.544  12.651 -0.2980  0.2950 -0.2598
  650TMC3    C5 9675   2.913   2.557  12.666 -0.9792  0.1148 -0.0715
  650TMC3    C6 9676   2.865   2.650  12.751  0.8506  0.2169 -0.7214
  650TMC3     C 9677   3.274   2.591  12.732  0.0701 -0.2493 -0.0029
  650TMC3     O 9678   3.349   2.654  12.803 -0.4949 -0.1796  0.2559
  650TMC3     H 9679   3.152   2.792  12.851  0.9164 -1.2254  0.4145
  650TMC3    H1 9680   3.080   2.499  12.557 -0.5668  1.7627 -1.0559
  650TMC3    H2 9681   2.757   2.648  12.762  1.2287 -0.2760  3.0526
  650TMC3    C7 9682   2.837   2.541  12.550 -0.7322  0.3370  0.1684
  650TMC3    C8 9683   2.886   2.865  12.832 -0.4576  0.1272 -0.2317
  650TMC3    O1 9684   2.870   2.446  12.479 -0.0864 -1.0077 -0.1384
  650TMC3    O2 9685   2.797   2.893  12.752 -0.3038 -0.5040  0.3155
  651MPD2     C 9686   2.012   0.051  10.513 -0.7301 -0.2601 -0.4039
  651MPD2    C1 9687   2.021   0.141  10.618 -0.5207  0.0325 -0.0729
  651MPD2    C2 9688   2.146   0.199  10.629  0.0046 -0.4174 -0.4802
  651MPD2    C3 9689   2.254   0.164  10.552 -0.4867  0.3033 -0.0325
  651MPD2    C4 9690   2.240   0.083  10.449 -0.1267  0.5743  0.7527
  651MPD2    C5 9691   2.122   0.016  10.437 -0.4467 -0.6032  0.8567
  651MPD2     H 9692   2.157   0.270  10.710  1.6136  0.2442 -1.2669
  651MPD2    H1 9693   2.322   0.045  10.389  2.1184  0.4916  3.8698
  651MPD2    H2 9694   1.918   0.004  10.487 -1.3062  1.5316 -1.5735
  651MPD2    H3 9695   2.105   4.680  10.362 -0.1459  1.3256 -1.1538
  651MPD2     N 9696   2.372   0.240  10.570 -0.3604 -0.5958  0.0537
  651MPD2    H5 9697   2.377   0.314  10.639 -2.8004 -0.8649  0.5216
  651MPD2    N1 9698   1.918   0.188  10.699 -0.0310 -0.6124 -0.1717
  651MPD2    H7 9699   1.929   0.274  10.751  3.3183 -1.4981  0.5575
  652TMC3    C1 9700   2.755   0.487  10.432  0.3001 -0.2741 -0.1288
  652TMC3    C2 9701   2.673   0.381  10.419 -0.4196 -0.2305  0.1049
  652TMC3    C3 9702   2.548   0.377  10.489  0.0089 -0.1182  0.1723
  652TMC3    C4 9703   2.717   0.586  10.513  0.7508  0.0104 -0.0213
  652TMC3    C5 9704   2.591   0.586  10.574 -0.3947  0.2114 -1.0551
  652TMC3    C6 9705   2.504   0.480  10.564  0.3784 -0.2783  0.6455
  652TMC3     C 9706   2.887   0.443  10.438 -0.0948  0.1251  0.4169
  652TMC3     O 9707   2.920   0.332  10.470  0.0873 -0.8081  0.1584
  652TMC3     H 9708   2.710   0.293  10.368  1.2457  0.5679 -0.0426
  652TMC3    H1 9709   2.789   0.663  10.538  0.8801  0.0661 -0.5740
  652TMC3    H2 9710   2.409   0.482  10.617  0.8471 -1.8706  1.5500
  652TMC3    C7 9711   2.571   0.666  10.690 -0.5337  0.1422 -0.2585
  652TMC3    C8 9712   2.478   0.243  10.485 -0.2896  0.3680 -0.0320
  652TMC3    O1 9713   2.528   0.618  10.792 -0.8022  0.3019  0.8398
  652TMC3    O2 9714   2.508   0.171  10.390 -0.1171 -0.4012 -0.3358
  653MPD2     C 9715   1.148   0.443   0.044 -0.3218 -0.2496  0.3660
  653MPD2    C1 9716   1.123   0.519  17.685  0.3458  0.3787  0.8629
  653MPD2    C2 9717   1.101   0.451  17.563  0.4022  1.0260 -0.1174
  653MPD2    C3 9718   1.134   0.319  17.550 -0.0584  1.2742 -0.2369
  653MPD2    C4 9719   1.165   0.240  17.663 -0.1926 -0.2723 -0.2038
  653MPD2    C5 9720   1.169   0.308   0.032  0.3164 -0.0560  0.4271
  653MPD2     H 9721   1.072   0.509  17.476  1.6808 -1.5302 -2.2466
  653MPD2    H1 9722   1.177   0.132  17.661 -1.6353 -0.4488  0.4973
  653MPD2    H2 9723   1.173   0.482   0.142 -0.4131  1.6150 -0.3480
  653MPD2    H3 9724   1.209   0.257   0.119  0.6375  0.6324  0.6774
  653MPD2     N 9725   1.118   0.254  17.421 -0.6524  0.3987  0.0011
  653MPD2    H5 9726   1.059   0.298  17.351 -0.1989  0.9379 -0.0377
  653MPD2    N1 9727   1.107   0.654  17.682  0.5243  0.6691  0.2476
  653MPD2    H7 9728   1.107   0.700  17.592 -0.9751 -0.2961 -0.2444
  654TMC3    C1 9729   1.136   0.075  17.270 -0.0953 -0.2094 -0.2048
  654TMC3    C2 9730   1.051   0.129  17.170 -0.4356 -0.0752  0.5920
  654TMC3    C3 9731   1.046   0.060  17.053 -0.1053  0.3042 -0.1044
  654TMC3    C4 9732   1.197   4.693  17.250 -0.9213  0.6493 -0.0203
  654TMC3    C5 9733   1.189   4.630  17.130 -0.6139 -0.2615  0.2561
  654TMC3    C6 9734   1.113   4.687  17.030  0.1707  0.3324  0.6720
  654TMC3     C 9735   1.191   0.143  17.385  0.0126 -0.1811 -0.3766
  654TMC3     O 9736   1.293   0.104  17.434  0.8924 -0.5588 -0.0654
  654TMC3     H 9737   0.999   0.218  17.205  1.9287  2.1687 -1.6032
  654TMC3    H1 9738   1.252   4.627  17.316  0.4021 -0.0558 -1.8023
  654TMC3    H2 9739   1.108   4.632  16.937  1.8111 -0.9183  1.3341
  654TMC3    C7 9740   1.190   4.483  17.124  0.4888 -0.4446  0.2068
  654TMC3    C8 9741   0.939   0.096  16.965 -0.1644 -0.0351  0.5399
  654TMC3    O1 9742   1.114   4.446  17.041 -0.3553 -0.1428 -0.1931
  654TMC3    O2 9743   0.895   0.205  17.001  0.2115  0.0915  0.1169
  655MPD2     C 9744   2.247   0.258  15.523  0.2088  0.4145 -0.1015
  655MPD2    C1 9745   2.168   0.333  15.434  0.4682  0.0427 -0.4783
  655MPD2    C2 9746   2.171   0.292  15.303  0.1158 -0.2280 -0.1960
  655MPD2    C3 9747   2.229   0.174  15.262  0.0019 -0.3858  0.5129
  655MPD2    C4 9748   2.294   0.098  15.356 -0.0612 -0.0884  0.4702
  655MPD2    C5 9749   2.306   0.142  15.482 -0.0571 -0.2585 -0.6031
  655MPD2     H 9750   2.130   0.367  15.236  0.2268  0.4738  0.5220
  655MPD2    H1 9751   2.363   0.023  15.320 -1.3927 -1.6246  1.0722
  655MPD2    H2 9752   2.257   0.286  15.628 -1.1854 -1.4174  0.5209
  655MPD2    H3 9753   2.368   0.100  15.560 -1.9190 -0.2875  0.8597
  655MPD2     N 9754   2.241   0.136  15.125  0.0212 -0.1059  0.2509
  655MPD2    H5 9755   2.286   0.049  15.100 -0.3397  0.1819 -1.3544
  655MPD2    N1 9756   2.112   0.457  15.470 -0.0521 -0.5624  0.5455
  655MPD2    H7 9757   2.079   0.518  15.396 -0.9002 -2.1842 -0.4314
  656TMC3    C1 9758   2.022   0.620  15.618 -0.0391  0.1899  0.0983
  656TMC3    C2 9759   1.946   0.626  15.724 -0.9873 -0.1544  0.4196
  656TMC3    C3 9760   1.886   0.743  15.751 -0.6074 -0.4405  0.2429
  656TMC3    C4 9761   2.039   0.721  15.525  0.1331 -0.2929  0.0067
  656TMC3    C5 9762   1.971   0.840  15.550 -0.2970  0.5595  0.4565
  656TMC3    C6 9763   1.890   0.848  15.663  0.0606  0.2474  0.6563
  656TMC3     C 9764   2.089   0.493  15.602 -0.4888 -0.8769  0.2950
  656TMC3     O 9765   2.101   0.423  15.700  0.1764  0.0127  0.0992
  656TMC3     H 9766   1.941   0.545  15.796 -0.1139 -1.1840 -0.6733
  656TMC3    H1 9767   2.088   0.693  15.433  1.2743  1.2882  0.1289
  656TMC3    H2 9768   1.834   0.938  15.685  1.7247  1.3775  0.2160
  656TMC3    C7 9769   1.936   0.918  15.435 -0.3867  0.2412 -0.4060
  656TMC3    C8 9770   1.772   0.738  15.839 -0.4883  0.1328 -0.3369
  656TMC3    O1 9771   1.963   0.876  15.324  0.4206 -0.4556 -0.1284
  656TMC3    O2 9772   1.690   0.825  15.845 -0.5449 -0.1819  0.4868
  657TMC3    C1 9773   1.139   4.131  15.112  0.4644  0.2944  0.1049
  657TMC3    C2 9774   1.074   4.235  15.176 -0.1513 -0.0035  0.4494
  657TMC3    C3 9775   1.045   4.352  15.102  0.4101 -0.8095  0.0344
  657TMC3    C4 9776   1.172   4.139  14.979 -0.1712  0.3327  0.8108
  657TMC3    C5 9777   1.130   4.250  14.906 -0.3632  0.2634 -0.0269
  657TMC3    C6 9778   1.074   4.358  14.969 -0.1307  0.1067 -0.3345
  657TMC3     C 9779   1.195   4.022  15.191  0.5213  0.6458 -0.1123
  657TMC3     O 9780   1.159   4.009  15.308 -0.4978 -0.0483  0.3338
  657TMC3     H 9781   1.052   4.230  15.282 -0.7625 -0.7508  0.2849
  657TMC3    H1 9782   1.204   4.053  14.922 -0.2907 -0.3195  1.7200
  657TMC3    H2 9783   1.038   4.441  14.910  0.4466 -1.2088 -2.5169
  657TMC3    C7 9784   1.134   4.241  14.756 -0.0309 -0.0371 -0.4691
  657TMC3    C8 9785   0.958   4.457  15.160 -0.8320  0.2558 -0.1866
  657TMC3    O1 9786   1.181   4.138  14.705 -0.7538 -0.1966  0.7220
  657TMC3    O2 9787   0.920   4.547  15.082 -0.2979 -0.0477  0.4293
  658MPD2     C 9788   2.554   4.677  14.326 -0.1672 -0.5949  0.1514
  658MPD2    C1 9789   2.551   0.023  14.432 -0.6093  0.5987  0.3102
  658MPD2    C2 9790   2.625   0.141  14.415 -0.0509 -0.3193  0.6584
  658MPD2    C3 9791   2.684   0.170  14.300  0.0844 -0.2958 -0.2753
  658MPD2    C4 9792   2.692   0.079  14.199 -0.7483 -0.5491  0.0270
  658MPD2    C5 9793   2.625   4.703  14.213 -0.2903 -0.4393 -0.5540
  658MPD2     H 9794   2.622   0.218  14.491 -2.7749  0.7438 -0.5204
  658MPD2    H1 9795   2.762   0.095  14.118  0.5046 -0.0301  1.2093
  658MPD2    H2 9796   2.495   4.587  14.317  1.4835 -2.0097  3.3441
  658MPD2    H3 9797   2.628   4.634  14.130 -1.6967 -1.6411  0.4073
  658MPD2     N 9798   2.749   0.296  14.290 -0.0347  0.7212 -0.2939
  658MPD2    H5 9799   2.756   0.363  14.366  2.1331 -0.8970  0.9137
  658MPD2    N1 9800   2.469   4.739  14.544 -0.3900  0.5523  0.3476
  658MPD2    H7 9801   2.403   4.662  14.539 -0.2812  0.6817 -3.6873
  659TMC3    C1 9802   2.330   0.042  14.723 -0.7163 -0.4336 -0.1048
  659TMC3    C2 9803   2.323   0.090  14.855  0.0132 -0.2261  0.0285
  659TMC3    C3 9804   2.203   0.134  14.893  0.1719 -0.0918  0.0307
  659TMC3    C4 9805   2.226   0.039  14.640  0.1570  0.1136 -0.7125
  659TMC3    C5 9806   2.106   0.087  14.688  0.4620 -0.1476 -0.2041
  659TMC3    C6 9807   2.095   0.130  14.811  0.0292  0.2284 -0.2750
  659TMC3     C 9808   2.455   0.076  14.656  0.8361 -0.4460 -0.2057
  659TMC3     O 9809   2.531   0.159  14.709  0.0997 -0.4585 -0.0213
  659TMC3     H 9810   2.411   0.100  14.918  0.8253 -1.7264 -0.8791
  659TMC3    H1 9811   2.226   0.014  14.534 -0.5899 -1.6978 -0.2969
  659TMC3    H2 9812   1.992   0.135  14.846  0.3226  0.1953  0.5946
  659TMC3    C7 9813   1.975   0.041  14.632  0.6436 -0.2410  0.1622
  659TMC3    C8 9814   2.183   0.203  15.017 -0.0569  0.1197  0.2141
  659TMC3    O1 9815   1.875   0.107  14.659 -0.2698  0.7052  0.1341
  659TMC3    O2 9816   2.104   0.298  15.020  0.2398  0.1890  0.7347
  660MPD2     C 9817   0.124   3.256  12.239 -0.5875  0.4801 -0.2258
  660MPD2    C1 9818   4.726   3.237  12.263 -1.3588  0.5184 -0.1592
  660MPD2    C2 9819   4.696   3.209  12.401 -0.2826  0.1475  0.4588
  660MPD2    C3 9820   0.054   3.192  12.497  0.2107  0.2506 -0.3079
  660MPD2    C4 9821   0.182   3.196  12.460 -0.5025  0.1510 -0.8671
  660MPD2    C5 9822   0.223   3.227  12.332  1.2040  0.3068 -0.1171
  660MPD2     H 9823   4.591   3.200  12.429  0.3320  0.6854  2.9203
  660MPD2    H1 9824   0.258   3.171  12.534 -2.5149 -0.0577  1.1121
  660MPD2    H2 9825   0.150   3.272  12.135 -1.0095  0.4587 -0.3356
  660MPD2    H3 9826   0.319   3.213  12.284  0.1678  1.0077 -2.4141
  660MPD2     N 9827   0.017   3.169  12.630  0.2839 -0.4274  0.0011
  660MPD2    H5 9828   0.089   3.139  12.694  0.1545 -0.8779 -0.0662
  660MPD2    N1 9829   4.634   3.245  12.158 -0.5475  0.7694  0.1151
  660MPD2    H7 9830   4.675   3.269  12.068 -2.2724 -3.0742 -1.7086
  661TMC3    C1 9831   4.420   3.278  12.069  0.0536 -0.3584 -0.0177
  661TMC3    C2 9832   4.437   3.410  12.064 -0.2300  0.2125 -0.4093
  661TMC3    C3 9833   4.330   3.484  12.023 -0.3362  0.2482 -0.3719
  661TMC3    C4 9834   4.302   3.219  12.038  0.2134  0.1812 -0.2406
  661TMC3    C5 9835   4.192   3.297  12.017  0.0008 -0.0096 -0.2421
  661TMC3    C6 9836   4.204   3.433  12.009  0.2606  0.2501  0.2856
  661TMC3     C 9837   4.498   3.206  12.165 -0.5426 -0.0929 -0.1712
  661TMC3     O 9838   4.438   3.155  12.257 -0.3789 -0.4981 -0.3123
  661TMC3     H 9839   4.535   3.453  12.084 -0.0274  0.5698 -2.1344
  661TMC3    H1 9840   4.305   3.111  12.052  2.8655  0.1191 -1.2593
  661TMC3    H2 9841   4.115   3.493  12.003 -0.6207 -1.2041 -1.2678
  661TMC3    C7 9842   4.065   3.237  12.030  0.1632  0.9358  0.8090
  661TMC3    C8 9843   4.359   3.624  12.007 -0.5960 -0.9192 -0.7190
  661TMC3    O1 9844   4.057   3.134  12.093  0.1153 -0.3891  0.0066
  661TMC3    O2 9845   4.474   3.662  12.009  0.4231  0.1976  0.0685
  662MPD2     C 9846   1.013   2.973  16.532 -0.1811  0.7236  0.5342
  662MPD2    C1 9847   0.893   2.949  16.596  0.9767 -0.2864  0.0688
  662MPD2    C2 9848   0.792   3.038  16.594 -0.1125 -0.5103  0.5782
  662MPD2    C3 9849   0.804   3.162  16.532 -0.2995 -0.0356  0.3040
  662MPD2    C4 9850   0.918   3.185  16.460 -0.8855  0.5572 -0.2811
  662MPD2    C5 9851   1.026   3.092  16.463 -0.0805 -0.4320  0.2649
  662MPD2     H 9852   0.715   3.013  16.666  0.1739  0.6427  1.2860
  662MPD2    H1 9853   0.943   3.273  16.402 -2.2591  1.2078  0.1158
  662MPD2    H2 9854   1.101   2.912  16.552 -0.4410 -0.0976 -0.8226
  662MPD2    H3 9855   1.111   3.113  16.399  0.4276 -1.7982  0.4973
  662MPD2     N 9856   0.704   3.263  16.537 -0.0630  0.3595 -0.2073
  662MPD2    H5 9857   0.729   3.347  16.484  1.6328 -0.2297 -0.3425
  662MPD2    N1 9858   0.883   2.840  16.689 -0.1418  0.4924  0.2794
  662MPD2    H7 9859   0.799   2.822  16.744 -1.0379  2.4885 -0.4460
  663TMC3    C1 9860   0.941   2.665  16.837  0.2727  0.5462 -0.5131
  663TMC3    C2 9861   0.839   2.713  16.915  0.5785  0.1245  0.0295
  663TMC3    C3 9862   0.827   2.653  17.037  0.1004  0.2879 -0.0195
  663TMC3    C4 9863   1.010   2.551  16.860  0.5191  0.4891 -0.5351
  663TMC3    C5 9864   0.965   2.473  16.957  0.1189 -0.9794  0.0864
  663TMC3    C6 9865   0.863   2.516  17.034 -0.8268 -0.0434  0.2130
  663TMC3     C 9866   0.979   2.744  16.723 -0.0037 -0.2093 -0.0143
  663TMC3     O 9867   1.083   2.714  16.667 -0.3295  0.0679  0.4336
  663TMC3     H 9868   0.802   2.815  16.914 -1.0714 -0.4478  1.8922
  663TMC3    H1 9869   1.071   2.504  16.784  1.0361  0.1323  0.1034
  663TMC3    H2 9870   0.836   2.464  17.125 -3.1982 -0.3934 -0.6917
  663TMC3    C7 9871   1.001   2.328  16.955  0.1793  0.3549  0.4642
  663TMC3    C8 9872   0.693   2.681  17.090  0.3378  0.0583  0.0963
  663TMC3    O1 9873   1.109   2.302  16.899  0.2402  0.1311 -0.2307
  663TMC3    O2 9874   0.610   2.692  17.002 -0.4911 -0.5788  0.1451
  664MPD2     C 9875   3.796   1.407  17.624  0.1510 -0.5735 -0.4703
  664MPD2    C1 9876   3.871   1.510  17.669  0.6187 -0.2007 -0.2955
  664MPD2    C2 9877   3.850   1.563   0.038  0.1289 -0.4208 -0.2142
  664MPD2    C3 9878   3.749   1.522   0.116  0.1751 -0.1607  0.4655
  664MPD2    C4 9879   3.653   1.434   0.063 -0.4379 -0.3570 -0.6154
  664MPD2    C5 9880   3.689   1.370  17.700  0.1976  0.3504 -0.3354
  664MPD2     H 9881   3.910   1.645   0.076  1.9454 -1.6935 -0.3202
  664MPD2    H1 9882   3.563   1.403   0.115 -1.3636  2.2438 -0.6490
  664MPD2    H2 9883   3.808   1.376  17.521  0.2635 -0.9015 -0.3579
  664MPD2    H3 9884   3.612   1.303  17.665  2.0146 -1.1093 -1.5453
  664MPD2     N 9885   3.738   1.580   0.239 -0.4049 -0.3260 -0.1065
  664MPD2    H5 9886   3.816   1.643   0.258 -0.1621 -0.6041 -0.1899
  664MPD2    N1 9887   3.966   1.577  17.590 -0.7024 -0.2153  0.2599
  664MPD2    H7 9888   4.006   1.658  17.636  0.0168 -1.0905  1.1545
  665TMC3    C1 9889   3.653   1.636   0.450 -0.9424 -0.1499  0.9447
  665TMC3    C2 9890   3.547   1.696   0.504  0.5189  0.9083  0.5087
  665TMC3    C3 9891   3.581   1.799   0.589  0.8923  0.7414 -0.2195
  665TMC3    C4 9892   3.784   1.655   0.479  0.4232  0.4098  0.1432
  665TMC3    C5 9893   3.810   1.758   0.557  0.0338 -0.6259  0.2263
  665TMC3    C6 9894   3.713   1.828   0.622 -0.0606 -0.0143  0.0143
  665TMC3     C 9895   3.637   1.561   0.332 -0.2495 -0.1335  0.8154
  665TMC3     O 9896   3.521   1.530   0.309  0.1883 -0.7011  0.1277
  665TMC3     H 9897   3.446   1.666   0.479  1.1163  0.4051 -1.3410
  665TMC3    H1 9898   3.863   1.592   0.439 -0.0787 -0.1085 -0.0231
  665TMC3    H2 9899   3.731   1.917   0.680 -0.3222  0.0867 -0.0588
  665TMC3    C7 9900   3.947   1.806   0.554 -0.3573 -0.3885  0.5341
  665TMC3    C8 9901   3.483   1.857   0.682  0.2973 -0.9416  0.3359
  665TMC3    O1 9902   4.013   1.753   0.470 -0.1073 -0.5816 -0.3987
  665TMC3    O2 9903   3.523   1.938   0.763  0.2159  0.0169  0.4702
  666TMC3    C1 9904   2.179   1.222  10.041 -0.3573 -0.6044  0.1559
  666TMC3    C2 9905   2.241   1.171   9.930  0.6580  0.0020 -1.0671
  666TMC3    C3 9906   2.248   1.257   9.819  0.4045  0.2124 -0.3354
  666TMC3    C4 9907   2.121   1.343  10.053  0.1480  0.2755 -0.5985
  666TMC3    C5 9908   2.131   1.424   9.942  0.1303 -0.0820 -0.0334
  666TMC3    C6 9909   2.200   1.383   9.827  0.0987 -0.7732  0.5339
  666TMC3     C 9910   2.166   1.148  10.169 -0.8697  0.1497 -0.0131
  666TMC3     O 9911   2.135   1.205  10.273 -0.2146 -0.5086  0.1970
  666TMC3     H 9912   2.283   1.072   9.918 -0.0322 -0.1989 -1.7674
  666TMC3    H1 9913   2.078   1.372  10.148  0.2134 -0.2565 -0.4055
  666TMC3    H2 9914   2.205   1.442   9.736  1.4633  0.0422  1.1276
  666TMC3    C7 9915   2.142   1.564   9.978 -0.2948  0.4387  0.7058
  666TMC3    C8 9916   2.324   1.216   9.703 -0.0781  0.4617 -0.0059
  666TMC3    O1 9917   2.111   1.601  10.092 -0.0239  0.7048 -0.0676
  666TMC3    O2 9918   2.270   1.128   9.641  0.0340  0.0661 -0.1265
  667MPD2     C 9919   4.597   1.437  14.557  0.2170 -0.1623 -0.5461
  667MPD2    C1 9920   4.498   1.446  14.648 -0.5110  0.4652 -0.3203
  667MPD2    C2 9921   4.407   1.344  14.650  0.6028 -0.1824 -0.5358
  667MPD2    C3 9922   4.417   1.239  14.560 -0.2730 -0.3096  0.6994
  667MPD2    C4 9923   4.523   1.230  14.465 -0.7418 -0.1338 -0.3756
  667MPD2    C5 9924   4.613   1.331  14.477  0.1955 -0.4336  0.5209
  667MPD2     H 9925   4.315   1.350  14.708  1.2689  0.5188  0.4433
  667MPD2    H1 9926   4.538   1.152  14.391 -0.1941 -1.3017  0.9517
  667MPD2    H2 9927   4.673   1.512  14.538  1.2404 -0.2505  3.1748
  667MPD2    H3 9928   4.698   1.342  14.410  1.6551 -0.0447  2.4301
  667MPD2     N 9929   4.309   1.146  14.544 -0.5651  0.2440  0.0334
  667MPD2    H5 9930   4.324   1.066  14.484 -2.3540  0.3342 -0.5470
  667MPD2    N1 9931   4.472   1.558  14.725 -0.2787  0.1707 -0.2458
  667MPD2    H7 9932   4.395   1.556  14.791  0.4482 -3.6664  0.5155
  668TMC3    C1 9933   4.512   1.757  14.846 -1.2303 -0.0852  0.1239
  668TMC3    C2 9934   4.540   1.891  14.847 -0.5877  0.4569 -0.4219
  668TMC3    C3 9935   4.528   1.960  14.965  0.7522 -0.1370 -0.9479
  668TMC3    C4 9936   4.493   1.690  14.964 -1.2188  0.4658 -0.4483
  668TMC3    C5 9937   4.473   1.762  15.076 -0.1950  0.2710 -0.0866
  668TMC3    C6 9938   4.508   1.896  15.083  0.3873  0.3985  0.4444
  668TMC3     C 9939   4.540   1.676  14.725  0.1364 -0.0019  0.5785
  668TMC3     O 9940   4.601   1.732  14.635  0.5959 -0.6305  0.3417
  668TMC3     H 9941   4.564   1.944  14.755  0.3924 -1.1906 -1.1018
  668TMC3    H1 9942   4.475   1.584  14.960 -2.8294  0.6610  1.6456
  668TMC3    H2 9943   4.478   1.945  15.176 -1.6285 -0.9275  0.5046
  668TMC3    C7 9944   4.431   1.697  15.196  0.5215 -0.3155  0.5597
  668TMC3    C8 9945   4.557   2.099  14.979 -0.3526 -0.1921  0.4814
  668TMC3    O1 9946   4.466   1.746  15.300  0.0506  0.4601  0.2357
  668TMC3    O2 9947   4.526   2.148  15.086 -0.2250  0.1523 -0.1722
  669TMC3    C1 9948   2.411   1.387  14.419  0.5592 -0.0701 -0.0044
  669TMC3    C2 9949   2.298   1.384  14.338 -0.3275  0.7705 -0.3687
  669TMC3    C3 9950   2.300   1.472  14.236 -0.5981 -0.5454 -0.6025
  669TMC3    C4 9951   2.524   1.464  14.397  0.8108  0.7410  0.7320
  669TMC3    C5 9952   2.517   1.550  14.295  0.2118 -0.7615 -0.1360
  669TMC3    C6 9953   2.411   1.547  14.209  0.1291  0.6068  0.3533
  669TMC3     C 9954   2.394   1.311  14.549 -0.2290  0.0964 -0.3444
  669TMC3     O 9955   2.277   1.294  14.584  0.6723 -0.0499  0.0512
  669TMC3     H 9956   2.219   1.309  14.343  0.0723  0.1346 -3.4091
  669TMC3    H1 9957   2.621   1.457  14.445  0.8985  2.0143  0.7490
  669TMC3    H2 9958   2.404   1.616  14.126  2.5232  0.8239  0.3192
  669TMC3    C7 9959   2.616   1.656  14.295  0.6287 -0.4777  0.1852
  669TMC3    C8 9960   2.177   1.485  14.162  0.1016  0.1468 -0.6572
  669TMC3    O1 9961   2.663   1.682  14.404  0.0824  0.1355  0.5927
  669TMC3    O2 9962   2.100   1.389  14.162 -0.3281 -0.5757  0.2394
  670MPD2     C 9963   0.547   3.928  13.381  0.2773  0.1635  0.4753
  670MPD2    C1 9964   0.670   3.935  13.442 -0.6778  0.2304 -0.4838
  670MPD2    C2 9965   0.682   3.885  13.569 -0.8597 -0.5220 -0.6919
  670MPD2    C3 9966   0.576   3.837  13.643 -0.2057 -0.5517  0.4165
  670MPD2    C4 9967   0.450   3.857  13.585  0.2902 -0.7202  0.3160
  670MPD2    C5 9968   0.437   3.901  13.455 -0.1329  1.0830  0.0619
  670MPD2     H 9969   0.775   3.894  13.623 -1.5525 -0.1384  0.4230
  670MPD2    H1 9970   0.356   3.844  13.637  0.1490  1.6717  0.6461
  670MPD2    H2 9971   0.534   3.974  13.283  0.4274 -2.3270 -0.7163
  670MPD2    H3 9972   0.342   3.926  13.408 -1.0534 -3.9701 -0.7259
  670MPD2     N 9973   0.590   3.799  13.784  0.0359 -0.1652  0.5355
  670MPD2    H5 9974   0.686   3.803  13.816 -0.4950  2.2455  1.7684
  670MPD2    N1 9975   0.786   3.990  13.373 -0.2212  0.1677  0.1472
  670MPD2    H7 9976   0.875   3.978  13.421  0.5761  2.3513 -0.7920
  671TMC3    C1 9977   0.506   3.765  14.004  0.3761  0.1177  0.0992
  671TMC3    C2 9978   0.635   3.757  14.053  0.0322  0.8032  0.4288
  671TMC3    C3 9979   0.652   3.690  14.174 -0.2432 -0.2247 -1.2620
  671TMC3    C4 9980   0.401   3.726  14.081  0.1893  0.5025 -0.3075
  671TMC3    C5 9981   0.428   3.657  14.195  0.0258 -0.6307  0.1537
  671TMC3    C6 9982   0.549   3.652  14.250 -0.4883  0.3605 -0.0445
  671TMC3     C 9983   0.482   3.767  13.862 -0.0987 -0.0014 -0.4856
  671TMC3     O 9984   0.370   3.735  13.824  0.0384 -0.0412 -0.1725
  671TMC3     H 9985   0.721   3.788  13.994 -0.6634 -2.5458 -2.3544
  671TMC3    H1 9986   0.298   3.713  14.049 -0.0214  2.6689 -0.4518
  671TMC3    H2 9987   0.565   3.572  14.321  0.6841  1.2190  0.6396
  671TMC3    C7 9988   0.375   3.526  14.181  0.7595 -0.7469  0.9044
  671TMC3    C8 9989   0.775   3.614  14.178  0.3418  0.6583 -1.1934
  671TMC3    O1 9990   0.452   3.449  14.129 -0.3448 -0.0455  0.9669
  671TMC3    O2 9991   0.833   3.606  14.071  0.2092  0.0557  0.0774
  672MPD2     C 9992   1.726   0.095   0.506 -0.0762  0.6349  0.0296
  672MPD2    C1 9993   1.683   4.732   0.583  0.3718 -0.0239  0.7066
  672MPD2    C2 9994   1.682   0.009   0.723  0.4594  0.6459  0.6992
  672MPD2    C3 9995   1.722   0.126   0.784  0.2407  0.3557 -0.0409
  672MPD2    C4 9996   1.745   0.234   0.699  0.6092 -0.6710  0.7705
  672MPD2    C5 9997   1.743   0.218   0.562  0.0058  0.2996  0.8741
  672MPD2     H 9998   1.648   4.669   0.789  0.4740 -0.4093 -0.5640
  672MPD2    H1 9999   1.776   0.329   0.740  0.1774 -0.2717  0.1696
  672MPD2    H210000   1.723   0.094   0.397 -0.7506 -0.4616  0.0565
  672MPD2    H310001   1.764   0.299   0.493 -0.4406 -0.5252 -0.2091
  672MPD2     N10002   1.718   0.153   0.926 -0.4275 -0.7731 -0.1406
  672MPD2    H510003   1.730   0.251   0.949 -0.0450 -0.2820 -2.4491
  672MPD2    N110004   1.632   4.608   0.519 -0.0105 -0.3871 -0.4735
  672MPD2    H710005   1.604   4.535   0.583  1.8220 -1.4373 -0.8732
  673TMC3    C110006   1.527   4.462   0.366  0.5475  0.3486  0.3940
  673TMC3    C210007   1.567   4.363   0.440  0.5118 -0.4566  0.2754
  673TMC3    C310008   1.485   4.250   0.438 -0.7175 -0.5711  0.3991
  673TMC3    C410009   1.415   4.469   0.285  0.7566 -0.2410 -0.1980
  673TMC3    C510010   1.329   4.366   0.299 -0.1106 -0.5533 -0.1524
  673TMC3    C610011   1.366   4.256   0.368  0.2940 -0.0676 -0.3356
  673TMC3     C10012   1.593   4.591   0.390  1.2151  0.9264 -0.4532
  673TMC3     O10013   1.588   4.683   0.309 -0.0414 -0.5194 -0.1610
  673TMC3     H10014   1.665   4.364   0.487  0.0471 -2.0099  1.2572
  673TMC3    H110015   1.392   4.566   0.241  1.2617 -1.1551 -2.4916
  673TMC3    H210016   1.306   4.166   0.359  0.4531 -0.1081 -0.9997
  673TMC3    C710017   1.209   4.368   0.229 -0.1635  0.4789 -0.6050
  673TMC3    C810018   1.532   4.124   0.492 -0.3514 -0.0029 -0.0357
  673TMC3    O110019   1.160   4.260   0.209  0.0044 -0.7507 -0.3701
  673TMC3    O210020   1.476   4.023   0.455  0.1321  0.6260  0.0793
  674MPD2     C10021   1.260   4.475  17.647  0.4712 -0.1901 -0.3115
  674MPD2    C110022   1.234   4.350  17.594  0.4888  0.0753  0.9800
  674MPD2    C210023   1.127   4.335  17.506 -0.0713  0.3570 -0.7211
  674MPD2    C310024   1.047   4.438  17.469 -0.3241  0.6986 -0.4145
  674MPD2    C410025   1.078   4.562  17.519 -0.1238 -0.8906  0.0554
  674MPD2    C510026   1.177   4.577  17.611 -0.3614 -0.0641 -0.7002
  674MPD2     H10027   1.097   4.239  17.464 -0.4451 -0.0922  0.5997
  674MPD2    H110028   1.025   4.653  17.493 -0.1950 -1.1849 -0.8027
  674MPD2    H210029   1.342   4.490  17.716  0.0532  2.0060 -0.2791
  674MPD2    H310030   1.203   4.671  17.659  0.3523  0.3381 -1.8809
  674MPD2     N10031   0.937   4.416  17.374 -0.2987  0.4217 -0.2298
  674MPD2    H510032   0.918   4.324  17.335  2.7262 -0.7005  0.9281
  674MPD2    N110033   1.295   4.237  17.650 -0.0716 -0.0270 -0.5958
  674MPD2    H710034   1.368   4.260  17.718 -0.0387 -0.6823 -0.4122
  675TMC3    C110035   1.330   4.021  17.733  0.2095 -0.0160 -0.2237
  675TMC3    C210036   1.250   3.937   0.045 -0.5580  0.3832 -0.1909
  675TMC3    C310037   1.297   3.888   0.158 -0.0609  0.7993 -0.0112
  675TMC3    C410038   1.462   4.038   0.017 -0.0667  0.8795 -0.2603
  675TMC3    C510039   1.509   3.966   0.121  0.1084  0.5733  0.0137
  675TMC3    C610040   1.428   3.886   0.194 -0.8267  0.1934  0.1312
  675TMC3     C10041   1.261   4.104  17.643 -0.1115 -0.2837 -0.5453
  675TMC3     O10042   1.157   4.057  17.592  0.5112 -0.1273 -0.7733
  675TMC3     H10043   1.145   3.923   0.021 -0.4507 -1.1758  0.2395
  675TMC3    H110044   1.522   4.110  17.718  0.4143  0.6834  0.0208
  675TMC3    H210045   1.467   3.835   0.281 -1.9201 -0.3511  0.2996
  675TMC3    C710046   1.645   3.989   0.174  0.4126  0.3075 -0.0084
  675TMC3    C810047   1.194   3.847   0.248  0.0624  0.2416  0.5261
  675TMC3    O110048   1.696   3.896   0.233 -0.7472 -0.3989 -0.3686
  675TMC3    O210049   1.090   3.809   0.200 -0.5203 -0.0004 -0.0614
  676MPD2     C10050   2.824   2.539  10.756  0.1347 -0.1860  0.0317
  676MPD2    C110051   2.872   2.449  10.847 -0.8162  0.8027  0.5822
  676MPD2    C210052   2.967   2.359  10.798  0.6083 -0.2157  0.5442
  676MPD2    C310053   3.012   2.352  10.669  0.5540 -0.3412 -0.0168
  676MPD2    C410054   2.971   2.454  10.579  0.6424 -0.5336 -0.0565
  676MPD2    C510055   2.873   2.534  10.632 -0.2924  0.2339 -0.4058
  676MPD2     H10056   3.002   2.292  10.875 -0.5783  1.1823  2.2930
  676MPD2    H110057   3.002   2.459  10.475 -0.9434 -0.2112 -0.5250
  676MPD2    H210058   2.743   2.608  10.778 -0.0798  0.0663 -1.5466
  676MPD2    H310059   2.841   2.616  10.569 -1.1136  1.8388  2.0672
  676MPD2     N10060   3.092   2.241  10.630  0.2220  0.1555  0.3061
  676MPD2    H510061   3.118   2.181  10.708 -0.1677  0.5725  0.7533
  676MPD2    N110062   2.831   2.451  10.980  0.0625  0.2112  0.1814
  676MPD2    H710063   2.869   2.376  11.038 -1.3600  0.7384  1.7753
  677TMC3    C110064   2.682   2.513  11.156 -0.4789 -0.0927  0.0150
  677TMC3    C210065   2.709   2.392  11.216 -0.3333  0.5640 -0.0102
  677TMC3    C310066   2.658   2.375  11.340  0.3321  0.3994  0.3850
  677TMC3    C410067   2.619   2.617  11.223  0.1472  0.6446  0.4020
  677TMC3    C510068   2.574   2.590  11.353 -0.3252  0.0495  0.7430
  677TMC3    C610069   2.592   2.469  11.411 -0.0631 -0.4946 -0.3616
  677TMC3     C10070   2.744   2.542  11.032  0.6374 -0.1948 -0.0927
  677TMC3     O10071   2.724   2.660  11.002 -0.1151  0.2029 -0.5429
  677TMC3     H10072   2.753   2.307  11.165 -0.0549 -0.2271  1.5545
  677TMC3    H110073   2.590   2.713  11.180 -0.2283  0.8037  1.0079
  677TMC3    H210074   2.575   2.456  11.517  0.8266  0.6018 -0.0890
  677TMC3    C710075   2.510   2.694  11.434  0.1057  0.0667  0.3886
  677TMC3    C810076   2.721   2.269  11.415 -0.0677 -0.4601 -0.0011
  677TMC3    O110077   2.424   2.668  11.519 -0.0134 -0.0851 -0.1146
  677TMC3    O210078   2.822   2.230  11.365 -0.0565  0.2280 -0.4154
  678MPD2     C10079   0.853   2.541   1.298 -0.1548 -0.4301  0.5534
  678MPD2    C110080   0.813   2.648   1.218  0.9524  0.0276 -0.4516
  678MPD2    C210081   0.695   2.640   1.145  0.3378  1.3521  0.1081
  678MPD2    C310082   0.632   2.517   1.142 -0.2880  0.2240 -0.7018
  678MPD2    C410083   0.675   2.408   1.223  0.5000 -0.6026 -1.5055
  678MPD2    C510084   0.785   2.423   1.299  1.1022 -0.9490  0.1625
  678MPD2     H10085   0.665   2.723   1.082 -0.7868 -0.2098 -1.3889
  678MPD2    H110086   0.624   2.313   1.215 -0.3740 -0.0967 -1.9839
  678MPD2    H210087   0.945   2.550   1.353 -0.7131 -0.6503  1.5289
  678MPD2    H310088   0.817   2.347   1.369 -0.2189 -0.3462  1.4221
  678MPD2     N10089   0.510   2.509   1.071 -0.5553 -0.4663 -0.1214
  678MPD2    H510090   0.473   2.592   1.026 -0.1454  0.6815  1.6852
  678MPD2    N110091   0.887   2.768   1.216 -0.2950  0.2192  1.0788
  678MPD2    H710092   0.848   2.845   1.163  2.2681  1.4166  0.9575
  679TMC3    C110093   1.316   2.917   1.131 -0.1962 -0.0216  0.1181
  679TMC3    C210094   1.229   2.878   1.225 -0.1628 -0.1090 -0.3609
  679TMC3    C310095   1.089   2.889   1.207  0.1663  0.1665  0.2157
  679TMC3    C410096   1.276   2.963   1.012 -0.1467  0.2120  0.5155
  679TMC3    C510097   1.134   2.982   0.988 -0.5403  0.0748 -0.5980
  679TMC3    C610098   1.049   2.937   1.083 -0.6702 -0.2251  0.0179
  679TMC3     C10099   1.439   2.851   1.125 -0.0548  0.0038  0.0823
  679TMC3     O10100   1.442   2.731   1.157 -0.6161  0.7538  0.0006
  679TMC3     H10101   1.272   2.832   1.313 -1.3430 -1.1358 -0.3202
  679TMC3    H110102   1.345   2.984   0.931 -0.4009  1.2183  0.5582
  679TMC3    H210103   0.944   2.957   1.064 -0.7567  0.5413  1.2763
  679TMC3    C710104   1.088   2.963   0.852  0.2390  0.2505  0.8340
  679TMC3    C810105   1.014   2.792   1.273 -0.9777 -0.0481 -0.3359
  679TMC3    O110106   0.979   2.905   0.844 -0.1273 -0.1239 -0.1766
  679TMC3    O210107   1.073   2.713   1.347  0.1932  0.5824 -0.0075
  680MPD2     C10108   0.034   1.210  13.711 -0.2835  0.4098  0.0043
  680MPD2    C110109   0.145   1.153  13.763  0.1074  0.3260  0.7125
  680MPD2    C210110   0.263   1.215  13.756 -0.1902 -0.0626  0.4885
  680MPD2    C310111   0.284   1.340  13.692  0.3759 -0.0044 -1.0054
  680MPD2    C410112   0.171   1.399  13.638  0.0658  0.4945  0.1639
  680MPD2    C510113   0.047   1.334  13.647 -0.6898  0.6913 -0.5928
  680MPD2     H10114   0.353   1.170  13.797  0.6348  0.2852 -0.9223
  680MPD2    H110115   0.165   1.496  13.591 -0.9533  0.4991  0.3090
  680MPD2    H210116   4.676   1.163  13.721 -0.5045  0.0232 -3.8382
  680MPD2    H310117   4.701   1.386  13.604 -0.0534  0.1037 -2.5589
  680MPD2     N10118   0.408   1.401  13.696 -0.4144  0.0029 -0.0888
  680MPD2    H510119   0.488   1.355  13.738 -0.2783 -0.3668 -0.7538
  680MPD2    N110120   0.145   1.027  13.826 -0.1670  0.4708 -0.1058
  680MPD2    H710121   0.234   1.000  13.865  0.0270  0.3500 -0.6398
  681TMC3    C110122   0.072   0.840  13.936 -0.4481 -0.7743 -0.4077
  681TMC3    C210123   4.727   0.825  14.043 -0.0318  0.3369 -0.0932
  681TMC3    C310124   0.046   0.779  14.160  0.9013 -0.0229 -0.2601
  681TMC3    C410125   0.205   0.805  13.940  0.1423  0.0797  0.4927
  681TMC3    C510126   0.250   0.743  14.058 -0.3798  0.8004 -0.0010
  681TMC3    C610127   0.170   0.728  14.166  0.5512 -0.4280  0.3844
  681TMC3     C10128   0.034   0.953  13.854  0.9827  0.3916 -0.1103
  681TMC3     O10129   4.654   0.978  13.845 -0.1292  0.4338 -0.3025
  681TMC3     H10130   4.641   0.892  14.044 -0.2609  0.0702 -1.3724
  681TMC3    H110131   0.267   0.813  13.852 -2.5169  1.3263 -1.2932
  681TMC3    H210132   0.199   0.681  14.259  3.8376 -0.5198 -0.6882
  681TMC3    C710133   0.359   0.650  14.046  0.3433  0.0592 -0.1288
  681TMC3    C810134   4.736   0.838  14.281 -0.1823  0.8622 -0.2787
  681TMC3    O110135   0.365   0.571  14.140 -0.1040  0.0261  0.8635
  681TMC3    O210136   4.616   0.842  14.292  0.4986 -0.0241  0.0351
  682MPD2     C10137   2.178   2.655  10.745 -0.6373  0.7216 -0.6188
  682MPD2    C110138   2.140   2.522  10.738 -0.3595  0.5863  0.1579
  682MPD2    C210139   2.050   2.470  10.833 -0.5805  0.8418  0.0637
  682MPD2    C310140   1.992   2.549  10.923  0.0381 -0.2016 -0.0107
  682MPD2    C410141   2.023   2.679  10.912 -0.1651  0.2321  0.4673
  682MPD2    C510142   2.128   2.735  10.841 -0.1243  0.0699 -0.3585
  682MPD2     H10143   2.033   2.363  10.831 -0.2835  0.7824  0.8024
  682MPD2    H110144   1.981   2.754  10.979 -1.4641 -0.9720  0.9789
  682MPD2    H210145   2.254   2.695  10.678  2.0250  0.2723  2.1390
  682MPD2    H310146   2.163   2.837  10.847 -2.7221  0.8878  0.7767
  682MPD2     N10147   1.885   2.505  11.006 -0.9933 -0.1632  0.0989
  682MPD2    H510148   1.837   2.582  11.051 -0.4267  0.1544  0.1515
  682MPD2    N110149   2.179   2.436  10.633 -0.2575  0.0586 -0.1372
  682MPD2    H710150   2.144   2.341  10.635  0.2997 -0.1269  0.8648
  683TMC3    C110151   1.592   2.455  11.300 -0.0609 -0.0240  0.1112
  683TMC3    C210152   1.507   2.346  11.291 -0.4072 -0.8350  0.4813
  683TMC3    C310153   1.532   2.255  11.196 -0.0030  0.1708  0.0605
  683TMC3    C410154   1.695   2.475  11.212 -0.6714 -0.0101 -0.4246
  683TMC3    C510155   1.704   2.384  11.114 -0.4936 -0.3616 -0.3067
  683TMC3    C610156   1.626   2.277  11.104  0.5460  0.6417  0.4344
  683TMC3     C10157   1.590   2.546  11.414 -0.1658  0.1338  0.1782
  683TMC3     O10158   1.659   2.643  11.410 -0.1186  0.1837  0.7374
  683TMC3     H10159   1.411   2.353  11.341 -1.7115  0.4110 -2.1872
  683TMC3    H110160   1.761   2.561  11.219 -2.8984  1.8329 -2.2040
  683TMC3    H210161   1.658   2.190  11.048  0.3359  0.5467  0.4632
  683TMC3    C710162   1.817   2.381  11.017 -0.5514 -0.8938 -0.2536
  683TMC3    C810163   1.454   2.132  11.171  0.5522  0.7703  0.2529
  683TMC3    O110164   1.852   2.276  10.964  0.2109 -0.4325  0.3719
  683TMC3    O210165   1.471   2.075  11.063  0.2908 -0.3827 -0.4250
  684MPD2     C10166   0.527   2.202  16.357 -0.4674  1.0134  0.6321
  684MPD2    C110167   0.552   2.192  16.226 -0.2529 -0.5041  0.1053
  684MPD2    C210168   0.623   2.292  16.161  0.3497 -0.2711  0.1058
  684MPD2    C310169   0.671   2.407  16.217 -0.9469 -0.0356  0.9158
  684MPD2    C410170   0.656   2.405  16.353 -0.3969  0.2336  0.0893
  684MPD2    C510171   0.585   2.307  16.417  0.4743 -0.5654 -0.3050
  684MPD2     H10172   0.644   2.272  16.056  0.9534 -1.4549  0.4505
  684MPD2    H110173   0.686   2.490  16.412 -2.2170  1.8018 -1.2539
  684MPD2    H210174   0.475   2.126  16.414 -0.8526  1.9991  1.5871
  684MPD2    H310175   0.574   2.321  16.524  0.6316  2.7557 -0.7195
  684MPD2     N10176   0.763   2.499  16.166  0.2059 -0.0929 -0.6969
  684MPD2    H510177   0.819   2.547  16.236  1.4882  0.7617 -2.2868
  684MPD2    N110178   0.510   2.077  16.149  0.1094 -0.4638  0.1248
  684MPD2    H710179   0.535   2.076  16.051 -0.4742  0.7988 -0.0391
  685TMC3    C110180   0.476   1.853  16.101  0.5747 -0.5635 -1.0105
  685TMC3    C210181   0.422   1.882  15.981  0.6808  0.1610 -0.6295
  685TMC3    C310182   0.489   1.825  15.872  0.4007  0.3397 -0.2751
  685TMC3    C410183   0.589   1.776  16.121  0.3098 -0.5986  0.0671
  685TMC3    C510184   0.640   1.722  16.013  0.9988 -0.1149  0.1360
  685TMC3    C610185   0.603   1.744  15.884 -0.1995  0.2050 -0.4048
  685TMC3     C10186   0.482   1.956  16.201 -0.2330 -0.5592 -0.5817
  685TMC3     O10187   0.460   1.922  16.317 -0.3606 -0.0584  0.4299
  685TMC3     H10188   0.347   1.959  15.970  0.6168  0.0554 -0.9481
  685TMC3    H110189   0.638   1.778  16.217  0.1793  2.1429  0.0636
  685TMC3    H210190   0.652   1.689  15.804 -0.2588 -0.0485 -0.2660
  685TMC3    C710191   0.775   1.699  16.031 -0.8349  0.6955  1.5732
  685TMC3    C810192   0.406   1.811  15.750  0.3535  0.0426 -0.3147
  685TMC3    O110193   0.820   1.665  16.137  0.5347 -0.8295 -0.1503
  685TMC3    O210194   0.452   1.788  15.644  0.6200 -0.6351 -0.0057
  686MPD2     C10195   1.988   2.623  16.045  0.2208  0.6915 -0.1363
  686MPD2    C110196   2.033   2.499  16.000 -0.4236  0.4634 -0.0218
  686MPD2    C210197   2.161   2.490  15.947 -0.1384 -0.2589 -0.1766
  686MPD2    C310198   2.240   2.597  15.916 -0.2362  0.4124 -0.6044
  686MPD2    C410199   2.179   2.721  15.939 -0.4263  0.5730  0.2556
  686MPD2    C510200   2.053   2.729  15.999  0.0297 -0.2540 -0.3114
  686MPD2     H10201   2.200   2.395  15.913  0.0857 -0.4828  0.6842
  686MPD2    H110202   2.221   2.817  15.912 -1.0246  0.9402  0.6189
  686MPD2    H210203   1.895   2.630  16.100  0.6592 -1.4543  0.8887
  686MPD2    H310204   2.011   2.827  16.022  1.6006  0.8158 -2.0281
  686MPD2     N10205   2.365   2.591  15.850  0.6168  0.0098  0.3649
  686MPD2    H510206   2.399   2.679  15.812 -0.2896 -0.5369 -1.7034
  686MPD2    N110207   1.950   2.385  16.013  0.1444 -0.0088  0.6798
  686MPD2    H710208   1.853   2.412  16.027 -0.8392 -2.0145 -2.3556
  687TMC3    C110209   2.552   2.490  15.764  0.8818  0.8570  0.1458
  687TMC3    C210210   2.508   2.478  15.634 -0.0684 -0.2605  0.1456
  687TMC3    C310211   2.552   2.373  15.553 -0.5816  0.0127  0.6507
  687TMC3    C410212   2.651   2.410  15.801 -0.2689 -0.6474 -0.0271
  687TMC3    C510213   2.707   2.315  15.717 -0.0785  0.1148  0.4317
  687TMC3    C610214   2.661   2.297  15.592  0.2660 -0.3986 -0.3593
  687TMC3     C10215   2.441   2.480  15.853  0.4813  0.4995  0.4496
  687TMC3     O10216   2.426   2.377  15.923  0.2306 -0.1610  0.4541
  687TMC3     H10217   2.422   2.537  15.607  0.2926  0.6564  1.0413
  687TMC3    H110218   2.675   2.412  15.907  0.1668  2.8706 -0.1885
  687TMC3    H210219   2.698   2.221  15.524  1.1085 -0.4983  0.2039
  687TMC3    C710220   2.728   2.192  15.794  0.5175 -0.0298  0.5134
  687TMC3    C810221   2.435   2.289  15.520 -0.3031  0.6391 -0.5634
  687TMC3    O110222   2.815   2.187  15.876  0.5661  0.5124 -0.4567
  687TMC3    O210223   2.448   2.172  15.542 -0.1345  0.2606  0.5043
  688MPD2     C10224   1.406   1.200  17.290  0.1714  0.3080  0.5504
  688MPD2    C110225   1.383   1.070  17.313 -0.1864 -0.1368 -0.3117
  688MPD2    C210226   1.412   0.970  17.220  0.3975 -0.0801  0.0667
  688MPD2    C310227   1.444   1.009  17.088 -0.3616  0.0104  0.3369
  688MPD2    C410228   1.460   1.143  17.061  0.0181  0.0317  0.3557
  688MPD2    C510229   1.449   1.237  17.166 -0.3051  0.0497  0.7939
  688MPD2     H10230   1.403   0.862  17.232  0.0386 -0.0995 -0.3368
  688MPD2    H110231   1.466   1.183  16.960 -1.0460  1.5266  0.8779
  688MPD2    H210232   1.366   1.282  17.348  1.4571  0.7017  0.8897
  688MPD2    H310233   1.457   1.340  17.133 -1.4039  0.7605  2.7729
  688MPD2     N10234   1.439   0.926  16.976 -0.0495 -0.1579 -0.2324
  688MPD2    H510235   1.457   0.962  16.882  0.9909 -0.2795 -0.0785
  688MPD2    N110236   1.340   1.024  17.442 -0.8344 -0.1188  0.1711
  688MPD2    H710237   1.314   0.925  17.443 -1.1991 -0.0018  1.6655
  689TMC3    C110238   1.276   1.039  17.680  0.6623 -0.0288  0.1757
  689TMC3    C210239   1.260   1.126   0.031 -0.0888 -0.3822 -0.3108
  689TMC3    C310240   1.189   1.077   0.134  0.4103  0.5237 -0.7005
  689TMC3    C410241   1.220   0.915  17.666  0.7803  0.1331  0.6709
  689TMC3    C510242   1.153   0.878   0.020  0.6156 -0.0213 -0.1400
  689TMC3    C610243   1.135   0.948   0.133  0.5380  0.1867 -0.0982
  689TMC3     C10244   1.343   1.094  17.563 -0.2461 -0.8226  0.0014
  689TMC3     O10245   1.391   1.203  17.579  0.5442  0.1388  0.0697
  689TMC3     H10246   1.278   1.233   0.029  0.8645 -0.5132  1.6855
  689TMC3    H110247   1.248   0.843  17.590  1.8941  3.3478 -1.9538
  689TMC3    H210248   1.074   0.907   0.213  0.3287  2.8373  1.1040
  689TMC3    C710249   1.128   0.738   0.041  0.2060  0.0487  0.2764
  689TMC3    C810250   1.212   1.128   0.276  0.2437  0.3375 -0.3295
  689TMC3    O110251   1.109   0.705   0.153 -0.2214  0.1657  0.3090
  689TMC3    O210252   1.149   1.078   0.368 -0.1105 -0.1527  0.0542
  690MPD2     C10253   3.837   2.409  15.782  0.5536  0.2779 -0.6700
  690MPD2    C110254   3.739   2.419  15.686 -0.2254 -0.9873 -0.4714
  690MPD2    C210255   3.785   2.442  15.560  0.2819 -0.6905  0.3693
  690MPD2    C310256   3.917   2.468  15.524  0.3378 -0.0222  0.6812
  690MPD2    C410257   4.010   2.471  15.628 -0.4949 -0.0488 -0.3718
  690MPD2    C510258   3.967   2.441  15.759  0.1554 -0.1188 -0.0538
  690MPD2     H10259   3.709   2.435  15.483  0.8182  0.1278 -0.2372
  690MPD2    H110260   4.117   2.482  15.613 -1.2165  3.1434 -3.1998
  690MPD2    H210261   3.804   2.411  15.885  1.9866  0.0105 -0.2071
  690MPD2    H310262   4.035   2.440  15.844  0.0704  0.9114  0.0221
  690MPD2     N10263   3.945   2.499  15.391 -0.1456  0.1125 -0.7191
  690MPD2    H510264   3.864   2.515  15.333  1.7340  0.6332 -3.2095
  690MPD2    N110265   3.603   2.405  15.720 -0.5144 -0.0040 -0.3826
  690MPD2    H710266   3.533   2.414  15.647 -0.8830  0.5999  0.0455
  691TMC3    C110267   3.435   2.270  15.803 -0.6309  0.3953  0.3000
  691TMC3    C210268   3.323   2.325  15.753 -0.9670 -0.5537 -0.4026
  691TMC3    C310269   3.210   2.253  15.753  0.4726 -0.4243 -0.1546
  691TMC3    C410270   3.438   2.143  15.846  0.0841  0.6810 -0.5577
  691TMC3    C510271   3.325   2.071  15.842 -0.0792  0.4589 -0.3075
  691TMC3    C610272   3.209   2.123  15.794 -0.5163  0.3865  0.5800
  691TMC3     C10273   3.554   2.351  15.831  0.0516  0.7298  0.5210
  691TMC3     O10274   3.595   2.337  15.944  0.5807  0.0458  0.6091
  691TMC3     H10275   3.313   2.429  15.723 -0.8243 -0.2832  0.4947
  691TMC3    H110276   3.523   2.092  15.889 -0.2447 -0.6410 -1.4547
  691TMC3    H210277   3.111   2.077  15.797  0.0867 -0.9350 -0.3275
  691TMC3    C710278   3.335   1.936  15.896  0.1119 -0.3410 -0.2878
  691TMC3    C810279   3.108   2.303  15.676 -0.1923 -0.6072 -0.3131
  691TMC3    O110280   3.442   1.899  15.937 -0.4039  0.0197  0.4790
  691TMC3    O210281   3.052   2.216  15.607  0.9055  0.8960 -0.3222
  692TMC3    C110282   0.237   3.229  15.518 -0.8521 -0.0135  0.1362
  692TMC3    C210283   0.311   3.344  15.540 -0.0390 -0.1216 -0.6725
  692TMC3    C310284   0.446   3.342  15.531  0.3035 -0.3615 -0.2950
  692TMC3    C410285   0.299   3.120  15.470  0.6758  0.3767  0.6657
  692TMC3    C510286   0.433   3.126  15.448 -0.1886  0.4448 -0.0404
  692TMC3    C610287   0.512   3.233  15.474 -0.6416  0.1392 -0.1704
  692TMC3     C10288   0.116   3.208  15.606  0.4689 -0.2598  0.0171
  692TMC3     O10289   0.092   3.284  15.705  0.3997  0.1193 -0.1446
  692TMC3     H10290   0.265   3.411  15.612  1.7148  0.1583  0.1699
  692TMC3    H110291   0.248   3.027  15.449 -0.1798  1.3613 -1.6613
  692TMC3    H210292   0.609   3.241  15.427 -0.1466 -1.5933  0.5279
  692TMC3    C710293   0.500   3.002  15.414  0.8230 -0.1716 -0.4830
  692TMC3    C810294   0.514   3.474  15.508  0.1499  0.7718 -0.3849
  692TMC3    O110295   0.450   2.927  15.335  0.2041 -0.5800 -0.2132
  692TMC3    O210296   0.634   3.478  15.518 -0.3842  0.7312  0.5876
  693MPD2     C10297   4.233   1.821  10.386  0.7234  0.5588  0.1338
  693MPD2    C110298   4.178   1.774  10.500 -0.0256 -0.7157 -0.2161
  693MPD2    C210299   4.243   1.689  10.580  0.4399 -0.4843  0.2741
  693MPD2    C310300   4.371   1.651  10.547  0.8273  0.6860  0.1337
  693MPD2    C410301   4.430   1.707  10.440  0.0064 -0.1750  0.1455
  693MPD2    C510302   4.361   1.783  10.351 -0.2448 -1.0334 -0.1765
  693MPD2     H10303   4.191   1.660  10.670  1.2978  0.9425  1.2303
  693MPD2    H110304   4.528   1.683  10.399  0.1235  0.5220  0.0094
  693MPD2    H210305   4.177   1.883  10.316 -0.8914 -2.2248 -1.0439
  693MPD2    H310306   4.404   1.821  10.259  1.9394  1.0985  1.7234
  693MPD2     N10307   4.447   1.556  10.631  0.1491  0.2458 -0.2536
  693MPD2    H510308   4.539   1.538  10.594  0.3521 -1.1876  0.9150
  693MPD2    N110309   4.045   1.804  10.536 -0.7654 -0.5705  0.4307
  693MPD2    H710310   4.006   1.780  10.627 -1.4413 -1.3183 -0.0537
  694TMC3    C110311   3.827   1.880  10.528  0.1564 -0.6674 -0.1078
  694TMC3    C210312   3.717   1.810  10.482  0.2080 -0.4597  0.5557
  694TMC3    C310313   3.618   1.776  10.569  0.4814  0.1823 -0.3978
  694TMC3    C410314   3.833   1.920  10.658 -0.0080  0.6381  0.4934
  694TMC3    C510315   3.738   1.871  10.740  0.5715 -0.0535  0.8073
  694TMC3    C610316   3.626   1.801  10.695 -0.0445  0.2465  0.0090
  694TMC3     C10317   3.948   1.851  10.453 -0.1358  0.3545 -0.3510
  694TMC3     O10318   3.943   1.875  10.334  0.7702  0.8556 -0.4852
  694TMC3     H10319   3.722   1.779  10.378  0.1306  0.3395  0.3189
  694TMC3    H110320   3.917   1.977  10.696 -0.5390  0.8664  1.3186
  694TMC3    H210321   3.546   1.764  10.759 -0.1431  3.0309  1.4753
  694TMC3    C710322   3.768   1.857  10.881  0.3775 -0.0273  0.3080
  694TMC3    C810323   3.524   1.678  10.522  0.2512 -0.8937 -0.5720
  694TMC3    O110324   3.821   1.950  10.938  0.3985  0.3736 -0.0340
  694TMC3    O210325   3.458   1.612  10.601  0.1549 -0.5220  0.0407
  695MPD2     C10326   1.082   3.192  13.372  0.5123 -0.3002  0.1475
  695MPD2    C110327   1.037   3.172  13.500 -0.3751 -0.4381 -0.7587
  695MPD2    C210328   0.902   3.182  13.524  0.4779 -0.0264  0.0928
  695MPD2    C310329   0.814   3.215  13.419  0.0123 -0.2010  0.4888
  695MPD2    C410330   0.865   3.245  13.295  0.1411 -0.1242  0.8934
  695MPD2    C510331   0.999   3.230  13.271 -0.5411  0.3550  0.0444
  695MPD2     H10332   0.853   3.190  13.621 -1.3122 -2.4954 -0.6120
  695MPD2    H110333   0.802   3.278  13.213 -1.2646 -3.1495  0.7405
  695MPD2    H210334   1.189   3.200  13.355  0.4103 -2.3807 -1.3383
  695MPD2    H310335   1.037   3.253  13.172  0.2262 -1.3191 -0.0590
  695MPD2     N10336   0.677   3.217  13.447  1.3325  0.2051 -0.0325
  695MPD2    H510337   0.645   3.208  13.543  0.0854  0.1854 -0.4514
  695MPD2    N110338   1.117   3.151  13.611 -0.1443 -0.4441 -0.8491
  695MPD2    H710339   1.070   3.152  13.701  0.0195  0.8544 -0.7736
  696TMC3    C110340   0.440   3.223  13.417 -0.3567 -0.3248  0.2170
  696TMC3    C210341   0.409   3.178  13.550  0.1997  0.0504  0.4652
  696TMC3    C310342   0.289   3.210  13.598  0.6702  0.3463 -0.3385
  696TMC3    C410343   0.337   3.282  13.342 -0.0754 -0.6968  0.0354
  696TMC3    C510344   0.217   3.308  13.396  0.5869  0.3610 -0.3617
  696TMC3    C610345   0.187   3.260  13.523 -0.5365 -0.8615  0.3579
  696TMC3     C10346   0.575   3.221  13.353  0.5492 -0.6640  0.0955
  696TMC3     O10347   0.577   3.207  13.232  0.2718  0.4791  0.3616
  696TMC3     H10348   0.496   3.144  13.606  1.2239  1.3599 -0.3539
  696TMC3    H110349   0.367   3.319  13.244  1.4124 -0.8916  0.4098
  696TMC3    H210350   0.087   3.282  13.558 -1.2500 -2.4113 -0.7204
  696TMC3    C710351   0.167   3.431  13.357 -0.0383  0.1594  0.2019
  696TMC3    C810352   0.286   3.225  13.741  0.2476 -0.5069 -0.2927
  696TMC3    O110353   0.179   3.459  13.237  0.0515  0.4071  0.0698
  696TMC3    O210354   0.381   3.207  13.816 -0.2095 -0.4076  0.5161
  697MPD2     C10355   4.584   0.501  15.723 -0.2682  0.2390 -0.2778
  697MPD2    C110356   4.606   0.454  15.590  0.2766  0.4104 -0.4662
  697MPD2    C210357   4.632   0.549  15.489 -0.2011 -0.5282 -0.0679
  697MPD2    C310358   4.628   0.687  15.513 -0.5996  0.4755  0.3855
  697MPD2    C410359   4.592   0.723  15.638  0.7467  0.4955 -0.3345
  697MPD2    C510360   4.567   0.635  15.744 -0.2252 -0.3293  0.1823
  697MPD2     H10361   4.663   0.518  15.390  0.3121  1.7252 -0.6190
  697MPD2    H110362   4.574   0.824  15.671 -0.1847  1.0969 -2.7015
  697MPD2    H210363   4.578   0.428  15.802  0.4013 -1.0923 -1.4476
  697MPD2    H310364   4.535   0.681  15.837  0.0310  0.2743 -0.0330
  697MPD2     N10365   4.664   0.777  15.411  0.0028 -0.3020 -0.0831
  697MPD2    H510366   4.692   0.743  15.319  0.4751  1.1416 -0.4886
  697MPD2    N110367   4.624   0.312  15.564  0.0898  0.0964 -0.1407
  697MPD2    H710368   4.651   0.292  15.468 -1.5609  1.0042 -0.7991
  698TMC3    C110369   4.738   0.978  15.319 -0.1908 -0.1860  0.0548
  698TMC3    C210370   0.073   1.094  15.329  0.0782  0.9476 -0.2345
  698TMC3    C310371   0.163   1.134  15.231 -0.2286 -0.1719 -0.2745
  698TMC3    C410372   0.015   0.905  15.209  0.3192 -0.2780 -0.6465
  698TMC3    C510373   0.109   0.949  15.119 -0.0188 -0.3010 -0.2499
  698TMC3    C610374   0.187   1.058  15.126 -0.1655  0.1906 -0.4073
  698TMC3     C10375   4.683   0.916  15.437  0.2206  0.2093  0.0654
  698TMC3     O10376   4.683   0.984  15.542  0.3253  0.5595  0.5947
  698TMC3     H10377   0.063   1.146  15.423 -0.9211  0.8151 -0.2634
  698TMC3    H110378   4.704   0.812  15.184  1.7740 -1.3264  0.3472
  698TMC3    H210379   0.270   1.075  15.058 -0.2484 -0.7458 -0.7477
  698TMC3    C710380   0.092   0.880  14.992  0.1065  0.2095 -0.0473
  698TMC3    C810381   0.238   1.247  15.272 -0.0340 -0.0761 -0.3945
  698TMC3    O110382   4.712   0.870  14.960  0.0442  0.4613 -0.1956
  698TMC3    O210383   0.247   1.271  15.394 -0.2816 -0.2708  0.4604
  699TMC3    C110384   4.606   3.144  12.819  0.2406  0.4552  0.3675
  699TMC3    C210385   4.668   3.034  12.863  0.1119 -0.4677 -0.7274
  699TMC3    C310386   4.611   2.972  12.971  0.4441  0.2667 -0.7467
  699TMC3    C410387   4.508   3.212  12.889 -0.7001  0.8714  0.1452
  699TMC3    C510388   4.443   3.136  12.984  0.4970 -0.0936  0.3098
  699TMC3    C610389   4.498   3.020  13.033 -0.6678 -0.2986  0.6402
  699TMC3     C10390   4.631   3.198  12.686 -0.3149 -0.3653  0.2406
  699TMC3     O10391   4.537   3.255  12.636 -0.4412  0.2387 -0.0177
  699TMC3     H10392   0.005   2.986  12.803  0.7468  1.3292 -1.3628
  699TMC3    H110393   4.479   3.313  12.862  1.7364  1.7653  0.8524
  699TMC3    H210394   4.455   2.965  13.116 -0.9932 -1.8346 -0.5440
  699TMC3    C710395   4.319   3.184  13.045 -0.0621  0.7116 -0.0123
  699TMC3    C810396   4.674   2.854  13.034  0.3442  0.2455 -0.2070
  699TMC3    O110397   4.274   3.126  13.142 -0.4974  0.3743  0.0568
  699TMC3    O210398   4.639   2.830  13.150  0.1755 -0.3239  0.0290
  700TMC3    C110399   3.964   0.576  17.346 -0.3928  0.5547 -0.0947
  700TMC3    C210400   4.087   0.544  17.306  0.0090 -0.1126  0.3533
  700TMC3    C310401   4.188   0.523  17.398  0.2693  0.3390  0.2840
  700TMC3    C410402   3.942   0.609  17.479  0.1235  0.5887  0.7547
  700TMC3    C510403   4.046   0.589  17.569 -0.3171 -1.7789 -0.2707
  700TMC3    C610404   4.165   0.532  17.532  0.0281 -0.3452  0.2677
  700TMC3     C10405   3.881   0.655  17.253 -0.6460 -0.5146 -0.5702
  700TMC3     O10406   3.760   0.633  17.249  0.2618 -0.3712  0.8267
  700TMC3     H10407   4.111   0.522  17.202 -0.4135 -2.6997  0.8092
  700TMC3    H110408   3.850   0.663  17.501 -2.3088 -2.7358 -1.2416
  700TMC3    H210409   4.242   0.518  17.607  1.8550  0.2213 -1.5136
  700TMC3    C710410   4.063   0.707  17.650  0.2486 -0.1077 -0.2504
  700TMC3    C810411   4.317   0.477  17.350 -0.5218 -0.2434 -0.5188
  700TMC3    O110412   4.177   0.751  17.652  0.2478 -0.7449  0.2063
  700TMC3    O210413   4.317   0.434  17.237 -0.1252 -0.3413  0.1554
  701TMC3    C110414   3.832   4.180  15.573  0.3352 -0.1507  0.3167
  701TMC3    C210415   3.906   4.071  15.522  0.2155 -0.3501 -0.4261
  701TMC3    C310416   4.013   4.104  15.446  1.2053  0.6231 -0.3249
  701TMC3    C410417   3.877   4.312  15.554  0.0548  0.7385  0.1287
  701TMC3    C510418   3.986   4.332  15.475  0.1156 -0.3147 -0.3027
  701TMC3    C610419   4.055   4.233  15.420  0.1472 -1.2712  0.0315
  701TMC3     C10420   3.716   4.160  15.662 -0.3392  0.0434  0.1780
  701TMC3     O10421   3.638   4.252  15.670 -0.6159  0.2036 -0.2570
  701TMC3     H10422   3.876   3.968  15.538 -2.3174  0.7327  1.8447
  701TMC3    H110423   3.829   4.395  15.604  0.4305  0.5552  0.8023
  701TMC3    H210424   4.147   4.260  15.369 -0.9967 -0.7625 -1.7636
  701TMC3    C710425   4.052   4.461  15.484 -0.3444  0.0374 -0.0150
  701TMC3    C810426   4.062   4.003  15.354 -0.0255 -0.0556  0.5445
  701TMC3    O110427   4.105   4.510  15.387  0.0470  0.0431 -0.5614
  701TMC3    O210428   4.060   3.888  15.384  0.3692 -0.0381  0.6984
  702MPD2     C10429   3.025   1.700  10.040  0.0473 -0.0884 -0.1377
  702MPD2    C110430   3.034   1.835  10.065 -0.5837 -0.6752 -0.2524
  702MPD2    C210431   2.990   1.928   9.971  0.7946 -0.1811 -0.3753
  702MPD2    C310432   2.921   1.885   9.853 -0.2870  0.2833  0.2381
  702MPD2    C410433   2.919   1.751   9.828  0.5549  0.1196 -0.5512
  702MPD2    C510434   2.969   1.661   9.920 -0.1122  0.6127 -0.1791
  702MPD2     H10435   3.007   2.033   9.991  1.9299 -0.3297 -0.5796
  702MPD2    H110436   2.874   1.712   9.737  0.9688  0.5597 -0.9443
  702MPD2    H210437   3.072   1.630  10.107  0.2792  0.7507  0.5830
  702MPD2    H310438   2.960   1.555   9.898 -1.4149  0.8032 -0.5665
  702MPD2     N10439   2.848   1.967   9.772 -0.7128  0.2515  0.1979
  702MPD2    H510440   2.824   1.931   9.681 -0.4345 -0.4344  0.3984
  702MPD2    N110441   3.086   1.885  10.185 -0.0009  0.1761 -0.2130
  702MPD2    H710442   3.112   1.983  10.194  1.1497 -0.0509 -1.1010
  703TMC3    C110443   2.813   2.159   9.927 -0.0341  0.0419  0.6455
  703TMC3    C210444   2.752   2.095  10.034 -0.1235 -0.5334 -0.5234
  703TMC3    C310445   2.754   2.161  10.151 -0.0661 -0.7424  0.6275
  703TMC3    C410446   2.858   2.285   9.930  0.7006 -0.2411 -1.2523
  703TMC3    C510447   2.857   2.345  10.050 -0.1054 -0.4623  0.4704
  703TMC3    C610448   2.814   2.283  10.165  0.3005  0.8002  0.4010
  703TMC3     C10449   2.805   2.097   9.797  0.1518  0.3473 -0.5276
  703TMC3     O10450   2.780   2.173   9.701  0.2155  0.0266  0.6903
  703TMC3     H10451   2.711   1.995  10.024  0.9098 -1.2898  2.8759
  703TMC3    H110452   2.911   2.326   9.845  1.7685  3.0462  1.0191
  703TMC3    H210453   2.843   2.310  10.267 -1.9453 -1.3048  1.5826
  703TMC3    C710454   2.942   2.459  10.059  0.2265  0.4556  0.3418
  703TMC3    C810455   2.750   2.077  10.268  0.0706 -0.2251 -0.0884
  703TMC3    O110456   3.018   2.477   9.966 -0.0042 -0.0585  0.0408
  703TMC3    O210457   2.770   1.959  10.253  1.0895 -0.4857  0.5614
  704TMC3    C110458   1.243   0.599  11.955  0.0388 -0.7971 -0.6246
  704TMC3    C210459   1.282   0.584  11.828 -0.2077  0.0962  0.0897
  704TMC3    C310460   1.385   0.498  11.798 -0.5509 -0.4535  0.1963
  704TMC3    C410461   1.316   0.559  12.064 -0.1990 -0.0330 -0.7401
  704TMC3    C510462   1.422   0.474  12.033  0.2549  0.2211 -0.1816
  704TMC3    C610463   1.453   0.437  11.902  0.3887 -0.5085 -0.2382
  704TMC3     C10464   1.108   0.589  11.978  0.3710 -0.3414  0.5841
  704TMC3     O10465   1.072   0.566  12.091  0.4191 -0.2801 -0.4677
  704TMC3     H10466   1.236   0.636  11.744  0.1293  0.9921  0.4604
  704TMC3    H110467   1.287   0.573  12.167 -2.8314 -1.4028 -1.3046
  704TMC3    H210468   1.529   0.363  11.876  1.7579 -0.0738  2.5311
  704TMC3    C710469   1.462   0.384  12.140  0.2022  0.2472  1.1030
  704TMC3    C810470   1.367   0.429  11.672 -0.3024  0.0187  0.6550
  704TMC3    O110471   1.492   0.271  12.105  0.0031  0.0029 -0.2732
  704TMC3    O210472   1.263   0.452  11.609  0.0163  0.0295 -0.5642
  705MPD2     C10473   0.463   3.326  16.223  0.5789 -0.1965 -0.6531
  705MPD2    C110474   0.470   3.460  16.221  1.2637 -0.3911  0.6284
  705MPD2    C210475   0.356   3.537  16.213  0.3420 -0.1786  0.5414
  705MPD2    C310476   0.234   3.470  16.193 -0.0298  0.4104 -0.1941
  705MPD2    C410477   0.232   3.335  16.191 -0.3164  0.5139  0.5003
  705MPD2    C510478   0.340   3.260  16.224 -0.5475  0.2746 -0.0214
  705MPD2     H10479   0.355   3.645  16.223 -2.1681 -0.1837  0.2229
  705MPD2    H110480   0.141   3.289  16.154  1.3642 -1.7764 -0.7878
  705MPD2    H210481   0.546   3.257  16.230  1.1074  0.4725 -0.2965
  705MPD2    H310482   0.341   3.152  16.209  0.2938  0.1736  0.7816
  705MPD2     N10483   0.110   3.531  16.171 -0.4032 -0.4338 -0.1884
  705MPD2    H510484   0.033   3.465  16.166 -0.5610 -0.2271 -0.4619
  705MPD2    N110485   0.591   3.527  16.204 -1.0582  0.2586  0.3228
  705MPD2    H710486   0.581   3.628  16.196  1.2909  0.4758  0.0490
  706TMC3    C110487   1.064   3.591  16.170  0.1006  0.9549  0.5110
  706TMC3    C210488   1.047   3.708  16.104  0.3541  0.1624 -0.4612
  706TMC3    C310489   0.925   3.757  16.074 -0.2670  0.7944  0.3208
  706TMC3    C410490   0.954   3.513  16.192 -0.1386 -0.1112  0.1596
  706TMC3    C510491   0.831   3.554  16.158 -0.2661 -0.5201 -0.8304
  706TMC3    C610492   0.818   3.674  16.098 -0.2760 -0.1618  0.1541
  706TMC3     C10493   1.192   3.538  16.186 -0.2336 -0.7380 -0.1607
  706TMC3     O10494   1.237   3.514  16.295  0.5819  0.1929  0.0615
  706TMC3     H10495   1.137   3.760  16.074 -1.1883  3.3633  0.5077
  706TMC3    H110496   0.971   3.420  16.245 -0.4775 -0.4035 -0.2450
  706TMC3    H210497   0.718   3.713  16.090  0.5880  1.7149 -1.3984
  706TMC3    C710498   0.718   3.468  16.205 -1.3129  0.1197 -0.2075
  706TMC3    C810499   0.900   3.895  16.035  0.2203  0.3020  0.5889
  706TMC3    O110500   0.752   3.356  16.245 -0.5159 -0.6401  0.2302
  706TMC3    O210501   0.781   3.926  16.010  0.5403 -0.0532 -0.1047
  707TMC3    C110502   2.313   2.846   1.452  0.0921 -0.0015 -0.0646
  707TMC3    C210503   2.338   2.712   1.427 -0.0484  0.2694  1.1040
  707TMC3    C310504   2.254   2.618   1.474 -0.1805  0.6323 -0.2267
  707TMC3    C410505   2.205   2.885   1.536 -0.5969 -0.4255 -0.3147
  707TMC3    C510506   2.124   2.778   1.580  0.5959  0.5342  0.4445
  707TMC3    C610507   2.151   2.646   1.554  0.2830 -0.0720  0.0361
  707TMC3     C10508   2.428   2.937   1.440 -0.0949 -0.3790  0.1330
  707TMC3     O10509   2.513   2.904   1.364  0.1931 -0.0645  0.2027
  707TMC3     H10510   2.430   2.687   1.375 -1.3544 -2.3869  0.0626
  707TMC3    H110511   2.183   2.985   1.569  1.7986  1.2018 -3.6418
  707TMC3    H210512   2.080   2.565   1.568 -0.7639  0.3725 -2.6072
  707TMC3    C710513   1.996   2.813   1.628  0.4650  0.6050 -0.4026
  707TMC3    C810514   2.273   2.475   1.442  0.2948 -0.5134 -0.1016
  707TMC3    O110515   1.943   2.911   1.582 -0.1026  0.1303 -0.1882
  707TMC3    O210516   2.174   2.408   1.453 -0.1505 -0.1250 -0.3604
  708MPD2     C10517   3.722   1.164  14.001 -0.1024 -0.2506  0.2078
  708MPD2    C110518   3.778   1.274  14.056 -0.2026 -0.5731  0.2210
  708MPD2    C210519   3.773   1.293  14.192  0.2462 -0.2421  0.6772
  708MPD2    C310520   3.709   1.202  14.276  0.1019  0.0814  0.2301
  708MPD2    C410521   3.649   1.086  14.218  0.1178  0.6400 -0.5654
  708MPD2    C510522   3.652   1.079  14.085  0.6663  0.0338 -0.1249
  708MPD2     H10523   3.832   1.375  14.233 -0.4333  1.1576 -1.1121
  708MPD2    H110524   3.592   1.013  14.274  1.3899  0.3756  0.3860
  708MPD2    H210525   3.707   1.158  13.894  0.5879 -0.0649  0.1015
  708MPD2    H310526   3.593   1.007  14.030  2.0161  0.0778 -1.6376
  708MPD2     N10527   3.693   1.226  14.416  0.0847  0.3610 -0.0142
  708MPD2    H510528   3.629   1.165  14.466  0.8664  0.4716  1.1064
  708MPD2    N110529   3.841   1.377  13.980  0.4123  0.2662  0.2218
  708MPD2    H710530   3.899   1.443  14.032  0.5972 -0.3336  0.7801
  709TMC3    C110531   3.908   1.523  13.819 -0.2320 -0.0068 -0.5611
  709TMC3    C210532   3.843   1.588  13.718 -0.1169  0.0250 -0.4668
  709TMC3    C310533   3.809   1.713  13.728 -0.1825  0.0067 -0.1007
  709TMC3    C410534   3.946   1.596  13.927  0.6980  0.5940 -0.1141
  709TMC3    C510535   3.913   1.727  13.939  0.0872  0.2844 -0.2933
  709TMC3    C610536   3.835   1.784  13.843  0.7276 -0.1920 -0.0590
  709TMC3     C10537   3.862   1.387  13.845 -0.2358 -0.1137  0.1208
  709TMC3     O10538   3.817   1.315  13.759  0.1777  0.4257  0.5257
  709TMC3     H10539   3.798   1.531  13.638 -0.6829 -0.1324 -0.0288
  709TMC3    H110540   4.000   1.556  14.012  0.8797  0.1439 -0.4431
  709TMC3    H210541   3.801   1.886  13.854  0.9530 -0.1776  0.5545
  709TMC3    C710542   3.870   1.760  14.068  0.1748 -0.0025  0.9439
  709TMC3    C810543   3.674   1.741  13.680  0.0702  0.3352  0.2991
  709TMC3    O110544   3.938   1.715  14.158  0.4845  0.3388 -0.1564
  709TMC3    O210545   3.596   1.813  13.745 -0.2991 -0.6401  0.8036
  710TMC3    C110546   0.428   2.850   0.306  0.1582 -1.5304  0.0715
  710TMC3    C210547   0.449   2.845   0.169 -0.0707 -1.1199 -1.0142
  710TMC3    C310548   0.572   2.830   0.118 -0.5024 -0.5509 -0.0371
  710TMC3    C410549   0.534   2.855   0.396 -0.4686  0.3373  0.7244
  710TMC3    C510550   0.656   2.860   0.334  0.6975 -0.4672 -0.2531
  710TMC3    C610551   0.679   2.843   0.200 -0.5051  0.1371  0.3013
  710TMC3     C10552   0.291   2.856   0.357 -0.6093 -0.4460  0.1982
  710TMC3     O10553   0.203   2.793   0.298 -0.4604  0.9920  0.4952
  710TMC3     H10554   0.356   2.855   0.114 -0.5108  1.4260  0.1981
  710TMC3    H110555   0.515   2.874   0.501  2.1708  0.3903  1.2042
  710TMC3    H210556   0.777   2.814   0.163 -1.2604 -2.5076  0.3983
  710TMC3    C710557   0.767   2.892   0.429 -0.0406  0.6158  0.4216
  710TMC3    C810558   0.591   2.820  17.726 -0.7740 -0.7910  0.6558
  710TMC3    O110559   0.743   2.880   0.550  0.5035  0.0735 -0.2263
  710TMC3    O210560   0.709   2.832  17.692  0.5066 -0.2919 -0.5617
  711TMC3    C110561   0.044   3.738  14.688 -0.2361  0.3595  0.3101
  711TMC3    C210562   0.061   3.872  14.720 -0.8153  0.9157  0.2890
  711TMC3    C310563   0.134   3.905  14.829 -0.4467 -0.3547 -0.0898
  711TMC3    C410564   0.102   3.635  14.763 -0.3706  0.3215 -0.0784
  711TMC3    C510565   0.181   3.672  14.867 -0.3084  0.0577  0.3447
  711TMC3    C610566   0.202   3.808  14.904 -0.1857  0.8444  0.8614
  711TMC3     C10567   4.679   3.691  14.603 -0.1526  0.9203  0.3094
  711TMC3     O10568   4.618   3.592  14.639  0.6762 -0.4923  0.4563
  711TMC3     H10569   4.737   3.941  14.665  0.3979  0.5197 -1.6081
  711TMC3    H110570   0.076   3.531  14.745 -1.3896  0.9086 -2.0816
  711TMC3    H210571   0.254   3.838  14.994  2.2515  1.2904 -0.6792
  711TMC3    C710572   0.273   3.583  14.933  0.0656  0.9218 -0.2888
  711TMC3    C810573   0.084   4.020  14.909  0.2754 -0.2555  0.5408
  711TMC3    O110574   0.367   3.637  14.983 -0.4708 -0.4891  0.4510
  711TMC3    O210575   4.713   4.062  14.886  0.6604  0.5797  0.2565
  712MPD2     C10576   1.401   4.691  14.016  0.0236  0.3865  0.4815
  712MPD2    C110577   1.350   4.710  13.887 -0.0955 -0.5414  0.8518
  712MPD2    C210578   1.351   0.092  13.822 -0.3168 -0.1069  0.5331
  712MPD2    C310579   1.402   0.203  13.893 -0.4743  0.5471 -0.4234
  712MPD2    C410580   1.469   0.181  14.011 -0.1536  0.1912 -0.0016
  712MPD2    C510581   1.462   0.058  14.072  0.2979 -0.5167 -0.4997
  712MPD2     H10582   1.313   0.097  13.721 -1.6687  0.3556  1.0750
  712MPD2    H110583   1.522   0.259  14.065 -0.8090 -0.1774  1.1816
  712MPD2    H210584   1.408   4.596  14.068  1.2395  1.1606  1.7335
  712MPD2    H310585   1.523   0.042  14.160  0.2231 -0.4382 -0.4338
  712MPD2     N10586   1.414   0.332  13.846  0.6519  0.2135 -0.0669
  712MPD2    H510587   1.453   0.396  13.914 -0.3263 -0.9785  1.6417
  712MPD2    N110588   1.267   4.613  13.825  0.0492 -0.0070 -0.0010
  712MPD2    H710589   1.236   4.640  13.732  0.1528 -0.8969 -0.2878
  713TMC3    C110590   1.370   0.524  13.729 -0.2278  0.3968  0.0166
  713TMC3    C210591   1.498   0.573  13.714 -0.2064 -1.2328  0.4530
  713TMC3    C310592   1.510   0.695  13.660 -0.9123 -0.3387 -0.5586
  713TMC3    C410593   1.259   0.591  13.688 -0.4603  0.7799  0.3361
  713TMC3    C510594   1.274   0.721  13.654 -0.5721  0.6796 -0.0485
  713TMC3    C610595   1.401   0.775  13.629 -0.1478  0.3840 -0.7287
  713TMC3     C10596   1.353   0.386  13.737 -0.3218  0.1865  0.4205
  713TMC3     O10597   1.276   0.333  13.656 -0.6413 -0.1730  0.0795
  713TMC3     H10598   1.583   0.508  13.730 -0.1846 -0.7280  2.4249
  713TMC3    H110599   1.163   0.540  13.692 -0.7792  1.4242  0.9319
  713TMC3    H210600   1.407   0.877  13.593 -1.5411  1.4841  2.1223
  713TMC3    C710601   1.150   0.797  13.652 -0.3179 -0.3566  0.2333
  713TMC3    C810602   1.642   0.749  13.637  0.2083 -0.0447  0.5853
  713TMC3    O110603   1.051   0.732  13.639  0.6948  0.2309  0.2598
  713TMC3    O210604   1.652   0.846  13.564  0.1982  0.0233  0.0044
  714MPD2     C10605   4.074   4.293   1.467 -0.0784  0.3460 -0.0396
  714MPD2    C110606   4.065   4.228   1.346 -0.2530 -0.5741 -0.4233
  714MPD2    C210607   3.955   4.246   1.269 -0.2644  0.5659 -0.3026
  714MPD2    C310608   3.846   4.332   1.306  0.1026  0.4968 -0.0316
  714MPD2    C410609   3.863   4.394   1.428 -0.8543 -0.1637 -0.1811
  714MPD2    C510610   3.966   4.366   1.508  0.5625  0.6538 -0.4315
  714MPD2     H10611   3.948   4.197   1.173  2.6667  0.0949 -0.2623
  714MPD2    H110612   3.797   4.476   1.455 -0.9087 -0.2126 -0.1663
  714MPD2    H210613   4.167   4.292   1.521  0.5268 -1.1029 -1.1160
  714MPD2    H310614   3.968   4.424   1.600  0.4260 -1.1513  0.7060
  714MPD2     N10615   3.736   4.351   1.222  0.0205 -0.3733  0.4098
  714MPD2    H510616   3.744   4.307   1.131  2.8564 -1.1938  1.0453
  714MPD2    N110617   4.170   4.139   1.317  0.1461  0.2637 -0.2229
  714MPD2    H710618   4.252   4.129   1.376  0.2059 -3.0195 -0.8371
  715TMC3    C110619   4.322   3.998   1.202  0.7369  0.0065 -0.2739
  715TMC3    C210620   4.340   3.866   1.180  0.5298  0.2032  0.1560
  715TMC3    C310621   4.468   3.816   1.183 -0.4300  0.1193  0.3402
  715TMC3    C410622   4.418   4.091   1.215 -0.5599  0.0370  0.2303
  715TMC3    C510623   4.547   4.039   1.206  0.1103 -0.1800  0.1808
  715TMC3    C610624   4.575   3.902   1.195  0.6289  0.5433  0.3712
  715TMC3     C10625   4.188   4.055   1.208 -0.8542  0.1698  0.2889
  715TMC3     O10626   4.109   4.022   1.119  0.0653  0.8588 -0.0900
  715TMC3     H10627   4.255   3.806   1.152  1.1595  0.0492 -1.4012
  715TMC3    H110628   4.396   4.196   1.229 -0.3847  0.1247 -0.1427
  715TMC3    H210629   4.677   3.867   1.202  0.2946 -0.4747  0.0567
  715TMC3    C710630   4.662   4.123   1.194 -0.0810 -0.2294  0.3042
  715TMC3    C810631   4.476   3.672   1.150  1.2172 -0.1792 -0.7040
  715TMC3    O110632   0.017   4.091   1.123  0.3577 -0.2725 -0.9942
  715TMC3    O210633   4.375   3.599   1.171  0.3397 -0.0190  0.1486
  716MPD2     C10634   3.131   2.370   9.637  0.2811 -0.6680 -0.0865
  716MPD2    C110635   3.062   2.376   9.517  0.7118 -1.0401 -0.5083
  716MPD2    C210636   3.040   2.254   9.441  0.1815 -0.3411  0.7492
  716MPD2    C310637   3.104   2.138   9.492  0.2969  0.5977 -0.0191
  716MPD2    C410638   3.169   2.133   9.608  0.2873 -0.2288 -0.1752
  716MPD2    C510639   3.175   2.247   9.684  0.3320  0.3642  0.0159
  716MPD2     H10640   2.987   2.246   9.346 -2.2397 -0.9074  2.1423
  716MPD2    H110641   3.206   2.040   9.649  0.0989 -0.5156 -0.6588
  716MPD2    H210642   3.167   2.452   9.698  1.3933 -2.3103  1.4650
  716MPD2    H310643   3.236   2.239   9.774 -0.1301 -0.6721  0.2325
  716MPD2     N10644   3.104   2.025   9.408 -0.2409  0.0620  0.1008
  716MPD2    H510645   3.052   2.028   9.321 -0.2729  2.1786  0.1933
  716MPD2    N110646   3.005   2.502   9.484 -0.2998 -0.5377  0.1157
  716MPD2    H710647   3.016   2.578   9.550 -1.8403 -0.7232  0.5956
  717TMC3    C110648   3.154   1.801   9.322 -0.4435 -0.2104 -0.0411
  717TMC3    C210649   3.095   1.844   9.205 -0.2869 -0.6291  0.8174
  717TMC3    C310650   3.084   1.759   9.105 -0.0816  0.5562 -0.8368
  717TMC3    C410651   3.198   1.677   9.344  0.1238 -0.9215  0.4696
  717TMC3    C510652   3.192   1.593   9.241  0.1160 -0.5969  0.0253
  717TMC3    C610653   3.137   1.634   9.124  0.2300  0.6405 -0.4099
  717TMC3     C10654   3.169   1.901   9.428  0.7458  1.1268  0.3085
  717TMC3     O10655   3.242   1.864   9.518  0.4357  0.5647 -0.7546
  717TMC3     H10656   3.045   1.939   9.192  1.0281 -0.1210 -0.5914
  717TMC3    H110657   3.234   1.643   9.441  2.5683 -0.1030 -0.1468
  717TMC3    H210658   3.126   1.563   9.042  2.9804  0.1874 -0.3632
  717TMC3    C710659   3.217   1.450   9.241 -0.3516  0.3207  0.1325
  717TMC3    C810660   2.959   1.783   9.031  0.2688 -0.6035 -0.0216
  717TMC3    O110661   3.197   1.394   9.134  0.1145  0.2920 -0.0976
  717TMC3    O210662   2.881   1.851   9.098  0.1695 -0.6367  0.3891
  718MPD2     C10663   2.993   0.733  13.419  0.7913 -0.2444 -0.0129
  718MPD2    C110664   2.961   0.668  13.304  0.2303  0.4205 -0.7358
  718MPD2    C210665   2.886   0.556  13.305  0.1454 -0.6938  0.8887
  718MPD2    C310666   2.844   0.503  13.428 -0.1970  0.4242 -0.0099
  718MPD2    C410667   2.871   0.563  13.541  0.4433  0.3822 -0.2240
  718MPD2    C510668   2.944   0.684  13.536 -0.0067  0.2751  0.7116
  718MPD2     H10669   2.867   0.500  13.214 -2.0396  0.4537  0.6363
  718MPD2    H110670   2.849   0.517  13.637 -1.7848  1.0463 -0.4146
  718MPD2    H210671   3.049   0.826  13.421 -2.0951  1.4916  0.1062
  718MPD2    H310672   2.964   0.741  13.626 -2.2470 -0.2322  1.5245
  718MPD2     N10673   2.764   0.384  13.424 -0.1349  0.1231  0.1352
  718MPD2    H510674   2.754   0.332  13.337  4.6963  1.5821 -1.2966
  718MPD2    N110675   3.010   0.724  13.181 -0.0407 -0.5025  0.8179
  718MPD2    H710676   3.078   0.798  13.193 -1.2948  1.4075 -3.8610
  719TMC3    C110677   3.111   0.698  12.983 -0.8278  0.6550 -0.5749
  719TMC3    C210678   3.170   0.573  12.976  0.1706  0.2229 -0.7684
  719TMC3    C310679   3.231   0.539  12.856 -0.6071  0.0862  0.5543
  719TMC3    C410680   3.100   0.779  12.875 -0.2312  0.0973 -0.6991
  719TMC3    C510681   3.152   0.739  12.755 -0.5265  0.5683  0.8180
  719TMC3    C610682   3.221   0.624  12.740  0.1630  0.0821 -0.5948
  719TMC3     C10683   2.989   0.683  13.055 -0.2528 -0.3681 -0.5258
  719TMC3     O10684   2.910   0.606  13.007  0.8562  0.2546  0.2353
  719TMC3     H10685   3.156   0.504  13.058 -0.7917 -1.4166 -2.3280
  719TMC3    H110686   3.025   0.857  12.877  0.7401  1.0551 -1.4511
  719TMC3    H210687   3.274   0.595  12.649  1.3529  0.9672 -0.1867
  719TMC3    C710688   3.201   0.841  12.665 -0.3847  0.0206 -0.4096
  719TMC3    C810689   3.193   0.403  12.821 -0.0181 -0.5876  0.1401
  719TMC3    O110690   3.247   0.810  12.557 -0.4314 -0.2004  0.5857
  719TMC3    O210691   3.156   0.387  12.707  0.3171 -0.1706 -0.2346
  720MPD2     C10692   1.261   2.520  13.979 -0.1257  0.3765 -0.2038
  720MPD2    C110693   1.332   2.446  13.884 -0.6765 -0.3042  0.2966
  720MPD2    C210694   1.467   2.431  13.897 -0.2146  0.6118  0.1369
  720MPD2    C310695   1.537   2.476  14.010  0.4826  0.0397 -0.7623
  720MPD2    C410696   1.469   2.554  14.100  0.4485  0.2024  0.2620
  720MPD2    C510697   1.333   2.571  14.084  0.0617 -0.2971 -0.2445
  720MPD2     H10698   1.522   2.375  13.822  0.0872  0.5378  0.4134
  720MPD2    H110699   1.516   2.593  14.189  1.2688  0.7172 -0.3984
  720MPD2    H210700   1.161   2.560  13.974 -0.7200 -1.2725 -1.5650
  720MPD2    H310701   1.285   2.629  14.163  2.0864 -0.5651  1.1765
  720MPD2     N10702   1.677   2.452  14.014  0.2171  0.2972 -0.8849
  720MPD2    H510703   1.722   2.417  13.930 -0.2230 -0.0502 -0.9781
  720MPD2    N110704   1.275   2.397  13.765  0.2616 -0.2701  0.4440
  720MPD2    H710705   1.335   2.357  13.694 -1.2454  0.5821 -1.3115
  721TMC3    C110706   1.863   2.369  14.121  0.2037 -0.2686  0.3111
  721TMC3    C210707   1.852   2.253  14.189 -0.4360  0.3100  0.0710
  721TMC3    C310708   1.960   2.165  14.179  0.1111  0.2997 -0.1769
  721TMC3    C410709   1.967   2.395  14.037  0.1719  0.1986  0.1968
  721TMC3    C510710   2.069   2.298  14.025  0.2038 -1.1304  0.6918
  721TMC3    C610711   2.046   2.179  14.084  0.1609 -0.0592  0.1934
  721TMC3     C10712   1.748   2.456  14.131 -0.2308 -0.1331 -0.3628
  721TMC3     O10713   1.712   2.484  14.246  0.6612  0.3807  0.9451
  721TMC3     H10714   1.777   2.252  14.267  0.3030  2.1982  0.8112
  721TMC3    H110715   1.985   2.495  14.000 -0.3012  0.1081 -0.2780
  721TMC3    H210716   2.119   2.101  14.061  1.2295  1.1809 -0.6152
  721TMC3    C710717   2.202   2.342  14.031 -0.8093 -0.4264  0.1086
  721TMC3    C810718   2.013   2.123  14.305 -0.0970  0.1251  0.2279
  721TMC3    O110719   2.235   2.434  13.957 -0.0428  0.5493  0.0923
  721TMC3    O210720   2.124   2.071  14.293 -0.4861  0.2544  0.2260
  722MPD2     C10721   0.208   0.562  13.696 -0.1712 -0.7614  0.8143
  722MPD2    C110722   0.134   0.636  13.598 -0.2662 -0.6824  0.4761
  722MPD2    C210723   0.000   0.601  13.584 -0.3669  0.3906 -0.3528
  722MPD2    C310724   4.678   0.508  13.664 -0.4015  0.0352  0.1028
  722MPD2    C410725   0.011   0.455  13.767 -0.0461  0.7428 -0.3170
  722MPD2    C510726   0.144   0.481  13.780  0.6184  1.0616  0.3442
  722MPD2     H10727   4.680   0.645  13.505 -1.7010  2.6382  1.8974
  722MPD2    H110728   4.696   0.398  13.841 -1.4451  1.2986 -0.9024
  722MPD2    H210729   0.316   0.568  13.691 -0.2557  0.7815  0.7945
  722MPD2    H310730   0.193   0.425  13.859 -0.1285  2.3272  1.7043
  722MPD2     N10731   4.549   0.484  13.629  0.4041  0.0816  0.3597
  722MPD2    H510732   4.512   0.530  13.547  1.1702 -1.9636 -1.1276
  722MPD2    N110733   0.197   0.739  13.519  0.0772  0.0763  0.0346
  722MPD2    H710734   0.148   0.781  13.440 -2.7925 -1.8162  0.7991
  723TMC3    C110735   4.361   0.350  13.599  0.4132 -0.0680  0.3000
  723TMC3    C210736   4.352   0.218  13.566 -0.4803 -0.2344 -0.4488
  723TMC3    C310737   4.264   0.178  13.462  0.0967 -0.3428 -0.2810
  723TMC3    C410738   4.297   0.447  13.528 -0.2078  0.0505 -0.2157
  723TMC3    C510739   4.206   0.407  13.436 -0.4470  0.5092  0.1168
  723TMC3    C610740   4.186   0.277  13.395 -0.4415  0.1060  0.2523
  723TMC3     C10741   4.473   0.377  13.678  0.1967 -0.1915  0.4382
  723TMC3     O10742   4.482   0.324  13.786 -0.7090 -1.0535 -0.3706
  723TMC3     H10743   4.403   0.140  13.622 -0.8567  0.9561  1.5632
  723TMC3    H110744   4.312   0.552  13.547  0.6797  0.4336 -3.1586
  723TMC3    H210745   4.113   0.251  13.320 -0.1275  1.5057 -0.5318
  723TMC3    C710746   4.184   0.510  13.333 -0.3321 -0.0527 -0.4078
  723TMC3    C810747   4.264   0.041  13.419  0.0236  0.2574 -0.5793
  723TMC3    O110748   4.191   0.478  13.216  0.2216 -0.1036 -0.1956
  723TMC3    O210749   4.318   4.695  13.487  0.3339 -0.4591  0.1707
  724TMC3    C110750   4.420   3.757  10.572 -0.1458 -0.1084 -0.2838
  724TMC3    C210751   4.363   3.783  10.452  0.2527 -0.7182 -0.9915
  724TMC3    C310752   4.371   3.918  10.421  0.0712 -0.2494  0.5758
  724TMC3    C410753   4.463   3.855  10.659  0.7891  0.3554 -0.3710
  724TMC3    C510754   4.444   3.985  10.637  0.7212 -0.0485  0.3848
  724TMC3    C610755   4.397   4.015  10.509 -0.4483  0.0553  1.1288
  724TMC3     C10756   4.430   3.615  10.606 -0.5070  0.0988 -0.6689
  724TMC3     O10757   4.490   3.592  10.711 -0.5092 -0.2130 -0.0198
  724TMC3     H10758   4.367   3.713  10.369  1.7842  1.3838 -2.6833
  724TMC3    H110759   4.525   3.831  10.743 -0.3379  0.3007  0.4479
  724TMC3    H210760   4.378   4.120  10.488  0.6507  0.0498  0.1306
  724TMC3    C710761   4.557   4.072  10.665  0.0532 -0.1626  0.9430
  724TMC3    C810762   4.361   3.952  10.279  0.5319  0.5712 -0.0191
  724TMC3    O110763   4.572   4.157  10.579  0.4402  0.0062 -0.0890
  724TMC3    O210764   4.272   3.904  10.216 -0.1816  0.1113  0.7860
  725TMC3    C110765   1.211   2.537  12.553 -0.0500 -0.4613 -0.1437
  725TMC3    C210766   1.162   2.541  12.429  0.1763 -0.1100  0.5985
  725TMC3    C310767   1.126   2.417  12.376 -0.2203  0.2181 -0.2797
  725TMC3    C410768   1.254   2.420  12.613  0.4018 -0.6595  0.2326
  725TMC3    C510769   1.218   2.300  12.557 -0.3054  0.4920 -0.6486
  725TMC3    C610770   1.155   2.298  12.439 -0.0777 -0.3815  0.2938
  725TMC3     C10771   1.260   2.655  12.615 -0.2131 -0.4766 -0.2920
  725TMC3     O10772   1.302   2.743  12.544 -0.2702 -0.3517 -0.2000
  725TMC3     H10773   1.127   2.629  12.376  0.6803  0.9679  2.0608
  725TMC3    H110774   1.314   2.425  12.703 -0.4113  1.7328  0.6357
  725TMC3    H210775   1.115   2.204  12.403  0.5392 -0.6589  0.3302
  725TMC3    C710776   1.305   2.184  12.586  0.3754  0.0386  0.1021
  725TMC3    C810777   1.040   2.403  12.255 -0.0416  1.1260  0.2685
  725TMC3    O110778   1.315   2.098  12.499 -0.1527 -0.5026  0.2744
  725TMC3    O210779   0.975   2.297  12.248 -0.0783  0.4955  0.2952
  726MPD2     C10780   3.980   4.507  10.812  0.4370 -0.3029  0.3054
  726MPD2    C110781   3.895   4.491  10.704 -0.5967  0.0801  0.3130
  726MPD2    C210782   3.817   4.377  10.702 -0.0955  0.0459  0.1175
  726MPD2    C310783   3.827   4.277  10.798 -0.9104 -0.3536  0.2339
  726MPD2    C410784   3.913   4.295  10.898  0.7888 -0.1920  0.8332
  726MPD2    C510785   3.993   4.411  10.909 -0.8974  0.1983  0.3781
  726MPD2     H10786   3.761   4.362  10.610 -0.3230  3.4644 -0.2777
  726MPD2    H110787   3.923   4.230  10.984  2.3528  1.2909  1.7700
  726MPD2    H210788   4.041   4.596  10.822 -0.0099 -0.1165  1.4390
  726MPD2    H310789   4.068   4.411  10.987  0.0371  0.6221 -0.5322
  726MPD2     N10790   3.758   4.154  10.793 -0.4505  0.4711  0.1689
  726MPD2    H510791   3.785   4.087  10.864 -0.6569 -2.0205 -2.0822
  726MPD2    N110792   3.890   4.573  10.589 -0.6368 -0.5628  0.0040
  726MPD2    H710793   3.828   4.547  10.513  2.0910 -1.0214 -2.0807
  727TMC3    C110794   3.945   0.014  10.436  0.2277  0.5975  0.0102
  727TMC3    C210795   4.056   0.063  10.375  0.7096 -0.3196 -0.1931
  727TMC3    C310796   4.043   0.109  10.249  0.0012 -0.5632 -0.1212
  727TMC3    C410797   3.824   4.737  10.373  0.7255  0.6163  0.2634
  727TMC3    C510798   3.816   0.037  10.240 -0.1603 -0.1748 -0.2583
  727TMC3    C610799   3.929   0.089  10.180 -0.3207 -0.3185 -0.2112
  727TMC3     C10800   3.960   4.693  10.568  0.4611 -0.1372 -0.0762
  727TMC3     O10801   4.035   0.017  10.639  0.1863  0.7957 -0.6354
  727TMC3     H10802   4.139   0.089  10.440  0.6625  0.9954 -0.6426
  727TMC3    H110803   3.740   4.698  10.429  0.3855  1.2177  0.1721
  727TMC3    H210804   3.932   0.118  10.075 -1.7261  0.4163 -0.0502
  727TMC3    C710805   3.689   0.050  10.169 -0.5332 -0.7664 -0.0729
  727TMC3    C810806   4.136   0.221  10.217 -0.0167 -0.1952  0.4745
  727TMC3    O110807   3.678   0.139  10.084 -0.0077  0.4470 -0.8133
  727TMC3    O210808   4.253   0.184  10.224  0.4051  0.2626  0.0866
  728TMC3    C110809   4.058   2.614  15.216 -0.0671 -0.3023  0.3677
  728TMC3    C210810   4.165   2.698  15.200 -0.5767 -0.6130  0.2269
  728TMC3    C310811   4.174   2.772  15.085  0.6732 -0.1703  0.1478
  728TMC3    C410812   3.944   2.612  15.132  0.5635 -1.4681 -0.7751
  728TMC3    C510813   3.954   2.693  15.028 -0.9592 -0.3613  0.4171
  728TMC3    C610814   4.069   2.765  14.995  0.6468 -0.1445  0.2607
  728TMC3     C10815   4.065   2.539  15.340 -0.3152  0.0622 -0.3034
  728TMC3     O10816   4.167   2.562  15.398  0.0723 -0.3663  0.4040
  728TMC3     H10817   4.254   2.708  15.261 -0.9369  0.0094  0.6435
  728TMC3    H110818   3.853   2.557  15.150  0.7825 -0.9618  1.8521
  728TMC3    H210819   4.065   2.854  14.933  1.6883  0.4164  0.9916
  728TMC3    C710820   3.828   2.731  14.951  0.2540 -0.2154 -0.0358
  728TMC3    C810821   4.246   2.901  15.089 -0.1627 -0.4352  0.0013
  728TMC3    O110822   3.721   2.692  14.998  0.3804  0.0101 -0.3232
  728TMC3    O210823   4.175   2.995  15.053  0.2887 -0.1056 -0.1659
  729MPD2     C10824   0.837   4.166  16.677 -0.5961 -0.3587 -0.2628
  729MPD2    C110825   0.936   4.086  16.637 -0.4702  0.5630 -1.1182
  729MPD2    C210826   1.066   4.112  16.680 -0.3597 -0.0247 -0.1071
  729MPD2    C310827   1.090   4.229  16.742  0.1012 -0.6584  0.4092
  729MPD2    C410828   0.984   4.311  16.783  0.9788  0.0492 -0.0833
  729MPD2    C510829   0.858   4.273  16.757 -0.1090  0.2589 -0.3896
  729MPD2     H10830   1.146   4.045  16.651 -1.5444 -2.1960  1.7227
  729MPD2    H110831   1.005   4.402  16.839  0.5342 -0.3072  0.6602
  729MPD2    H210832   0.735   4.142  16.649 -0.5143 -0.1095 -0.7706
  729MPD2    H310833   0.777   4.338  16.787  1.1375  0.9367  1.4850
  729MPD2     N10834   1.216   4.275  16.790 -0.0729  0.0534  0.2795
  729MPD2    H510835   1.211   4.367  16.833 -0.3969 -0.1821  0.7346
  729MPD2    N110836   0.900   3.986  16.546 -0.0405  0.2071 -0.0138
  729MPD2    H710837   0.800   3.970  16.539  0.0883 -1.0564  1.0208
  730TMC3    C110838   1.437   4.290  16.821 -0.4327 -0.4620 -0.2761
  730TMC3    C210839   1.558   4.237  16.837  0.1984  0.0579  0.2490
  730TMC3    C310840   1.661   4.315  16.902  0.2784  0.1952  0.2242
  730TMC3    C410841   1.411   4.415  16.875 -0.4405 -0.9525 -0.6493
  730TMC3    C510842   1.508   4.484  16.947  0.4228  0.1287 -0.1145
  730TMC3    C610843   1.631   4.435  16.970 -0.9358 -0.6108  0.0117
  730TMC3     C10844   1.337   4.212  16.761 -0.0276 -0.2837  0.1614
  730TMC3     O10845   1.351   4.101  16.713  0.1174 -0.2277 -0.1131
  730TMC3     H10846   1.582   4.138  16.799  1.9842  0.7154 -0.3598
  730TMC3    H110847   1.318   4.470  16.863 -1.1346 -2.2223 -1.0311
  730TMC3    H210848   1.694   4.499  17.030  1.4526 -2.1486 -0.8593
  730TMC3    C710849   1.500   4.619  16.983  0.2691 -0.2877 -0.6038
  730TMC3    C810850   1.778   4.250  16.944  0.0835 -0.1058  0.6870
  730TMC3    O110851   1.534   4.643  17.100  0.2993  0.5494 -0.1006
  730TMC3    O210852   1.786   4.134  16.906 -0.2425  0.1918  0.0589
  731MPD2     C10853   0.690   1.638  12.124  0.1368  0.0758 -0.0557
  731MPD2    C110854   0.755   1.723  12.203  0.5347 -0.2569  0.7011
  731MPD2    C210855   0.784   1.689  12.335 -0.1977  0.7026 -0.2934
  731MPD2    C310856   0.729   1.572  12.391  0.0614 -0.7506  0.0338
  731MPD2    C410857   0.669   1.487  12.295 -0.0056 -0.1259 -0.4616
  731MPD2    C510858   0.653   1.518  12.169 -0.5942 -0.9045 -0.0851
  731MPD2     H10859   0.830   1.763  12.400 -0.6439  0.0266  0.7871
  731MPD2    H110860   0.611   1.401  12.327  0.1960  0.5725  1.7970
  731MPD2    H210861   0.678   1.656  12.018 -0.3015 -2.9036 -0.5350
  731MPD2    H310862   0.603   1.448  12.103 -1.0155 -0.7550  0.0750
  731MPD2     N10863   0.736   1.549  12.527 -0.0011 -0.7053 -0.3876
  731MPD2    H510864   0.793   1.603  12.592  0.3868 -1.1262 -0.3845
  731MPD2    N110865   0.791   1.849  12.142  0.6962 -0.0712  0.0407
  731MPD2    H710866   0.748   1.876  12.054  2.7812 -0.6339 -1.1556
  732TMC3    C110867   0.937   2.026  12.081 -0.5480  1.2473 -1.0798
  732TMC3    C210868   0.870   2.036  11.962 -0.3301  0.0210 -0.3735
  732TMC3    C310869   0.932   2.088  11.849  0.4399 -0.3511 -0.0195
  732TMC3    C410870   1.075   2.058  12.086  0.0509 -0.4951 -0.3761
  732TMC3    C510871   1.133   2.111  11.968 -0.2233  0.1474  1.2937
  732TMC3    C610872   1.063   2.140  11.856 -0.5661 -0.2752  0.1672
  732TMC3     C10873   0.887   1.943  12.186  0.2034  0.7492 -0.1945
  732TMC3     O10874   0.958   1.935  12.284  0.2816  0.4150 -0.6879
  732TMC3     H10875   0.762   2.030  11.959 -0.3114 -0.2401 -0.5378
  732TMC3    H110876   1.138   2.043  12.173 -3.2483 -3.0776  1.5782
  732TMC3    H210877   1.117   2.166  11.765 -3.5933 -1.3537 -1.9422
  732TMC3    C710878   1.275   2.146  11.959  0.4898  0.2079  0.4449
  732TMC3    C810879   0.900   2.042  11.712  0.2925  0.0245 -0.3646
  732TMC3    O110880   1.319   2.206  11.864  0.1929 -0.3692 -0.3855
  732TMC3    O210881   0.943   2.103  11.619 -0.5379 -0.5738 -0.0029
  733TMC3    C110882   2.536   0.002  13.486  0.4330  0.5065 -0.3064
  733TMC3    C210883   2.565   0.125  13.538 -0.7577  0.0076 -0.5961
  733TMC3    C310884   2.680   0.181  13.498  0.5295  0.2024  0.0061
  733TMC3    C410885   2.622   4.677  13.401  0.2596  0.7718 -0.1665
  733TMC3    C510886   2.734   0.002  13.361 -0.6609 -0.3545  0.6242
  733TMC3    C610887   2.768   0.120  13.416  0.2647  0.0394 -0.5159
  733TMC3     C10888   2.398   4.726  13.445  0.7321 -0.2005  0.4575
  733TMC3     O10889   2.343   0.094  13.426 -0.1269  0.1081  0.5403
  733TMC3     H10890   2.498   0.183  13.601 -1.1705  0.4358 -1.4181
  733TMC3    H110891   2.601   4.580  13.357  0.5949  0.3378  0.6261
  733TMC3    H210892   2.862   0.171  13.399  0.0095  0.5267 -0.4508
  733TMC3    C710893   2.795   4.704  13.233 -0.1828 -0.4038  0.1001
  733TMC3    C810894   2.698   0.326  13.527 -0.0815 -0.0327 -0.9031
  733TMC3    O110895   2.718   4.636  13.165  0.0249 -0.6293 -0.2785
  733TMC3    O210896   2.657   0.377  13.633 -0.4634  0.4520  0.2213
  734MPD2     C10897   4.617   2.498  12.483  0.1254  0.3712 -0.4819
  734MPD2    C110898   4.485   2.461  12.454 -1.0848 -0.0710 -0.0215
  734MPD2    C210899   4.442   2.466  12.321  0.0842 -0.5785  0.2109
  734MPD2    C310900   4.529   2.498  12.214 -0.8039  0.3863  0.2142
  734MPD2    C410901   4.656   2.536  12.239 -0.1079 -0.3297 -0.2090
  734MPD2    C510902   4.696   2.533  12.375 -0.2232 -0.6637 -0.4423
  734MPD2     H10903   4.342   2.446  12.284  0.2251  0.9322 -0.9881
  734MPD2    H110904   4.730   2.561  12.164 -0.8436 -0.0210 -0.8354
  734MPD2    H210905   4.651   2.493  12.586 -3.0906  0.7480  0.6055
  734MPD2    H310906   0.060   2.551  12.403  0.3483  0.3709 -3.1789
  734MPD2     N10907   4.466   2.495  12.081  1.0318 -0.3971  0.1361
  734MPD2    H510908   4.377   2.447  12.073  0.9264  0.0170 -1.1418
  734MPD2    N110909   4.404   2.405  12.563  0.5406 -0.0631 -0.9145
  734MPD2    H710910   4.452   2.386  12.650 -0.5131  4.0048  0.5425
  735TMC3    C110911   4.215   2.277  12.631 -0.0558  0.2785 -0.0738
  735TMC3    C210912   4.078   2.271  12.621  0.1572  0.3288  0.2264
  735TMC3    C310913   4.016   2.156  12.606 -0.3571 -0.5888 -0.1127
  735TMC3    C410914   4.286   2.165  12.605 -0.0908 -0.3345 -0.5898
  735TMC3    C510915   4.222   2.047  12.581 -0.7552  0.2080 -0.1765
  735TMC3    C610916   4.087   2.042  12.587 -0.3408  0.1168 -0.3969
  735TMC3     C10917   4.263   2.388  12.545 -0.6738  0.2907 -0.2922
  735TMC3     O10918   4.193   2.436  12.454  0.1975  0.1144 -0.5179
  735TMC3     H10919   4.028   2.367  12.626  1.1734  0.8744 -0.1149
  735TMC3    H110920   4.393   2.158  12.598 -0.0399  0.0987 -0.2886
  735TMC3    H210921   4.029   1.953  12.565  1.5914 -1.0380 -0.8312
  735TMC3    C710922   4.275   2.009  12.452  0.3327  0.7164  0.4517
  735TMC3    C810923   3.916   2.177  12.504 -0.1403  0.0104 -0.1019
  735TMC3    O110924   4.334   2.095  12.385 -0.0991 -0.7694  0.4231
  735TMC3    O210925   3.831   2.093  12.489 -0.2636  0.3409 -0.2953
  736MPD2     C10926   4.306   1.667  12.328 -0.7197 -0.8411 -0.5482
  736MPD2    C110927   4.320   1.807  12.320  0.4871 -0.3870 -0.5293
  736MPD2    C210928   4.393   1.858  12.215 -0.2266  0.2605  0.2037
  736MPD2    C310929   4.454   1.781  12.126 -0.4407 -0.0025  0.2382
  736MPD2    C410930   4.453   1.644  12.147 -0.2764  0.0474 -0.6811
  736MPD2    C510931   4.374   1.584  12.247  0.0568  0.9495  0.3591
  736MPD2     H10932   4.388   1.965  12.200 -4.5450  0.1087  0.4655
  736MPD2    H110933   4.507   1.568  12.091  0.6053  1.7335 -2.0821
  736MPD2    H210934   4.241   1.622  12.402 -1.4966 -2.7120 -2.3615
  736MPD2    H310935   4.369   1.476  12.255  2.1999  0.7691 -0.5545
  736MPD2     N10936   4.519   1.831  12.010 -0.3350  0.0138 -0.8529
  736MPD2    H510937   4.549   1.760  11.943 -0.0662  0.7031 -1.4688
  736MPD2    N110938   4.265   1.879  12.429  0.9196  0.4557  0.2779
  736MPD2    H710939   4.221   1.821  12.501 -0.4085 -1.3543 -1.9861
  737TMC3    C110940   4.581   1.990  11.837  0.4806 -0.5549  0.1128
  737TMC3    C210941   4.559   2.104  11.769  0.1257 -0.0376 -0.4291
  737TMC3    C310942   4.615   2.121  11.644  0.2395 -0.3424 -0.1284
  737TMC3    C410943   4.665   1.892  11.789 -1.1732  0.5964 -0.4466
  737TMC3    C510944   4.708   1.910  11.657  0.9390  0.0790 -0.3997
  737TMC3    C610945   4.688   2.024  11.586 -0.1008  0.1609  0.1084
  737TMC3     C10946   4.508   1.963  11.964  0.5286  0.3082  0.3005
  737TMC3     O10947   4.471   2.063  12.015  0.0335  0.0533  0.1395
  737TMC3     H10948   4.488   2.177  11.806  0.6071  1.3973 -2.2804
  737TMC3    H110949   4.686   1.801  11.843  0.1519  0.7521 -0.6957
  737TMC3    H210950   4.725   2.039  11.485 -1.0920  0.9600 -0.1274
  737TMC3    C710951   4.736   1.789  11.579 -1.2277  1.4028 -1.2837
  737TMC3    C810952   4.604   2.251  11.582  0.0055  0.3249  0.1655
  737TMC3    O110953   4.678   1.688  11.621 -0.0503  0.0986  0.2968
  737TMC3    O210954   4.605   2.341  11.666  0.3234  0.2565 -0.8157
  738MPD2     C10955   0.345   1.528  15.307 -0.4955  0.1556 -0.2385
  738MPD2    C110956   0.337   1.458  15.183 -0.4976 -0.2007 -0.5682
  738MPD2    C210957   0.387   1.527  15.077  0.1674  0.2806  0.2773
  738MPD2    C310958   0.434   1.660  15.092 -0.2073  0.0482 -0.1744
  738MPD2    C410959   0.426   1.728  15.208  0.1737  0.0825  0.1468
  738MPD2    C510960   0.376   1.663  15.314 -0.1795  0.8535 -0.0559
  738MPD2     H10961   0.364   1.481  14.982  0.4185  1.9163 -0.5674
  738MPD2    H110962   0.449   1.834  15.206  0.6661 -0.0530 -1.5177
  738MPD2    H210963   0.299   1.498  15.400  0.8481 -1.3038 -0.0404
  738MPD2    H310964   0.378   1.721  15.406  0.1826  0.9765 -0.1420
  738MPD2     N10965   0.500   1.730  14.991 -0.6197  0.3689 -0.2068
  738MPD2    H510966   0.541   1.822  15.006 -0.3018  0.2789 -0.5208
  738MPD2    N110967   0.273   1.329  15.165 -0.0434  0.2286  0.2411
  738MPD2    H710968   0.264   1.290  15.071 -1.5293 -0.0778  0.4972
  739TMC3    C110969   0.617   1.770  14.797  0.1042  0.9499 -0.8586
  739TMC3    C210970   0.646   1.731  14.667  0.4541  0.5571  0.6721
  739TMC3    C310971   0.769   1.753  14.615 -0.2286 -0.5212 -0.5782
  739TMC3    C410972   0.721   1.830  14.872 -1.1412 -0.3581 -0.4539
  739TMC3    C510973   0.845   1.841  14.820 -0.4043 -0.7714  0.5645
  739TMC3    C610974   0.868   1.809  14.686 -0.2357  0.0399  0.2231
  739TMC3     C10975   0.515   1.688  14.860  0.2410 -0.3151  0.1984
  739TMC3     O10976   0.480   1.591  14.795  0.2879 -0.6121  0.3207
  739TMC3     H10977   0.573   1.681  14.604 -0.3179  1.9345  0.4658
  739TMC3    H110978   0.699   1.875  14.968  1.3114  0.0043 -0.0608
  739TMC3    H210979   0.971   1.806  14.651 -1.1077 -0.7799 -2.2027
  739TMC3    C710980   0.947   1.861  14.911 -0.0307  0.7316  0.3375
  739TMC3    C810981   0.764   1.765  14.466  0.0113  0.4344  0.5019
  739TMC3    O110982   0.920   1.852  15.031  0.1796 -0.3033  0.3413
  739TMC3    O210983   0.680   1.706  14.405  0.1505  0.0693  0.3148
  740TMC3    C110984   0.814   2.672  14.155 -0.1527  0.1453 -0.3999
  740TMC3    C210985   0.887   2.677  14.267 -0.0347  0.7603  0.6370
  740TMC3    C310986   0.988   2.767  14.278  0.0008 -0.2497 -0.2606
  740TMC3    C410987   0.859   2.730  14.035  0.2827  0.1600  0.8082
  740TMC3    C510988   0.965   2.815  14.046 -0.6046 -0.0596 -0.6544
  740TMC3    C610989   1.036   2.832  14.170  0.5607  0.4095  0.1073
  740TMC3     C10990   0.693   2.582  14.150 -0.0950 -0.4369  0.0072
  740TMC3     O10991   0.660   2.543  14.035  0.5806  0.2742 -0.3152
  740TMC3     H10992   0.868   2.624  14.359  0.5529 -0.8951 -0.1955
  740TMC3    H110993   0.798   2.722  13.945 -0.3931  0.4838  1.2449
  740TMC3    H210994   1.125   2.894  14.168  0.7917  0.0555 -0.5031
  740TMC3    C710995   1.043   2.832  13.927  0.0449 -0.2223 -0.3914
  740TMC3    C810996   1.071   2.780  14.395  0.6397 -0.5772 -0.7050
  740TMC3    O110997   1.160   2.864  13.950 -0.0535 -0.2461  0.3962
  740TMC3    O210998   1.186   2.811  14.382 -0.6424 -0.1802 -0.2800
  741TMC3    C110999   0.659   2.000  13.998 -0.3830 -0.1320 -1.2188
  741TMC3    C211000   0.581   1.892  14.027 -1.0196  0.5124 -0.4591
  741TMC3    C311001   0.509   1.906  14.142  0.0581  0.2258  0.2600
  741TMC3    C411002   0.693   2.097  14.090 -0.0517  0.0425 -0.2375
  741TMC3    C511003   0.631   2.084  14.209 -0.5483 -0.3904  0.4474
  741TMC3    C611004   0.529   1.999  14.234 -1.1634  0.7718  0.5289
  741TMC3     C11005   0.695   2.033  13.860 -0.2213 -0.5951  0.4544
  741TMC3     O11006   0.762   2.132  13.837  0.5904 -0.5707 -0.2271
  741TMC3     H11007   0.549   1.826  13.946 -2.1139 -0.5235  0.8140
  741TMC3    H111008   0.743   2.192  14.074  0.3614 -0.1503 -0.0801
  741TMC3    H211009   0.474   1.987  14.327  0.0823 -2.1221  0.8808
  741TMC3    C711010   0.683   2.148  14.322  0.2602  0.9722 -0.2971
  741TMC3    C811011   0.406   1.806  14.161  0.3272 -0.2471  0.8127
  741TMC3    O111012   0.633   2.111  14.428  0.1218  0.1958 -0.5093
  741TMC3    O211013   0.303   1.837  14.226  0.3195  0.9512  0.2261
  742TMC3    C111014   0.677   0.541  15.171 -0.3689  0.5950  0.2765
  742TMC3    C211015   0.577   0.500  15.079 -0.1154  0.6324  0.0346
  742TMC3    C311016   0.613   0.483  14.952 -0.7841 -0.2806  0.2629
  742TMC3    C411017   0.808   0.545  15.139  0.3533 -0.5592  0.3416
  742TMC3    C511018   0.838   0.532  15.007  0.4188  0.6023 -0.4500
  742TMC3    C611019   0.742   0.510  14.912 -0.5815  0.1924  0.4993
  742TMC3     C11020   0.650   0.540  15.313  0.2659  1.4728  0.2918
  742TMC3     O11021   0.743   0.527  15.390  0.0413  0.4154  0.1257
  742TMC3     H11022   0.482   0.468  15.120 -0.2601  0.4718 -0.4258
  742TMC3    H111023   0.881   0.572  15.214  1.9273 -0.8677 -1.0845
  742TMC3    H211024   0.777   0.481  14.814 -2.1894 -0.6436  0.1770
  742TMC3    C711025   0.975   0.493  14.964  0.5690 -0.0658  0.8018
  742TMC3    C811026   0.535   0.403  14.867 -0.9195  0.0550 -0.2368
  742TMC3    O111027   1.000   0.417  14.871  0.1388 -0.7698 -0.0017
  742TMC3    O211028   0.599   0.332  14.789  0.5287  0.5219 -0.1012
  743MPD2     C11029   3.384   2.670   1.679 -0.4620  0.0227  0.1116
  743MPD2    C111030   3.436   2.578   1.594  0.5407  0.3705 -0.1384
  743MPD2    C211031   3.573   2.568   1.585  0.2051  0.4869 -0.1926
  743MPD2    C311032   3.656   2.654   1.651 -0.5580  0.5612 -0.1432
  743MPD2    C411033   3.600   2.752   1.732 -0.2992 -0.2194 -0.8871
  743MPD2    C511034   3.468   2.765   1.731  0.2062  0.3068 -0.6201
  743MPD2     H11035   3.617   2.484   1.532  2.0386 -0.6596  3.1458
  743MPD2    H111036   3.656   2.828   1.784 -0.3349 -0.9151  0.1732
  743MPD2    H211037   3.278   2.686   1.696 -1.0591 -1.5179 -2.1463
  743MPD2    H311038   3.421   2.840   1.793 -2.1572 -0.4121 -1.5665
  743MPD2     N11039   3.798   2.637   1.632  0.3625  0.2002 -0.4694
  743MPD2    H511040   3.832   2.567   1.567  1.6043  1.8243 -1.5655
  743MPD2    N111041   3.341   2.493   1.529  0.0161 -0.0345  0.7867
  743MPD2    H711042   3.240   2.502   1.538 -0.2254 -1.4631 -0.7104
  744TMC3    C111043   3.268   2.312   1.373 -0.7839 -0.4684  0.2172
  744TMC3    C211044   3.147   2.311   1.443 -0.4501  0.2941 -0.1198
  744TMC3    C311045   3.049   2.239   1.391  0.2191 -0.0196  0.1289
  744TMC3    C411046   3.286   2.253   1.255 -0.8881  0.5047 -0.5277
  744TMC3    C511047   3.184   2.191   1.193 -0.1824 -0.1265 -0.4531
  744TMC3    C611048   3.060   2.186   1.259 -0.3119  0.0818  0.0886
  744TMC3     C11049   3.378   2.395   1.429 -0.3749  0.4914 -0.0562
  744TMC3     O11050   3.483   2.390   1.366 -0.5919 -0.4195  0.6643
  744TMC3     H11051   3.143   2.365   1.537  2.4283  1.4991 -0.6776
  744TMC3    H111052   3.385   2.244   1.211 -0.5037  0.9451  0.2550
  744TMC3    H211053   2.979   2.145   1.201 -0.3611  0.0057  0.2104
  744TMC3    C711054   3.214   2.099   1.083  0.9865  0.2730 -0.1345
  744TMC3    C811055   2.912   2.275   1.425  0.2738 -0.5961 -0.6806
  744TMC3    O111056   3.332   2.103   1.057 -0.6325  0.5159  0.0710
  744TMC3    O211057   2.898   2.385   1.482  0.0564  0.2064 -0.0200
  745TMC3    C111058   1.076   4.475  13.830 -0.2569 -0.1506  0.0619
  745TMC3    C211059   0.966   4.461  13.906  0.6538 -0.1508  0.1606
  745TMC3    C311060   0.841   4.469  13.850  0.3727 -0.8166 -0.1415
  745TMC3    C411061   1.066   4.499  13.697 -0.0996 -0.3347  0.0778
  745TMC3    C511062   0.947   4.519  13.639 -0.2834  0.6475 -0.0187
  745TMC3    C611063   0.832   4.493  13.712  0.4291  0.3565 -0.8585
  745TMC3     C11064   1.196   4.519  13.895 -0.4663 -0.4699 -0.4493
  745TMC3     O11065   1.208   4.481  14.011 -0.2715  0.2747 -0.1668
  745TMC3     H11066   0.971   4.458  14.015 -2.0253  0.1561  0.2918
  745TMC3    H111067   1.157   4.503  13.639 -0.5018 -2.3901 -0.7091
  745TMC3    H211068   0.733   4.508  13.671 -0.4623 -2.4782  0.2734
  745TMC3    C711069   0.930   4.549  13.502 -0.0548 -1.0751  0.0678
  745TMC3    C811070   0.747   4.549  13.934  0.7825  0.8120  0.6363
  745TMC3    O111071   0.833   4.503  13.447 -0.6214 -0.0785  0.0835
  745TMC3    O211072   0.625   4.531  13.926  0.5360  0.6554  0.1203
  746TMC3    C111073   3.201   2.095  10.501  0.0300 -0.7340 -0.8683
  746TMC3    C211074   3.196   2.029  10.386 -0.1393  0.2078 -0.1385
  746TMC3    C311075   3.192   1.895  10.394  0.4759 -0.1368  0.2971
  746TMC3    C411076   3.221   2.032  10.626 -0.0995  0.1828 -0.6343
  746TMC3    C511077   3.250   1.898  10.630 -0.1488 -0.0052 -0.3500
  746TMC3    C611078   3.215   1.827  10.516  0.0706 -0.2550 -0.6049
  746TMC3     C11079   3.122   2.212  10.499  0.3131 -0.2313  0.3387
  746TMC3     O11080   3.074   2.248  10.395  0.0610  0.1659  0.5766
  746TMC3     H11081   3.181   2.082  10.293 -1.5076 -0.1862 -0.1426
  746TMC3    H111082   3.232   2.093  10.715  0.6273  1.7448 -1.7881
  746TMC3    H211083   3.213   1.719  10.509 -1.2941 -0.1605 -1.5102
  746TMC3    C711084   3.218   1.837  10.753 -0.0156  0.3282 -0.4248
  746TMC3    C811085   3.114   1.816  10.296  0.5422 -0.4861  0.1658
  746TMC3    O111086   3.160   1.913  10.824 -0.5386  0.4902  0.2623
  746TMC3    O211087   3.096   1.697  10.319  0.6414 -0.7965 -0.7495
  747TMC3    C111088   0.579   1.824  10.695  0.5042 -0.4150 -0.3869
  747TMC3    C211089   0.514   1.735  10.782 -0.6975  0.1537  0.6711
  747TMC3    C311090   0.480   1.777  10.908 -1.0821  0.5171  0.0679
  747TMC3    C411091   0.597   1.958  10.724  0.2247  0.3138  0.7818
  747TMC3    C511092   0.554   1.995  10.850 -0.2250 -0.6037 -0.5550
  747TMC3    C611093   0.496   1.909  10.936 -0.1591  0.2115 -0.4354
  747TMC3     C11094   0.561   1.783  10.557  0.1080  0.7879 -0.2566
  747TMC3     O11095   0.486   1.694  10.530 -0.7962  0.2633 -0.5206
  747TMC3     H11096   0.477   1.639  10.748 -0.9710  0.6243 -0.3533
  747TMC3    H111097   0.627   2.022  10.641 -0.5500  2.0505  1.8544
  747TMC3    H211098   0.486   1.955  11.034  0.1296  0.1433 -0.3744
  747TMC3    C711099   0.511   2.138  10.863 -0.0584  1.0324  0.2860
  747TMC3    C811100   0.395   1.690  10.991 -0.1963  0.2584 -0.1289
  747TMC3    O111101   0.468   2.167  10.973 -0.1056 -0.7894 -0.2881
  747TMC3    O211102   0.391   1.571  10.959  0.4999 -0.1940  0.1359
  748MPD2     C11103   2.940   3.004   1.254 -0.6245  0.0241  0.3386
  748MPD2    C111104   2.963   2.953   1.129 -0.3066 -0.5553 -0.0323
  748MPD2    C211105   3.094   2.983   1.082  0.2277  0.2386  0.1365
  748MPD2    C311106   3.188   3.067   1.147  0.2159  0.5626  0.5425
  748MPD2    C411107   3.153   3.118   1.271 -0.3261  0.3019  0.1241
  748MPD2    C511108   3.029   3.080   1.324  0.6058 -0.1076 -0.5885
  748MPD2     H11109   3.135   2.933   0.994  1.3459  0.5237  0.4899
  748MPD2    H111110   3.229   3.159   1.337 -1.1213 -1.3742  2.0884
  748MPD2    H211111   2.844   2.987   1.301 -0.0969  1.2585  1.8638
  748MPD2    H311112   3.008   3.114   1.424  1.4134 -0.3621 -0.3337
  748MPD2     N11113   3.313   3.077   1.085  0.4145  0.0267 -0.5217
  748MPD2    H511114   3.330   3.030   0.996  1.1942  0.2263 -0.4777
  748MPD2    N111115   2.860   2.874   1.071 -0.2139 -0.0257 -0.1537
  748MPD2    H711116   2.774   2.866   1.124 -0.9838 -1.0020 -1.5318
  749TMC3    C111117   3.523   3.161   1.041  0.2367  0.2631 -0.9600
  749TMC3    C211118   3.648   3.135   1.095  0.2880  0.0884  0.0056
  749TMC3    C311119   3.752   3.211   1.053 -0.1609  0.5170 -0.2397
  749TMC3    C411120   3.509   3.255   0.939 -0.0223  0.0041 -0.0951
  749TMC3    C511121   3.620   3.333   0.910 -0.8430  0.4210  0.2945
  749TMC3    C611122   3.742   3.313   0.962  0.5640  0.3975 -0.4697
  749TMC3     C11123   3.412   3.159   1.128  0.6884  0.2591  0.4136
  749TMC3     O11124   3.424   3.219   1.235  0.2255  0.1838 -0.0235
  749TMC3     H11125   3.652   3.052   1.165 -0.2451 -0.6237 -0.8193
  749TMC3    H111126   3.411   3.280   0.902 -1.2618 -0.0094  3.1452
  749TMC3    H211127   3.822   3.380   0.933  0.5953 -0.1457 -1.6239
  749TMC3    C711128   3.596   3.459   0.849  0.6204 -0.3858 -0.0677
  749TMC3    C811129   3.892   3.190   1.100  0.1511  0.2551  0.2691
  749TMC3    O111130   3.680   3.547   0.865  0.2656 -0.6406  0.0259
  749TMC3    O211131   3.967   3.287   1.091 -0.3066 -0.2424 -0.4813
  750MPD2     C11132   2.887   3.934  11.442  0.0538  0.6058 -0.1283
  750MPD2    C111133   2.776   3.862  11.474  0.0782 -0.3897 -0.4676
  750MPD2    C211134   2.754   3.737  11.428 -0.1550 -0.7096  0.0921
  750MPD2    C311135   2.836   3.690  11.327  0.2585 -0.2715 -0.2368
  750MPD2    C411136   2.946   3.761  11.284 -0.5812 -0.5066 -0.0109
  750MPD2    C511137   2.973   3.874  11.353  0.5833  0.0580 -0.1024
  750MPD2     H11138   2.658   3.693  11.452  0.1270 -0.3695  1.8466
  750MPD2    H111139   3.017   3.721  11.213 -1.4293  0.2373 -1.2648
  750MPD2    H211140   2.922   4.024  11.492 -0.5207  0.4976  0.4620
  750MPD2    H311141   3.071   3.916  11.333 -0.2106  2.3822  0.8821
  750MPD2     N11142   2.809   3.567  11.249  0.5121 -0.3142 -0.2055
  750MPD2    H511143   2.875   3.546  11.174  2.9206  1.7230  1.3792
  750MPD2    N111144   2.688   3.918  11.576  0.9144 -0.4607  0.1018
  750MPD2    H711145   2.699   4.018  11.582 -0.3565 -0.3371  0.5235
  751TMC3    C111146   2.691   3.378  11.174 -0.1695  0.0089  0.0271
  751TMC3    C211147   2.577   3.306  11.171 -0.2203 -0.0010 -0.3147
  751TMC3    C311148   2.548   3.226  11.066  0.0210  0.1586 -0.1609
  751TMC3    C411149   2.785   3.385  11.074  0.2111 -0.2713  0.8669
  751TMC3    C511150   2.752   3.306  10.967 -0.0483 -0.4066 -0.7787
  751TMC3    C611151   2.642   3.221  10.966  0.3628  0.5102  0.2772
  751TMC3     C11152   2.711   3.478  11.274  0.7235  1.0186  0.5807
  751TMC3     O11153   2.614   3.496  11.345 -0.4952 -0.2068  0.0967
  751TMC3     H11154   2.510   3.309  11.256  0.4453  0.2477  0.2021
  751TMC3    H111155   2.878   3.438  11.057 -0.3009  0.5571  0.6213
  751TMC3    H211156   2.611   3.170  10.875  0.5966 -0.3817  0.6991
  751TMC3    C711157   2.865   3.259  10.889  0.3392  0.3121  0.2198
  751TMC3    C811158   2.474   3.099  11.079 -0.5413  0.2491  0.7396
  751TMC3    O111159   2.967   3.324  10.887 -0.3395 -0.4538 -0.4439
  751TMC3    O211160   2.523   3.007  11.020  0.2533  0.1177  0.0547
  752TMC3    C111161   2.079   3.673  16.506  0.0646  0.1364 -1.5323
  752TMC3    C211162   2.211   3.630  16.507 -0.0800  0.0018  0.0271
  752TMC3    C311163   2.248   3.547  16.613  0.2070  0.6219  0.2602
  752TMC3    C411164   1.991   3.640  16.611  0.1465  0.2603  0.0698
  752TMC3    C511165   2.038   3.573  16.714 -0.1420 -0.5824 -0.2154
  752TMC3    C611166   2.164   3.521  16.716  0.5297  0.4921 -0.4000
  752TMC3     C11167   2.046   3.781  16.411 -0.4469  0.1843  0.0746
  752TMC3     O11168   2.127   3.820  16.328  0.8787  0.3418 -0.0724
  752TMC3     H11169   2.282   3.667  16.434 -1.1853  2.4827  0.2097
  752TMC3    H111170   1.884   3.656  16.606 -0.3459 -2.8415  0.5264
  752TMC3    H211171   2.204   3.457  16.795 -0.1336  0.1659 -0.3229
  752TMC3    C711172   1.955   3.533  16.830  0.1529  0.0951 -0.1330
  752TMC3    C811173   2.358   3.463  16.581 -0.3085 -1.0390 -0.0199
  752TMC3    O111174   1.996   3.435  16.892 -0.2726 -0.3690 -0.2345
  752TMC3    O211175   2.399   3.481  16.466  0.2185 -0.1936 -0.4820
  753TMC3    C111176   4.032   4.528  13.569 -0.1511  0.1009  0.5355
  753TMC3    C211177   4.087   4.597  13.676 -0.0395  0.2236  0.1842
  753TMC3    C311178   4.205   4.549  13.735 -0.3525 -0.0095 -0.0522
  753TMC3    C411179   4.080   4.408  13.529  0.3782 -0.1201  0.0442
  753TMC3    C511180   4.199   4.361  13.584 -0.2495  0.8597  0.0668
  753TMC3    C611181   4.265   4.432  13.683  0.0150  0.3382  0.3703
  753TMC3     C11182   3.975   4.603  13.454  0.0437  0.6277  0.3111
  753TMC3     O11183   3.991   4.724  13.455 -0.7036  0.2630  0.0299
  753TMC3     H11184   4.057   4.699  13.696  0.2527  0.2324  0.5813
  753TMC3    H111185   4.059   4.371  13.430 -2.8561  0.5517  0.5051
  753TMC3    H211186   4.360   4.394  13.717 -0.6436 -2.2756 -0.7582
  753TMC3    C711187   4.273   4.251  13.531 -0.2248 -0.2859  0.2905
  753TMC3    C811188   4.250   4.612  13.853  0.1867  0.3031  0.3099
  753TMC3    O111189   4.395   4.239  13.557  0.1533 -0.2924 -0.1830
  753TMC3    O211190   4.198   4.721  13.882 -0.3563 -0.3207  0.4593
  754MPD2     C11191   2.440   3.433  12.823 -0.4709 -0.1732  0.9740
  754MPD2    C111192   2.405   3.298  12.833  0.1130  0.0723  0.0891
  754MPD2    C211193   2.310   3.246  12.743 -0.5008  0.3196  0.0420
  754MPD2    C311194   2.250   3.331  12.658  0.2650  0.7270  0.6692
  754MPD2    C411195   2.287   3.464  12.647  0.9046 -0.0867 -0.9996
  754MPD2    C511196   2.392   3.509  12.722 -0.0529  0.7055  0.1657
  754MPD2     H11197   2.277   3.143  12.744 -2.4022  0.9351  0.2644
  754MPD2    H111198   2.238   3.528  12.575  0.1238 -1.0208 -1.2993
  754MPD2    H211199   2.512   3.474  12.893  0.2369  0.2630 -0.0060
  754MPD2    H311200   2.417   3.614  12.712 -1.1496  1.1447  2.0618
  754MPD2     N11201   2.126   3.302  12.594  0.0751 -0.1164  0.8968
  754MPD2    H511202   2.078   3.388  12.570  0.8690  0.7757  2.5093
  754MPD2    N111203   2.469   3.226  12.934  0.4409 -0.4848 -0.3117
  754MPD2    H711204   2.543   3.268  12.989  0.3136  1.8594 -1.9769
  755MPD2     C11205   2.240   3.377  13.339  0.0894  0.1858  0.0121
  755MPD2    C111206   2.149   3.466  13.287 -0.4024 -0.1666  0.2876
  755MPD2    C211207   2.077   3.425  13.182  0.0286 -0.2658  0.7469
  755MPD2    C311208   2.078   3.299  13.124 -0.7557  0.1305  0.4279
  755MPD2    C411209   2.159   3.205  13.184 -0.3558 -0.2856  1.3403
  755MPD2    C511210   2.247   3.251  13.283  0.1256  0.2793 -0.1904
  755MPD2     H11211   2.004   3.498  13.149  0.8174  0.0558 -0.2896
  755MPD2    H111212   2.159   3.103  13.147 -0.8485  0.7194 -1.4156
  755MPD2    H211213   2.313   3.402  13.415 -0.9614 -0.4453  1.2079
  755MPD2    H311214   2.320   3.179  13.318 -1.0831 -0.2862  1.1712
  755MPD2     N11215   1.991   3.267  13.014  0.1824 -0.0264 -0.6912
  755MPD2    H511216   1.979   3.169  12.991  2.8625 -0.5666  0.1916
  755MPD2    N111217   2.146   3.600  13.331  0.2367  0.3928  0.6930
  755MPD2    H711218   2.078   3.658  13.283  1.1053 -0.2024 -1.2786
  756MPD2     C11219   3.120   4.369   9.862 -0.3747  0.3712  0.5739
  756MPD2    C111220   3.002   4.301   9.881 -0.3708  0.6139 -0.1690
  756MPD2    C211221   2.914   4.308   9.777  0.1034  0.6059  0.4260
  756MPD2    C311222   2.945   4.362   9.650 -0.5012 -0.4083  0.4482
  756MPD2    C411223   3.074   4.408   9.631 -0.2704 -0.9902  0.3069
  756MPD2    C511224   3.162   4.417   9.737  0.0728  0.2192  0.2908
  756MPD2     H11225   2.818   4.259   9.786  0.9733 -1.4653 -1.6592
  756MPD2    H111226   3.113   4.456   9.542  0.6802  0.7115  1.6494
  756MPD2    H211227   3.195   4.376   9.939  0.8392 -2.6673 -0.3306
  756MPD2    H311228   3.256   4.472   9.741  0.2394 -0.0821  0.5490
  756MPD2     N11229   2.855   4.347   9.542  0.6183  0.2593  0.2440
  756MPD2    H511230   2.781   4.278   9.546  0.3442  0.5903  0.9716
  756MPD2    N111231   2.960   4.260  10.007  0.6436 -0.1630  0.3825
  756MPD2    H711232   2.862   4.234  10.013  0.6367 -0.7948 -2.4041
  757MPD2     C11233   2.014   4.164   9.488  0.6436  0.0625 -0.3218
  757MPD2    C111234   2.105   4.162   9.587  0.4868  0.4371 -0.2181
  757MPD2    C211235   2.240   4.173   9.558  0.0537 -0.5855  0.0977
  757MPD2    C311236   2.285   4.169   9.423  1.0103 -0.5390  0.4353
  757MPD2    C411237   2.187   4.181   9.327 -0.1957 -0.2172 -0.8625
  757MPD2    C511238   2.057   4.178   9.361  0.1023 -0.0010 -0.1981
  757MPD2     H11239   2.317   4.191   9.632  1.1368 -1.3146 -0.8461
  757MPD2    H111240   2.211   4.186   9.221  2.5024 -1.3711 -0.3032
  757MPD2    H211241   1.907   4.164   9.502  0.4835 -1.5535 -1.5735
  757MPD2    H311242   1.987   4.181   9.279  1.0883 -1.4962 -1.1028
  757MPD2     N11243   2.427   4.173   9.398  0.2040  0.0519 -0.1450
  757MPD2    H511244   2.487   4.192   9.478  1.3784 -2.9598 -0.2937
  757MPD2    N111245   2.052   4.176   9.723 -0.9297  0.3374 -0.0140
  757MPD2    H711246   1.953   4.194   9.736 -0.8984 -0.9267  1.8643
  758MPD2     C11247   3.035   3.346  15.778  0.6355  0.1361 -0.6815
  758MPD2    C111248   3.073   3.258  15.877  0.4266  0.3641  0.0198
  758MPD2    C211249   3.055   3.298  16.012  0.2516 -0.2613  0.6433
  758MPD2    C311250   2.988   3.416  16.033 -0.4603  0.3689  0.1744
  758MPD2    C411251   2.929   3.493  15.937  0.1280  0.2979 -0.5021
  758MPD2    C511252   2.960   3.456  15.811 -0.1031 -0.3143 -0.4510
  758MPD2     H11253   3.084   3.228  16.089  0.9256 -0.8699 -0.1575
  758MPD2    H111254   2.876   3.584  15.960 -1.7543 -0.5172 -1.6366
  758MPD2    H211255   3.074   3.334  15.678  1.0148  2.2574 -0.8019
  758MPD2    H311256   2.926   3.521  15.731  0.3349 -0.8661 -1.0882
  758MPD2     N11257   2.968   3.463  16.163  0.2164  0.4784 -0.1580
  758MPD2    H511258   2.909   3.545  16.171 -1.6811 -0.7277 -1.7308
  758MPD2    N111259   3.154   3.147  15.836  0.0961  0.3206 -0.2460
  758MPD2    H711260   3.177   3.144  15.738  0.4701 -1.7361 -0.0971
  759MPD2     C11261   1.708   1.326  10.022 -0.9149 -0.2840 -0.4996
  759MPD2    C111262   1.641   1.397  10.116  0.1774  0.8087 -0.3909
  759MPD2    C211263   1.659   1.534  10.113 -0.2661  0.5915  0.4354
  759MPD2    C311264   1.729   1.600  10.013  0.1724  0.2480 -0.0178
  759MPD2    C411265   1.794   1.527   9.917 -0.4012  0.1776  0.1883
  759MPD2    C511266   1.790   1.390   9.925 -0.0970 -0.2923  0.2023
  759MPD2     H11267   1.633   1.591  10.202  2.2634  0.6539  1.1385
  759MPD2    H111268   1.858   1.575   9.843  0.2556 -0.6051  0.2505
  759MPD2    H211269   1.705   1.219  10.036  0.4675 -0.2219  0.2012
  759MPD2    H311270   1.849   1.325   9.861 -2.2386 -0.4650 -1.6087
  759MPD2     N11271   1.753   1.741  10.031 -0.2581 -0.2689  0.0914
  759MPD2    H511272   1.734   1.771  10.126  0.6898 -0.2704  0.2787
  759MPD2    N111273   1.587   1.323  10.218 -0.5170  0.3583 -0.1063
  759MPD2    H711274   1.598   1.223  10.204 -0.0452  0.2892  0.8151
  760MPD2     C11275   0.687   3.683  11.681 -0.4210  0.3789 -0.1301
  760MPD2    C111276   0.807   3.670  11.614  0.5225  0.8762 -0.4075
  760MPD2    C211277   0.842   3.548  11.571  0.2349  0.3992  0.5877
  760MPD2    C311278   0.769   3.437  11.603  0.5594  0.0713  0.1274
  760MPD2    C411279   0.664   3.448  11.686 -0.4989 -0.5556 -0.3262
  760MPD2    C511280   0.620   3.572  11.723  0.0319 -0.1231 -0.7165
  760MPD2     H11281   0.932   3.548  11.511  0.6120  0.4041  1.1549
  760MPD2    H111282   0.604   3.363  11.714  2.1611 -2.3191  0.0777
  760MPD2    H211283   0.642   3.781  11.693 -1.1920  0.0748 -0.5163
  760MPD2    H311284   0.530   3.588  11.782 -1.0577 -1.2223 -2.0680
  760MPD2     N11285   0.811   3.306  11.568  0.1693 -0.3011  0.0479
  760MPD2    H511286   0.773   3.229  11.622  0.3817  0.0547  0.6968
  760MPD2    N111287   0.877   3.780  11.574 -0.8505  0.0139  0.1597
  760MPD2    H711288   0.940   3.770  11.495 -1.3761  0.4644 -0.3205
  761MPD2     C11289   2.105   2.819  11.301  0.7178 -1.0531 -0.9707
  761MPD2    C111290   2.191   2.782  11.198 -0.3754  0.5016  0.0280
  761MPD2    C211291   2.286   2.880  11.158 -0.2675  0.0520 -0.4307
  761MPD2    C311292   2.276   3.013  11.200  0.1338 -0.1492  0.3637
  761MPD2    C411293   2.181   3.050  11.286  0.2715 -0.1289  0.3384
  761MPD2    C511294   2.102   2.952  11.339  0.3131  0.0516 -0.4407
  761MPD2     H11295   2.369   2.862  11.090  1.1053  0.1844  1.1971
  761MPD2    H111296   2.166   3.152  11.322 -0.0052 -0.2976  0.6954
  761MPD2    H211297   2.030   2.756  11.348 -1.7760  3.5441  1.2407
  761MPD2    H311298   2.037   2.981  11.421  0.7412 -3.5348  1.1727
  761MPD2     N11299   2.362   3.109  11.153 -0.0583  0.1667 -0.6453
  761MPD2    H511300   2.336   3.200  11.191  0.3827 -0.5931  1.4463
  761MPD2    N111301   2.207   2.645  11.166 -0.1129 -0.4420 -0.5586
  761MPD2    H711302   2.131   2.580  11.181 -0.1883 -0.7326 -2.1790
  762MPD2     C11303   2.777   2.013  10.779  0.6945 -0.5556 -0.2573
  762MPD2    C111304   2.684   2.117  10.752 -0.4149  0.3122 -0.2695
  762MPD2    C211305   2.682   2.167  10.624 -0.5558 -0.3507 -0.7860
  762MPD2    C311306   2.742   2.102  10.520  0.1269 -0.0054 -0.3115
  762MPD2    C411307   2.822   1.992  10.549 -0.3857 -0.4602 -0.2654
  762MPD2    C511308   2.846   1.955  10.680 -0.5653  0.8514  0.3938
  762MPD2     H11309   2.625   2.254  10.595 -0.7328 -0.2639 -0.1564
  762MPD2    H111310   2.879   1.937  10.475 -1.9534 -2.6080  0.1378
  762MPD2    H211311   2.797   1.982  10.881 -0.4235 -1.0301 -0.1862
  762MPD2    H311312   2.912   1.872  10.703  0.5216  1.7665  0.5369
  762MPD2     N11313   2.723   2.149  10.384  0.6312 -0.1584 -0.3380
  762MPD2    H511314   2.683   2.242  10.376 -0.7066 -0.5404  1.9485
  762MPD2    N111315   2.599   2.169  10.856  0.6759 -0.0224 -0.0889
  762MPD2    H711316   2.608   2.127  10.948  1.3825  0.2890 -0.0128
  763MPD2     C11317   0.542   3.436  15.850  0.4081 -0.1344 -0.5028
  763MPD2    C111318   0.405   3.426  15.869  0.0309 -0.0013 -0.5936
  763MPD2    C211319   0.323   3.543  15.881 -0.5145 -0.2849 -0.1003
  763MPD2    C311320   0.376   3.674  15.861  0.1842  0.6792  0.3213
  763MPD2    C411321   0.514   3.670  15.856  0.4144  0.3588 -0.7559
  763MPD2    C511322   0.595   3.560  15.863  0.1698  0.1408  0.3637
  763MPD2     H11323   0.215   3.535  15.880 -0.7218  2.3148  1.8684
  763MPD2    H111324   0.573   3.761  15.850 -1.7173  1.7615 -0.2315
  763MPD2    H211325   0.610   3.352  15.853 -0.9509 -1.1392  1.6025
  763MPD2    H311326   0.699   3.566  15.836 -0.1246 -0.5734 -0.9460
  763MPD2     N11327   0.309   3.802  15.854  0.5586  0.6256 -0.8113
  763MPD2    H511328   0.363   3.888  15.852  0.6398  0.6435  2.5872
  763MPD2    N111329   0.344   3.294  15.879  0.4108  0.2662  0.0022
  763MPD2    H711330   0.242   3.286  15.881  0.3039  1.0121 -1.9449
  764MPD2     C11331   3.990   0.208  17.367 -0.2050 -0.2300  0.3563
  764MPD2    C111332   3.876   0.270  17.316 -0.2364 -0.1991 -0.4440
  764MPD2    C211333   3.766   0.277  17.402 -0.4050  0.8177  0.3108
  764MPD2    C311334   3.772   0.226  17.534  0.3412 -0.2905  0.8825
  764MPD2    C411335   3.900   0.185  17.585  0.5076  0.8910  0.2217
  764MPD2    C511336   4.003   0.166  17.495 -0.1218  0.3780  0.3153
  764MPD2     H11337   3.668   0.307  17.368  0.5606  1.4960 -1.8454
  764MPD2    H111338   3.918   0.150  17.686 -0.9146 -1.6730 -0.4222
  764MPD2    H211339   4.074   0.194  17.300  1.3006 -1.7583  2.5504
  764MPD2    H311340   4.090   0.110  17.530 -0.2150 -0.0673 -0.1788
  764MPD2     N11341   3.649   0.215  17.603  0.6379 -0.1338  0.5157
  764MPD2    H511342   3.568   0.236  17.545 -0.3629 -2.2957  1.1596
  764MPD2    N111343   3.852   0.297  17.178 -0.0984  0.8557  0.3853
  764MPD2    H711344   3.759   0.324  17.150 -0.4147  0.8867  1.4811
  765MPD2     C11345   2.786   2.668  15.486  0.2499  0.1783 -0.4746
  765MPD2    C111346   2.848   2.721  15.591  1.1680  0.6008  0.7408
  765MPD2    C211347   2.949   2.646  15.657  0.1165  0.1692 -0.4710
  765MPD2    C311348   2.988   2.521  15.617  0.5167  0.7901 -0.1547
  765MPD2    C411349   2.924   2.468  15.507  0.0258  0.2009 -0.0966
  765MPD2    C511350   2.822   2.539  15.448  0.4304 -0.2209  0.2811
  765MPD2     H11351   2.994   2.679  15.750 -0.1818 -4.4823  1.3318
  765MPD2    H111352   2.946   2.370  15.467 -2.1641 -0.2361 -0.2349
  765MPD2    H211353   2.706   2.715  15.429  0.0519  2.2509  1.4762
  765MPD2    H311354   2.783   2.505  15.352  0.7853 -0.8847  0.3713
  765MPD2     N11355   3.079   2.440  15.693  0.6108  0.6186 -0.4428
  765MPD2    H511356   3.118   2.476  15.780  1.2880 -1.9223  0.3342
  765MPD2    N111357   2.801   2.847  15.638 -0.0004 -0.2314  0.3782
  765MPD2    H711358   2.722   2.891  15.593  2.4170  0.6521 -3.0536
  766MPD2     C11359   2.088   2.956  15.527  0.5322  0.1500 -0.0602
  766MPD2    C111360   2.215   2.911  15.556  0.0849  0.4815  0.0732
  766MPD2    C211361   2.264   2.812  15.470  0.1662 -0.8392 -0.0959
  766MPD2    C311362   2.192   2.764  15.359  0.1392  0.4322  0.0336
  766MPD2    C411363   2.067   2.805  15.340 -0.6014  0.3280  0.7809
  766MPD2    C511364   2.016   2.902  15.424  0.0425  0.1046 -0.6332
  766MPD2     H11365   2.367   2.781  15.481  0.1715 -0.6518  0.3533
  766MPD2    H111366   2.015   2.778  15.248 -1.2560 -3.1700  2.1751
  766MPD2    H211367   2.046   3.033  15.591  0.3683 -0.5546  0.6833
  766MPD2    H311368   1.917   2.943  15.405 -0.7183 -0.8168  1.3651
  766MPD2     N11369   2.251   2.697  15.253  0.0888 -0.4594 -0.1046
  766MPD2    H511370   2.190   2.670  15.177 -1.0209  0.2751  0.5268
  766MPD2    N111371   2.292   2.969  15.656  0.1618  0.2047 -0.1649
  766MPD2    H711372   2.270   3.065  15.682 -0.7980  0.2665 -1.1984
  767MPD2     C11373   1.876   3.024  15.119  0.4890 -0.6491  0.1748
  767MPD2    C111374   2.010   3.018  15.087 -0.1189 -0.3510 -0.0579
  767MPD2    C211375   2.049   2.927  14.984 -0.9189  0.2027  0.2471
  767MPD2    C311376   1.953   2.853  14.911 -0.4444  0.1971 -0.0415
  767MPD2    C411377   1.817   2.862  14.959 -0.5383 -0.4150  0.1715
  767MPD2    C511378   1.784   2.945  15.063 -0.5567 -0.1290 -0.5184
  767MPD2     H11379   2.150   2.901  14.955 -0.6837 -0.4893  1.6994
  767MPD2    H111380   1.743   2.803  14.907  3.3440 -3.6102 -1.7153
  767MPD2    H211381   1.840   3.080  15.204 -0.1715 -1.2345  0.2753
  767MPD2    H311382   1.683   2.949  15.102 -0.4997 -0.8187 -0.3047
  767MPD2     N11383   1.996   2.766  14.805  0.4884  0.3578  0.3010
  767MPD2    H511384   2.097   2.758  14.799  0.3593 -0.6692 -0.4375
  767MPD2    N111385   2.092   3.094  15.170  0.2959  0.1478 -0.0680
  767MPD2    H711386   2.042   3.156  15.232 -2.2706 -0.3440 -1.6734
  768MPD2     C11387   2.503   1.055  11.293 -0.4930  0.4472  0.0951
  768MPD2    C111388   2.609   1.140  11.269 -0.3822 -0.1422  0.1855
  768MPD2    C211389   2.722   1.085  11.209  0.0811  0.3921 -0.0476
  768MPD2    C311390   2.735   0.950  11.182 -0.4996 -0.6088 -0.1410
  768MPD2    C411391   2.636   0.865  11.219 -0.2441 -0.2931  0.3815
  768MPD2    C511392   2.523   0.923  11.277 -0.4448 -0.1875 -0.4000
  768MPD2     H11393   2.805   1.148  11.177  1.8060 -0.7482  2.1400
  768MPD2    H111394   2.639   0.756  11.224 -1.5152 -0.3111  0.8292
  768MPD2    H211395   2.410   1.095  11.332 -1.2186  1.3895 -2.6248
  768MPD2    H311396   2.439   0.858  11.299  0.6772 -1.5162 -0.0412
  768MPD2     N11397   2.851   0.891  11.127  0.1805  0.1283  0.2216
  768MPD2    H511398   2.847   0.792  11.106  0.1584  0.2744 -0.4856
  768MPD2    N111399   2.622   1.279  11.287  0.0262 -0.6784 -0.0817
  768MPD2    H711400   2.707   1.324  11.254  0.4764  0.4686  2.6133
  769MPD2     C11401   4.121   3.828  14.897 -0.3929 -0.4370  0.8572
  769MPD2    C111402   4.033   3.940  14.889  0.2632 -0.4415  0.8780
  769MPD2    C211403   3.998   4.011  15.002 -0.1912  0.0265 -0.3366
  769MPD2    C311404   4.062   3.975  15.116 -0.3832  0.2908  0.3696
  769MPD2    C411405   4.146   3.865  15.124 -0.3823 -0.2597  0.7123
  769MPD2    C511406   4.181   3.791  15.011  0.5136 -1.1270 -0.4446
  769MPD2     H11407   3.922   4.088  15.004  0.5735  0.7910 -0.2855
  769MPD2    H111408   4.205   3.832  15.209  1.1586  3.0448  0.9296
  769MPD2    H211409   4.147   3.781  14.803  0.5977  3.1311 -0.6641
  769MPD2    H311410   4.259   3.717  15.021 -0.2316 -1.7951  0.4069
  769MPD2     N11411   4.038   4.054  15.230 -0.2480 -0.4094 -0.0460
  769MPD2    H511412   3.997   4.146  15.221 -0.5424 -0.5949 -0.6240
  769MPD2    N111413   3.971   3.964  14.763 -0.2778  0.0068 -0.1689
  769MPD2    H711414   4.003   3.898  14.693  1.3311  0.3989  0.1934
  770MPD2     C11415   3.176   3.676  14.731 -0.1442 -0.9254  0.2461
  770MPD2    C111416   3.302   3.663  14.790 -0.3343  0.0936 -0.0065
  770MPD2    C211417   3.393   3.761  14.763 -0.7451  0.3817 -0.3123
  770MPD2    C311418   3.353   3.871  14.692  0.6959 -0.8669 -0.6831
  770MPD2    C411419   3.222   3.887  14.648 -0.1198  0.5971 -0.1880
  770MPD2    C511420   3.132   3.787  14.663  0.7051 -0.0341  0.1790
  770MPD2     H11421   3.493   3.761  14.807 -1.7261  0.4989  1.9172
  770MPD2    H111422   3.188   3.980  14.604 -0.2436 -1.1546 -3.7425
  770MPD2    H211423   3.106   3.594  14.745  0.3032 -1.4283 -0.4604
  770MPD2    H311424   3.036   3.799  14.614  0.1263 -2.0607  0.7997
  770MPD2     N11425   3.450   3.966  14.656 -1.1592  0.0405 -0.4192
  770MPD2    H511426   3.534   3.977  14.711 -0.1658 -0.9071 -1.7451
  770MPD2    N111427   3.329   3.552  14.866  0.4176 -0.2269 -0.0948
  770MPD2    H711428   3.254   3.484  14.872 -0.7859  1.3396  2.8636
  771MPD2     C11429   0.073   1.749  13.741 -0.2620 -1.0486 -0.1937
  771MPD2    C111430   4.721   1.822  13.668 -0.6867  0.1472  0.2968
  771MPD2    C211431   4.599   1.762  13.656 -0.3700  1.1425 -0.3452
  771MPD2    C311432   4.562   1.649  13.711 -0.3534  0.2275 -0.0753
  771MPD2    C411433   4.639   1.589  13.809  0.5555  0.2995 -0.3370
  771MPD2    C511434   0.026   1.646  13.819 -0.5033  0.7163  0.9205
  771MPD2     H11435   4.531   1.810  13.587 -2.3939  0.2403  1.0401
  771MPD2    H111436   4.600   1.509  13.872 -0.5135  1.1355  0.0744
  771MPD2    H211437   0.174   1.779  13.765 -0.8548 -1.0380  2.2455
  771MPD2    H311438   0.086   1.596  13.893  0.4547  1.4333  0.6269
  771MPD2     N11439   4.433   1.590  13.673 -0.2973  0.2074  0.4357
  771MPD2    H511440   4.383   1.632  13.596  1.3228 -1.1053 -1.3197
  771MPD2    N111441   0.003   1.944  13.611  0.5633 -0.1535 -0.2088
  771MPD2    H711442   4.664   1.997  13.576 -0.8986  0.0238  3.3803
  772MPD2     C11443   0.069   2.773  13.836 -0.5731  0.3887 -0.5545
  772MPD2    C111444   4.728   2.667  13.807 -0.0353  0.0598  0.0240
  772MPD2    C211445   4.593   2.669  13.850 -0.1304  0.3080 -0.3272
  772MPD2    C311446   4.540   2.778  13.925 -0.1936 -0.0705 -0.3454
  772MPD2    C411447   4.626   2.875  13.963 -0.2819  0.3224 -0.3594
  772MPD2    C511448   0.022   2.871  13.913  0.0414  0.1479  0.1003
  772MPD2     H11449   4.530   2.582  13.834  1.8308 -1.2885  0.6441
  772MPD2    H111450   4.589   2.966  14.010  0.9185  1.0234 -0.7793
  772MPD2    H211451   0.171   2.786  13.800  0.1511 -1.0490  1.0148
  772MPD2    H311452   0.090   2.948  13.948  1.1162  0.6486 -3.0950
  772MPD2     N11453   4.404   2.779  13.966  0.0925 -0.0024  0.3406
  772MPD2    H511454   4.384   2.846  14.040 -0.1788 -1.1442  1.3047
  772MPD2    N111455   0.037   2.564  13.721 -0.1344  0.1534  0.3901
  772MPD2    H711456   0.129   2.562  13.678 -0.3777 -0.1240 -0.1182
  773MPD2     C11457   4.008   3.739   0.538 -0.3542  0.0816  0.0600
  773MPD2    C111458   3.973   3.684   0.414 -0.2732 -0.5580 -0.1111
  773MPD2    C211459   4.044   3.570   0.371 -0.2622 -0.1128 -0.2218
  773MPD2    C311460   4.133   3.510   0.453  0.2326 -0.2860  0.2976
  773MPD2    C411461   4.165   3.561   0.579  0.5411  0.0459  0.2001
  773MPD2    C511462   4.096   3.673   0.617 -0.2651 -0.2814  0.0170
  773MPD2     H11463   4.021   3.533   0.271 -0.7888  1.5044 -0.6884
  773MPD2    H111464   4.237   3.516   0.647  0.2091  0.5311  0.8803
  773MPD2    H211465   3.968   3.829   0.583 -2.1160 -0.2290 -0.8868
  773MPD2    H311466   4.119   3.721   0.712 -0.4583 -0.0529 -0.0535
  773MPD2     N11467   4.189   3.391   0.399 -0.4335  0.0657 -0.4561
  773MPD2    H511468   4.164   3.355   0.307  0.0472  1.6506 -1.1916
  773MPD2    N111469   3.887   3.752   0.326 -0.6041  0.1470  0.6631
  773MPD2    H711470   3.862   3.721   0.233 -0.1727  0.1679  0.5375
  774MPD2     C11471   3.040   2.377  13.286 -0.8701 -0.2665  0.1634
  774MPD2    C111472   2.963   2.414  13.393 -0.6355  0.1608 -0.5006
  774MPD2    C211473   2.853   2.498  13.385  0.5261  0.4564  0.3391
  774MPD2    C311474   2.829   2.553  13.259 -0.3158 -0.8173  0.8484
  774MPD2    C411475   2.898   2.505  13.147  0.3069 -0.1397 -0.1828
  774MPD2    C511476   3.000   2.414  13.164  0.6528  0.5460 -0.3523
  774MPD2     H11477   2.796   2.536  13.469 -0.3160 -0.2575  0.1023
  774MPD2    H111478   2.892   2.536  13.043  0.2182 -1.3598 -0.5387
  774MPD2    H211479   3.118   2.303  13.303 -0.1827  0.0712 -1.5377
  774MPD2    H311480   3.054   2.369  13.082 -1.0730 -0.7687 -0.7769
  774MPD2     N11481   2.746   2.668  13.255 -0.1329  0.8048  0.2330
  774MPD2    H511482   2.711   2.720  13.335 -1.2858  1.4529 -0.6821
  774MPD2    N111483   3.003   2.359  13.520 -0.2990 -0.3375 -0.1990
  774MPD2    H711484   3.100   2.339  13.541 -0.5389 -1.2961  0.0127
  775MPD2     C11485   4.285   4.002  15.612  1.1763 -0.1064  0.1354
  775MPD2    C111486   4.250   4.110  15.685 -0.0702 -0.3035  0.3715
  775MPD2    C211487   4.323   4.231  15.666  0.9525 -0.3003 -0.4315
  775MPD2    C311488   4.427   4.247  15.582  0.6397 -0.0024  0.0806
  775MPD2    C411489   4.458   4.131  15.507  0.3550 -0.7780  0.2099
  775MPD2    C511490   4.389   4.013  15.519 -0.2444  0.4958 -0.2657
  775MPD2     H11491   4.291   4.320  15.718 -0.3752 -1.2340  0.3415
  775MPD2    H111492   4.539   4.138  15.435 -1.3977  0.4845 -1.6574
  775MPD2    H211493   4.237   3.907  15.625 -1.0254  0.9984  0.0625
  775MPD2    H311494   4.410   3.933  15.449 -2.5237 -0.6883  0.4165
  775MPD2     N11495   4.493   4.374  15.553 -0.3005  0.2621 -0.1788
  775MPD2    H511496   4.535   4.380  15.460  1.0489 -1.4018  0.3374
  775MPD2    N111497   4.148   4.100  15.783  0.2994  0.1471 -0.0602
  775MPD2    H711498   4.108   4.011  15.809  0.2986 -0.3728 -1.8893
  776MPD2     C11499   2.282   4.506  12.034 -1.3674  0.0283  0.1731
  776MPD2    C111500   2.376   4.457  11.948  0.4418  0.2442  0.2710
  776MPD2    C211501   2.441   4.553  11.868 -0.1340 -0.5979  0.2138
  776MPD2    C311502   2.407   4.687  11.870 -0.1274 -0.2531 -0.2193
  776MPD2    C411503   2.332   4.728  11.977 -0.1279 -0.1879 -0.3603
  776MPD2    C511504   2.266   4.639  12.057  0.2945 -0.2020  0.6885
  776MPD2     H11505   2.516   4.513  11.802 -0.0076 -1.2445  0.7481
  776MPD2    H111506   2.307   0.092  11.995  1.3380  0.5288 -2.3880
  776MPD2    H211507   2.232   4.439  12.104 -3.1188  0.6776 -0.4495
  776MPD2    H311508   2.200   4.680  12.133  0.1454 -1.1899  1.0884
  776MPD2     N11509   2.451   0.049  11.781  0.2938 -0.3594  0.0003
  776MPD2    H511510   2.412   0.140  11.801 -1.0188 -0.9883  0.3021
  776MPD2    N111511   2.404   4.317  11.957  0.1997  0.5888 -0.4230
  776MPD2    H711512   2.367   4.271  12.039  1.9931 -2.3537 -1.2704
  777MPD2     C11513   4.360   2.063   0.725 -0.5528 -0.0711  0.2506
  777MPD2    C111514   4.258   2.093   0.814 -0.0382  0.6726 -0.3470
  777MPD2    C211515   4.135   2.036   0.793  0.3048 -0.4248  0.7352
  777MPD2    C311516   4.109   1.961   0.676  0.6289 -0.0234 -0.1850
  777MPD2    C411517   4.211   1.939   0.582  0.1140  0.1139 -0.0533
  777MPD2    C511518   4.337   1.989   0.610 -0.1403 -0.4209  0.2539
  777MPD2     H11519   4.052   2.039   0.863  0.0266  0.6716  0.3493
  777MPD2    H111520   4.192   1.897   0.484  1.7492 -0.9473  0.0950
  777MPD2    H211521   4.462   2.097   0.736 -0.1308 -0.4053 -2.5195
  777MPD2    H311522   4.414   1.981   0.534 -1.0426  1.1067 -0.8386
  777MPD2     N11523   3.982   1.899   0.649 -0.2846  0.0508  0.1653
  777MPD2    H511524   3.912   1.916   0.721 -0.7338 -1.0241 -0.0272
  777MPD2    N111525   4.300   2.169   0.920 -0.3213 -0.1760 -0.1898
  777MPD2    H711526   4.395   2.201   0.933 -0.2627  0.0987 -1.2720
  778MPD2     C11527   4.658   2.376  14.966  0.4054  0.3137 -0.4594
  778MPD2    C111528   4.642   2.293  14.857 -0.2627  0.2163  0.1899
  778MPD2    C211529   4.684   2.335  14.737  1.0300 -0.1684 -0.4540
  778MPD2    C311530   0.008   2.457  14.714  0.5574 -0.2668  0.6551
  778MPD2    C411531   0.022   2.541  14.822  0.7541  0.0931 -0.6986
  778MPD2    C511532   4.714   2.501  14.945  0.1519 -0.4259 -0.7373
  778MPD2     H11533   4.665   2.272  14.650 -2.4930  0.7091 -0.3530
  778MPD2    H111534   0.057   2.643  14.824  0.4520  0.1973 -0.6808
  778MPD2    H211535   4.630   2.345  15.066  0.7061 -1.0801 -0.8125
  778MPD2    H311536   4.728   2.565  15.031  0.4279  0.8044 -1.7038
  778MPD2     N11537   0.051   2.493  14.580 -0.1156 -0.0894 -0.6395
  778MPD2    H511538   0.042   2.422  14.509  1.8741  0.4049 -1.3957
  778MPD2    N111539   4.606   2.155  14.869 -0.5309  0.6553 -0.4607
  778MPD2    H711540   4.613   2.104  14.781  0.0373 -0.6014  0.3101
  779MPD2     C11541   4.114   0.878  14.246  0.0338 -0.1460  0.4996
  779MPD2    C111542   4.251   0.893  14.258  0.2946 -0.2529 -0.0204
  779MPD2    C211543   4.302   1.018  14.229 -0.0573 -0.2257  0.1619
  779MPD2    C311544   4.221   1.125  14.184 -0.0257 -0.3026  0.0802
  779MPD2    C411545   4.083   1.111  14.186 -0.1054 -0.0688  0.2297
  779MPD2    C511546   4.025   0.990  14.219 -0.6525 -0.4566  0.4264
  779MPD2     H11547   4.410   1.023  14.230  0.0740 -3.3612 -0.2377
  779MPD2    H111548   4.018   1.193  14.157 -0.3814 -0.3177  0.1397
  779MPD2    H211549   4.058   0.792  14.280  1.0491 -0.4474  1.4100
  779MPD2    H311550   3.917   0.988  14.225 -0.6824  0.6396  0.4076
  779MPD2     N11551   4.288   1.247  14.151  0.0205 -0.4958 -0.3451
  779MPD2    H511552   4.386   1.240  14.179 -0.2372  1.2349  0.9982
  779MPD2    N111553   4.335   0.781  14.292  0.4229 -0.0851 -0.6325
  779MPD2    H711554   4.435   0.784  14.274  0.2898 -0.9908 -1.5757
  780MPD2     C11555   0.120   1.073   1.352  0.9133  0.6519  0.4621
  780MPD2    C111556   4.733   1.080   1.307  0.1780 -0.7783  0.2745
  780MPD2    C211557   4.700   1.109   1.178  0.0843  0.7146  0.0003
  780MPD2    C311558   0.064   1.114   1.086 -0.5085  0.4233  0.5158
  780MPD2    C411559   0.192   1.097   1.129 -0.4476 -0.4624 -0.1569
  780MPD2    C511560   0.221   1.077   1.261 -0.0140 -0.2557 -0.4603
  780MPD2     H11561   4.597   1.106   1.144  1.0834  0.9942 -3.1030
  780MPD2    H111562   0.276   1.093   1.061 -1.8639 -3.1207 -1.7365
  780MPD2    H211563   0.147   1.043   1.452  0.4753 -2.4552 -0.3559
  780MPD2    H311564   0.318   1.042   1.296  0.1789  1.5855  0.8734
  780MPD2     N11565   0.029   1.115   0.953  0.3268 -0.5861 -0.3992
  780MPD2    H511566   4.671   1.141   0.939 -0.1729 -2.4438 -0.3914
  780MPD2    N111567   4.638   1.038   1.392 -0.1362  0.1575 -0.3244
  780MPD2    H711568   4.670   0.985   1.473  0.4492 -1.1566 -1.4165
  781MPD2     C11569   0.556   2.233  11.723  1.4120 -0.2593 -0.8023
  781MPD2    C111570   0.510   2.347  11.785  0.7588  0.2550 -0.0963
  781MPD2    C211571   0.483   2.456  11.707  0.1439  0.0846 -0.0742
  781MPD2    C311572   0.521   2.454  11.574  0.9052  0.5339 -0.4901
  781MPD2    C411573   0.595   2.351  11.528 -0.1727 -0.3639  0.4674
  781MPD2    C511574   0.613   2.236  11.600  0.3434 -0.6972 -0.3113
  781MPD2     H11575   0.426   2.534  11.758  0.8448  1.0167 -0.7221
  781MPD2    H111576   0.639   2.350  11.428  0.8586  2.2014  0.9105
  781MPD2    H211577   0.553   2.137  11.772 -2.2116  0.6599  0.7518
  781MPD2    H311578   0.661   2.148  11.558  1.8574  0.2135 -0.4640
  781MPD2     N11579   0.501   2.559  11.482  1.1987  1.0201  0.1514
  781MPD2    H511580   0.553   2.556  11.395 -1.7208 -4.2096 -1.4217
  781MPD2    N111581   0.495   2.353  11.932  0.1898 -0.1349 -0.2365
  781MPD2    H711582   0.478   2.447  11.967  1.4127  1.2934 -3.4128
  782MPD2     C11583   3.611   3.518  10.034 -0.1065 -0.3274 -0.0823
  782MPD2    C111584   3.560   3.448  10.146 -0.1409 -0.3321 -0.5329
  782MPD2    C211585   3.550   3.517  10.267 -0.7680  0.6130  0.4514
  782MPD2    C311586   3.591   3.650  10.269  0.2401  0.4154 -0.2786
  782MPD2    C411587   3.645   3.713  10.166 -0.5270 -0.5417  0.4005
  782MPD2    C511588   3.663   3.645  10.053 -0.3068 -0.2732  0.0530
  782MPD2     H11589   3.519   3.464  10.357  0.7129  0.6160  0.9651
  782MPD2    H111590   3.674   3.818  10.166 -0.9120 -0.4397 -0.9333
  782MPD2    H211591   3.615   3.471   9.937 -0.6165  1.3876 -0.9433
  782MPD2    H311592   3.729   3.688   9.979 -0.0578  0.8309  0.9309
  782MPD2     N11593   3.591   3.717  10.391  0.6913 -0.3452 -0.8670
  782MPD2    H511594   3.624   3.813  10.381 -1.0710  0.2019 -1.5007
  782MPD2    N111595   3.513   3.318  10.127  0.9086 -0.5748 -0.6634
  782MPD2    H711596   3.513   3.282  10.032 -1.7561 -2.5565  0.0823
  783MPD2     C11597   2.945   2.903  10.832  0.2241 -0.2154  0.2581
  783MPD2    C111598   2.950   3.040  10.806 -0.0771 -0.3215  0.1604
  783MPD2    C211599   3.059   3.091  10.743  0.2886 -0.5349  0.0566
  783MPD2    C311600   3.167   3.009  10.714 -0.2262  0.0858 -0.3361
  783MPD2    C411601   3.164   2.876  10.743  0.8043  0.4769 -1.1265
  783MPD2    C511602   3.050   2.823  10.797 -0.1301  0.1713 -0.0084
  783MPD2     H11603   3.056   3.197  10.720 -1.2562 -0.5476  0.1865
  783MPD2    H111604   3.240   2.803  10.719  1.5028  0.7419  0.2537
  783MPD2    H211605   2.863   2.851  10.880 -0.9383 -0.1677 -1.6856
  783MPD2    H311606   3.044   2.716  10.812 -1.0204 -0.1617 -2.8283
  783MPD2     N11607   3.271   3.068  10.642 -0.3042 -0.1628 -0.2975
  783MPD2    H511608   3.252   3.163  10.612 -0.6747 -0.8876 -2.3760
  783MPD2    N111609   2.845   3.126  10.856 -0.5748  0.0174 -0.3547
  783MPD2    H711610   2.769   3.084  10.909 -0.7992 -0.4029 -1.0087
  784MPD2     C11611   1.859   3.822   0.731 -0.1208  0.0778 -0.1539
  784MPD2    C111612   1.861   3.946   0.796  0.0042 -0.6765  0.4689
  784MPD2    C211613   1.782   4.046   0.749 -0.3464  1.0861  0.6174
  784MPD2    C311614   1.701   4.032   0.642 -0.3130 -0.0074  0.7519
  784MPD2    C411615   1.702   3.907   0.578  0.7142  0.0258  0.2271
  784MPD2    C511616   1.781   3.805   0.629 -0.7458 -0.0517  0.3652
  784MPD2     H11617   1.770   4.143   0.796  0.2367  0.6672  1.6175
  784MPD2    H111618   1.646   3.875   0.490 -0.0167  4.1498 -0.7916
  784MPD2    H211619   1.926   3.739   0.750  0.4478  1.5037  4.1556
  784MPD2    H311620   1.791   3.712   0.573 -0.5185 -0.0837  0.4607
  784MPD2     N11621   1.625   4.138   0.591  0.5988 -0.1134  0.1766
  784MPD2    H511622   1.632   4.230   0.633  1.1202 -0.4600  0.8430
  784MPD2    N111623   1.944   3.973   0.906  0.0211  0.0253 -0.0175
  784MPD2    H711624   1.926   4.062   0.951 -2.4989 -0.5339  0.0490
  785MPD2     C11625   1.515   2.519  10.880 -0.1716  0.6537 -0.4289
  785MPD2    C111626   1.417   2.600  10.926  0.3179 -0.1307  0.1894
  785MPD2    C211627   1.287   2.568  10.915 -0.1874  0.0983 -0.4189
  785MPD2    C311628   1.254   2.457  10.836  0.0938  0.3538  0.0358
  785MPD2    C411629   1.351   2.380  10.781  0.4978  0.0055 -0.3081
  785MPD2    C511630   1.477   2.421  10.795 -0.6807 -0.1474  0.3558
  785MPD2     H11631   1.217   2.627  10.973  1.3235  1.8825 -0.3974
  785MPD2    H111632   1.336   2.296  10.715 -0.2695 -0.7672  0.8494
  785MPD2    H211633   1.622   2.536  10.890  0.0830 -2.2844  1.8749
  785MPD2    H311634   1.552   2.357  10.751 -1.6577 -0.3006 -1.0669
  785MPD2     N11635   1.110   2.431  10.818 -0.3617 -1.0063  0.2166
  785MPD2    H511636   1.044   2.498  10.855  0.4476  0.6434 -1.3407
  785MPD2    N111637   1.449   2.717  11.000 -0.8422  0.0295 -0.1244
  785MPD2    H711638   1.363   2.757  11.037  0.1976  0.0107  2.2584
  786MPD2     C11639   0.069   0.268  14.688 -0.6058  0.1415  0.5862
  786MPD2    C111640   0.198   0.218  14.658 -0.0012 -0.2138 -0.6024
  786MPD2    C211641   0.308   0.253  14.734 -0.0052 -0.6753 -0.5370
  786MPD2    C311642   0.293   0.363  14.818  0.3252  0.3724  0.2881
  786MPD2    C411643   0.167   0.411  14.847 -0.2252  0.1437 -0.1782
  786MPD2    C511644   0.057   0.367  14.786 -0.5691  0.0745 -0.3612
  786MPD2     H11645   0.402   0.201  14.725  1.3880  1.6703  0.5329
  786MPD2    H111646   0.151   0.496  14.911 -1.5355  0.2214 -0.6045
  786MPD2    H211647   4.715   0.234  14.645  0.5962 -1.5665 -0.6575
  786MPD2    H311648   4.700   0.416  14.802 -0.5472  0.3815 -1.1408
  786MPD2     N11649   0.399   0.415  14.884 -0.1634  0.4353 -0.0861
  786MPD2    H511650   0.373   0.484  14.954 -1.9231 -0.8278  0.5048
  786MPD2    N111651   0.218   0.124  14.559  0.0492 -0.0307 -0.1194
  786MPD2    H711652   0.313   0.090  14.552 -0.2922 -1.3797  1.8587
  787MPD2     C11653   0.639   4.565  14.747  0.1461 -0.0945  0.0164
  787MPD2    C111654   0.597   4.478  14.649 -0.7213 -0.7125  0.4639
  787MPD2    C211655   0.634   4.349  14.661 -0.0687  0.8550 -0.0916
  787MPD2    C311656   0.697   4.298  14.774  1.3667  0.4752  0.4813
  787MPD2    C411657   0.725   4.387  14.874  0.3409  0.1567  0.4298
  787MPD2    C511658   0.706   4.523  14.858  0.0421  0.2402  0.2469
  787MPD2     H11659   0.612   4.283  14.578  2.0975  2.3855 -1.8643
  787MPD2    H111660   0.792   4.365  14.956 -0.5871 -0.5357  1.0011
  787MPD2    H211661   0.596   4.664  14.740 -1.7546 -0.7784  1.9041
  787MPD2    H311662   0.742   4.597  14.929  1.1450 -0.2890  0.2336
  787MPD2     N11663   0.750   4.168  14.773 -0.1094 -0.3960  0.2860
  787MPD2    H511664   0.759   4.115  14.687 -1.4448 -0.7369  0.3509
  787MPD2    N111665   0.527   4.538  14.547 -0.0797 -0.4131  0.4104
  787MPD2    H711666   0.531   4.639  14.544  3.0990 -0.5549 -0.5395
  788MPD2     C11667   2.857   3.797   0.675 -0.1749 -0.2863 -0.7102
  788MPD2    C111668   2.877   3.698   0.589 -0.2884  0.2563 -0.5387
  788MPD2    C211669   2.907   3.717   0.454  0.2400 -0.2452 -0.3693
  788MPD2    C311670   2.899   3.847   0.407 -0.9787  0.2835  0.3422
  788MPD2    C411671   2.895   3.952   0.491  0.9784  0.4507 -0.5976
  788MPD2    C511672   2.863   3.926   0.626 -0.1095 -0.1820 -0.6114
  788MPD2     H11673   2.938   3.634   0.391  1.6744 -0.7153  0.9469
  788MPD2    H111674   2.884   4.053   0.454  1.7591 -0.2809 -2.8262
  788MPD2    H211675   2.838   3.788   0.781 -1.1147 -1.7895 -1.0138
  788MPD2    H311676   2.858   4.012   0.692  1.1728 -0.8044  0.3045
  788MPD2     N11677   2.875   3.870   0.269 -0.2634  0.3969 -0.4110
  788MPD2    H511678   2.876   3.967   0.239 -0.2129 -0.0007 -1.6982
  788MPD2    N111679   2.881   3.562   0.630 -0.2046 -0.7699 -0.0052
  788MPD2    H711680   2.910   3.489   0.566  4.0580 -0.7509  1.9017
  789MPD2     C11681   2.648   2.890  16.180 -0.7805  1.0223 -0.1646
  789MPD2    C111682   2.564   2.804  16.250  0.0067  0.6769  0.3286
  789MPD2    C211683   2.463   2.854  16.330 -0.0990 -0.0342 -0.3900
  789MPD2    C311684   2.456   3.004  16.340  0.3430  0.1853  0.2935
  789MPD2    C411685   2.531   3.084  16.268 -0.5587  0.1191  0.1369
  789MPD2    C511686   2.633   3.027  16.189 -0.4446  0.1618 -0.2015
  789MPD2     H11687   2.386   2.799  16.383  0.1286 -2.3377 -2.4668
  789MPD2    H111688   2.544   3.190  16.286  0.9134  0.0479 -0.5527
  789MPD2    H211689   2.721   2.843  16.114  0.0543  0.0691  1.4445
  789MPD2    H311690   2.697   3.101  16.142 -1.8926  1.0524 -0.7996
  789MPD2     N11691   2.367   3.069  16.432  0.2830 -0.3716  0.1605
  789MPD2    H511692   2.370   3.170  16.440 -0.1111 -0.2898 -0.7339
  789MPD2    N111693   2.574   2.664  16.246 -0.0813  0.1932 -0.0144
  789MPD2    H711694   2.516   2.619  16.316 -1.3132  1.7063 -0.0539
  790MPD2     C11695   3.538   4.547  13.501 -0.1744  0.1433  1.4600
  790MPD2    C111696   3.522   4.410  13.491  0.2715  0.3885 -0.9096
  790MPD2    C211697   3.445   4.353  13.388 -0.0141  0.0924 -0.2770
  790MPD2    C311698   3.387   4.437  13.296 -0.8038 -0.0717  0.6034
  790MPD2    C411699   3.413   4.575  13.302 -0.1262  1.0033  0.8513
  790MPD2    C511700   3.485   4.630  13.404  0.4758  0.1906 -0.3226
  790MPD2     H11701   3.432   4.246  13.380  1.3125 -0.1342  0.4565
  790MPD2    H111702   3.378   4.648  13.229 -0.9015  0.4103  0.6305
  790MPD2    H211703   3.584   4.591  13.589  0.9297  0.6974  0.5982
  790MPD2    H311704   3.506   4.735  13.420  0.7014  0.2225 -0.8009
  790MPD2     N11705   3.295   4.391  13.194 -0.3600 -1.0257  0.3798
  790MPD2    H511706   3.298   4.292  13.171  0.8761 -1.6272  3.0646
  790MPD2    N111707   3.574   4.326  13.590  0.2320  0.5213  0.1111
  790MPD2    H711708   3.563   4.225  13.581  2.2640  0.2040  1.1048
  791MPD2     C11709   2.684   4.561  12.664  0.2798  0.2735  0.2330
  791MPD2    C111710   2.703   4.437  12.709  0.6543 -0.4171  0.2360
  791MPD2    C211711   2.603   4.345  12.696 -0.3194 -0.2285  0.5389
  791MPD2    C311712   2.481   4.376  12.639 -0.1855  0.8351  0.1097
  791MPD2    C411713   2.465   4.504  12.591 -0.4519 -0.0623 -0.2508
  791MPD2    C511714   2.571   4.592  12.599 -0.7706 -0.4463 -0.1712
  791MPD2     H11715   2.611   4.241  12.725  0.1980  0.1018  1.5512
  791MPD2    H111716   2.376   4.538  12.540  0.4169  1.1518 -0.9785
  791MPD2    H211717   2.753   4.644  12.675  1.7690 -1.1198  1.5801
  791MPD2    H311718   2.564   4.688  12.549 -1.4757  0.7802  2.2608
  791MPD2     N11719   2.376   4.279  12.641  0.0808  0.0528  0.3309
  791MPD2    H511720   2.403   4.186  12.674 -1.4940 -1.0245 -1.4120
  791MPD2    N111721   2.831   4.411  12.761  0.4295  0.1090 -0.0163
  791MPD2    H711722   2.908   4.477  12.754  0.2019  0.4416  0.5165
  792MPD2     C11723   3.352   4.603  11.269  0.0938 -0.5291 -0.3294
  792MPD2    C111724   3.302   4.707  11.193  0.2576 -0.1608  0.1471
  792MPD2    C211725   3.164   4.725  11.191  0.4183 -0.3921 -0.0196
  792MPD2    C311726   3.080   4.648  11.265  0.4378  0.2317  0.6332
  792MPD2    C411727   3.130   4.545  11.342 -0.3594  0.5911 -0.2904
  792MPD2    C511728   3.266   4.525  11.343 -0.1912 -0.0535  0.1335
  792MPD2     H11729   3.125   0.057  11.119 -0.6310 -1.8976 -0.9794
  792MPD2    H111730   3.066   4.492  11.413 -0.5585 -0.3389 -1.1634
  792MPD2    H211731   3.459   4.593  11.279  0.0768  0.5124  1.0607
  792MPD2    H311732   3.299   4.444  11.407  1.7147 -0.3696 -1.2373
  792MPD2     N11733   2.941   4.655  11.268  0.4227  0.9722  1.0380
  792MPD2    H511734   2.888   4.589  11.324  2.5870 -1.8211 -0.2279
  792MPD2    N111735   3.396   0.048  11.120 -0.4499  0.4822 -0.2521
  792MPD2    H711736   3.487   0.061  11.161 -0.2438 -2.8855  0.4058
  793MPD2     C11737   2.433   4.436  10.535  0.4838  0.9800 -0.0214
  793MPD2    C111738   2.555   4.419  10.595  0.1861  0.0471 -0.2255
  793MPD2    C211739   2.581   4.481  10.716 -0.0127 -0.5146  0.0800
  793MPD2    C311740   2.492   4.562  10.775  0.7094  0.2044 -0.4394
  793MPD2    C411741   2.367   4.577  10.711 -0.3909  0.2876 -0.6272
  793MPD2    C511742   2.340   4.510  10.601  0.8210  0.0107  0.1209
  793MPD2     H11743   2.681   4.478  10.759 -0.0477 -0.5056  0.1625
  793MPD2    H111744   2.286   4.638  10.751  0.3420  1.3751 -0.8104
  793MPD2    H211745   2.411   4.393  10.438 -0.8701  3.0712 -0.6264
  793MPD2    H311746   2.241   4.519  10.556  1.1833  1.5169 -0.3781
  793MPD2     N11747   2.522   4.613  10.898  0.1755  0.4699  0.3119
  793MPD2    H511748   2.614   4.593  10.935  0.1894  1.0013  0.5662
  793MPD2    N111749   2.658   4.344  10.540  0.5974 -0.4725  0.6265
  793MPD2    H711750   2.741   4.340  10.598 -0.0367 -1.5614  1.4633
  794MPD2     C11751   3.641   4.473  17.661  0.1959  0.1137 -0.0282
  794MPD2    C111752   3.594   4.348  17.621 -0.2048  0.5345  0.0841
  794MPD2    C211753   3.545   4.335  17.490 -0.4939  0.2606 -0.4502
  794MPD2    C311754   3.551   4.438  17.404 -0.7985 -0.0485 -0.1352
  794MPD2    C411755   3.601   4.554  17.452  0.2495  1.2773 -0.3074
  794MPD2    C511756   3.646   4.573  17.575  0.0039 -0.4146 -0.5237
  794MPD2     H11757   3.525   4.233  17.457 -0.3502 -0.2162  0.9360
  794MPD2    H111758   3.611   4.639  17.386  1.4134  0.5430 -1.0819
  794MPD2    H211759   3.692   4.492  17.755 -2.6849  0.3499  1.5074
  794MPD2    H311760   3.691   4.669  17.600 -2.8842  0.6357  0.7411
  794MPD2     N11761   3.524   4.420  17.267  0.4194  0.1684 -0.1401
  794MPD2    H511762   3.529   4.505  17.211  1.4489 -0.4515 -0.9751
  794MPD2    N111763   3.595   4.229  17.695 -0.2014  0.3752 -0.2230
  794MPD2    H711764   3.570   4.138  17.657 -0.4860 -0.2285  1.4248
  795MPD2     C11765   0.885   1.232  13.660 -0.2787  0.1302  0.4279
  795MPD2    C111766   0.851   1.101  13.618 -0.1410 -0.1401 -0.2098
  795MPD2    C211767   0.942   0.997  13.636 -0.7749  0.3043 -0.3197
  795MPD2    C311768   1.070   1.030  13.653  0.4325  0.0979 -0.3001
  795MPD2    C411769   1.100   1.162  13.676  0.0509  0.7581 -0.3962
  795MPD2    C511770   1.014   1.261  13.685 -0.0403  0.6474 -0.0917
  795MPD2     H11771   0.905   0.898  13.608 -1.7292  0.3452  0.7901
  795MPD2    H111772   1.196   1.199  13.709 -0.5476  1.0324  1.0317
  795MPD2    H211773   0.811   1.306  13.688  0.0015  0.4889  0.2194
  795MPD2    H311774   1.051   1.360  13.711 -0.7826  0.1576  2.8261
  795MPD2     N11775   1.166   0.930  13.667  0.3960 -0.0186 -0.0282
  795MPD2    H511776   1.263   0.961  13.677 -0.1917  1.7556  0.1670
  795MPD2    N111777   0.718   1.071  13.579 -0.0557 -0.1206 -0.0791
  795MPD2    H711778   0.698   0.974  13.557  0.6930 -0.6661  1.6857
  796MPD2     C11779   0.915   2.703  15.424  0.2594  0.8756 -0.3043
  796MPD2    C111780   0.914   2.783  15.535 -0.8268 -0.0174  1.1493
  796MPD2    C211781   0.824   2.888  15.541 -0.0182 -0.2630  0.4016
  796MPD2    C311782   0.723   2.900  15.449 -0.3628 -0.0542  0.4728
  796MPD2    C411783   0.726   2.819  15.338  0.2458 -0.3714 -0.0893
  796MPD2    C511784   0.829   2.727  15.327 -0.3397 -0.1527  0.3219
  796MPD2     H11785   0.803   2.961  15.619 -1.6444 -0.0363 -0.2453
  796MPD2    H111786   0.665   2.831  15.249 -0.3376  1.2111  0.5187
  796MPD2    H211787   0.979   2.615  15.415 -1.1065 -0.3254  1.7172
  796MPD2    H311788   0.830   2.673  15.233 -1.1042 -0.0872  0.2758
  796MPD2     N11789   0.626   3.000  15.471 -0.4098 -0.5587  0.1352
  796MPD2    H511790   0.649   3.078  15.532 -2.2963 -0.1956  0.4114
  796MPD2    N111791   0.989   2.740  15.654 -0.0252 -0.1102 -0.0276
  796MPD2    H711792   1.046   2.657  15.652 -0.2785 -0.3013  0.8235
  797MPD2     C11793   1.470   2.473  17.459  1.0877 -0.2700 -0.2393
  797MPD2    C111794   1.468   2.611  17.482  0.1231 -0.2716 -0.1467
  797MPD2    C211795   1.387   2.684  17.400  0.0088 -0.6649 -0.8179
  797MPD2    C311796   1.334   2.629  17.290 -0.4184 -0.6080 -0.5772
  797MPD2    C411797   1.341   2.491  17.272  0.1502  0.2383 -0.4780
  797MPD2    C511798   1.401   2.413  17.358 -0.0515 -0.8226 -0.1150
  797MPD2     H11799   1.378   2.787  17.433  0.2181 -0.8085 -0.3143
  797MPD2    H111800   1.285   2.439  17.195 -0.6426  0.3358  0.0367
  797MPD2    H211801   1.524   2.403  17.522 -1.2384 -1.4647  0.4340
  797MPD2    H311802   1.395   2.305  17.358 -1.0461 -0.7763 -2.8138
  797MPD2     N11803   1.269   2.717  17.205  0.3438  0.4076 -0.8238
  797MPD2    H511804   1.279   2.814  17.232 -0.6056  0.1226  0.5738
  797MPD2    N111805   1.542   2.677  17.581  0.1197 -0.2679  0.2169
  797MPD2    H711806   1.541   2.777  17.566  0.6132 -0.2299  0.4300
  798MPD2     C11807   1.409   3.369  17.385  0.0995  0.0063  0.1293
  798MPD2    C111808   1.399   3.238  17.356  0.1942 -0.2875  0.6564
  798MPD2    C211809   1.475   3.149  17.426  0.4926  0.3912 -0.2948
  798MPD2    C311810   1.559   3.187  17.524 -0.3595 -0.2245  0.0526
  798MPD2    C411811   1.558   3.313  17.565  0.1679 -0.4283  0.0652
  798MPD2    C511812   1.483   3.405  17.498 -0.1317 -0.2929  1.3065
  798MPD2     H11813   1.476   3.043  17.404  2.1888  0.7794 -2.0789
  798MPD2    H111814   1.626   3.349  17.642  0.4259 -0.7982  0.0083
  798MPD2    H211815   1.351   3.446  17.335  1.8513  0.4474 -1.2108
  798MPD2    H311816   1.475   3.508  17.530 -1.7928 -0.8944  2.8141
  798MPD2     N11817   1.644   3.087  17.575  0.4532 -0.3124  0.3447
  798MPD2    H511818   1.651   3.001  17.522 -0.7589  0.6724 -1.3798
  798MPD2    N111819   1.322   3.197  17.240 -0.0608 -0.0705 -0.0956
  798MPD2    H711820   1.270   3.270  17.192 -0.2480  0.6909  1.2542
  799MPD2     C11821   0.503   3.835  14.719 -0.6342 -0.4167  0.2683
  799MPD2    C111822   0.449   3.744  14.632 -0.3250  0.3989  0.6780
  799MPD2    C211823   0.358   3.790  14.540  0.0599  0.2611 -0.4877
  799MPD2    C311824   0.345   3.927  14.514 -0.2830  0.1652  0.1248
  799MPD2    C411825   0.399   4.021  14.596  0.7474 -0.6069 -0.2497
  799MPD2    C511826   0.481   3.969  14.695 -0.4208  0.0597 -0.0864
  799MPD2     H11827   0.311   3.714  14.479 -2.1962  2.2214 -1.2155
  799MPD2    H111828   0.383   4.128  14.584  1.9740 -0.3730  0.2015
  799MPD2    H211829   0.573   3.800  14.794  1.5654  0.7881 -1.2481
  799MPD2    H311830   0.523   4.044  14.762  2.6221 -0.4610 -1.4201
  799MPD2     N11831   0.269   3.973  14.402  0.0534 -0.2294 -0.1745
  799MPD2    H511832   0.273   4.070  14.374 -0.3899 -0.1411  0.0657
  799MPD2    N111833   0.481   3.605  14.634  0.0396  0.0335 -0.4897
  799MPD2    H711834   0.422   3.548  14.574 -0.3267  1.1601 -1.2228
  800MPD2     C11835   0.650   0.232  14.218  0.1686 -0.1843  0.4234
  800MPD2    C111836   0.782   0.227  14.187  0.3800  0.7526  0.7781
  800MPD2    C211837   0.832   0.116  14.111  0.1459 -0.5453  0.1906
  800MPD2    C311838   0.755   0.021  14.064 -0.7523  0.4985 -0.6408
  800MPD2    C411839   0.614   0.031  14.089 -0.1289  0.1378  0.6479
  800MPD2    C511840   0.570   0.133  14.171 -0.0456 -0.4975 -0.0665
  800MPD2     H11841   0.933   0.098  14.076  0.5864  3.1220 -0.4668
  800MPD2    H111842   0.539   4.701  14.053 -0.3349  1.7648 -2.0916
  800MPD2    H211843   0.596   0.306  14.277  2.5488  0.6021  1.6249
  800MPD2    H311844   0.466   0.133  14.199  0.2634 -0.9134  1.1143
  800MPD2     N11845   0.818   4.654  13.996 -0.5000 -0.1751  0.3894
  800MPD2    H511846   0.918   4.665  13.989 -0.1857 -3.7787 -0.8852
  800MPD2    N111847   0.865   0.329  14.233  0.6238 -0.0510  0.2800
  800MPD2    H711848   0.828   0.409  14.284  0.3791 -1.3353  2.1102
  801MPD2     C11849   0.900   1.129  14.106  0.2729  0.3528  0.5872
  801MPD2    C111850   0.914   1.045  14.210  0.3718  0.8607 -0.0823
  801MPD2    C211851   0.877   1.084  14.340  0.1219 -0.4680 -0.3345
  801MPD2    C311852   0.821   1.209  14.365  0.6675 -0.7538 -0.2575
  801MPD2    C411853   0.811   1.296  14.255  0.2520 -0.0483 -0.0218
  801MPD2    C511854   0.848   1.254  14.126 -0.3726 -0.6392  0.4769
  801MPD2     H11855   0.900   1.021  14.426 -1.5511  1.0930  1.2273
  801MPD2    H111856   0.761   1.393  14.254 -0.6742 -0.5215  0.8532
  801MPD2    H211857   0.939   1.110  14.007 -2.4337 -0.0836 -0.4051
  801MPD2    H311858   0.851   1.325  14.045  0.4523  0.5943  1.5803
  801MPD2     N11859   0.764   1.245  14.485 -0.6018  0.0504  0.2189
  801MPD2    H511860   0.713   1.333  14.488 -2.8624 -1.2388 -0.1769
  801MPD2    N111861   0.965   0.916  14.187 -0.4357  0.0800  0.4010
  801MPD2    H711862   1.007   0.892  14.098  2.5564  0.8308  1.6044
  802MPD2     C11863   0.651   1.823  17.728 -0.2825 -0.2909 -0.5786
  802MPD2    C111864   0.526   1.766   0.002 -0.3675 -0.1843 -0.0531
  802MPD2    C211865   0.515   1.629  17.737  0.7283 -0.0629 -0.2908
  802MPD2    C311866   0.605   1.559  17.662 -0.4138  0.2346 -0.7059
  802MPD2    C411867   0.719   1.628  17.617 -0.0330  0.6230 -0.3214
  802MPD2    C511868   0.742   1.760  17.649  0.2929  0.1193 -0.2625
  802MPD2     H11869   0.433   1.572   0.025 -0.3608  0.2662 -1.9543
  802MPD2    H111870   0.799   1.579  17.564  0.0991  0.8709 -0.3515
  802MPD2    H211871   0.676   1.928  17.737  2.1477 -0.8336 -1.0269
  802MPD2    H311872   0.834   1.811  17.623  1.0436 -1.3660 -0.5172
  802MPD2     N11873   0.588   1.419  17.637  0.8519 -0.5387 -0.3346
  802MPD2    H511874   0.491   1.395  17.652  1.1651 -0.2800  2.0839
  802MPD2    N111875   0.431   1.831   0.084  0.4241 -0.2969 -0.7811
  802MPD2    H711876   0.356   1.776   0.124  1.8860 -0.3917  1.8665
  803MPD2     C11877   0.764   4.201  11.907  0.1935  0.8322 -0.1012
  803MPD2    C111878   0.816   4.327  11.916 -0.1118  0.2987 -0.4922
  803MPD2    C211879   0.864   4.373  12.032  0.1905  0.0718 -0.8198
  803MPD2    C311880   0.869   4.293  12.145  0.0854 -0.8114 -0.5295
  803MPD2    C411881   0.829   4.162  12.134 -0.0852  0.0248 -0.7034
  803MPD2    C511882   0.774   4.117  12.011 -0.3372 -0.2812  0.0728
  803MPD2     H11883   0.903   4.474  12.031 -3.0406  1.3265 -0.2238
  803MPD2    H111884   0.840   4.088  12.213 -0.9116  1.3846  0.6961
  803MPD2    H211885   0.746   4.153  11.811 -0.4092  0.8978 -0.0206
  803MPD2    H311886   0.743   4.015  11.995  0.8768 -0.6282 -0.1027
  803MPD2     N11887   0.929   4.339  12.267 -0.2373  0.0607  0.1339
  803MPD2    H511888   0.920   4.277  12.348  1.7240  1.8242  1.7057
  803MPD2    N111889   0.827   4.412  11.808  0.0109 -0.1474 -0.0952
  803MPD2    H711890   0.886   4.495  11.812  1.7177 -1.5156  2.9844
  804MPD2     C11891   1.165   1.126  16.661 -0.5095  0.5065  0.3054
  804MPD2    C111892   1.104   1.106  16.782 -0.0939  0.4233 -0.8238
  804MPD2    C211893   1.118   1.198  16.887 -0.6106  0.6629 -1.2809
  804MPD2    C311894   1.188   1.318  16.871 -0.2072 -0.1736  0.1629
  804MPD2    C411895   1.246   1.336  16.748 -0.0429 -0.2033 -0.4678
  804MPD2    C511896   1.239   1.244  16.646 -0.4438 -0.3702 -0.4330
  804MPD2     H11897   1.068   1.175  16.980 -1.3814  1.0146 -1.6128
  804MPD2    H111898   1.307   1.421  16.721  0.0423  0.1023  0.6629
  804MPD2    H211899   1.162   1.057  16.578 -0.1357  2.1078 -1.0522
  804MPD2    H311900   1.280   1.260  16.547 -1.9634 -0.7709 -1.1302
  804MPD2     N11901   1.197   1.407  16.979 -0.1592 -0.3786  0.6679
  804MPD2    H511902   1.160   1.372  17.067 -1.0164 -1.2453 -0.0441
  804MPD2    N111903   1.029   0.988  16.816 -0.0168 -0.0069  0.3699
  804MPD2    H711904   0.997   0.978  16.912 -2.0407 -1.0150 -0.4058
  805MPD2     C11905   0.022   4.188  15.140 -0.0896  0.5623 -0.5136
  805MPD2    C111906   0.149   4.139  15.117  0.1374  0.1281 -0.1705
  805MPD2    C211907   0.259   4.185  15.192 -0.8304 -0.4384  0.1307
  805MPD2    C311908   0.235   4.269  15.300 -0.1065  0.1336 -0.1720
  805MPD2    C411909   0.099   4.301  15.329 -0.2779  0.3382  0.2055
  805MPD2    C511910   4.736   4.249  15.253 -0.3252  0.2076 -0.0270
  805MPD2     H11911   0.362   4.164  15.168 -0.8058  1.9352 -1.8821
  805MPD2    H111912   0.066   4.340  15.425 -0.7374 -0.0337  0.1983
  805MPD2    H211913   4.678   4.154  15.079 -0.6668  0.7855  0.1496
  805MPD2    H311914   4.636   4.259  15.293  0.2218 -2.3310  1.9690
  805MPD2     N11915   0.341   4.325  15.382  0.0743  0.4821 -0.2434
  805MPD2    H511916   0.437   4.305  15.357  0.4957 -0.8760  2.4583
  805MPD2    N111917   0.181   4.060  15.002  0.0443  0.3676 -0.0810
  805MPD2    H711918   0.278   4.031  14.989 -0.7403 -2.2154 -0.2169
  806MPD2     C11919   0.944   4.011   0.657 -0.3465 -0.4572 -0.3357
  806MPD2    C111920   1.075   4.053   0.660 -0.2796 -0.0182 -0.1612
  806MPD2    C211921   1.166   3.996   0.573 -0.4615  0.3537  0.3874
  806MPD2    C311922   1.126   3.911   0.471 -0.7810 -0.2295  0.2395
  806MPD2    C411923   0.996   3.867   0.470 -1.0089  0.4899 -0.0905
  806MPD2    C511924   0.909   3.922   0.559 -0.3293  0.4875  0.0863
  806MPD2     H11925   1.267   4.034   0.583 -0.6473  1.0701 -0.4596
  806MPD2    H111926   0.961   3.787   0.406 -1.3096 -2.1900  3.4262
  806MPD2    H211927   0.865   4.059   0.712 -0.9345  1.2936 -2.7209
  806MPD2    H311928   0.805   3.894   0.561 -0.2219  0.0185 -1.4056
  806MPD2     N11929   1.221   3.891   0.374  0.4681 -0.1598  0.2029
  806MPD2    H511930   1.317   3.923   0.387  0.6001 -0.7340  0.6133
  806MPD2    N111931   1.104   4.135   0.769 -0.4206 -0.7504  0.2827
  806MPD2    H711932   1.028   4.182   0.816 -1.0217 -0.1054 -1.3397
  807MPD2     C11933   0.769   4.290   1.376  0.2883  0.2710  0.3134
  807MPD2    C111934   0.796   4.212   1.265 -0.0277  0.0005  0.1281
  807MPD2    C211935   0.706   4.133   1.209 -0.2834  0.6689 -0.6965
  807MPD2    C311936   0.579   4.114   1.259  0.8865  0.7319  0.6272
  807MPD2    C411937   0.548   4.197   1.367 -0.0962  0.3388  0.2922
  807MPD2    C511938   0.646   4.282   1.423  0.0183  0.4984 -0.4051
  807MPD2     H11939   0.738   4.077   1.122  0.2006 -2.2511  1.3720
  807MPD2    H111940   0.449   4.186   1.411  0.1850  1.0451  1.1050
  807MPD2    H211941   0.841   4.345   1.435  0.1781 -0.8634  1.5060
  807MPD2    H311942   0.615   4.339   1.510  1.8191 -0.4986  0.9058
  807MPD2     N11943   0.505   4.002   1.222  0.6480 -0.3632 -0.5600
  807MPD2    H511944   0.535   3.947   1.142 -0.0118 -0.6285 -0.6265
  807MPD2    N111945   0.928   4.212   1.215 -0.7692  0.0512 -0.3134
  807MPD2    H711946   0.938   4.159   1.129  3.4900  0.4685 -0.0959
  808MPD2     C11947   0.336   0.178   9.679  0.3527  0.1064  0.2773
  808MPD2    C111948   0.315   0.238   9.800 -0.5249 -0.4833 -0.2740
  808MPD2    C211949   0.382   0.351   9.838 -0.6590  0.4834  0.0375
  808MPD2    C311950   0.475   0.407   9.744 -0.0297  0.7245  0.4188
  808MPD2    C411951   0.484   0.359   9.617  0.4099 -0.4631 -0.1004
  808MPD2    C511952   0.419   0.240   9.588 -0.0462 -0.2801 -0.3139
  808MPD2     H11953   0.358   0.404   9.930  0.3717 -0.7661  1.0240
  808MPD2    H111954   0.551   0.404   9.545  0.6488  0.4135  0.6658
  808MPD2    H211955   0.289   0.087   9.645 -0.6988  1.3959 -1.7257
  808MPD2    H311956   0.441   0.187   9.496  1.2378 -1.8466  0.8802
  808MPD2     N11957   0.548   0.526   9.772 -0.2385  0.0213 -0.7129
  808MPD2    H511958   0.605   0.553   9.693 -1.8668  2.8227 -0.9268
  808MPD2    N111959   0.244   0.183   9.907 -0.2964 -0.8083  0.2283
  808MPD2    H711960   0.256   0.225   9.999  1.5140 -0.7376 -0.0405
  809MPD2     C11961   1.312   1.091   9.479 -0.7506  0.7492  0.5144
  809MPD2    C111962   1.293   0.957   9.487  0.0602 -0.4644  0.3046
  809MPD2    C211963   1.188   0.914   9.563 -0.1317  0.2113  0.7493
  809MPD2    C311964   1.096   1.003   9.615 -0.4776 -0.4030  0.3616
  809MPD2    C411965   1.115   1.140   9.594  0.1061 -0.6296  0.1779
  809MPD2    C511966   1.228   1.186   9.530  0.4778  0.5725 -0.6185
  809MPD2     H11967   1.177   0.809   9.584 -1.4475  0.2043  0.0336
  809MPD2    H111968   1.049   1.205   9.650  0.6670 -1.9498  2.3554
  809MPD2    H211969   1.400   1.122   9.423  1.8720 -1.8574  3.1786
  809MPD2    H311970   1.255   1.289   9.510  1.4085 -0.1879 -3.3326
  809MPD2     N11971   0.981   0.963   9.691  0.5704 -0.3780 -0.3175
  809MPD2    H511972   0.916   1.031   9.727 -0.2327 -0.3892 -1.7608
  809MPD2    N111973   1.379   0.859   9.430 -0.1394  0.1633 -0.2949
  809MPD2    H711974   1.359   0.761   9.447  1.2454  0.2562  1.8981
  810MPD2     C11975   0.052   0.021  10.978  0.6572  0.3423  1.0953
  810MPD2    C111976   4.710   0.029  10.870 -0.4303  0.1809  0.0810
  810MPD2    C211977   4.707   0.144  10.793 -0.0677 -0.0607  0.6402
  810MPD2    C311978   0.048   0.254  10.826 -0.1472  0.0306 -1.4295
  810MPD2    C411979   0.119   0.248  10.940  0.0416  0.4228  0.5049
  810MPD2    C511980   0.124   0.128  11.012 -0.2719  0.5643  0.1297
  810MPD2     H11981   4.649   0.146  10.702  0.0329 -0.3765  0.5687
  810MPD2    H111982   0.187   0.330  10.961  1.7286 -1.0862  0.9501
  810MPD2    H211983   0.079   4.667  11.026  0.7956  0.8626  2.0243
  810MPD2    H311984   0.191   0.130  11.098 -0.9047 -1.6994  0.6576
  810MPD2     N11985   0.053   0.379  10.753  0.4444  0.3488  0.3847
  810MPD2    H511986   0.123   0.448  10.779  1.3927  0.6724 -2.9332
  810MPD2    N111987   4.635   4.655  10.833  0.3139  0.2796  1.2048
  810MPD2    H711988   4.637   4.568  10.886  1.0017 -1.2294 -1.2909
  811MPD2     C11989   4.102   4.362  10.226  0.2335  0.8162 -0.5122
  811MPD2    C111990   4.194   4.454  10.264  0.2788  0.0756 -0.0961
  811MPD2    C211991   4.234   4.556  10.182 -0.6112 -0.7373  0.1908
  811MPD2    C311992   4.166   4.570  10.067  0.7785 -0.3696 -0.2506
  811MPD2    C411993   4.074   4.482  10.022 -0.3819  0.1002  0.0556
  811MPD2    C511994   4.035   4.388  10.108 -0.4533  0.9294  0.5623
  811MPD2     H11995   4.316   4.625  10.201 -1.8157  0.9387 -0.6479
  811MPD2    H111996   4.026   4.494   9.926 -0.1281 -2.0986 -0.3414
  811MPD2    H211997   4.065   4.283  10.291  2.5162  0.3743  0.2333
  811MPD2    H311998   3.963   4.314  10.076 -0.1449  0.9013 -0.0707
  811MPD2     N11999   4.202   4.692   9.991  0.0818  0.5160 -0.1856
  811MPD2    H512000   4.271   0.009  10.039  0.9696 -0.4549 -0.3049
  811MPD2    N112001   4.257   4.467  10.394 -0.3970 -0.0629 -0.0139
  811MPD2    H712002   4.326   4.539  10.413 -0.7982 -0.2463  2.0938
  812MPD2     C12003   3.756   4.228  11.837 -0.5117 -0.7913 -0.4638
  812MPD2    C112004   3.787   4.333  11.922 -0.4951 -0.0097 -0.2843
  812MPD2    C212005   3.854   4.313  12.040 -0.4346  0.2589 -0.4332
  812MPD2    C312006   3.895   4.185  12.071  0.5980 -0.0729 -0.6686
  812MPD2    C412007   3.868   4.084  11.992  0.5320 -0.4777 -0.2281
  812MPD2    C512008   3.802   4.108  11.876  0.6632 -0.6343 -0.0699
  812MPD2     H12009   3.875   4.395  12.107  0.0042  0.0492 -0.3116
  812MPD2    H112010   3.882   3.979  12.015  2.0455 -0.6016 -1.7640
  812MPD2    H212011   3.690   4.246  11.753  0.7021 -1.0790 -1.4693
  812MPD2    H312012   3.773   4.016  11.826 -1.3985  0.4827 -0.9134
  812MPD2     N12013   3.957   4.169  12.195 -0.4622 -0.1281 -0.1750
  812MPD2    H512014   3.966   4.251  12.254 -1.4414 -0.3291  0.2605
  812MPD2    N112015   3.747   4.462  11.877  0.6357 -0.2198  0.6394
  812MPD2    H712016   3.684   4.464  11.798  1.3408  2.0683  0.1182
  813MPD2     C12017   2.750   1.775  12.826  0.2922  0.9367 -0.4566
  813MPD2    C112018   2.844   1.723  12.918  0.2539 -0.0584  0.2571
  813MPD2    C212019   2.824   1.744  13.055 -0.4248  0.2606 -0.2770
  813MPD2    C312020   2.712   1.813  13.096  0.3017  0.0522 -0.5642
  813MPD2    C412021   2.619   1.870  13.013 -0.4645  0.6395  0.6602
  813MPD2    C512022   2.642   1.848  12.875 -0.4794 -0.1951 -1.2416
  813MPD2     H12023   2.887   1.706  13.134  0.1733  0.0766 -0.8398
  813MPD2    H112024   2.533   1.931  13.040 -1.2121 -0.2533  0.3080
  813MPD2    H212025   2.753   1.761  12.719  2.9065 -5.0503  0.4382
  813MPD2    H312026   2.582   1.905  12.805  0.1374  0.6728 -1.0562
  813MPD2     N12027   2.699   1.814  13.238 -0.0985 -0.6438  0.7456
  813MPD2    H512028   2.764   1.763  13.297 -1.8536 -0.6533  2.6626
  813MPD2    N112029   2.969   1.669  12.871  0.0295 -1.0879 -0.5116
  813MPD2    H712030   2.975   1.677  12.770  3.7537 -0.7649 -0.2495
  814MPD2     C12031   3.655   2.563  12.278  0.0972 -0.1157  0.3269
  814MPD2    C112032   3.579   2.650  12.203  0.0677  0.2352  0.1953
  814MPD2    C212033   3.576   2.788  12.228 -0.5533  0.1355 -0.5555
  814MPD2    C312034   3.684   2.829  12.315  1.1334  0.2183 -0.3363
  814MPD2    C412035   3.763   2.739  12.382 -0.1911 -0.3013  0.4003
  814MPD2    C512036   3.743   2.602  12.370  0.5537  0.4694  0.1025
  814MPD2     H12037   3.520   2.858  12.168 -1.5705 -1.8143 -1.8629
  814MPD2    H112038   3.852   2.761  12.439 -0.5801  3.6590 -0.5726
  814MPD2    H212039   3.633   2.457  12.268  0.8274 -0.3480  1.1330
  814MPD2    H312040   3.797   2.530  12.430  0.4568  2.1086  2.1777
  814MPD2     N12041   3.728   2.965  12.320  0.3769  0.3957 -0.6169
  814MPD2    H512042   3.822   2.992  12.345 -0.8715  2.0123  2.3060
  814MPD2    N112043   3.490   2.600  12.103 -0.1594 -0.1242 -0.1079
  814MPD2    H712044   3.452   2.665  12.035  0.2850  0.1886 -0.0528
  815MPD2     C12045   3.939   1.679  11.515  0.5243 -0.0982 -0.6292
  815MPD2    C112046   3.964   1.543  11.530 -0.6039 -0.1103  0.5036
  815MPD2    C212047   3.897   1.474  11.624 -0.4140  0.0400 -0.2545
  815MPD2    C312048   3.811   1.535  11.715 -0.4482 -0.2944 -0.2295
  815MPD2    C412049   3.799   1.672  11.714  0.6214  0.4679 -0.2240
  815MPD2    C512050   3.863   1.737  11.612 -0.5624  0.8535 -0.1995
  815MPD2     H12051   3.905   1.367  11.635  1.1615  0.1478 -0.2256
  815MPD2    H112052   3.734   1.728  11.781 -0.0228  0.7121 -1.0528
  815MPD2    H212053   3.962   1.744  11.432  0.0359  1.2473  0.3021
  815MPD2    H312054   3.836   1.842  11.601  0.6763  1.1651 -0.2202
  815MPD2     N12055   3.744   1.450  11.804  0.3894  0.4060 -0.0216
  815MPD2    H512056   3.748   1.348  11.798 -0.5669  0.3632 -0.0484
  815MPD2    N112057   4.046   1.488  11.438  0.2859  0.1667 -0.5858
  815MPD2    H712058   4.084   1.546  11.364  0.6285 -0.4834 -0.9200
  816MPD2     C12059   4.659   0.522  17.488 -0.0020  0.5296 -0.4892
  816MPD2    C112060   4.562   0.485  17.398  0.2425  0.5156  0.0012
  816MPD2    C212061   4.609   0.440  17.277 -0.2425 -0.1783 -0.5585
  816MPD2    C312062   0.005   0.436  17.245 -0.8366 -0.2376 -0.1544
  816MPD2    C412063   0.102   0.465  17.344 -1.0089 -0.0861  0.5492
  816MPD2    C512064   0.050   0.511  17.461  0.7893  0.2505  0.1659
  816MPD2     H12065   4.532   0.402  17.210 -0.1736  0.6317 -1.1074
  816MPD2    H112066   0.209   0.457  17.332 -0.8928  0.8890  0.9883
  816MPD2    H212067   4.641   0.549  17.592  3.4399  2.1630 -0.2948
  816MPD2    H312068   0.124   0.547  17.532  0.0779  0.8858  0.5914
  816MPD2     N12069   0.039   0.381  17.120  0.6597  0.6396 -0.0427
  816MPD2    H512070   4.699   0.354  17.061  0.0915  0.0628  0.9782
  816MPD2    N112071   4.427   0.492  17.438  0.2439  0.3691 -1.0413
  816MPD2    H712072   4.400   0.517  17.532  0.4703 -1.2773 -0.5375
  817MPD2     C12073   3.278   2.215   9.157 -0.2867  0.4249  0.0264
  817MPD2    C112074   3.285   2.097   9.087 -0.3787  0.2705  0.3324
  817MPD2    C212075   3.201   2.086   8.976  0.0939  0.0965  0.8253
  817MPD2    C312076   3.098   2.176   8.961  1.0185 -0.2580 -0.9063
  817MPD2    C412077   3.094   2.292   9.029 -0.1646  0.2256 -0.2192
  817MPD2    C512078   3.186   2.314   9.128 -0.1238 -0.7556 -0.9010
  817MPD2     H12079   3.199   1.985   8.937  1.7576  0.7880 -1.0307
  817MPD2    H112080   3.015   2.365   9.014 -1.3289 -1.1666 -0.8377
  817MPD2    H212081   3.334   2.234   9.248  1.4269  0.8225 -1.0956
  817MPD2    H312082   3.181   2.396   9.199  0.2508 -0.1948 -1.5234
  817MPD2     N12083   2.996   2.159   8.865  0.0832 -0.6420 -0.0578
  817MPD2    H512084   2.933   2.237   8.853 -1.4717 -1.6904  1.3575
  817MPD2    N112085   3.367   1.988   9.128 -0.2089 -0.1519 -0.0900
  817MPD2    H712086   3.369   1.913   9.060 -2.0248  0.3013 -0.6648
  818MPD2     C12087   2.412   2.012   9.931 -0.0400  0.3395  0.2792
  818MPD2    C112088   2.331   1.967  10.034  0.5322 -0.5480  0.7147
  818MPD2    C212089   2.261   1.846  10.010 -0.3969  0.0815 -0.4420
  818MPD2    C312090   2.269   1.769   9.898  0.0624  0.0826  0.5719
  818MPD2    C412091   2.352   1.824   9.799  0.8006 -0.0211 -0.1048
  818MPD2    C512092   2.423   1.942   9.816  0.1197  0.1251 -0.4375
  818MPD2     H12093   2.209   1.803  10.095 -1.8476  2.1536 -0.2879
  818MPD2    H112094   2.379   1.771   9.708 -1.3756 -0.4334 -0.5137
  818MPD2    H212095   2.470   2.103   9.935  1.5220 -0.5789 -1.8559
  818MPD2    H312096   2.470   1.988   9.730 -0.4263  1.6341  0.0738
  818MPD2     N12097   2.213   1.638   9.881  0.2825  0.1583  0.2763
  818MPD2    H512098   2.226   1.597   9.789 -1.8530 -1.5136  0.7250
  818MPD2    N112099   2.319   2.027  10.160 -0.2694 -0.0920 -0.3795
  818MPD2    H712100   2.262   1.977  10.227  1.0780 -2.6570 -1.1617
  819MPD2     C12101   0.934   3.775  15.644  0.4822 -0.5317  0.1584
  819MPD2    C112102   1.010   3.660  15.620 -0.1956 -0.1909 -0.3785
  819MPD2    C212103   1.137   3.660  15.665  0.4260 -0.8340  0.0338
  819MPD2    C312104   1.188   3.767  15.732 -0.0069  0.0628 -0.0890
  819MPD2    C412105   1.122   3.881  15.752 -0.2487 -0.0553 -0.6600
  819MPD2    C512106   0.995   3.881  15.698  0.3374  0.1646  0.0510
  819MPD2     H12107   1.203   3.577  15.644  1.3896 -0.4025  1.2901
  819MPD2    H112108   1.175   3.969  15.789  1.9262 -0.4286 -2.8881
  819MPD2    H212109   0.831   3.778  15.609  0.1835 -1.4856  0.9570
  819MPD2    H312110   0.932   3.968  15.707 -0.2348 -0.0953 -1.3729
  819MPD2     N12111   1.321   3.747  15.783 -0.0391 -0.1314 -0.4028
  819MPD2    H512112   1.381   3.672  15.753  2.1789  1.0154  1.1354
  819MPD2    N112113   0.958   3.553  15.540 -0.1077  0.6990 -0.1853
  819MPD2    H712114   0.872   3.559  15.485 -1.1055  1.9059  1.5178
  820MPD2     C12115   0.212   3.227  14.975  0.3739 -0.5377 -0.1628
  820MPD2    C112116   0.293   3.339  14.973  0.7469  0.1276  0.1550
  820MPD2    C212117   0.415   3.349  15.031  0.4965  0.1721  0.3712
  820MPD2    C312118   0.478   3.235  15.074  0.1236 -0.4702 -0.2338
  820MPD2    C412119   0.401   3.117  15.066 -1.2236  0.3053  0.1006
  820MPD2    C512120   0.272   3.115  15.023 -0.1206  0.2204  0.4761
  820MPD2     H12121   0.479   3.434  15.012 -1.1319  0.9462 -1.6172
  820MPD2    H112122   0.443   3.029  15.113  0.3676  2.5649  2.9057
  820MPD2    H212123   0.113   3.210  14.933  1.3357  0.6804 -2.9156
  820MPD2    H312124   0.226   3.018  15.013  2.3587 -0.9987  0.9186
  820MPD2     N12125   0.601   3.230  15.139 -0.1269  0.2659  0.1328
  820MPD2    H512126   0.636   3.141  15.172 -0.0766  0.1712 -0.1713
  820MPD2    N112127   0.234   3.453  14.912  0.5919  0.5207  0.2026
  820MPD2    H712128   0.149   3.439  14.858  1.1373 -0.1274 -0.4900
  821MPD2     C12129   0.978   4.621  13.218  0.2270  0.2406 -0.1451
  821MPD2    C112130   1.062   4.656  13.321  0.2747  0.6653 -0.4642
  821MPD2    C212131   1.179   4.719  13.283  0.3942 -0.8932 -0.4708
  821MPD2    C312132   1.221   0.007  13.159 -0.6231 -0.5038  0.0004
  821MPD2    C412133   1.140   4.715  13.056  0.0061 -0.4511  0.3782
  821MPD2    C512134   1.014   4.661  13.084  0.1558  0.3762  0.3890
  821MPD2     H12135   1.240   0.003  13.369  0.9719  0.4043 -1.2457
  821MPD2    H112136   1.172   0.007  12.958  1.5207  1.6835  1.5515
  821MPD2    H212137   0.879   4.582  13.236 -1.3533  3.3410 -2.0825
  821MPD2    H312138   0.940   4.661  13.004 -2.1974  0.6406  2.5698
  821MPD2     N12139   1.353   0.065  13.131 -0.1960  0.0377  0.0994
  821MPD2    H512140   1.379   0.074  13.034 -0.9232  0.2731 -0.0726
  821MPD2    N112141   1.034   4.625  13.455 -0.1952 -1.2164  0.2271
  821MPD2    H712142   1.106   4.648  13.523  0.5394  1.2883 -1.4207
  822MPD2     C12143   1.733   0.399  15.538  0.0358 -0.2168 -0.4686
  822MPD2    C112144   1.631   0.386  15.624 -0.0743  0.0953 -0.5082
  822MPD2    C212145   1.548   0.497  15.635 -0.0696  0.0440 -1.0720
  822MPD2    C312146   1.564   0.607  15.553 -0.7047  0.2553  0.0863
  822MPD2    C412147   1.656   0.609  15.447  0.2378  0.1526  0.1838
  822MPD2    C512148   1.728   0.498  15.444 -0.2457 -0.1406 -0.1010
  822MPD2     H12149   1.480   0.486  15.719  1.3750 -0.4436  0.0546
  822MPD2    H112150   1.670   0.685  15.371  0.2279  2.0949  2.1288
  822MPD2    H212151   1.815   0.327  15.542  0.1679 -0.0224  0.3782
  822MPD2    H312152   1.810   0.496  15.372 -1.2004  3.6687 -1.2904
  822MPD2     N12153   1.486   0.716  15.587  0.1093  0.9552 -0.8021
  822MPD2    H512154   1.434   0.719  15.674  3.5915 -0.5893  1.3176
  822MPD2    N112155   1.632   0.278  15.717  0.0313  0.4109  0.1620
  822MPD2    H712156   1.569   0.280  15.796 -1.5251  1.5945 -1.1210
  823MPD2     C12157   0.980   0.967  16.026  0.3005  0.1808 -0.1118
  823MPD2    C112158   1.095   0.909  16.031 -0.1814 -0.0470  0.0628
  823MPD2    C212159   1.104   0.798  16.112  0.5624  0.4811  0.0077
  823MPD2    C312160   1.002   0.765  16.207 -0.9849  0.1240 -0.3057
  823MPD2    C412161   0.883   0.840  16.203  0.4227  0.4854  0.0034
  823MPD2    C512162   0.872   0.930  16.103  0.8549  0.2545 -0.1385
  823MPD2     H12163   1.190   0.731  16.110 -0.6748 -1.1280  0.4666
  823MPD2    H112164   0.797   0.826  16.267  0.2928  0.8100 -0.0975
  823MPD2    H212165   0.957   1.055  15.967 -1.7874 -0.0241  0.3960
  823MPD2    H312166   0.779   0.986  16.109  0.0318 -0.9913 -1.2643
  823MPD2     N12167   1.005   0.661  16.302 -0.3911  0.3028 -0.2820
  823MPD2    H512168   0.942   0.671  16.381 -0.3784  0.6642 -0.3181
  823MPD2    N112169   1.206   0.950  15.955  0.0838 -0.7659 -0.1192
  823MPD2    H712170   1.298   0.914  15.980 -0.1321 -1.0497  0.2788
  824MPD2     C12171   1.820   4.171  15.814  0.0792 -0.3330 -0.2585
  824MPD2    C112172   1.879   4.288  15.776  0.4603 -0.2950 -0.4343
  824MPD2    C212173   1.988   4.272  15.691 -0.2152  1.3015  0.1167
  824MPD2    C312174   2.047   4.151  15.661 -0.4173 -0.6166  0.7919
  824MPD2    C412175   1.993   4.041  15.715  0.2505  0.1050 -0.1387
  824MPD2    C512176   1.883   4.051  15.797  0.2374 -0.0956  0.3739
  824MPD2     H12177   2.024   4.358  15.635  0.3471  1.3211  0.5093
  824MPD2    H112178   2.034   3.946  15.683  0.8997  1.6866 -3.9431
  824MPD2    H212179   1.722   4.171  15.861  0.3412  2.1192  0.2688
  824MPD2    H312180   1.836   3.972  15.855 -3.6142  1.6351 -0.3868
  824MPD2     N12181   2.162   4.161  15.574 -0.5236 -0.4177  0.5384
  824MPD2    H512182   2.187   4.251  15.534 -0.1029 -1.0945 -0.7130
  824MPD2    N112183   1.828   4.421  15.796 -0.0646  0.4183 -0.4294
  824MPD2    H712184   1.888   4.491  15.753  0.6113 -0.3813 -0.7902
  825MPD2     C12185   2.619   4.508  14.948  0.3702  0.1328 -0.0129
  825MPD2    C112186   2.585   4.518  15.083 -0.7708  0.3202 -0.4909
  825MPD2    C212187   2.594   4.641  15.151  0.5613 -0.4072  0.2877
  825MPD2    C312188   2.636   0.009  15.069 -0.3571 -0.7086 -0.5496
  825MPD2    C412189   2.663   4.734  14.937 -0.1460  0.2214  0.2776
  825MPD2    C512190   2.649   4.619  14.869 -0.1704  0.1380 -0.1274
  825MPD2     H12191   2.585   4.645  15.259  2.0946  2.8478  0.2886
  825MPD2    H112192   2.675   0.087  14.882 -0.3327  0.3121  0.3894
  825MPD2    H212193   2.609   4.410  14.902  2.1810 -0.0599  0.0013
  825MPD2    H312194   2.659   4.613  14.761  0.0934  0.2689 -0.1087
  825MPD2     N12195   2.655   0.139  15.127  0.3078  0.1708 -0.0642
  825MPD2    H512196   2.671   0.220  15.068 -0.3848  0.5578  0.2829
  825MPD2    N112197   2.545   4.394  15.152 -0.1002 -0.1845  1.2052
  825MPD2    H712198   2.560   4.310  15.098  0.9987 -0.7435  2.4036
  826MPD2     C12199   2.832   4.386  13.719  0.3312 -0.5390 -0.1948
  826MPD2    C112200   2.704   4.384  13.660  0.7749 -0.4596 -0.2430
  826MPD2    C212201   2.612   4.479  13.704  0.4129  0.1174 -0.0477
  826MPD2    C312202   2.642   4.570  13.802  0.4904  0.1320  0.0661
  826MPD2    C412203   2.777   4.582  13.840 -0.4377  0.2707  0.5676
  826MPD2    C512204   2.869   4.494  13.795 -0.3798  0.2238  0.6780
  826MPD2     H12205   2.509   4.464  13.675  0.3359  0.3398  0.1066
  826MPD2    H112206   2.816   4.654  13.910 -2.9990  0.1210  2.1566
  826MPD2    H212207   2.917   4.321  13.701 -0.2797 -1.0860 -1.0702
  826MPD2    H312208   2.971   4.503  13.831 -0.3035 -0.5277  0.6437
  826MPD2     N12209   2.548   4.664  13.842  0.2363 -0.8561  0.1022
  826MPD2    H512210   2.585   0.014  13.872  3.8780 -1.9054 -1.2423
  826MPD2    N112211   2.678   4.287  13.568 -0.2136 -0.6538  0.4994
  826MPD2    H712212   2.746   4.213  13.558  0.9561  0.8738 -2.9822
  827MPD2     C12213   2.752   1.120   9.950  0.8955 -0.1347  0.0128
  827MPD2    C112214   2.774   1.008  10.024  0.8935 -0.3388 -0.1899
  827MPD2    C212215   2.711   0.890   9.997  0.3587 -0.5276  0.7083
  827MPD2    C312216   2.627   0.884   9.881 -0.4933 -0.2483  0.5401
  827MPD2    C412217   2.608   1.001   9.806  0.5921 -0.4331 -0.2917
  827MPD2    C512218   2.675   1.117   9.839 -0.4000 -0.4847  0.0858
  827MPD2     H12219   2.718   0.806  10.065  0.6527 -1.6098 -0.6679
  827MPD2    H112220   2.562   0.996   9.708 -0.0763  0.9124 -0.0601
  827MPD2    H212221   2.815   1.207   9.959  1.2382 -0.4163  0.3200
  827MPD2    H312222   2.669   1.205   9.777 -1.4782 -0.4601  0.2206
  827MPD2     N12223   2.576   0.762   9.848 -0.1914 -0.3260 -0.0160
  827MPD2    H512224   2.600   0.685   9.909  0.8433  2.0580  2.5772
  827MPD2    N112225   2.851   1.030  10.140  0.1686  0.1900  0.7037
  827MPD2    H712226   2.857   1.127  10.170 -1.4587  0.8809 -1.2065
  828MPD2     C12227   1.652   0.710  12.041 -0.3931 -0.0439  0.1599
  828MPD2    C112228   1.553   0.800  12.007  0.4686  0.6335  0.1374
  828MPD2    C212229   1.535   0.842  11.877  0.7530  1.1230 -0.8790
  828MPD2    C312230   1.620   0.779  11.778 -0.3342  0.2877 -0.0602
  828MPD2    C412231   1.731   0.711  11.813  0.6867  0.3030  0.0282
  828MPD2    C512232   1.744   0.670  11.943  0.1152  0.2439 -0.6281
  828MPD2     H12233   1.458   0.916  11.857  0.2746  1.1570  1.0614
  828MPD2    H112234   1.803   0.679  11.739 -0.2989 -0.2791 -0.6749
  828MPD2    H212235   1.673   0.680  12.143  1.6266  0.4522 -0.1036
  828MPD2    H312236   1.829   0.610  11.972  0.4198  1.7869  1.7363
  828MPD2     N12237   1.605   0.802  11.637  0.0394 -1.0092 -1.0411
  828MPD2    H512238   1.681   0.768  11.579  0.0994 -0.8082 -1.0784
  828MPD2    N112239   1.459   0.854  12.101  0.6068 -0.4563 -0.1534
  828MPD2    H712240   1.389   0.916  12.062  0.2492 -0.9392 -0.2887
  829MPD2     C12241   0.791   0.991  11.685  0.2768  0.0628 -0.0136
  829MPD2    C112242   0.745   0.915  11.792  0.0030  0.1498  0.3493
  829MPD2    C212243   0.825   0.900  11.907 -0.0997 -0.0212 -0.0129
  829MPD2    C312244   0.953   0.955  11.916  0.2933  0.3857  0.2257
  829MPD2    C412245   0.989   1.037  11.809  0.0183 -0.0499  0.6372
  829MPD2    C512246   0.919   1.045  11.694  0.8770 -0.2062 -0.8089
  829MPD2     H12247   0.778   0.834  11.979  1.7427 -1.0748  0.2232
  829MPD2    H112248   1.082   1.092  11.811  0.8576 -1.3761 -1.8958
  829MPD2    H212249   0.726   1.015  11.601  0.9329 -4.4106 -1.8278
  829MPD2    H312250   0.948   1.114  11.616  1.8512  0.4786  0.1614
  829MPD2     N12251   1.036   0.934  12.027  0.3021  0.0455 -0.0101
  829MPD2    H512252   1.126   0.980  12.023  0.7401 -0.9435 -1.6605
  829MPD2    N112253   0.612   0.856  11.790 -0.2477 -0.0763 -0.4668
  829MPD2    H712254   0.592   0.805  11.876 -1.5639 -0.7021 -1.1477
  830MPD2     C12255   2.166   3.582  15.771 -0.8352 -0.2827  0.8459
  830MPD2    C112256   2.052   3.642  15.716  0.1977  0.1144  0.7199
  830MPD2    C212257   2.041   3.658  15.580 -0.4286  0.3102 -0.2087
  830MPD2    C312258   2.152   3.630  15.501  0.5033  0.6231 -0.5770
  830MPD2    C412259   2.268   3.590  15.562  0.4432 -0.1906  0.8208
  830MPD2    C512260   2.272   3.562  15.694 -0.0276 -0.3894 -0.1810
  830MPD2     H12261   1.954   3.709  15.542 -3.1983 -2.0597  2.9900
  830MPD2    H112262   2.348   3.571  15.492 -0.9727 -2.6684 -0.1123
  830MPD2    H212263   2.171   3.568  15.879  0.3084 -1.6068  0.6292
  830MPD2    H312264   2.360   3.514  15.737 -0.8108 -1.6682  0.0029
  830MPD2     N12265   2.153   3.647  15.359 -0.0963 -0.3286 -0.7710
  830MPD2    H512266   2.247   3.641  15.320 -0.2299 -1.7818 -0.8442
  830MPD2    N112267   1.940   3.672  15.802  0.4535  0.3021 -0.3929
  830MPD2    H712268   1.953   3.650  15.900 -0.9997  1.1843 -0.0068
  831MPD2     C12269   1.714   0.538  16.136 -0.0640 -0.0233 -0.0654
  831MPD2    C112270   1.689   0.588  16.013  0.1796  0.0058  0.0459
  831MPD2    C212271   1.558   0.592  15.968 -0.0715  0.1481 -0.8070
  831MPD2    C312272   1.457   0.541  16.042 -0.3518  0.9609 -0.1636
  831MPD2    C412273   1.484   0.491  16.165 -0.2510 -0.2286 -0.9025
  831MPD2    C512274   1.610   0.497  16.216  0.2302  0.8840 -0.0510
  831MPD2     H12275   1.548   0.638  15.870  0.4767 -1.2382 -1.5158
  831MPD2    H112276   1.404   0.463  16.232  0.2041  0.4588 -0.0556
  831MPD2    H212277   1.814   0.518  16.174 -0.5912  1.3434  2.0146
  831MPD2    H312278   1.624   0.454  16.314 -1.1050  0.9308  0.1714
  831MPD2     N12279   1.326   0.520  15.990 -0.6392 -0.4821  0.7043
  831MPD2    H512280   1.266   0.479  16.062  1.0297 -0.3161  2.1909
  831MPD2    N112281   1.788   0.641  15.932 -0.3712  0.9078 -0.0758
  831MPD2    H712282   1.884   0.614  15.956 -0.5619 -0.9312 -1.3726
  832MPD2     C12283   0.281   1.270  17.139 -0.2510  0.2651 -0.2825
  832MPD2    C112284   0.213   1.395  17.154  0.0150 -0.4305 -0.1994
  832MPD2    C212285   0.079   1.413  17.111 -0.2331  0.4338  0.4597
  832MPD2    C312286   0.019   1.306  17.036 -0.0336 -0.5810  0.4826
  832MPD2    C412287   0.083   1.183  17.041  1.2050  0.5825  0.1311
  832MPD2    C512288   0.207   1.168  17.088  0.1476 -0.0126 -0.1589
  832MPD2     H12289   0.036   1.512  17.103  0.2488  0.6560  0.6216
  832MPD2    H112290   0.033   1.093  17.007  0.0900  1.6475 -1.0317
  832MPD2    H212291   0.382   1.248  17.174 -1.2064 -1.9299  1.0713
  832MPD2    H312292   0.257   1.078  17.054  2.2600 -0.3138  3.7156
  832MPD2     N12293   4.629   1.308  16.979 -0.5227 -0.2470  0.1889
  832MPD2    H512294   4.597   1.217  16.949  1.8408  0.1586 -3.5437
  832MPD2    N112295   0.269   1.507  17.226  0.1707 -0.5225  0.5008
  832MPD2    H712296   0.208   1.588  17.227  1.1469  0.2133  0.5349
  833MPD2     C12297   1.626   3.381  12.421  0.8333 -0.4514  0.6617
  833MPD2    C112298   1.514   3.431  12.356 -0.7654 -0.0576 -0.2098
  833MPD2    C212299   1.505   3.413  12.215  0.2500  0.1440 -0.6841
  833MPD2    C312300   1.588   3.321  12.145  0.2237 -0.1095  0.2855
  833MPD2    C412301   1.688   3.268  12.220  0.7236 -0.3131 -0.7336
  833MPD2    C512302   1.707   3.295  12.354 -0.5704  0.2257 -0.7407
  833MPD2     H12303   1.409   3.436  12.170  0.3841  1.3081 -0.3882
  833MPD2    H112304   1.759   3.198  12.176 -0.2144 -1.7160 -0.0040
  833MPD2    H212305   1.647   3.397  12.526  1.6425 -0.6376  0.5251
  833MPD2    H312306   1.793   3.249  12.400  0.0280  1.9951 -0.1086
  833MPD2     N12307   1.577   3.294  12.010  0.3886  0.3282  0.0305
  833MPD2    H512308   1.631   3.219  11.966  1.1515  1.0718 -0.2966
  833MPD2    N112309   1.423   3.514  12.416 -0.2635  0.3709  0.7603
  833MPD2    H712310   1.341   3.545  12.363  0.3392 -0.0764 -0.4498
  834MPD2     C12311   1.437   2.487  11.747 -0.0972 -0.2846 -0.1858
  834MPD2    C112312   1.483   2.563  11.642 -0.2094 -0.6755  0.0166
  834MPD2    C212313   1.479   2.703  11.655  0.7237 -0.3748 -0.6449
  834MPD2    C312314   1.420   2.763  11.765  0.0937  0.7450 -0.2917
  834MPD2    C412315   1.380   2.683  11.871  0.4516  0.1013  0.3830
  834MPD2    C512316   1.375   2.541  11.860  0.4757 -0.2672 -0.9224
  834MPD2     H12317   1.518   2.773  11.583  1.4472  0.0213  0.1236
  834MPD2    H112318   1.345   2.730  11.963  2.3192 -0.5443  1.4379
  834MPD2    H212319   1.433   2.379  11.746  1.1243 -0.3383 -0.0509
  834MPD2    H312320   1.331   2.481  11.939  1.5627 -2.3149 -1.8855
  834MPD2     N12321   1.399   2.897  11.768  0.0444  0.6084  0.6782
  834MPD2    H512322   1.459   2.957  11.713  2.0380 -1.1307  0.9365
  834MPD2    N112323   1.532   2.498  11.524 -0.0386  0.5126  0.2923
  834MPD2    H712324   1.533   2.397  11.531 -0.9151  0.4870  0.0217
  835MPD2     C12325   2.195   0.814  10.906  0.3631  0.2107  0.0363
  835MPD2    C112326   2.135   0.883  11.009  0.0499  0.2355  0.1586
  835MPD2    C212327   2.152   0.847  11.141 -0.0364 -0.6963  0.0686
  835MPD2    C312328   2.225   0.732  11.168 -0.2301  0.1353 -1.6846
  835MPD2    C412329   2.262   0.655  11.060  0.2847  0.4638  0.7186
  835MPD2    C512330   2.246   0.691  10.927 -0.0921 -0.3352 -0.6671
  835MPD2     H12331   2.116   0.904  11.225 -0.2400 -0.4180 -0.2110
  835MPD2    H112332   2.304   0.561  11.094 -1.1950  0.8306  3.6297
  835MPD2    H212333   2.194   0.850  10.804  0.2862 -2.4900 -0.9201
  835MPD2    H312334   2.293   0.630  10.851  1.7201  2.2891 -1.6659
  835MPD2     N12335   2.250   0.690  11.301  0.4845  0.0590  0.1099
  835MPD2    H512336   2.322   0.619  11.306 -1.0483 -1.6259 -1.4396
  835MPD2    N112337   2.068   0.999  10.983 -0.2053 -0.6633  0.6373
  835MPD2    H712338   2.042   1.053  11.066 -1.1251  0.5663 -0.4481
  836MPD2     C12339   1.905   0.970  11.911 -0.0746 -0.2335 -0.7389
  836MPD2    C112340   2.017   0.908  11.959 -0.2699  0.0293 -0.2587
  836MPD2    C212341   2.063   0.911  12.089  0.0913  0.1895  0.0457
  836MPD2    C312342   1.984   0.979  12.179  0.4078 -0.3028 -0.3021
  836MPD2    C412343   1.877   1.052  12.132 -0.5611  0.2494 -0.1503
  836MPD2    C512344   1.839   1.054  11.998 -0.1781 -0.7514 -0.0694
  836MPD2     H12345   2.166   0.883  12.110 -0.7370 -0.2363  3.3974
  836MPD2    H112346   1.815   1.106  12.202  2.2561  0.0396  2.5524
  836MPD2    H212347   1.861   0.963  11.812 -1.7604 -0.8078  0.0450
  836MPD2    H312348   1.751   1.111  11.970  0.7258  0.9305  0.5683
  836MPD2     N12349   2.016   1.005  12.319 -0.1813  0.4563 -0.0179
  836MPD2    H512350   1.960   1.064  12.379 -0.4367 -1.6642  1.8130
  836MPD2    N112351   2.074   0.825  11.861 -0.0164 -0.2209 -0.1217
  836MPD2    H712352   2.044   0.838  11.764 -0.2998  2.9430  0.4027
  837MPD2     C12353   0.024   0.505   9.927 -0.0057 -0.3190  0.1139
  837MPD2    C112354   4.637   0.544   9.967 -0.3755 -0.2201 -0.0882
  837MPD2    C212355   4.631   0.680  10.006  0.1667 -0.4842 -0.0200
  837MPD2    C312356   4.732   0.768   9.975 -0.2099 -0.3641  0.2120
  837MPD2    C412357   0.121   0.718   9.942 -0.6095 -0.2484  0.2890
  837MPD2    C512358   0.135   0.586   9.926 -0.1797 -0.5547 -0.4549
  837MPD2     H12359   4.535   0.719  10.038  0.7580  0.9737 -0.0042
  837MPD2    H112360   0.201   0.788   9.920  0.4828 -1.7027 -0.3030
  837MPD2    H212361   0.050   0.403   9.901 -1.7424 -0.5125 -0.9258
  837MPD2    H312362   0.231   0.556   9.885  0.5407 -1.1187  1.6491
  837MPD2     N12363   4.702   0.904   9.983 -0.1111  0.7323  0.0334
  837MPD2    H512364   4.608   0.919  10.019 -0.7963 -0.6284 -1.1604
  837MPD2    N112365   4.522   0.467   9.970  0.0459 -0.4222  0.5506
  837MPD2    H712366   4.439   0.522   9.992 -0.7785 -1.0506 -0.9987
  838MPD2     C12367   2.734   3.765  11.994 -0.0268 -0.0186 -0.5743
  838MPD2    C112368   2.745   3.632  11.962 -0.6833  0.2822 -0.4220
  838MPD2    C212369   2.676   3.542  12.043 -0.2876  0.1806  0.8338
  838MPD2    C312370   2.589   3.586  12.139 -0.0511  0.0854 -0.2623
  838MPD2    C412371   2.557   3.719  12.155 -0.3359  0.0416  0.1321
  838MPD2    C512372   2.636   3.805  12.084 -0.7283 -0.3773 -0.3962
  838MPD2     H12373   2.699   3.436  12.033 -1.6247 -0.2664  2.4784
  838MPD2    H112374   2.490   3.759  12.231 -1.6325 -2.2569  0.1836
  838MPD2    H212375   2.784   3.838  11.931 -0.6896  0.8082 -0.1534
  838MPD2    H312376   2.626   3.912  12.097 -1.5314 -0.4284 -0.6112
  838MPD2     N12377   2.530   3.491  12.220  0.0817  0.2138 -0.9706
  838MPD2    H512378   2.567   3.396  12.221 -1.1390 -0.2478  0.4851
  838MPD2    N112379   2.827   3.587  11.858 -0.1213  0.1627  0.6351
  838MPD2    H712380   2.807   3.490  11.836  1.7085  0.0075 -0.3973
  839MPD2     C12381   2.433   2.960  11.513 -0.3073  0.0752  0.8426
  839MPD2    C112382   2.564   2.928  11.470  0.2189 -0.5078  0.0497
  839MPD2    C212383   2.660   3.025  11.468 -0.7877 -0.1862  0.5174
  839MPD2    C312384   2.639   3.144  11.533 -0.1855 -0.1550  0.0521
  839MPD2    C412385   2.512   3.174  11.589 -0.0325 -0.2280 -0.4607
  839MPD2    C512386   2.414   3.078  11.577 -0.0583  0.8469  0.3793
  839MPD2     H12387   2.762   3.008  11.436 -0.7207 -1.2651  1.2914
  839MPD2    H112388   2.489   3.265  11.642 -0.4271  0.5267 -1.9346
  839MPD2    H212389   2.345   2.902  11.491 -0.2861  1.4217 -2.7933
  839MPD2    H312390   2.314   3.092  11.618  0.7862  1.0652  2.3424
  839MPD2     N12391   2.740   3.244  11.547  0.1836 -0.4593  0.0660
  839MPD2    H512392   2.700   3.329  11.582 -0.9842 -1.6324  1.5509
  839MPD2    N112393   2.587   2.807  11.415 -0.0099  0.2752  0.9842
  839MPD2    H712394   2.674   2.790  11.364 -1.3344 -0.6066 -0.9919
  840MPD2     C12395   3.263   1.446  10.143 -0.2054  0.4038 -0.2073
  840MPD2    C112396   3.274   1.416  10.273 -0.0760 -0.3338 -0.9856
  840MPD2    C212397   3.353   1.493  10.360  0.1151 -0.1143  0.6958
  840MPD2    C312398   3.418   1.605  10.316 -0.6128  0.2023  0.1036
  840MPD2    C412399   3.409   1.625  10.180  0.0140  0.0440  0.0600
  840MPD2    C512400   3.333   1.550  10.091 -1.0517  0.0317  0.4583
  840MPD2     H12401   3.366   1.467  10.464 -1.1806 -1.9184  0.4120
  840MPD2    H112402   3.464   1.713  10.149  1.3483 -1.5862 -2.2062
  840MPD2    H212403   3.210   1.391  10.066  0.1446 -0.4487  0.1617
  840MPD2    H312404   3.325   1.575   9.986 -1.2773 -2.9467 -0.2380
  840MPD2     N12405   3.510   1.683  10.388  0.3558 -0.3566  0.3210
  840MPD2    H512406   3.560   1.761  10.345  1.4990 -1.0644  0.3737
  840MPD2    N112407   3.202   1.293  10.313 -0.8691  0.1451 -0.3292
  840MPD2    H712408   3.152   1.251  10.236  0.2002 -0.3292 -0.7704
  841MPD2     C12409   3.416   0.654  14.854 -0.3028 -0.2750 -0.7945
  841MPD2    C112410   3.451   0.588  14.737  0.3761  0.6679  0.5636
  841MPD2    C212411   3.555   0.640  14.663 -0.1021 -0.0942 -0.1807
  841MPD2    C312412   3.610   0.764  14.685 -0.4715  0.3195 -0.5788
  841MPD2    C412413   3.560   0.832  14.796  0.9777 -0.5249 -0.3221
  841MPD2    C512414   3.479   0.766  14.891 -0.3044  0.0475  0.4670
  841MPD2     H12415   3.597   0.581  14.583  0.3252  2.5979 -1.9397
  841MPD2    H112416   3.601   0.930  14.818  0.5987 -0.3712 -0.2938
  841MPD2    H212417   3.333   0.627  14.918 -0.5635 -1.6550 -1.7206
  841MPD2    H312418   3.440   0.817  14.978 -0.2217  0.0722  0.4890
  841MPD2     N12419   3.710   0.810  14.594  0.2764  0.1916 -0.0018
  841MPD2    H512420   3.741   0.739  14.528 -0.5545 -0.7199  0.5678
  841MPD2    N112421   3.385   0.481  14.682  0.0048  0.1048  0.0112
  841MPD2    H712422   3.430   0.444  14.599  1.0045 -0.6403  0.9012
  842MPD2     C12423   4.408   1.877  16.780  0.5742 -0.1839 -0.5698
  842MPD2    C112424   4.298   1.838  16.844  0.1147  0.6729  0.2742
  842MPD2    C212425   4.310   1.770  16.965 -0.5395 -0.3064  0.1431
  842MPD2    C312426   4.436   1.753  17.020  0.4950  0.5922  0.2875
  842MPD2    C412427   4.546   1.801  16.952 -0.4957  0.6050 -0.4058
  842MPD2    C512428   4.531   1.858  16.824 -0.1478 -0.5012 -0.3788
  842MPD2     H12429   4.220   1.726  17.005  1.1710 -3.5996  0.3225
  842MPD2    H112430   4.646   1.796  16.996 -0.8338  3.7887  0.6943
  842MPD2    H212431   4.397   1.939  16.692 -1.5007 -0.4133 -0.4743
  842MPD2    H312432   4.617   1.887  16.766  0.2366  1.6722  1.3050
  842MPD2     N12433   4.471   1.679  17.137  0.2933 -0.8480  0.3307
  842MPD2    H512434   4.570   1.657  17.142  0.4673  0.4623  2.5594
  842MPD2    N112435   4.172   1.868  16.780  0.7334 -0.3944  0.1082
  842MPD2    H712436   4.176   1.907  16.686 -0.4059  1.9211  1.0233
  843MPD2     C12437   1.239   2.961   0.039 -0.0361  0.1707  0.3624
  843MPD2    C112438   1.308   2.883   0.123  0.0049  0.4480 -1.0888
  843MPD2    C212439   1.420   2.933   0.183  0.7609 -0.6726 -0.2173
  843MPD2    C312440   1.466   3.057   0.163 -0.0662  0.5980 -0.3460
  843MPD2    C412441   1.386   3.145   0.090  0.4688 -0.5266  0.1230
  843MPD2    C512442   1.268   3.097   0.035 -0.3774 -0.4350  0.1760
  843MPD2     H12443   1.478   2.858   0.236  0.2134 -1.5238 -0.8207
  843MPD2    H112444   1.415   3.248   0.072 -0.4192 -0.4184 -0.6845
  843MPD2    H212445   1.147   2.922  17.751  0.2698 -0.1131 -0.0256
  843MPD2    H312446   1.221   3.169  17.725  1.4554 -1.0127 -1.8109
  843MPD2     N12447   1.594   3.102   0.213  0.0751  0.2897  0.4313
  843MPD2    H512448   1.621   3.198   0.193  0.5498  0.0720  0.0350
  843MPD2    N112449   1.287   2.741   0.136  0.3603  0.2050 -0.6784
  843MPD2    H712450   1.365   2.694   0.180 -0.1499  0.6812  0.7463
  844MPD2     C12451   4.186   1.174  16.458 -0.5629  0.4804  0.4525
  844MPD2    C112452   4.239   1.065  16.514  0.1664  0.8200  0.4898
  844MPD2    C212453   4.373   1.058  16.552 -0.1554  0.1442 -0.1845
  844MPD2    C312454   4.452   1.163  16.542  0.8299 -0.6859 -0.2398
  844MPD2    C412455   4.407   1.268  16.473  0.2463 -0.7475 -0.4975
  844MPD2    C512456   4.274   1.273  16.432 -0.7932 -0.0147 -0.4405
  844MPD2     H12457   4.419   0.967  16.589  3.2518  1.2454 -1.7337
  844MPD2    H112458   4.474   1.350  16.450 -1.3908  0.3903 -1.2583
  844MPD2    H212459   4.084   1.183  16.423 -0.8259 -0.1617  1.0589
  844MPD2    H312460   4.231   1.359  16.382 -0.2498  0.8061  0.4950
  844MPD2     N12461   4.583   1.154  16.597 -0.2929  0.2406 -0.5046
  844MPD2    H512462   4.613   1.064  16.635 -0.4838 -0.3128 -1.6842
  844MPD2    N112463   4.168   0.942  16.532 -0.5237 -0.1071 -0.2385
  844MPD2    H712464   4.221   0.856  16.540 -1.4852 -0.6649  0.0922
  845MPD2     C12465   0.544   1.815  16.949 -0.3233 -0.6531 -0.0523
  845MPD2    C112466   0.407   1.798  16.973 -0.1700  0.2942  0.6749
  845MPD2    C212467   0.347   1.682  16.923 -0.1125  0.1823 -0.0963
  845MPD2    C312468   0.424   1.592  16.852  0.4981 -0.4013 -0.4205
  845MPD2    C412469   0.560   1.604  16.843  0.1175  0.4532  0.0733
  845MPD2    C512470   0.614   1.715  16.889  0.0275 -0.7406 -0.3203
  845MPD2     H12471   0.239   1.674  16.938 -0.0606 -0.1245  0.1140
  845MPD2    H112472   0.613   1.532  16.782  0.7719 -0.1395  1.3429
  845MPD2    H212473   0.598   1.905  16.977 -0.7154  0.0196 -1.4368
  845MPD2    H312474   0.722   1.719  16.895 -0.0441 -0.8193  1.0452
  845MPD2     N12475   0.345   1.492  16.791 -0.2338 -0.3724  0.1064
  845MPD2    H512476   0.247   1.504  16.811 -0.3204 -0.3102 -0.3463
  845MPD2    N112477   0.334   1.890  17.045  0.6849 -0.6211 -0.1535
  845MPD2    H712478   0.379   1.977  17.071  0.5233  0.4639 -3.6190
  846MPD2     C12479   1.163   2.746  13.452  0.9136  0.2945  0.4198
  846MPD2    C112480   1.035   2.805  13.450 -0.4905 -0.3522  0.4547
  846MPD2    C212481   0.973   2.841  13.570 -0.1880  0.1636 -0.3568
  846MPD2    C312482   1.040   2.813  13.688 -0.0667  0.6258 -0.2196
  846MPD2    C412483   1.162   2.752  13.693  0.2108  0.0216 -0.4583
  846MPD2    C512484   1.220   2.726  13.575 -0.0069 -0.4347 -0.9919
  846MPD2     H12485   0.874   2.884  13.574  0.6648  1.8151  3.6317
  846MPD2    H112486   1.215   2.720  13.782  1.0401  0.3704 -0.8336
  846MPD2    H212487   1.211   2.719  13.359  2.1770 -1.5184  1.5928
  846MPD2    H312488   1.307   2.662  13.582  1.7080  1.9867 -0.3231
  846MPD2     N12489   0.974   2.838  13.812  0.1416  0.0407  0.1338
  846MPD2    H512490   0.873   2.838  13.817  0.1698  0.9301  0.6152
  846MPD2    N112491   0.976   2.826  13.322 -0.0454 -0.3371  0.3802
  846MPD2    H712492   0.916   2.907  13.331 -2.4538 -1.8228 -2.0942
  847MPD2     C12493   1.835   3.242  14.118 -0.6891 -0.3339  0.4618
  847MPD2    C112494   1.914   3.346  14.157  0.1496  0.3081  0.1329
  847MPD2    C212495   2.003   3.325  14.260 -0.2142 -0.9630 -0.7589
  847MPD2    C312496   2.029   3.203  14.316 -0.0266 -0.5100  0.6131
  847MPD2    C412497   1.952   3.095  14.266 -0.4994 -1.0117 -0.1067
  847MPD2    C512498   1.860   3.117  14.167  0.3831 -0.9345 -0.1685
  847MPD2     H12499   2.043   3.417  14.301 -0.4878 -1.4025  0.5144
  847MPD2    H112500   1.966   2.995  14.305 -1.8741 -0.5844  1.4580
  847MPD2    H212501   1.759   3.262  14.044  0.1790  0.8937 -0.0883
  847MPD2    H312502   1.810   3.029  14.127 -1.2660  0.2009 -0.5868
  847MPD2     N12503   2.110   3.202  14.429 -0.2434  0.3206  0.2724
  847MPD2    H512504   2.175   3.280  14.441 -1.5897  1.7647 -1.7265
  847MPD2    N112505   1.891   3.480  14.125 -0.4520 -0.2111  0.8253
  847MPD2    H712506   1.948   3.547  14.176  0.9421 -0.0023 -1.0076
  848MPD2     C12507   4.084   1.708  16.418 -0.4163 -0.0484 -0.4893
  848MPD2    C112508   4.212   1.717  16.473  0.2604 -0.5594 -0.2464
  848MPD2    C212509   4.302   1.807  16.417 -0.1275 -0.2765  0.8900
  848MPD2    C312510   4.265   1.886  16.312 -0.8489 -0.3654  0.2619
  848MPD2    C412511   4.136   1.879  16.262 -1.0936  0.8892  0.1483
  848MPD2    C512512   4.047   1.787  16.312 -0.3158 -0.0087 -0.8799
  848MPD2     H12513   4.404   1.800  16.454  0.5118  0.7741 -0.6962
  848MPD2    H112514   4.109   1.946  16.181 -2.4431  1.0355  0.7171
  848MPD2    H212515   4.014   1.630  16.447  0.6449 -0.9748 -0.3817
  848MPD2    H312516   3.942   1.795  16.288 -0.3907  0.0414 -0.5261
  848MPD2     N12517   4.344   1.978  16.237  0.4380  0.1063  0.0661
  848MPD2    H512518   4.297   2.029  16.162 -0.6931  1.8714  1.9864
  848MPD2    N112519   4.263   1.619  16.561 -0.0653  0.8766  0.6329
  848MPD2    H712520   4.365   1.619  16.569 -0.1837  0.0003  2.2189
  849MPD2     C12521   3.514   1.784  14.124 -0.4187  0.8972  0.2164
  849MPD2    C112522   3.636   1.755  14.161  0.7816 -0.1297  0.1506
  849MPD2    C212523   3.671   1.710  14.288 -0.3336 -0.6077  0.6415
  849MPD2    C312524   3.568   1.685  14.381 -0.8470 -0.0468 -0.2912
  849MPD2    C412525   3.444   1.719  14.343  0.6478  0.5631 -0.0240
  849MPD2    C512526   3.417   1.772  14.219  0.1941 -0.6229 -0.4231
  849MPD2     H12527   3.773   1.699  14.322  0.3777  0.5870 -1.0968
  849MPD2    H112528   3.356   1.681  14.393 -0.6958  0.4675 -2.4660
  849MPD2    H212529   3.495   1.814  14.021  1.2818 -0.5785 -0.5096
  849MPD2    H312530   3.313   1.794  14.198 -0.8113 -1.3573  3.7875
  849MPD2     N12531   3.590   1.628  14.505 -0.2952 -0.1127 -0.1736
  849MPD2    H512532   3.682   1.587  14.518 -0.8615 -1.1178  0.7213
  849MPD2    N112533   3.735   1.782  14.059 -0.2603 -0.1176 -0.8477
  849MPD2    H712534   3.695   1.812  13.971 -1.0489 -2.2510 -1.2172
  850MPD2     C12535   1.688   4.518  14.307 -0.1762 -0.5125  0.0831
  850MPD2    C112536   1.653   4.620  14.388  0.4045 -0.1398 -0.3990
  850MPD2    C212537   1.754   4.683  14.457  0.7057 -0.1868  0.3186
  850MPD2    C312538   1.883   4.634  14.462 -0.0375 -0.8489 -0.7369
  850MPD2    C412539   1.915   4.530  14.377 -0.4094  0.6886  0.4450
  850MPD2    C512540   1.817   4.474  14.295  0.0942  0.2816  0.0634
  850MPD2     H12541   1.725   0.036  14.507  0.5737 -0.6219  1.0585
  850MPD2    H112542   2.015   4.488  14.376 -0.8705 -0.4002  0.5896
  850MPD2    H212543   1.605   4.468  14.258 -1.1757  1.6938 -0.4856
  850MPD2    H312544   1.834   4.380  14.242 -1.8643 -0.2615  0.4019
  850MPD2     N12545   1.990   4.687  14.534 -0.1611 -0.2819  0.3149
  850MPD2    H512546   2.079   4.640  14.517  0.4333  0.1148  2.2985
  850MPD2    N112547   1.511   4.638  14.410 -0.6077 -0.0473  0.6474
  850MPD2    H712548   1.447   4.611  14.336  0.3606  0.1096 -0.2413
  851MPD2     C12549   2.108   4.543  14.985  0.3065 -0.0216 -0.0044
  851MPD2    C112550   1.984   4.482  14.949  0.4074  0.2111 -0.0763
  851MPD2    C212551   1.970   4.344  14.965 -0.1732  0.4388 -0.0007
  851MPD2    C312552   2.074   4.267  15.002  0.4717  0.3523  0.1624
  851MPD2    C412553   2.193   4.326  15.030  0.2010 -0.5073  0.1479
  851MPD2    C512554   2.205   4.461  15.031  0.1873 -0.0030 -0.1459
  851MPD2     H12555   1.876   4.297  14.941 -1.2982  0.7462  3.7130
  851MPD2    H112556   2.289   4.279  15.049  0.7782 -0.1008 -1.7641
  851MPD2    H212557   2.133   4.649  14.988 -1.8727  0.4769  0.3533
  851MPD2    H312558   2.295   4.508  15.068  0.2451 -0.2090 -0.0270
  851MPD2     N12559   2.057   4.129  15.012  0.7582  0.6541 -0.1591
  851MPD2    H512560   1.964   4.092  14.995  0.4322  2.0035 -1.3762
  851MPD2    N112561   1.876   4.564  14.901  0.3326  0.1282 -0.1120
  851MPD2    H712562   1.879   4.665  14.905  1.2942  0.0353  1.6375
  852MPD2     C12563   0.775   2.799  10.168  0.1658  0.1233  0.1015
  852MPD2    C112564   0.835   2.836  10.286  0.0810  0.0570 -0.4012
  852MPD2    C212565   0.883   2.965  10.305 -0.4043 -0.2239 -0.3142
  852MPD2    C312566   0.882   3.053  10.195 -0.4519  0.1475  0.2940
  852MPD2    C412567   0.820   3.017  10.079 -0.6026  0.4539 -0.5842
  852MPD2    C512568   0.766   2.891  10.067  0.1949 -0.3474 -0.8959
  852MPD2     H12569   0.930   2.996  10.398  2.2945  1.7061 -2.3111
  852MPD2    H112570   0.838   3.088   9.999  1.4987 -0.0706 -0.5662
  852MPD2    H212571   0.747   2.696  10.153  0.3120 -0.0040  0.7204
  852MPD2    H312572   0.715   2.868   9.974  0.4124  2.0697 -1.6184
  852MPD2     N12573   0.953   3.175  10.213 -0.2195  0.0258 -0.2038
  852MPD2    H512574   0.996   3.186  10.305 -1.0196  1.9876 -0.0540
  852MPD2    N112575   0.853   2.751  10.394 -0.4890 -0.1982 -0.2841
  852MPD2    H712576   0.887   2.796  10.479  0.7700 -0.3395 -0.7074
  853MPD2     C12577   3.244   1.817  12.362  0.9251  0.1836 -1.0542
  853MPD2    C112578   3.121   1.833  12.320 -0.3048 -0.2607 -0.5267
  853MPD2    C212579   3.085   1.803  12.185  0.2341  0.3139  0.1024
  853MPD2    C312580   3.173   1.731  12.109 -0.2603 -0.8773 -0.2653
  853MPD2    C412581   3.300   1.706  12.164  0.1823 -0.1900  0.1151
  853MPD2    C512582   3.337   1.754  12.282 -0.0218 -0.3206 -0.7181
  853MPD2     H12583   2.987   1.829  12.146  0.4326  0.5172 -0.2533
  853MPD2    H112584   3.373   1.653  12.104 -0.7288 -1.8740  0.5120
  853MPD2    H212585   3.281   1.852  12.457 -2.0121  0.3746  0.0105
  853MPD2    H312586   3.436   1.732  12.319 -0.1471  1.2335  0.5442
  853MPD2     N12587   3.143   1.691  11.979  0.5228 -0.7295  0.9918
  853MPD2    H512588   3.218   1.644  11.929  0.3904 -1.0053  1.0523
  853MPD2    N112589   3.030   1.892  12.405 -0.7453  0.7959 -0.6870
  853MPD2    H712590   3.066   1.910  12.498  2.1472 -1.5414 -1.3595
  854MPD2     C12591   0.292   1.591  12.946 -0.4260 -0.8870  0.6063
  854MPD2    C112592   0.226   1.509  12.852 -0.0217  0.1030  0.5402
  854MPD2    C212593   0.263   1.378  12.851 -0.2711 -0.2071 -0.2220
  854MPD2    C312594   0.352   1.326  12.945 -0.2090  0.2507 -0.6370
  854MPD2    C412595   0.412   1.403  13.044 -0.2387  0.0762  0.7883
  854MPD2    C512596   0.370   1.534  13.038  0.4358  0.7922 -0.3771
  854MPD2     H12597   0.223   1.318  12.770 -2.8701 -0.0453  0.9666
  854MPD2    H112598   0.485   1.378  13.121 -0.3868 -0.0191  0.8965
  854MPD2    H212599   0.271   1.696  12.964  0.9553 -0.3769 -0.7585
  854MPD2    H312600   0.403   1.601  13.116 -1.4135 -1.6189  2.4641
  854MPD2     N12601   0.407   1.197  12.932 -0.2176  0.2182  0.6075
  854MPD2    H512602   0.475   1.178  13.005 -0.2365 -1.5864  0.1556
  854MPD2    N112603   0.140   1.573  12.757 -0.0048  0.3553 -0.5201
  854MPD2    H712604   0.134   1.673  12.773 -0.9566  0.0604  0.9103
  855MPD2     C12605   1.060   1.407  13.308  0.4866  0.0419 -0.8062
  855MPD2    C112606   0.920   1.391  13.319 -0.2856 -0.1615  1.0383
  855MPD2    C212607   0.850   1.298  13.248  0.1103  0.0318 -0.0744
  855MPD2    C312608   0.920   1.208  13.167  1.2919 -0.5815  0.2324
  855MPD2    C412609   1.056   1.216  13.158 -0.4324  0.6841 -0.9361
  855MPD2    C512610   1.120   1.309  13.234 -0.0516  0.1362  0.5644
  855MPD2     H12611   0.743   1.303  13.258  0.2076  2.0768 -0.1510
  855MPD2    H112612   1.118   1.147  13.101  2.7620  1.1643  1.9900
  855MPD2    H212613   1.116   1.487  13.354 -0.2420  1.3027 -2.1134
  855MPD2    H312614   1.228   1.313  13.222 -0.2898 -2.1923 -2.4388
  855MPD2     N12615   0.852   1.112  13.090 -0.2953 -0.5747 -0.2820
  855MPD2    H512616   0.903   1.049  13.029 -0.0293 -0.5809 -0.0569
  855MPD2    N112617   0.836   1.470  13.395  0.7084 -0.1840 -0.1747
  855MPD2    H712618   0.738   1.442  13.401  0.5913  0.3000  0.1492
  856MPD2     C12619   2.334   2.831  13.414  0.1369 -0.3267 -0.0496
  856MPD2    C112620   2.356   2.925  13.513  0.5566 -0.9297 -0.6530
  856MPD2    C212621   2.265   3.016  13.545  0.2693 -0.5789 -0.7149
  856MPD2    C312622   2.139   3.015  13.485  0.8979  0.1667 -0.6703
  856MPD2    C412623   2.119   2.931  13.373  0.4062  0.4862  0.1350
  856MPD2    C512624   2.221   2.844  13.338 -0.2168 -0.2757 -0.6657
  856MPD2     H12625   2.289   3.087  13.624  2.0114  0.0852 -1.8324
  856MPD2    H112626   2.032   2.945  13.310 -0.7264 -0.7487  1.4014
  856MPD2    H212627   2.413   2.762  13.386 -0.7710 -1.8448  1.1048
  856MPD2    H312628   2.211   2.787  13.246  1.4126 -0.0076 -1.0099
  856MPD2     N12629   2.042   3.115  13.519 -0.2871  0.1380 -0.2970
  856MPD2    H512630   1.968   3.119  13.449 -1.2550  1.2770  0.7964
  856MPD2    N112631   2.472   2.918  13.593  0.1117 -0.1140  0.5218
  856MPD2    H712632   2.472   2.985  13.669 -0.6652  0.2462  0.2064
  857MPD2     C12633   4.173   4.441  13.036 -0.4167  0.2701  0.5858
  857MPD2    C112634   4.171   4.566  12.984 -0.6620 -0.2386  0.4404
  857MPD2    C212635   4.180   4.680  13.066 -0.0794  0.6710  0.3224
  857MPD2    C312636   4.215   4.662  13.199 -0.3818 -0.7910  0.4004
  857MPD2    C412637   4.220   4.540  13.254 -0.4729 -0.1061 -0.1540
  857MPD2    C512638   4.203   4.428  13.168  0.0134 -0.0961 -0.2287
  857MPD2     H12639   4.181   0.043  13.032 -1.5628  0.4855 -0.2925
  857MPD2    H112640   4.245   4.527  13.359  0.3257 -0.1011 -0.3411
  857MPD2    H212641   4.162   4.361  12.963  0.7894  1.0868 -0.5018
  857MPD2    H312642   4.207   4.333  13.219  2.7913 -0.2819 -0.8079
  857MPD2     N12643   4.232   0.038  13.284  0.0250 -0.0772 -0.5153
  857MPD2    H512644   4.213   0.125  13.236 -0.8146 -0.3804 -0.7341
  857MPD2    N112645   4.139   4.581  12.848  0.2708 -0.6130  0.2026
  857MPD2    H712646   4.087   4.506  12.804 -0.1558  1.1882 -2.3951
  858MPD2     C12647   0.310   4.505  16.075  0.5776 -0.2069  0.2202
  858MPD2    C112648   0.256   4.385  16.117 -0.1785  0.2512 -0.1049
  858MPD2    C212649   0.219   4.370  16.248  1.5248 -0.5851 -0.2151
  858MPD2    C312650   0.234   4.474  16.332 -0.5243  0.5358 -0.1312
  858MPD2    C412651   0.276   4.599  16.286  0.8785  0.0851  0.6212
  858MPD2    C512652   0.321   4.613  16.161 -0.9452  0.8075  0.4437
  858MPD2     H12653   0.173   4.275  16.271 -0.7249  0.1618 -1.6778
  858MPD2    H112654   0.288   4.681  16.355  0.9418 -0.9291  1.8110
  858MPD2    H212655   0.342   4.525  15.974  0.5385 -2.0034 -0.1472
  858MPD2    H312656   0.360   4.706  16.123  0.6356 -0.0243  0.0619
  858MPD2     N12657   0.203   4.458  16.472  1.0554  0.5019 -0.0220
  858MPD2    H512658   0.223   4.537  16.532  0.4109 -0.2375  1.1745
  858MPD2    N112659   0.236   4.280  16.023  0.0963 -0.3866 -0.0118
  858MPD2    H712660   0.192   4.199  16.063  0.3559 -0.3661  0.3179
  859MPD2     C12661   3.212   1.384  15.365 -0.3951 -0.3149  0.3164
  859MPD2    C112662   3.343   1.349  15.342  0.4452  0.4978 -0.2691
  859MPD2    C212663   3.387   1.216  15.334 -0.2896  0.3218  0.3986
  859MPD2    C312664   3.295   1.115  15.369  0.6485 -0.5062  0.5105
  859MPD2    C412665   3.163   1.149  15.395 -0.3613 -0.2293  0.0905
  859MPD2    C512666   3.127   1.279  15.395 -0.3660 -0.0929  0.0962
  859MPD2     H12667   3.488   1.193  15.303 -0.0703  1.9396 -0.0693
  859MPD2    H112668   3.089   1.074  15.419  0.9239 -1.4688  0.1925
  859MPD2    H212669   3.183   1.488  15.364  0.8650  0.0619  1.8873
  859MPD2    H312670   3.025   1.308  15.421  0.2204  0.9898  1.1880
  859MPD2     N12671   3.332   0.976  15.383 -0.7438  0.2714 -0.5272
  859MPD2    H512672   3.260   0.910  15.413 -1.2807  0.6575 -0.9539
  859MPD2    N112673   3.431   1.454  15.328 -0.0629 -0.0385  0.1653
  859MPD2    H712674   3.395   1.547  15.342  2.1990  0.5564  2.0643
  860MPD2     C12675   0.834   1.823  11.503  0.7263  0.6648 -0.1134
  860MPD2    C112676   0.772   1.849  11.626 -0.1273 -0.3094 -0.5097
  860MPD2    C212677   0.680   1.758  11.674 -0.4622 -0.0057  0.4326
  860MPD2    C312678   0.649   1.648  11.600 -0.0039  0.9288  0.2959
  860MPD2    C412679   0.702   1.627  11.478  0.5042 -0.6632 -0.2169
  860MPD2    C512680   0.790   1.716  11.426  0.8066 -0.2788  0.1037
  860MPD2     H12681   0.640   1.774  11.774 -0.9427  0.0618  0.2301
  860MPD2    H112682   0.684   1.536  11.423 -1.7041  0.6705 -1.6981
  860MPD2    H212683   0.920   1.880  11.469  0.7404  0.8812  0.2836
  860MPD2    H312684   0.831   1.691  11.329 -0.4979  1.2881 -0.8517
  860MPD2     N12685   0.568   1.554  11.661  0.1414 -0.4307 -0.8547
  860MPD2    H512686   0.524   1.588  11.746  1.3188  1.7537 -1.1000
  860MPD2    N112687   0.799   1.952  11.715 -0.5191  0.1635  0.2081
  860MPD2    H712688   0.751   1.939  11.803 -0.3072 -1.3512  0.1115
  861MPD2     C12689   4.381   0.047  11.078  0.6355  0.2161 -0.3266
  861MPD2    C112690   4.431   0.174  11.053 -0.7211  0.0884  0.0095
  861MPD2    C212691   4.380   0.249  10.949 -0.2687 -0.5324 -0.6906
  861MPD2    C312692   4.299   0.191  10.856 -0.2688  0.2508  0.3850
  861MPD2    C412693   4.263   0.061  10.870 -0.8757 -0.6769 -0.5484
  861MPD2    C512694   4.304   4.735  10.984 -0.4333 -0.0214  0.1002
  861MPD2     H12695   4.418   0.347  10.922  2.1889 -0.2929  3.5965
  861MPD2    H112696   4.187   0.019  10.805 -0.1570  0.2257 -1.9510
  861MPD2    H212697   4.410   4.724  11.162 -2.0367  2.3579  2.1610
  861MPD2    H312698   4.268   4.634  10.995 -0.2583 -0.0561  0.3379
  861MPD2     N12699   4.240   0.252  10.742 -0.4189 -0.3464 -0.0634
  861MPD2    H512700   4.171   0.205  10.686 -0.4930 -1.8852  1.3233
  861MPD2    N112701   4.529   0.239  11.135  0.0770  1.1426 -0.3947
  861MPD2    H712702   4.548   0.336  11.113  2.3406  0.5998 -0.7826
  862MPD2     C12703   3.616   0.193  10.506 -0.8274  1.0883 -0.0298
  862MPD2    C112704   3.707   0.195  10.605 -0.3126  0.1596 -0.8563
  862MPD2    C212705   3.705   0.098  10.701  0.6701  0.1415  0.2756
  862MPD2    C312706   3.598   0.002  10.713  0.5367  0.3549 -0.2482
  862MPD2    C412707   3.503   0.003  10.613  0.4904  0.2614 -0.0510
  862MPD2    C512708   3.518   0.097  10.512 -0.0520  0.2178  0.4582
  862MPD2     H12709   3.784   0.087  10.774  1.3629  0.1512 -0.4830
  862MPD2    H112710   3.419   4.675  10.604  0.6136  0.0066  0.7051
  862MPD2    H212711   3.605   0.262  10.424 -3.0697  1.7355  0.8175
  862MPD2    H312712   3.447   0.087  10.430  0.9525 -1.4655 -0.1994
  862MPD2     N12713   3.587   4.663  10.823 -0.1593 -0.0057 -0.0124
  862MPD2    H512714   3.527   4.581  10.810  0.8924 -0.6754 -0.6258
  862MPD2    N112715   3.818   0.285  10.602  0.0577 -0.0873 -0.4407
  862MPD2    H712716   3.889   0.279  10.675  0.5278  0.0621 -0.8903
  863MPD2     C12717   3.173   3.033  16.695 -0.2567  0.1237  0.1806
  863MPD2    C112718   3.200   3.159  16.730 -0.0697  0.4126 -0.0361
  863MPD2    C212719   3.298   3.181  16.823  0.1815 -0.4347  0.3579
  863MPD2    C312720   3.359   3.074  16.889 -0.2919 -0.1905 -0.1505
  863MPD2    C412721   3.319   2.941  16.860 -0.6332 -0.1116  0.4765
  863MPD2    C512722   3.233   2.920  16.758  0.7642 -0.0979  0.1126
  863MPD2     H12723   3.332   3.281  16.846  1.4179 -0.4081 -1.5656
  863MPD2    H112724   3.364   2.855  16.909 -1.8569 -0.3744  1.1416
  863MPD2    H212725   3.103   3.021  16.614  0.1310  1.9386 -0.4241
  863MPD2    H312726   3.207   2.819  16.729 -0.1556 -0.1334  1.0445
  863MPD2     N12727   3.463   3.088  16.989 -0.2101  0.5264 -0.0568
  863MPD2    H512728   3.506   3.002  17.022 -0.3692  1.7203  3.2318
  863MPD2    N112729   3.138   3.269  16.661 -0.2243 -0.6442 -0.2014
  863MPD2    H712730   3.074   3.251  16.584 -1.6613  0.7052  0.6797
  864MPD2     C12731   3.923   4.404  17.194  0.0307  0.1642  0.3057
  864MPD2    C112732   3.902   4.315  17.083  0.4450 -0.0343  0.0790
  864MPD2    C212733   3.965   4.342  16.957 -0.0651 -0.1073 -0.4160
  864MPD2    C312734   4.041   4.458  16.948  0.4166  0.7676  0.2927
  864MPD2    C412735   4.060   4.545  17.050  0.1137  0.2271  0.0426
  864MPD2    C512736   3.990   4.521  17.168  0.1138  0.4852 -0.6576
  864MPD2     H12737   3.956   4.269  16.877  0.1916  1.9354 -2.3316
  864MPD2    H112738   4.115   4.636  17.030  1.0169 -0.0277  1.3215
  864MPD2    H212739   3.879   4.386  17.291 -0.7284  0.0192 -0.0645
  864MPD2    H312740   3.994   4.601  17.242  1.5017  0.3168 -0.5547
  864MPD2     N12741   4.102   4.488  16.825  0.9443  0.7718  0.4179
  864MPD2    H512742   4.148   4.577  16.812 -0.5085  1.5298  0.4074
  864MPD2    N112743   3.819   4.197  17.111  0.1357  0.0687  0.0902
  864MPD2    H712744   3.791   4.187  17.208  0.1016  0.9780  0.1668
  865MPD2     C12745   3.787   4.706  16.022 -0.5108  0.5302  0.3777
  865MPD2    C112746   3.832   4.614  16.119 -0.0050  0.4984 -0.1853
  865MPD2    C212747   3.907   4.656  16.224 -0.0143 -0.0562  0.3022
  865MPD2    C312748   3.962   0.046  16.229 -0.4038 -0.8128 -0.2859
  865MPD2    C412749   3.926   0.134  16.122 -0.0829 -0.6460 -0.7055
  865MPD2    C512750   3.822   0.096  16.036  0.1248  0.9775  0.0350
  865MPD2     H12751   3.921   4.584  16.304 -0.1251  1.2455  1.5106
  865MPD2    H112752   3.964   0.235  16.114  1.0986 -0.9244  1.3748
  865MPD2    H212753   3.715   4.679  15.945  0.2804  3.5551 -1.3862
  865MPD2    H312754   3.796   0.161  15.954 -0.9951 -2.5880 -2.4170
  865MPD2     N12755   4.042   0.102  16.333  0.4407 -0.3401 -0.0680
  865MPD2    H512756   4.062   0.201  16.321 -1.4547 -0.0429 -0.7468
  865MPD2    N112757   3.800   4.475  16.098  0.0194  0.8721  0.0131
  865MPD2    H712758   3.736   4.453  16.022  0.2631 -3.7732  1.1212
  866MPD2     C12759   0.607   0.854  10.774  0.2040 -0.0272 -0.3310
  866MPD2    C112760   0.557   0.728  10.811  0.1458 -0.7275 -0.2978
  866MPD2    C212761   0.421   0.714  10.837  0.9931  0.2874  0.8610
  866MPD2    C312762   0.342   0.831  10.834  1.2324  0.1673 -0.0506
  866MPD2    C412763   0.403   0.957  10.824 -0.0388  0.2993 -0.0196
  866MPD2    C512764   0.534   0.965  10.799  0.3979 -0.0755 -0.1703
  866MPD2     H12765   0.376   0.616  10.849 -1.0677  1.5045  2.9479
  866MPD2    H112766   0.353   1.051  10.842 -0.4440 -0.0500  0.6770
  866MPD2    H212767   0.713   0.874  10.758  0.1923  1.0586  0.9660
  866MPD2    H312768   0.587   1.059  10.788  0.5758  0.2013  3.1681
  866MPD2     N12769   0.207   0.842  10.864 -0.1456 -0.2678  0.2130
  866MPD2    H512770   0.164   0.933  10.872  2.2575  0.9128 -0.3534
  866MPD2    N112771   0.654   0.622  10.824  0.6747 -0.0840  0.2592
  866MPD2    H712772   0.746   0.637  10.782  0.3848  1.8894  0.3050
  867MPD2     C12773   3.569   4.580  16.432 -0.5458 -0.2511 -0.0757
  867MPD2    C112774   3.608   4.580  16.563 -0.4251  0.2534  0.7834
  867MPD2    C212775   3.687   4.681  16.604  0.2278  0.3323 -0.0378
  867MPD2    C312776   3.713   0.050  16.522  0.4431  0.0805  0.1858
  867MPD2    C412777   3.663   0.053  16.390  0.5264 -0.2478 -0.3270
  867MPD2    C512778   3.590   4.686  16.350  0.6428  0.2555 -0.1363
  867MPD2     H12779   3.715   4.688  16.709  0.6103 -1.8536  0.0069
  867MPD2    H112780   3.693   0.136  16.327 -3.0257 -1.1804 -3.2559
  867MPD2    H212781   3.514   4.500  16.384 -2.1911 -0.1070  1.5728
  867MPD2    H312782   3.553   4.673  16.249 -1.9565  2.2178  0.5845
  867MPD2     N12783   3.786   0.166  16.570  0.1322  0.9411  0.2209
  867MPD2    H512784   3.782   0.247  16.509  0.1515 -0.1855 -1.2752
  867MPD2    N112785   3.565   4.475  16.649  0.1103  0.5526  0.0733
  867MPD2    H712786   3.518   4.394  16.609 -1.2904  1.6999 -0.5900
  868MPD2     C12787   4.110   3.469  12.925  0.1696  0.3951  0.5635
  868MPD2    C112788   4.159   3.381  13.016 -0.2703 -0.3109  0.1024
  868MPD2    C212789   4.087   3.374  13.140 -0.6514 -0.7089 -0.2721
  868MPD2    C312790   3.985   3.465  13.176  0.4250  0.2825 -0.0236
  868MPD2    C412791   3.945   3.561  13.083  0.2486 -0.0430 -0.1926
  868MPD2    C512792   4.005   3.555  12.958 -0.4305  0.0999 -0.2476
  868MPD2     H12793   4.117   3.297  13.210  1.4916  0.0505 -0.3481
  868MPD2    H112794   3.862   3.630  13.092 -0.8287 -1.2255 -0.9591
  868MPD2    H212795   4.150   3.466  12.824 -0.8109  1.2570  0.1553
  868MPD2    H312796   3.971   3.622  12.880 -2.6187 -1.1507 -0.3813
  868MPD2     N12797   3.936   3.452  13.305  0.4235 -1.0508  0.2422
  868MPD2    H512798   3.981   3.381  13.362  0.5727 -1.7996 -0.8099
  868MPD2    N112799   4.264   3.289  12.979  0.5196 -0.1986 -0.1224
  868MPD2    H712800   4.307   3.305  12.888  1.2985 -0.1628  0.2516
  869MPD2     C12801   1.192   2.317   1.411 -0.5783  0.2579  0.0363
  869MPD2    C112802   1.216   2.185   1.384 -1.5089  0.1333 -0.6840
  869MPD2    C212803   1.321   2.153   1.302  0.1848  0.0066  0.1821
  869MPD2    C312804   1.406   2.252   1.256  0.3986 -0.7162  1.1271
  869MPD2    C412805   1.381   2.383   1.287 -0.1903  0.0268 -0.5093
  869MPD2    C512806   1.268   2.418   1.360 -0.1992 -0.5591 -0.4285
  869MPD2     H12807   1.359   2.053   1.290 -5.1970 -2.0867  0.7442
  869MPD2    H112808   1.448   2.462   1.254  1.2871  0.1408  2.7428
  869MPD2    H212809   1.098   2.334   1.463 -1.5241  0.3347 -1.7187
  869MPD2    H312810   1.246   2.518   1.393  1.2366  0.3894 -2.3688
  869MPD2     N12811   1.530   2.243   1.194  0.5297 -0.6863 -0.0499
  869MPD2    H512812   1.589   2.323   1.173  1.4558 -1.4435 -0.3046
  869MPD2    N112813   1.135   2.090   1.444  0.2502  0.4291 -0.4204
  869MPD2    H712814   1.077   2.121   1.521 -0.1438 -2.9515  0.6723
  870MPD2     C12815   0.776   0.082   1.336 -0.0029  0.0570  0.0652
  870MPD2    C112816   0.838   0.171   1.255 -1.0333 -0.0995 -0.1472
  870MPD2    C212817   0.766   0.291   1.235 -0.3868  0.4787 -0.0231
  870MPD2    C312818   0.634   0.307   1.276 -0.0396 -0.1263 -0.2928
  870MPD2    C412819   0.574   0.210   1.350 -0.2931 -0.2804 -0.6646
  870MPD2    C512820   0.649   0.098   1.381  0.4874 -0.1586 -0.8133
  870MPD2     H12821   0.808   0.357   1.160 -2.0039 -0.4691 -1.7598
  870MPD2    H112822   0.469   0.214   1.376 -0.0715  1.6179 -0.0198
  870MPD2    H212823   0.827   4.729   1.364 -0.1617  0.1104  0.5277
  870MPD2    H312824   0.608   0.006   1.422 -2.8115  1.5541 -0.2706
  870MPD2     N12825   0.561   0.416   1.220  0.1083  0.2311 -0.2367
  870MPD2    H512826   0.595   0.464   1.138 -0.2260 -0.4581 -0.7864
  870MPD2    N112827   0.969   0.141   1.207 -0.3760  1.0336 -0.2819
  870MPD2    H712828   1.005   0.050   1.233  0.0919  1.3743  0.2823
  871MPD2     C12829   0.781   4.699  16.184  0.5396  0.1677 -0.2804
  871MPD2    C112830   0.892   4.706  16.262 -0.3854 -0.1539  0.3028
  871MPD2    C212831   0.966   4.597  16.295 -0.7187  0.5914  0.2104
  871MPD2    C312832   0.927   4.471  16.247  0.6663  0.0100  0.8958
  871MPD2    C412833   0.816   4.464  16.163  0.7548 -0.1957  0.0234
  871MPD2    C512834   0.736   4.577  16.145 -0.2589 -0.9569 -0.5034
  871MPD2     H12835   1.056   4.612  16.355 -0.9406  1.1525  0.4010
  871MPD2    H112836   0.792   4.371  16.112  0.9350 -0.2603  0.0549
  871MPD2    H212837   0.717   0.045  16.170 -2.0014 -1.7550 -0.2802
  871MPD2    H312838   0.638   4.573  16.097 -0.2350  2.5375 -0.8436
  871MPD2     N12839   0.992   4.350  16.271 -0.4621 -0.2737  0.2452
  871MPD2    H512840   0.956   4.264  16.230 -1.3741  0.6443 -0.8906
  871MPD2    N112841   0.919   0.099  16.304 -0.2220 -0.8539  0.3310
  871MPD2    H712842   0.876   0.181  16.263  1.4878 -0.6384 -1.0134
  872MPD2     C12843   2.648   2.229  14.267  0.0562  0.2459  0.0387
  872MPD2    C112844   2.628   2.304  14.154  0.2673  0.3418 -0.4316
  872MPD2    C212845   2.497   2.339  14.117 -0.3951 -0.2433  0.2415
  872MPD2    C312846   2.393   2.283  14.188 -0.7124  0.8206  0.5163
  872MPD2    C412847   2.416   2.215  14.301 -0.4418  0.3698 -0.0923
  872MPD2    C512848   2.543   2.179  14.333 -0.1017  0.3084 -0.5289
  872MPD2     H12849   2.473   2.396  14.028 -1.2115  0.6217  1.0360
  872MPD2    H112850   2.334   2.167  14.353  0.8251 -1.6997 -0.0538
  872MPD2    H212851   2.745   2.200  14.306  0.8200  4.8643  1.6214
  872MPD2    H312852   2.556   2.113  14.419 -0.7611 -1.2951 -1.6630
  872MPD2     N12853   2.262   2.273  14.133  0.6828 -0.0659 -0.5373
  872MPD2    H512854   2.201   2.213  14.188  1.7415 -1.5057 -0.9145
  872MPD2    N112855   2.732   2.347  14.072  0.3454  0.5534  0.2894
  872MPD2    H712856   2.698   2.391  13.987  1.4437  1.5059  0.3351
  873MPD2     C12857   0.085   1.876   0.738  0.4252  0.7927  0.3959
  873MPD2    C112858   0.021   1.965   0.821 -0.1879 -0.8566 -0.2029
  873MPD2    C212859   4.630   1.926   0.867 -0.5459 -0.0107  0.9663
  873MPD2    C312860   4.576   1.798   0.834  0.6315 -0.6718 -0.0407
  873MPD2    C412861   4.657   1.710   0.765  0.6490  0.4167  0.6960
  873MPD2    C512862   0.044   1.748   0.715  0.6582  0.0351  0.3690
  873MPD2     H12863   4.574   1.994   0.929 -0.5502  2.4463 -1.7255
  873MPD2    H112864   4.616   1.616   0.731  0.3417  1.5777 -2.1159
  873MPD2    H212865   0.178   1.910   0.695  1.0687 -0.1201  1.0586
  873MPD2    H312866   0.095   1.674   0.654  0.2645 -0.4863  0.6706
  873MPD2     N12867   4.447   1.760   0.863  0.2231  0.2656 -0.1951
  873MPD2    H512868   4.419   1.673   0.818 -0.1874  0.2739  0.0507
  873MPD2    N112869   0.082   2.089   0.853  0.2447 -0.6057 -0.4931
  873MPD2    H712870   0.175   2.106   0.815  0.9569 -4.5650 -0.4780
  874MPD2     C12871   3.863   2.157  16.121 -0.6863 -0.5808  0.2988
  874MPD2    C112872   3.925   2.169  16.246 -0.1919  0.3588  0.2162
  874MPD2    C212873   4.048   2.228  16.250 -0.4015 -0.3121  0.5239
  874MPD2    C312874   4.110   2.257  16.131 -0.3001 -0.2726  0.2676
  874MPD2    C412875   4.056   2.222  16.012 -0.3684 -0.2135  0.0198
  874MPD2    C512876   3.929   2.181  16.007 -0.2241 -0.2466  0.4772
  874MPD2     H12877   4.100   2.240  16.344 -0.2056  0.5790  0.3047
  874MPD2    H112878   4.112   2.223  15.919  0.6990 -0.4175  0.6549
  874MPD2    H212879   3.765   2.112  16.120 -1.6619  1.6314 -2.7852
  874MPD2    H312880   3.894   2.161  15.906  5.6956 -2.1251 -1.2396
  874MPD2     N12881   4.244   2.296  16.137  0.0896  0.3995 -0.1356
  874MPD2    H512882   4.294   2.297  16.225 -3.0195 -0.5487  1.6298
  874MPD2    N112883   3.864   2.114  16.361 -0.5188 -0.4124  0.6125
  874MPD2    H712884   3.781   2.062  16.334  0.0883 -1.4796  0.7903
  875MPD2     C12885   0.246   0.652  14.563 -0.0696  0.4920  0.6253
  875MPD2    C112886   0.117   0.660  14.611  0.5546 -0.2285  0.0350
  875MPD2    C212887   0.103   0.729  14.735 -0.1508 -0.0790  1.0537
  875MPD2    C312888   0.212   0.776  14.807 -0.3466  1.1003 -0.3148
  875MPD2    C412889   0.340   0.768  14.750  0.1926 -0.6338  0.7322
  875MPD2    C512890   0.355   0.706  14.632  0.3844  0.5566 -0.8659
  875MPD2     H12891   0.010   0.727  14.790  0.2195 -1.8162  1.6257
  875MPD2    H112892   0.434   0.801  14.791 -1.3937  2.4508  1.9205
  875MPD2    H212893   0.268   0.604  14.468  1.2077  0.3849  0.9659
  875MPD2    H312894   0.452   0.700  14.586 -0.9033  1.3121 -3.6688
  875MPD2     N12895   0.208   0.841  14.928 -0.4066  0.2094  0.1382
  875MPD2    H512896   0.295   0.871  14.970 -1.1359  1.8908  0.4682
  875MPD2    N112897   4.738   0.613  14.545 -0.2461  0.3726 -0.0574
  875MPD2    H712898   4.646   0.625  14.586 -0.0170  0.0555  0.5640
  876MPD2     C12899   3.933   1.500  16.192  0.7306  0.5044 -0.5920
  876MPD2    C112900   3.861   1.522  16.080 -0.2021  0.0692  0.1247
  876MPD2    C212901   3.759   1.421  16.049 -0.1434 -0.7951  0.2278
  876MPD2    C312902   3.746   1.313  16.139  0.2052  0.0069 -0.4707
  876MPD2    C412903   3.817   1.311  16.261  0.1107  0.4194  0.0673
  876MPD2    C512904   3.906   1.408  16.289 -0.4932  0.0094 -0.5295
  876MPD2     H12905   3.708   1.428  15.953  0.7380 -3.6500 -0.4654
  876MPD2    H112906   3.801   1.238  16.339 -1.0327  1.4878  0.8492
  876MPD2    H212907   4.011   1.572  16.217  2.1010  0.4096 -4.6297
  876MPD2    H312908   3.956   1.406  16.385  0.6286 -0.1375 -1.1070
  876MPD2     N12909   3.667   1.202  16.105 -0.0292 -0.0938  0.0511
  876MPD2    H512910   3.627   1.201  16.011 -0.1112  0.2139  0.0823
  876MPD2    N112911   3.893   1.630  15.993  0.2054 -0.3209 -0.1825
  876MPD2    H712912   3.971   1.689  16.019 -0.1196  0.2297 -0.4654
  877MPD2     C12913   3.668   2.171  15.320 -0.3933 -0.0154 -0.0191
  877MPD2    C112914   3.805   2.144  15.331  0.1075  0.6587 -0.0151
  877MPD2    C212915   3.886   2.178  15.233 -0.0417 -0.5325  0.6591
  877MPD2    C312916   3.839   2.254  15.126  0.2802  0.8457  0.5365
  877MPD2    C412917   3.702   2.270  15.106  0.2039 -0.9674  0.0437
  877MPD2    C512918   3.621   2.238  15.209 -0.5265 -0.1377 -0.5340
  877MPD2     H12919   3.994   2.166  15.243 -0.1397 -0.0866  2.2929
  877MPD2    H112920   3.658   2.323  15.023 -2.1483 -3.7266 -0.4944
  877MPD2    H212921   3.592   2.165  15.397  0.6376 -0.1659  0.9846
  877MPD2    H312922   3.517   2.266  15.213 -0.8461 -1.2902 -0.9697
  877MPD2     N12923   3.918   2.299  15.016 -0.2397  0.2427 -0.4801
  877MPD2    H512924   3.865   2.312  14.931  0.4145  0.0475 -0.9168
  877MPD2    N112925   3.850   2.063  15.438  0.2054  0.5144 -0.6404
  877MPD2    H712926   3.945   2.029  15.435 -0.2654 -0.6470 -2.4248
  878MPD2     C12927   3.288   1.704  13.347  0.5442 -0.2578  0.4835
  878MPD2    C112928   3.406   1.687  13.281  0.8177  0.6234 -0.3905
  878MPD2    C212929   3.530   1.686  13.345  0.4881  0.7041  0.3634
  878MPD2    C312930   3.535   1.702  13.479  0.1003 -0.0693 -1.0398
  878MPD2    C412931   3.418   1.718  13.547 -0.1550  0.0218 -0.1290
  878MPD2    C512932   3.292   1.707  13.485 -0.3866  0.2059 -0.1743
  878MPD2     H12933   3.624   1.667  13.296 -0.6696 -2.3582 -0.6978
  878MPD2    H112934   3.408   1.730  13.655 -1.4143  2.4975 -0.5172
  878MPD2    H212935   3.190   1.702  13.300  1.5841  0.3459 -1.7261
  878MPD2    H312936   3.200   1.699  13.542  0.1454 -0.7205  0.5578
  878MPD2     N12937   3.658   1.701  13.548  0.4549 -0.6051 -0.5389
  878MPD2    H512938   3.734   1.661  13.494 -0.9944 -4.7946  0.5262
  878MPD2    N112939   3.387   1.667  13.143 -0.1506  0.2164  0.1960
  878MPD2    H712940   3.292   1.646  13.114 -1.4570  2.9364  2.4852
  879MPD2     C12941   3.700   3.148  16.746 -0.3089 -0.4427 -0.1762
  879MPD2    C112942   3.794   3.070  16.820 -0.5974  0.3767 -0.1514
  879MPD2    C212943   3.781   2.932  16.821 -0.4798 -0.1713  0.1330
  879MPD2    C312944   3.695   2.871  16.737  0.1450  0.8643  0.1680
  879MPD2    C412945   3.612   2.945  16.661 -0.2373 -0.6387  0.0304
  879MPD2    C512946   3.615   3.080  16.662 -0.7716  0.1567 -0.0188
  879MPD2     H12947   3.856   2.878  16.878  0.3379 -0.6401 -1.3833
  879MPD2    H112948   3.524   2.898  16.617 -1.0874  0.2858  0.7508
  879MPD2    H212949   3.700   3.256  16.741 -0.1181 -0.5419 -2.4393
  879MPD2    H312950   3.546   3.138  16.602 -1.6872 -0.3727  0.5321
  879MPD2     N12951   3.695   2.733  16.726 -0.2876  0.3006 -0.5552
  879MPD2    H512952   3.640   2.698  16.648 -1.0129  4.0284 -1.7116
  879MPD2    N112953   3.896   3.140  16.884 -0.3168 -0.3235 -0.3598
  879MPD2    H712954   3.911   3.238  16.861 -1.8857 -0.1633 -0.6975
  880MPD2     C12955   0.812   4.628  17.750  0.4840  0.0152  0.0319
  880MPD2    C112956   0.885   4.704   0.082  0.1772  0.2300 -0.2927
  880MPD2    C212957   1.004   4.666   0.146  0.3483 -0.2703  0.1096
  880MPD2    C312958   1.042   4.532   0.126  0.1004  0.2125  0.0516
  880MPD2    C412959   0.969   4.450   0.043 -0.5261  0.2053  0.3952
  880MPD2    C512960   0.853   4.495  17.740  0.1390 -0.2550 -0.3104
  880MPD2     H12961   1.063   4.732   0.208  0.4799 -2.2083  2.0271
  880MPD2    H112962   0.993   4.349   0.012 -0.5225  0.2108  0.3800
  880MPD2    H212963   0.731   4.680  17.700  0.4083  0.9148  1.0979
  880MPD2    H312964   0.789   4.431  17.680 -0.8682 -0.0238  0.5207
  880MPD2     N12965   1.155   4.493   0.200  0.3219  0.3806 -0.5276
  880MPD2    H512966   1.186   4.568   0.261 -0.3257  1.5334 -1.6282
  880MPD2    N112967   0.829   0.095   0.103 -0.0304  0.4112  0.2586
  880MPD2    H712968   0.763   0.133   0.037  1.0940  0.6496 -0.7145
  881MPD2     C12969   0.868   0.969  17.381 -0.5900  0.0161 -0.3812
  881MPD2    C112970   0.832   0.841  17.330 -0.3215 -0.5682  0.4002
  881MPD2    C212971   0.809   0.751  17.435 -0.3102 -0.0750  0.5170
  881MPD2    C312972   0.809   0.782  17.569 -0.0782  0.3825 -0.0851
  881MPD2    C412973   0.835   0.908  17.612 -0.1794 -0.0558  0.4100
  881MPD2    C512974   0.874   1.004  17.516  0.5200 -0.0286  0.6789
  881MPD2     H12975   0.797   0.647  17.408 -0.6604  0.0132  0.3263
  881MPD2    H112976   0.838   0.934  17.717  0.9755  3.2915 -0.4498
  881MPD2    H212977   0.907   1.044  17.314  0.8434 -1.1795 -0.8859
  881MPD2    H312978   0.910   1.100  17.550 -1.7027  1.4206 -1.0490
  881MPD2     N12979   0.788   0.687  17.671  0.3452  0.0090  0.0163
  881MPD2    H512980   0.792   0.727   0.009  0.5166  2.4772 -1.0381
  881MPD2    N112981   0.858   0.814  17.193  0.2689  0.4616  0.0852
  881MPD2    H712982   0.877   0.895  17.135 -0.5647  0.2134 -0.5436
  882MPD2     C12983   4.044   2.167  14.217  0.1728 -0.4585 -0.3963
  882MPD2    C112984   3.982   2.212  14.326 -0.4413  0.0422 -0.4334
  882MPD2    C212985   3.847   2.219  14.323 -0.8224 -1.0454 -0.3633
  882MPD2    C312986   3.771   2.161  14.228  0.6397  0.3504 -0.0933
  882MPD2    C412987   3.834   2.090  14.131  0.0408 -0.0368 -0.2773
  882MPD2    C512988   3.970   2.104  14.118  0.1738  0.3418  0.1100
  882MPD2     H12989   3.789   2.256  14.406  1.7851  0.1916  0.8755
  882MPD2    H112990   3.764   2.048  14.060  0.3363  1.7572 -1.6213
  882MPD2    H212991   4.153   2.172  14.211  0.1904 -2.2025 -1.4931
  882MPD2    H312992   4.017   2.068  14.027  2.3537 -0.2522  1.4737
  882MPD2     N12993   3.631   2.159  14.233  0.0854 -0.0726  0.7373
  882MPD2    H512994   3.578   2.081  14.196 -1.5140  0.8782  1.0187
  882MPD2    N112995   4.064   2.238  14.441 -0.9177 -0.0980  0.8485
  882MPD2    H712996   4.164   2.225  14.431 -0.9419 -1.1638  1.9806
  883MPD2     C12997   0.862   2.068  16.123  0.4517 -0.4025  0.8963
  883MPD2    C112998   0.931   2.124  16.026 -0.0087 -0.1569 -0.2945
  883MPD2    C212999   1.045   2.196  16.062 -0.3231 -0.3428 -0.2633
  883MPD2    C313000   1.086   2.196  16.199  0.1512  0.4835 -0.3225
  883MPD2    C413001   1.005   2.149  16.298  0.5677  0.0017  0.0388
  883MPD2    C513002   0.895   2.077  16.255  0.3160 -0.2971  0.0328
  883MPD2     H13003   1.111   2.247  15.993 -0.0727 -1.5357 -0.9181
  883MPD2    H113004   1.022   2.161  16.404  0.5756  0.9343 -0.0625
  883MPD2    H213005   0.770   2.017  16.098  0.0081  0.6072  0.4678
  883MPD2    H313006   0.821   2.052  16.329 -0.3723 -0.1938 -0.6210
  883MPD2     N13007   1.203   2.273  16.224  0.4734  0.0259  0.0716
  883MPD2    H513008   1.254   2.297  16.139  2.3351 -0.2832  1.0980
  883MPD2    N113009   0.874   2.148  15.898  0.0139 -1.1183  0.1913
  883MPD2    H713010   0.936   2.180  15.824 -0.7027  1.5601  0.7680
  884MPD2     C13011   3.110   2.912  15.194 -0.3356 -0.9915 -0.3972
  884MPD2    C113012   3.081   3.041  15.148  0.1975 -0.6279 -0.2308
  884MPD2    C213013   2.957   3.097  15.157 -0.1494  0.3200 -0.3585
  884MPD2    C313014   2.858   3.035  15.223  0.0840  0.4467 -0.2389
  884MPD2    C413015   2.882   2.909  15.272 -0.5545 -0.0395  1.0168
  884MPD2    C513016   3.010   2.851  15.264 -0.3260 -0.0934 -0.5461
  884MPD2     H13017   2.935   3.192  15.111 -1.7141  1.1322  2.0466
  884MPD2    H113018   2.808   2.856  15.332 -0.0404  0.7637  2.3587
  884MPD2    H213019   3.204   2.859  15.187  0.6982  0.9991 -1.7928
  884MPD2    H313020   3.038   2.753  15.299  1.4128  1.0967  1.3624
  884MPD2     N13021   2.739   3.106  15.237 -0.2962 -0.4403  0.3619
  884MPD2    H513022   2.720   3.178  15.168 -0.0206  1.5984  2.4264
  884MPD2    N113023   3.167   3.112  15.064  0.4546 -0.3847 -1.0819
  884MPD2    H713024   3.125   3.189  15.013 -1.6299  0.8797  2.5406
  885MPD2     C13025   1.401   3.492   0.301 -0.2677 -0.1421  0.3288
  885MPD2    C113026   1.538   3.517   0.318 -0.2308  0.0807 -0.0209
  885MPD2    C213027   1.613   3.563   0.216  0.3243 -0.2594  0.3839
  885MPD2    C313028   1.556   3.584   0.097 -0.4111  0.9976  0.6143
  885MPD2    C413029   1.422   3.563   0.074  0.1563 -0.1306 -0.0964
  885MPD2    C513030   1.342   3.521   0.175  0.6790  0.2225 -0.2625
  885MPD2     H13031   1.718   3.585   0.233  0.4847 -1.0725  0.4176
  885MPD2    H113032   1.372   3.578  17.735  1.2420  1.1656 -0.4630
  885MPD2    H213033   1.338   3.462   0.384  0.1080 -4.8722 -1.1349
  885MPD2    H313034   1.242   3.491   0.147  0.4777  0.0968  0.5960
  885MPD2     N13035   1.638   3.643  17.752 -0.6041 -0.4157  0.0802
  885MPD2    H513036   1.738   3.652   0.011 -0.5873  0.3822 -0.5761
  885MPD2    N113037   1.595   3.510   0.445  0.0903  0.7092 -0.0810
  885MPD2    H713038   1.697   3.509   0.448  0.0977  3.6876  0.4453
  886MPD2     C13039   2.473   1.451  15.396 -0.2417  0.4230  0.6582
  886MPD2    C113040   2.556   1.509  15.489  0.6778 -1.0998 -0.2719
  886MPD2    C213041   2.605   1.634  15.472 -0.9646 -0.3664  0.1124
  886MPD2    C313042   2.562   1.708  15.364  0.7925 -0.0759 -0.0437
  886MPD2    C413043   2.486   1.649  15.274  0.0088 -0.0272  0.1092
  886MPD2    C513044   2.444   1.522  15.287  0.5877  0.1690  0.6847
  886MPD2     H13045   2.668   1.671  15.551 -0.5827  1.5077 -1.0772
  886MPD2    H113046   2.442   1.707  15.194 -0.9728 -0.1725  0.5433
  886MPD2    H213047   2.424   1.356  15.414 -0.7213  0.9219  2.0039
  886MPD2    H313048   2.384   1.475  15.209 -0.7706 -0.1672  1.9348
  886MPD2     N13049   2.620   1.837  15.334  0.6380  0.0073  0.0838
  886MPD2    H513050   2.589   1.886  15.251  0.5224  0.7698  0.5820
  886MPD2    N113051   2.607   1.441  15.603  0.0983  0.7137 -0.5363
  886MPD2    H713052   2.658   1.497  15.670  1.0672  0.9903 -1.5116
  887MPD2     C13053   3.191   1.462  16.045  0.3166 -0.1046  0.4852
  887MPD2    C113054   3.089   1.519  15.967 -0.0155 -0.4085  0.0947
  887MPD2    C213055   3.102   1.652  15.922  0.3935  0.4565 -0.8516
  887MPD2    C313056   3.215   1.726  15.955 -0.1777  0.1322 -0.2163
  887MPD2    C413057   3.310   1.670  16.035  0.2824 -0.2198  0.6096
  887MPD2    C513058   3.299   1.542  16.080 -0.9962  0.3993  1.3957
  887MPD2     H13059   3.030   1.706  15.862 -0.0528  0.8239  0.0036
  887MPD2    H113060   3.389   1.734  16.073  0.5610 -0.5027  0.5027
  887MPD2    H213061   3.188   1.358  16.078  2.2653  0.2196  1.7319
  887MPD2    H313062   3.370   1.505  16.153  0.8830  1.5510  0.1419
  887MPD2     N13063   3.222   1.856  15.899 -0.7745 -0.6910  0.0414
  887MPD2    H513064   3.139   1.899  15.860 -0.3474 -1.5264 -1.8255
  887MPD2    N113065   2.975   1.445  15.926 -0.8063 -0.0481  0.0719
  887MPD2    H713066   2.902   1.504  15.890  0.8306  1.5088 -0.6722
  888MPD2     C13067   0.036   1.527  15.058 -1.0400  0.4822 -0.0866
  888MPD2    C113068   0.039   1.611  15.168  0.3308  0.8742 -0.7408
  888MPD2    C213069   0.087   1.741  15.149 -0.5925  0.8556 -0.0205
  888MPD2    C313070   0.119   1.790  15.027 -0.0435 -0.3247  0.2569
  888MPD2    C413071   0.111   1.709  14.915  0.2850  0.0938  0.4036
  888MPD2    C513072   0.065   1.580  14.935 -0.7054 -0.2972  0.1056
  888MPD2     H13073   0.103   1.791  15.244  0.3530 -0.0231  0.2766
  888MPD2    H113074   0.136   1.740  14.814  0.8184  0.1250  0.5472
  888MPD2    H213075   4.735   1.426  15.060  2.2845 -0.9007 -3.0265
  888MPD2    H313076   0.062   1.519  14.845 -0.6912 -0.6202  0.3244
  888MPD2     N13077   0.163   1.931  15.017  0.1705 -0.1303 -0.4900
  888MPD2    H513078   0.184   1.976  15.105 -1.3977 -0.8905  0.2843
  888MPD2    N113079   4.732   1.575  15.292 -0.5594 -0.0071  0.2393
  888MPD2    H713080   0.022   1.631  15.371 -2.2792  3.1024 -1.3195
  889MPD2     C13081   4.223   0.771  13.174 -0.5209 -0.5111 -0.0086
  889MPD2    C113082   4.161   0.758  13.297  0.5665 -0.1040 -0.5884
  889MPD2    C213083   4.130   0.875  13.361  0.7328  0.0213 -0.2603
  889MPD2    C313084   4.129   0.999  13.294  0.3124  0.0737  0.6754
  889MPD2    C413085   4.170   1.002  13.162  0.1133  0.1991  0.3714
  889MPD2    C513086   4.230   0.893  13.104  0.3402 -0.1781 -0.9218
  889MPD2     H13087   4.080   0.867  13.457  0.6712 -0.5175 -0.3371
  889MPD2    H113088   4.171   1.096  13.108 -0.1141  0.4226  0.7576
  889MPD2    H213089   4.283   0.690  13.135  1.7650  1.3891 -0.4190
  889MPD2    H313090   4.274   0.892  13.005  0.9824 -0.0919 -0.6374
  889MPD2     N13091   4.113   1.120  13.363  0.4674 -0.2402 -0.0125
  889MPD2    H513092   4.117   1.202  13.303  1.7207  0.9309  1.6490
  889MPD2    N113093   4.159   0.640  13.376  0.3274  0.6310 -0.3848
  889MPD2    H713094   4.134   0.647  13.475  2.1388 -0.7199  0.1651
  890MPD2     C13095   3.600   2.942  14.545  0.3675 -0.3082 -0.7169
  890MPD2    C113096   3.731   2.987  14.552  0.9383 -0.3242 -0.1432
  890MPD2    C213097   3.808   2.931  14.653  0.2775 -0.1112  0.5620
  890MPD2    C313098   3.764   2.838  14.741 -0.1852  0.2869  0.2781
  890MPD2    C413099   3.635   2.796  14.737  0.1602  0.1501  0.2713
  890MPD2    C513100   3.551   2.854  14.642 -0.5654 -0.4549 -0.3013
  890MPD2     H13101   3.905   2.972  14.680  0.2810  0.4692 -0.3154
  890MPD2    H113102   3.599   2.728  14.813 -0.7156  1.3578  0.9261
  890MPD2    H213103   3.534   2.988  14.472 -0.3645 -0.0412  0.1003
  890MPD2    H313104   3.443   2.839  14.641 -0.6948  0.5075 -0.8324
  890MPD2     N13105   3.860   2.796  14.834 -0.3454 -0.0244  0.3017
  890MPD2    H513106   3.958   2.810  14.811 -0.0330  0.0348  1.6657
  890MPD2    N113107   3.776   3.090  14.469  0.0144  0.4805  0.8382
  890MPD2    H713108   3.711   3.143  14.412  1.0390  0.6456 -0.1931
  891MPD2     C13109   1.858   1.545  16.490 -0.9719  0.1058 -0.0630
  891MPD2    C113110   1.822   1.649  16.581 -0.2837 -0.7048  0.3506
  891MPD2    C213111   1.882   1.667  16.705 -0.6806  0.1749  0.0035
  891MPD2    C313112   1.994   1.593  16.731  0.3639 -0.3937 -0.3427
  891MPD2    C413113   2.032   1.488  16.647  0.7304  0.2477 -0.4336
  891MPD2    C513114   1.962   1.465  16.531  0.2202  0.4070 -0.4724
  891MPD2     H13115   1.846   1.740  16.776 -0.1279  1.3357 -0.9141
  891MPD2    H113116   2.122   1.430  16.664 -0.2786 -1.7195 -1.7359
  891MPD2    H213117   1.804   1.534  16.397  0.3787 -0.8896 -0.7289
  891MPD2    H313118   2.011   1.405  16.455 -0.9628 -0.8357 -0.2541
  891MPD2     N13119   2.067   1.614  16.856 -0.0622 -0.0531 -0.2938
  891MPD2    H513120   2.020   1.660  16.933  1.3690  0.3950  0.3067
  891MPD2    N113121   1.702   1.722  16.537  0.4207  0.6973 -0.7620
  891MPD2    H713122   1.678   1.709  16.440 -2.3687 -0.4317  0.0745
  892MPD2     C13123   3.074   2.586  14.967 -0.4960  0.1581 -0.0692
  892MPD2    C113124   2.984   2.535  14.875 -0.4172  0.0357  0.2387
  892MPD2    C213125   3.030   2.479  14.758  0.9348 -0.1597 -0.5212
  892MPD2    C313126   3.165   2.464  14.733  0.5991 -0.0524  0.4009
  892MPD2    C413127   3.247   2.510  14.834 -0.5401  0.2562  0.1746
  892MPD2    C513128   3.210   2.572  14.949 -1.1235  0.2634  0.2498
  892MPD2     H13129   2.960   2.453  14.680  0.2614  0.2219 -0.0513
  892MPD2    H113130   3.353   2.495  14.822 -0.4423  1.6966 -0.7128
  892MPD2    H213131   3.058   2.645  15.057  2.7043  2.0777 -0.7415
  892MPD2    H313132   3.287   2.613  15.014 -0.3133  2.0502 -1.8467
  892MPD2     N13133   3.214   2.376  14.628  0.1804  0.2008  0.2340
  892MPD2    H513134   3.315   2.368  14.630  0.3585  2.2019 -0.3876
  892MPD2    N113135   2.848   2.560  14.890  0.4369  0.2800 -0.3539
  892MPD2    H713136   2.784   2.540  14.814 -1.9763  1.1073  1.4867
  893MPD2     C13137   4.379   1.630   1.239 -0.4427  0.1869  0.1886
  893MPD2    C113138   4.423   1.542   1.145 -0.3243  0.1786  0.0806
  893MPD2    C213139   4.340   1.443   1.094 -0.1970  0.2708  0.3810
  893MPD2    C313140   4.211   1.417   1.136  0.6657  0.4740 -0.3058
  893MPD2    C413141   4.170   1.504   1.234  0.1584 -0.1396  0.1434
  893MPD2    C513142   4.247   1.609   1.280 -0.3551  0.3991  0.0661
  893MPD2     H13143   4.371   1.385   1.008 -1.7660  0.2917 -0.2027
  893MPD2    H113144   4.076   1.489   1.284  0.5683  0.6943  1.1596
  893MPD2    H213145   4.431   1.713   1.286 -0.9020  1.9190 -2.3619
  893MPD2    H313146   4.192   1.673   1.348  0.0177 -0.3223  1.0499
  893MPD2     N13147   4.117   1.320   1.094 -0.7269  0.4720 -0.4836
  893MPD2    H513148   4.028   1.323   1.142 -0.9912 -0.9778 -0.8791
  893MPD2    N113149   4.561   1.562   1.104 -0.2757  0.5172  0.0900
  893MPD2    H713150   4.619   1.624   1.159  0.0620  0.9664 -0.7710
  894MPD2     C13151   3.201   3.727   0.870 -0.5535 -0.0703  0.5576
  894MPD2    C113152   3.250   3.753   1.000 -0.2388  0.1916  0.2147
  894MPD2    C213153   3.319   3.872   1.021 -0.0679  0.0508 -0.1629
  894MPD2    C313154   3.321   3.974   0.922  0.0582  0.4270 -0.3452
  894MPD2    C413155   3.262   3.950   0.797  0.3898 -0.3746  0.2498
  894MPD2    C513156   3.197   3.824   0.777 -1.1816  0.7301 -0.1828
  894MPD2     H13157   3.353   3.906   1.118  2.7197 -0.4298 -0.9730
  894MPD2    H113158   3.264   4.023   0.716 -0.3302 -0.5544  0.0738
  894MPD2    H213159   3.160   3.636   0.829 -2.9079  0.8081  0.9519
  894MPD2    H313160   3.150   3.807   0.681 -2.0583 -0.7541  0.5248
  894MPD2     N13161   3.378   4.101   0.961 -0.3071 -0.1667 -0.0687
  894MPD2    H513162   3.397   4.108   1.061 -1.0805  1.5427 -0.0362
  894MPD2    N113163   3.241   3.659   1.102  0.5424 -0.5527  0.8837
  894MPD2    H713164   3.298   3.691   1.180  0.8462 -0.9051  0.8067
  895MPD2     C13165   2.010   1.732  13.602 -0.2186  0.0533 -0.2034
  895MPD2    C113166   1.940   1.660  13.507 -0.5881 -0.3413  0.4487
  895MPD2    C213167   2.008   1.541  13.457  0.0664 -0.0577  0.9307
  895MPD2    C313168   2.143   1.524  13.485 -0.0508 -0.3751 -0.6881
  895MPD2    C413169   2.206   1.603  13.582  0.2251  0.0053 -0.6796
  895MPD2    C513170   2.138   1.704  13.633  0.9026 -0.3513  0.0704
  895MPD2     H13171   1.965   1.488  13.373  1.2108  0.4526  0.0262
  895MPD2    H113172   2.310   1.601  13.609  0.1352 -0.6997 -0.3975
  895MPD2    H213173   1.961   1.811  13.659  1.4404 -0.0504  1.3948
  895MPD2    H313174   2.188   1.758  13.712  0.8123 -1.1597  0.6808
  895MPD2     N13175   2.208   1.417  13.422  0.0101  0.1697  0.0170
  895MPD2    H513176   2.159   1.358  13.355 -0.3096  0.1380  0.2805
  895MPD2    N113177   1.818   1.694  13.461 -0.4062  0.4406 -0.3783
  895MPD2    H713178   1.780   1.622  13.400  0.3260  0.4597 -0.8617
  896MPD2     C13179   0.380   0.155   0.970  0.0070  0.1562  1.0992
  896MPD2    C113180   0.311   0.082   0.873  0.1867 -0.0857  0.0502
  896MPD2    C213181   0.204   0.003   0.916  0.0706  0.9880  0.1863
  896MPD2    C313182   0.156   0.006   1.046 -0.3573 -0.3648 -0.4690
  896MPD2    C413183   0.233   0.079   1.137  0.5923 -0.0014  0.0559
  896MPD2    C513184   0.338   0.157   1.097  1.0551  0.2771  0.3062
  896MPD2     H13185   0.151   4.685   0.841  2.9965 -0.7865 -0.5168
  896MPD2    H113186   0.210   0.086   1.243 -2.0136 -3.8041 -0.2656
  896MPD2    H213187   0.445   0.233   0.934 -0.9904 -0.2241 -1.5914
  896MPD2    H313188   0.391   0.221   1.166 -1.2975  1.7983  0.6784
  896MPD2     N13189   0.034   4.681   1.074  0.0301 -0.1303 -0.3063
  896MPD2    H513190   0.003   4.619   1.000  0.6948 -1.7975  0.8080
  896MPD2    N113191   0.358   0.101   0.747 -0.2480 -0.3137  0.4759
  896MPD2    H713192   0.427   0.175   0.736  1.7182 -2.2595 -0.5908
  897MPD2     C13193   0.297   1.014  10.354  0.0411  0.1702 -0.3984
  897MPD2    C113194   0.243   1.135  10.314  0.3694 -0.3204 -0.3945
  897MPD2    C213195   0.178   1.212  10.414 -0.2921  0.5564 -0.2724
  897MPD2    C313196   0.153   1.164  10.543  0.3364 -0.3682  1.3959
  897MPD2    C413197   0.203   1.036  10.566 -0.3874 -0.6168  0.4550
  897MPD2    C513198   0.283   0.962  10.476  0.2979  0.2286  1.1216
  897MPD2     H13199   0.122   1.301  10.390 -0.9248  0.2090 -0.0834
  897MPD2    H113200   0.211   0.995  10.666 -2.1546  0.3441  0.9933
  897MPD2    H213201   0.364   0.970  10.281  2.4946 -0.0927  2.0208
  897MPD2    H313202   0.323   0.867  10.509  2.4889  0.5849 -0.4497
  897MPD2     N13203   0.068   1.232  10.628  0.4266  0.2387  0.3606
  897MPD2    H513204   0.013   1.312  10.598  0.1685 -0.4002 -0.8838
  897MPD2    N113205   0.273   1.184  10.184  0.2229  0.9119 -0.4424
  897MPD2    H713206   0.325   1.124  10.120  0.4396 -2.1310  2.6130
  898MPD2     C13207   2.685   1.970   0.267 -0.6036 -0.0399 -0.1202
  898MPD2    C113208   2.762   2.079   0.229 -0.2013 -0.4621 -0.1932
  898MPD2    C213209   2.711   2.165   0.136  0.0088  0.0235 -0.7867
  898MPD2    C313210   2.599   2.147   0.063  0.6100  0.1916  0.2403
  898MPD2    C413211   2.536   2.019   0.087 -0.3090  0.6618  0.0913
  898MPD2    C513212   2.581   1.939   0.189 -0.0213 -0.8150  0.0405
  898MPD2     H13213   2.756   2.261   0.116  0.3962  0.3278  1.5673
  898MPD2    H113214   2.440   1.988   0.048 -0.8849  2.7376 -0.1382
  898MPD2    H213215   2.698   1.905   0.353 -0.0944 -0.8185 -0.7992
  898MPD2    H313216   2.521   1.853   0.213  0.6415 -0.9887  1.0933
  898MPD2     N13217   2.560   2.232  17.712  0.3306  0.0723  0.2583
  898MPD2    H513218   2.620   2.313  17.699  0.8530 -0.4048 -0.3312
  898MPD2    N113219   2.866   2.121   0.305 -0.4867  0.2488 -0.2981
  898MPD2    H713220   2.913   2.211   0.297 -0.9199  0.7550  2.8486
  899MPD2     C13221   3.463   2.684  17.435 -0.0756 -0.1386  0.5924
  899MPD2    C113222   3.517   2.796  17.493 -0.6677 -0.3774  0.0769
  899MPD2    C213223   3.511   2.804  17.630 -0.4431 -0.1277  0.0398
  899MPD2    C313224   3.469   2.702  17.708 -0.0366  0.8814  0.1693
  899MPD2    C413225   3.419   2.587  17.655 -0.6581 -0.0028  0.3027
  899MPD2    C513226   3.417   2.580  17.517 -0.0055 -0.9681  1.0185
  899MPD2     H13227   3.545   2.901  17.665 -0.3113 -0.7017  1.4878
  899MPD2    H113228   3.372   2.514  17.719  0.8069  0.2212  1.6266
  899MPD2    H213229   3.456   2.681  17.327  2.1662 -1.2169  0.4864
  899MPD2    H313230   3.389   2.493  17.458  0.8642  0.6862 -1.8542
  899MPD2     N13231   3.467   2.715   0.098  0.3944 -0.4168  0.2550
  899MPD2    H513232   3.418   2.644   0.151  0.1484 -0.1620  0.3721
  899MPD2    N113233   3.559   2.897  17.409 -0.2925  0.4848 -0.5557
  899MPD2    H713234   3.551   2.878  17.310 -0.8524 -0.3811 -0.3460
  900MPD2     C13235   2.602   4.171  12.320 -0.4181 -0.1543 -0.3509
  900MPD2    C113236   2.556   4.047  12.354 -0.1708  0.2238 -0.4355
  900MPD2    C213237   2.417   4.017  12.336 -0.2573  0.2785  1.0082
  900MPD2    C313238   2.329   4.106  12.292 -0.6401 -0.4701 -0.1980
  900MPD2    C413239   2.376   4.237  12.268  0.4130  1.1646  0.2118
  900MPD2    C513240   2.512   4.265  12.281  0.2842 -0.9044 -0.3771
  900MPD2     H13241   2.384   3.916  12.361  1.6212 -1.3222 -3.0048
  900MPD2    H113242   2.309   4.322  12.259 -0.3070  0.3415 -2.1204
  900MPD2    H213243   2.707   4.194  12.332 -0.6293  0.5274  0.1845
  900MPD2    H313244   2.548   4.361  12.247  2.2537 -1.7323 -0.6636
  900MPD2     N13245   2.195   4.058  12.271  0.2634  0.4301  0.9189
  900MPD2    H513246   2.170   3.967  12.308 -0.6450  0.7178  1.0205
  900MPD2    N113247   2.644   3.946  12.396  0.3407 -0.1076 -0.3735
  900MPD2    H713248   2.742   3.953  12.373  0.2236 -2.6256 -1.7017
  901MPD2     C13249   2.980   3.130  13.056 -0.6288 -0.0059 -0.5268
  901MPD2    C113250   2.923   3.075  12.947  0.5728  0.1290 -0.4434
  901MPD2    C213251   2.868   3.150  12.839 -0.0924  0.2665  0.2967
  901MPD2    C313252   2.869   3.290  12.861 -0.5483 -0.5426 -0.7098
  901MPD2    C413253   2.920   3.345  12.974  0.4554  0.0299 -0.4872
  901MPD2    C513254   2.974   3.265  13.070 -0.2876  0.5915 -0.3291
  901MPD2     H13255   2.831   3.099  12.751  0.1654  0.0199  0.3321
  901MPD2    H113256   2.924   3.451  12.998 -1.0363 -0.1207  0.4597
  901MPD2    H213257   3.025   3.070  13.135  1.1597  0.6937 -1.0135
  901MPD2    H313258   3.031   3.312  13.149  0.4623 -1.6830  0.5010
  901MPD2     N13259   2.804   3.357  12.756 -0.4570 -0.0348 -0.1449
  901MPD2    H513260   2.786   3.306  12.670  1.2627 -0.6837 -0.1212
  901MPD2    N113261   2.948   2.937  12.930  0.5045 -0.1295 -0.4667
  901MPD2    H713262   3.003   2.883  12.995 -1.2718 -1.8175 -0.3581
  902MPD2     C13263   1.529   2.152  12.878  0.2759 -0.2614  0.8180
  902MPD2    C113264   1.491   2.128  12.747 -0.2484  0.2053 -0.2159
  902MPD2    C213265   1.559   2.036  12.662 -0.1268  0.4909 -0.4901
  902MPD2    C313266   1.664   1.962  12.714  1.1689  0.2682  0.1491
  902MPD2    C413267   1.706   1.990  12.842  0.1979  0.1970 -0.0394
  902MPD2    C513268   1.633   2.079  12.925 -0.5944  0.1103  0.1520
  902MPD2     H13269   1.528   2.021  12.559 -0.6635 -0.0866 -0.2508
  902MPD2    H113270   1.792   1.942  12.887 -1.1378 -0.9492  1.3333
  902MPD2    H213271   1.475   2.223  12.940 -1.3579 -1.0782  0.3424
  902MPD2    H313272   1.660   2.086  13.030 -0.5889  0.2040  0.1450
  902MPD2     N13273   1.729   1.863  12.638  0.6158  0.5942 -0.5368
  902MPD2    H513274   1.693   1.850  12.543  1.5224 -1.0797 -0.6563
  902MPD2    N113275   1.373   2.193  12.704 -0.3607 -0.4906  0.0937
  902MPD2    H713276   1.325   2.253  12.770 -3.2559 -0.1038 -2.3560
  903MPD2     C13277   1.774   2.110  12.098  0.2052 -0.0220  0.1125
  903MPD2    C113278   1.701   2.008  12.153 -0.3178  0.5578  0.5205
  903MPD2    C213279   1.566   2.005  12.134 -0.1129 -0.5005 -0.6473
  903MPD2    C313280   1.493   2.096  12.059 -0.1120 -0.4179 -0.0990
  903MPD2    C413281   1.567   2.202  12.009 -0.2441 -0.0490 -0.1201
  903MPD2    C513282   1.702   2.205  12.032  0.1810  0.2651 -0.3150
  903MPD2     H13283   1.512   1.918  12.172 -0.0756 -0.4456 -0.4666
  903MPD2    H113284   1.520   2.282  11.953  0.7656  0.0003 -0.8842
  903MPD2    H213285   1.880   2.128  12.114  0.0448  1.2849 -0.2849
  903MPD2    H313286   1.759   2.286  11.987 -0.2620  0.3727 -0.6779
  903MPD2     N13287   1.353   2.083  12.057 -0.4758  0.2765  0.3647
  903MPD2    H513288   1.308   2.013  12.115 -2.8147  0.1489 -1.6183
  903MPD2    N113289   1.771   1.905  12.219  0.3002 -0.4268  0.1107
  903MPD2    H713290   1.872   1.912  12.233  0.3993  0.1031 -0.8548
  904MPD2     C13291   1.797   1.179  13.654 -1.0486  0.4479 -0.2299
  904MPD2    C113292   1.769   1.145  13.788 -0.4603  0.7370  0.7292
  904MPD2    C213293   1.875   1.117  13.872 -0.6960 -0.3241 -0.1656
  904MPD2    C313294   2.004   1.122  13.825  0.1993  0.2020  0.0507
  904MPD2    C413295   2.033   1.154  13.691 -0.2176  0.2651 -0.2046
  904MPD2    C513296   1.923   1.182  13.611 -1.1059 -0.1817  0.3015
  904MPD2     H13297   1.859   1.088  13.975  2.6749  2.8355  1.2769
  904MPD2    H113298   2.132   1.158  13.645  0.3679 -1.7115  0.8424
  904MPD2    H213299   1.723   1.189  13.576 -0.1616  1.0820 -0.9925
  904MPD2    H313300   1.943   1.205  13.507  1.4812  0.5395  0.9757
  904MPD2     N13301   2.098   1.081  13.921 -0.0173 -0.2287 -0.2985
  904MPD2    H513302   2.061   1.055  14.012  0.9602 -2.2288 -0.4660
  904MPD2    N113303   1.643   1.119  13.849  0.0266  0.7768 -0.2518
  904MPD2    H713304   1.638   1.077  13.941  0.3665 -1.5147 -1.2690
  905MPD2     C13305   1.566   1.032  13.187  0.1194 -0.7385  0.2562
  905MPD2    C113306   1.624   1.129  13.263 -0.3730 -0.3413  0.1144
  905MPD2    C213307   1.756   1.155  13.254 -0.1226  0.6428 -0.3324
  905MPD2    C313308   1.838   1.067  13.181 -0.0509 -0.0243  0.6449
  905MPD2    C413309   1.778   0.964  13.117  0.4721 -0.5740  0.3597
  905MPD2    C513310   1.643   0.947  13.117 -0.6781  1.2516 -0.4072
  905MPD2     H13311   1.808   1.215  13.327 -0.5464 -1.4497  1.7062
  905MPD2    H113312   1.833   0.885  13.068  0.6848 -1.4396  2.0216
  905MPD2    H213313   1.458   1.019  13.187  0.1124 -0.7090 -0.5052
  905MPD2    H313314   1.599   0.858  13.073  2.3701 -1.4480  1.9468
  905MPD2     N13315   1.979   1.067  13.175  0.0782 -0.1678  0.2778
  905MPD2    H513316   2.021   0.979  13.147  0.2984 -0.6254  1.9946
  905MPD2    N113317   1.547   1.212  13.346 -0.8947  0.9458 -0.2015
  905MPD2    H713318   1.451   1.188  13.369 -0.1359 -0.9040  1.0409
  906MPD2     C13319   3.725   1.771  11.164  0.2829 -0.3718  0.2103
  906MPD2    C113320   3.750   1.681  11.057 -0.0814 -0.3274 -0.2595
  906MPD2    C213321   3.763   1.544  11.073 -0.7443  0.2453 -0.0670
  906MPD2    C313322   3.741   1.489  11.199 -1.0028  0.0537 -0.1497
  906MPD2    C413323   3.705   1.575  11.302 -0.0352  0.1740  0.0433
  906MPD2    C513324   3.705   1.713  11.290  0.4449 -0.4916 -0.6631
  906MPD2     H13325   3.779   1.484  10.985  1.0839  1.2295 -0.4175
  906MPD2    H113326   3.686   1.524  11.396 -1.0511 -0.3798 -0.4627
  906MPD2    H213327   3.715   1.878  11.149 -2.1062 -0.3881  1.6689
  906MPD2    H313328   3.691   1.770  11.381  1.5652 -1.3133  0.0206
  906MPD2     N13329   3.747   1.351  11.220 -0.5586  0.1786  0.2249
  906MPD2    H513330   3.749   1.318  11.316 -0.3965 -3.6208 -1.0762
  906MPD2    N113331   3.741   1.728  10.922  0.4074 -0.2591  0.1311
  906MPD2    H713332   3.754   1.654  10.854  2.3701  1.2178 -1.0840
  907MPD2     C13333   3.018   0.543  15.801  0.0323 -0.8941  0.2021
  907MPD2    C113334   2.929   0.436  15.772 -0.0177  0.6023  0.0837
  907MPD2    C213335   2.897   0.356  15.875 -0.5971 -0.1993  0.5157
  907MPD2    C313336   2.954   0.369  16.004  0.4266 -0.4978 -0.4634
  907MPD2    C413337   3.036   0.476  16.030  0.0484  0.0626  0.6058
  907MPD2    C513338   3.071   0.562  15.926 -0.3148 -0.0008  0.3770
  907MPD2     H13339   2.825   0.277  15.856 -0.7817 -0.1799  1.1190
  907MPD2    H113340   3.089   0.499  16.122 -2.4225 -0.8376  2.2452
  907MPD2    H213341   3.033   0.617  15.723 -2.9766 -1.0427 -0.5325
  907MPD2    H313342   3.128   0.652  15.949 -0.8381  0.4364 -0.0351
  907MPD2     N13343   2.927   0.267  16.099  0.1564  0.0823  0.3185
  907MPD2    H513344   2.857   0.200  16.070  0.5969 -0.1211 -0.2814
  907MPD2    N113345   2.852   0.422  15.651 -0.2714 -0.1437 -0.6180
  907MPD2    H713346   2.787   0.345  15.652 -1.3338  0.7633  0.6476
  908MPD2     C13347   0.459   0.708   9.490  0.5509  0.2656 -0.0380
  908MPD2    C113348   0.334   0.727   9.554  0.3372 -0.5820  0.1684
  908MPD2    C213349   0.314   0.836   9.641 -0.1906 -0.0569  0.4005
  908MPD2    C313350   0.409   0.935   9.648  0.1377 -0.2384  0.0698
  908MPD2    C413351   0.526   0.924   9.573 -0.1109  0.0648 -0.4731
  908MPD2    C513352   0.553   0.810   9.503 -0.0577 -0.1056 -0.0801
  908MPD2     H13353   0.219   0.856   9.689  0.5534  0.9376  1.4520
  908MPD2    H113354   0.603   1.000   9.578  0.5594 -0.6171 -0.4697
  908MPD2    H213355   0.483   0.627   9.422  0.7307 -1.9594  2.6823
  908MPD2    H313356   0.646   0.798   9.449 -0.6046 -2.5665 -0.5060
  908MPD2     N13357   0.388   1.050   9.730  0.1622 -0.3404  0.2995
  908MPD2    H513358   0.314   1.059   9.798  1.5051 -0.4399  1.7652
  908MPD2    N113359   0.241   0.625   9.550  0.1978  0.3758 -0.2349
  908MPD2    H713360   0.273   0.538   9.508  0.2204 -0.4014  1.3827
  909MPD2     C13361   0.574   3.880  11.323  0.0546  0.1202 -0.2398
  909MPD2    C113362   0.613   4.014  11.334  0.7911 -0.6164  0.1458
  909MPD2    C213363   0.580   4.077  11.454  0.4264 -0.2961 -0.4366
  909MPD2    C313364   0.504   4.020  11.552 -0.8971 -0.7516 -0.0705
  909MPD2    C413365   0.466   3.890  11.541  0.2796 -1.0684  0.0332
  909MPD2    C513366   0.506   3.820  11.432 -0.4363  0.1007  0.8223
  909MPD2     H13367   0.600   4.181  11.477  1.1167 -0.9548  1.8942
  909MPD2    H113368   0.397   3.838  11.607 -0.9272  0.1566 -0.2671
  909MPD2    H213369   0.602   3.812  11.242  2.0535  1.8926 -1.0296
  909MPD2    H313370   0.485   3.714  11.434 -0.3796  0.0661 -0.6325
  909MPD2     N13371   0.481   4.102  11.666  0.2497  0.1700 -0.7047
  909MPD2    H513372   0.515   4.198  11.663  0.9085  0.0039  1.7395
  909MPD2    N113373   0.689   4.083  11.229  0.3167  0.1680 -0.0193
  909MPD2    H713374   0.705   4.181  11.251 -1.8442 -0.1995  3.1642
  910MPD2     C13375   2.329   1.299  16.018 -0.1459  0.2464 -0.3892
  910MPD2    C113376   2.281   1.185  15.958 -0.4080 -0.2721 -0.5743
  910MPD2    C213377   2.237   1.198  15.830 -0.9523  0.0230 -0.0653
  910MPD2    C313378   2.245   1.316  15.757 -0.6704  0.4375 -0.2204
  910MPD2    C413379   2.305   1.420  15.816 -0.0435  0.7355  0.7346
  910MPD2    C513380   2.340   1.420  15.948  0.0317 -0.4153 -0.1158
  910MPD2     H13381   2.194   1.109  15.786  1.0656 -0.9173 -0.1396
  910MPD2    H113382   2.318   1.508  15.754  0.6138 -0.4525 -0.8303
  910MPD2    H213383   2.370   1.307  16.117 -0.5254  2.2246 -0.3859
  910MPD2    H313384   2.386   1.508  15.993  1.3436 -0.9505 -0.3942
  910MPD2     N13385   2.207   1.335  15.625  0.1933  0.1980 -0.2738
  910MPD2    H513386   2.239   1.425  15.591  1.5379 -0.6538 -1.2858
  910MPD2    N113387   2.276   1.064  16.026  0.5573 -0.0039  0.4793
  910MPD2    H713388   2.248   0.980  15.977  1.0304 -0.8584  1.7001
  911MPD2     C13389   0.093   1.173  16.268 -0.4008  0.3467  0.2444
  911MPD2    C113390   0.131   1.302  16.264 -0.3360 -1.1424 -0.6328
  911MPD2    C213391   0.032   1.400  16.241 -0.4639 -0.3782  0.3207
  911MPD2    C313392   4.642   1.356  16.210 -0.3251  0.0448 -0.2400
  911MPD2    C413393   4.604   1.227  16.219 -0.4454 -1.0312 -0.1298
  911MPD2    C513394   4.701   1.134  16.254  0.0008 -0.4627 -0.0669
  911MPD2     H13395   0.059   1.505  16.246 -1.2241 -0.0949 -1.5202
  911MPD2    H113396   4.499   1.207  16.203 -1.0046  1.1186  0.9177
  911MPD2    H213397   0.173   1.101  16.278 -0.0673  0.7171  0.2336
  911MPD2    H313398   4.682   1.028  16.269 -0.1809 -0.6025 -1.3548
  911MPD2     N13399   4.540   1.444  16.176 -0.0761  0.3815  0.4347
  911MPD2    H513400   4.448   1.401  16.173 -1.5223  3.6129 -1.5847
  911MPD2    N113401   0.265   1.330  16.264  0.1316 -0.2435 -1.0213
  911MPD2    H713402   0.330   1.255  16.243 -0.9475 -1.2724 -0.6464
  912MPD2     C13403   3.997   1.172  15.787  0.3503  0.3080 -0.6050
  912MPD2    C113404   4.045   1.205  15.912  0.3421 -0.1602  0.1052
  912MPD2    C213405   4.015   1.120  16.021  0.2401 -0.4451 -0.2287
  912MPD2    C313406   3.957   0.993  15.998  0.0294  0.3081 -0.3942
  912MPD2    C413407   3.926   0.963  15.873  0.8482 -0.5617 -0.1291
  912MPD2    C513408   3.941   1.047  15.769  0.2575  0.0186 -0.2380
  912MPD2     H13409   4.049   1.137  16.123  2.0536  1.0294 -1.0886
  912MPD2    H113410   3.889   0.864  15.851 -1.0214 -0.3806  2.1711
  912MPD2    H213411   4.030   1.229  15.701  0.5773 -0.8841 -1.3092
  912MPD2    H313412   3.924   1.006  15.670  0.5145  0.2056 -0.3603
  912MPD2     N13413   3.932   0.902  16.110 -0.0599  0.0556  0.1115
  912MPD2    H513414   3.973   0.935  16.197 -2.4588  1.0167  0.8571
  912MPD2    N113415   4.116   1.327  15.925 -0.6013  0.3114  0.6533
  912MPD2    H713416   4.118   1.384  15.841 -0.0493  0.7642  0.9645
  913MPD2     C13417   0.112   2.365  10.343  0.0638 -0.2812 -0.1394
  913MPD2    C113418   0.101   2.454  10.454 -0.1996 -0.6394  0.7235
  913MPD2    C213419   0.045   2.572  10.432 -0.5822 -0.0717 -0.3530
  913MPD2    C313420   4.716   2.598  10.317 -0.4004  0.5138  0.1869
  913MPD2    C413421   4.705   2.502  10.214  0.2105 -0.4474  0.2099
  913MPD2    C513422   0.046   2.390  10.224 -0.3933 -0.1634  0.6577
  913MPD2     H13423   0.025   2.635  10.518  2.4574  0.8424 -0.3374
  913MPD2    H113424   4.644   2.517  10.126  1.6736 -0.3695 -0.7840
  913MPD2    H213425   0.149   2.265  10.362 -0.9023 -0.3375  1.4324
  913MPD2    H313426   0.048   2.314  10.147 -3.6450 -0.6207  1.0097
  913MPD2     N13427   4.638   2.717  10.295 -0.3822  0.6174 -0.1970
  913MPD2    H513428   4.597   2.726  10.202  1.2978  1.8275 -0.8191
  913MPD2    N113429   0.143   2.408  10.584 -0.9833  0.0195 -0.4679
  913MPD2    H713430   0.156   2.309  10.602 -3.9106  0.0534  1.9167
  914MPD2     C13431   2.541   2.712  12.168  0.1932  0.1900  0.2821
  914MPD2    C113432   2.553   2.811  12.261  0.3124  0.1827 -0.1913
  914MPD2    C213433   2.631   2.794  12.375 -0.1484  0.2411 -0.1539
  914MPD2    C313434   2.694   2.673  12.396 -0.6288 -0.1547 -0.3055
  914MPD2    C413435   2.678   2.573  12.298 -0.1545  0.0883  0.1107
  914MPD2    C513436   2.609   2.592  12.178  1.0571  0.5905  0.4191
  914MPD2     H13437   2.643   2.870  12.451  0.3801 -0.8015  0.8243
  914MPD2    H113438   2.709   2.469  12.303  1.3066  0.4778 -0.7164
  914MPD2    H213439   2.485   2.733  12.077 -0.0005 -0.1107  0.3324
  914MPD2    H313440   2.601   2.501  12.120  2.3811 -0.6778  2.2446
  914MPD2     N13441   2.759   2.646  12.519  0.7016 -0.4488 -0.6688
  914MPD2    H513442   2.759   2.723  12.585 -0.5124  0.4422 -1.7189
  914MPD2    N113443   2.488   2.932  12.240  0.0660 -0.7068 -0.1759
  914MPD2    H713444   2.436   2.933  12.152 -1.0747  1.6857  0.5325
  915MPD2     C13445   1.612   3.317  15.984  0.0509  0.6075 -0.3097
  915MPD2    C113446   1.533   3.368  15.883  0.8949  1.2045  0.3732
  915MPD2    C213447   1.410   3.421  15.906  0.1369  0.3662  0.4576
  915MPD2    C313448   1.368   3.432  16.041 -0.5419 -0.3766 -0.3532
  915MPD2    C413449   1.455   3.387  16.148  0.5989  0.7760 -0.5106
  915MPD2    C513450   1.573   3.332  16.117 -0.1265  0.5312  0.2568
  915MPD2     H13451   1.345   3.461  15.829  2.3228  0.1245 -1.5015
  915MPD2    H113452   1.431   3.376  16.253 -0.7592 -1.2081 -1.0417
  915MPD2    H213453   1.705   3.268  15.959  0.2755  0.6440  0.4471
  915MPD2    H313454   1.647   3.302  16.190 -0.2518 -0.7638 -0.1357
  915MPD2     N13455   1.245   3.502  16.064 -0.2399  0.1044  0.6727
  915MPD2    H513456   1.192   3.543  15.987 -1.2374 -0.1786  1.2104
  915MPD2    N113457   1.581   3.371  15.750 -0.4705  0.3231 -0.3359
  915MPD2    H713458   1.662   3.312  15.733 -0.8456 -0.4491  0.6041
  916MPD2     C13459   3.716   1.049  15.513  0.1895 -0.0764 -0.1217
  916MPD2    C113460   3.690   0.930  15.576 -0.4395 -0.8990 -0.1721
  916MPD2    C213461   3.761   0.818  15.524 -0.2719  0.5600 -0.2792
  916MPD2    C313462   3.851   0.825  15.421  0.4773 -0.1353  0.0923
  916MPD2    C413463   3.861   0.944  15.357 -0.0411  0.8976 -0.3843
  916MPD2    C513464   3.796   1.061  15.403  0.0572  0.8554 -0.2586
  916MPD2     H13465   3.747   0.717  15.563 -0.0842 -0.3233 -2.4897
  916MPD2    H113466   3.922   0.959  15.268  0.9941  0.3865  0.2418
  916MPD2    H213467   3.675   1.137  15.561 -2.9744 -0.0834 -2.8477
  916MPD2    H313468   3.822   1.144  15.338  0.4205 -0.6054 -1.9953
  916MPD2     N13469   3.938   0.716  15.393 -0.3381  0.1050 -0.2352
  916MPD2    H513470   3.910   0.630  15.439 -1.0818  0.9225  0.8333
  916MPD2    N113471   3.625   0.928  15.706 -0.3574 -0.0375  0.2688
  916MPD2    H713472   3.586   1.012  15.748 -2.0286 -0.7926  0.2132
  917MPD2     C13473   4.104   3.219  11.635 -0.0034  0.3423  0.6561
  917MPD2    C113474   4.046   3.324  11.573  0.2996 -0.0881  0.2243
  917MPD2    C213475   4.117   3.446  11.574  0.3383  0.0656  0.1077
  917MPD2    C313476   4.244   3.449  11.622  0.3636  0.7798  0.2887
  917MPD2    C413477   4.301   3.340  11.679  0.0876 -0.4113  0.1711
  917MPD2    C513478   4.230   3.222  11.692 -0.7700 -0.2658  0.1144
  917MPD2     H13479   4.062   3.532  11.537  0.9094  0.0271 -0.8090
  917MPD2    H113480   4.399   3.339  11.725 -1.1165 -0.4481  2.7389
  917MPD2    H213481   4.060   3.120  11.629  0.1208  0.2506  1.2917
  917MPD2    H313482   4.275   3.138  11.743 -0.8403  0.0202  0.6533
  917MPD2     N13483   4.325   3.567  11.622 -0.4454 -0.0474  0.2739
  917MPD2    H513484   4.412   3.565  11.674  0.5695  1.4878 -1.3538
  917MPD2    N113485   3.924   3.301  11.506 -0.1545 -0.3759  0.0670
  917MPD2    H713486   3.872   3.217  11.528  1.3955 -1.2803  0.2412
  918MPD2     C13487   3.803   3.114  11.965 -0.1624  0.2885 -0.2986
  918MPD2    C113488   3.848   3.241  11.925 -0.1342 -0.1850  0.4747
  918MPD2    C213489   3.758   3.317  11.849  0.2717  0.2619 -0.0766
  918MPD2    C313490   3.630   3.285  11.829 -0.6835 -0.0171 -0.5482
  918MPD2    C413491   3.586   3.167  11.887  0.1177 -0.6724 -0.0974
  918MPD2    C513492   3.670   3.082  11.949  0.2681  0.5132  0.0778
  918MPD2     H13493   3.797   3.412  11.814 -0.2179  0.3703 -0.3386
  918MPD2    H113494   3.484   3.132  11.875 -0.3705  0.8266 -0.3419
  918MPD2    H213495   3.864   3.037  12.011  0.6370 -0.2938 -2.3338
  918MPD2    H313496   3.630   2.992  11.995 -0.9808  0.2900 -1.4543
  918MPD2     N13497   3.555   3.352  11.739 -0.0207 -0.7464  0.2846
  918MPD2    H513498   3.468   3.308  11.712 -0.5967 -0.1217  1.1024
  918MPD2    N113499   3.973   3.295  11.954  0.4230 -0.2598 -0.2024
  918MPD2    H713500   4.003   3.373  11.896 -2.3397  0.6417 -0.4098
  919MPD2     C13501   4.559   2.497  11.425  0.4225  0.7538  0.3971
  919MPD2    C113502   4.584   2.375  11.371  0.8867 -0.0802  0.0120
  919MPD2    C213503   4.582   2.362  11.233 -0.1816  0.5992  0.8342
  919MPD2    C313504   4.561   2.476  11.159 -0.1536  0.3796  0.3492
  919MPD2    C413505   4.540   2.599  11.216  0.8828  0.3500  0.2299
  919MPD2    C513506   4.548   2.607  11.348 -0.5908  0.3935  0.3829
  919MPD2     H13507   4.614   2.271  11.184 -1.3457 -0.2426  1.6382
  919MPD2    H113508   4.548   2.690  11.158 -1.9538  0.0901 -0.5545
  919MPD2    H213509   4.553   2.510  11.532 -3.3586  1.9376  0.0273
  919MPD2    H313510   4.540   2.704  11.396  1.3729  1.5358 -1.6065
  919MPD2     N13511   4.582   2.484  11.022 -0.5270 -0.0200 -0.2407
  919MPD2    H513512   4.593   2.580  10.992 -0.6308  0.1285  0.1927
  919MPD2    N113513   4.597   2.260  11.448  0.1921 -0.2574 -0.5188
  919MPD2    H713514   4.606   2.172  11.400 -1.5025 -0.5907 -0.2371
  920MPD2     C13515   3.892   2.872  10.498  0.0475 -0.0802 -0.2306
  920MPD2    C113516   3.939   2.793  10.398 -0.0969  0.1584 -0.6460
  920MPD2    C213517   4.053   2.722  10.419  0.1609  0.6445  0.6673
  920MPD2    C313518   4.139   2.743  10.523  0.3906 -0.0852  0.2786
  920MPD2    C413519   4.087   2.830  10.621  0.3904  0.6682 -0.6429
  920MPD2    C513520   3.973   2.898  10.606 -0.0131 -0.8837  0.3458
  920MPD2     H13521   4.089   2.657  10.340 -0.7748  0.6687  0.2184
  920MPD2    H113522   4.145   2.860  10.707  2.7691 -0.3228 -1.9071
  920MPD2    H213523   3.793   2.917  10.501  0.7034  1.3290  0.4449
  920MPD2    H313524   3.943   2.968  10.683  0.2263 -0.4915  0.0817
  920MPD2     N13525   4.262   2.674  10.535  0.3005  0.0623 -0.2499
  920MPD2    H513526   4.284   2.604  10.464  1.0275  1.0810 -1.0216
  920MPD2    N113527   3.868   2.773  10.278 -0.3496  0.0959  0.7668
  920MPD2    H713528   3.909   2.708  10.212  2.4068 -0.6202  3.1609
  921MPD2     C13529   0.854   2.077  16.627 -0.4686  0.0315  0.0510
  921MPD2    C113530   0.927   1.957  16.635  0.5035 -0.2918  0.0836
  921MPD2    C213531   0.861   1.837  16.615  0.2516  0.1212  0.3420
  921MPD2    C313532   0.725   1.833  16.581  0.5759  0.0298  0.4637
  921MPD2    C413533   0.660   1.951  16.580 -0.0107  0.3519 -0.2992
  921MPD2    C513534   0.723   2.069  16.597  0.5142  0.3453  0.5253
  921MPD2     H13535   0.920   1.748  16.635  0.0956  0.6350  3.0672
  921MPD2    H113536   0.557   1.952  16.546  0.2009  0.1166 -0.9333
  921MPD2    H213537   0.904   2.173  16.635 -0.7828  0.0911  1.3150
  921MPD2    H313538   0.659   2.157  16.591  4.0207  2.7638 -1.0559
  921MPD2     N13539   0.659   1.714  16.536 -0.5811 -0.6042  0.7617
  921MPD2    H513540   0.562   1.732  16.514 -0.8076 -1.7200  0.8474
  921MPD2    N113541   1.066   1.975  16.654 -0.8272  0.2321  0.2711
  921MPD2    H713542   1.103   2.069  16.650 -0.5457  0.1150  0.0672
  922MPD2     C13543   2.273   4.230  17.058 -0.3038 -0.2496 -0.3188
  922MPD2    C113544   2.244   4.361  17.047  0.0011  0.0976 -0.0578
  922MPD2    C213545   2.112   4.389  17.017 -0.0559 -0.3927  0.3596
  922MPD2    C313546   2.020   4.294  17.000  0.0957  0.1148  0.3100
  922MPD2    C413547   2.051   4.164  17.022  0.1344  0.0115 -0.0950
  922MPD2    C513548   2.174   4.131  17.056  0.6753 -1.0853 -0.1944
  922MPD2     H13549   2.087   4.490  16.989  1.6434  0.3471  1.4604
  922MPD2    H113550   1.970   4.092  17.019 -1.3181  1.6624 -0.2099
  922MPD2    H213551   2.375   4.197  17.073 -0.4144 -0.4826 -0.0780
  922MPD2    H313552   2.200   4.028  17.077  1.1587 -1.5169 -2.9103
  922MPD2     N13553   1.884   4.332  16.977 -0.2285  0.6774 -0.4108
  922MPD2    H513554   1.856   4.429  16.979  1.8113  1.2417  0.5830
  922MPD2    N113555   2.345   4.459  17.054  0.5927 -0.3296 -0.2397
  922MPD2    H713556   2.324   4.555  17.031  0.4988  0.4355  2.9477
  923MPD2     C13557   2.585   1.631   8.702 -0.8756  0.0203  0.8396
  923MPD2    C113558   2.585   1.700   8.825  0.0120 -0.5018  0.1570
  923MPD2    C213559   2.699   1.729   8.893  0.2859  0.1770 -0.3463
  923MPD2    C313560   2.823   1.699   8.841  0.3942  0.1305 -0.0887
  923MPD2    C413561   2.824   1.633   8.722  0.6484  0.1546 -0.0609
  923MPD2    C513562   2.709   1.603   8.649 -0.8649  0.0623 -0.1428
  923MPD2     H13563   2.689   1.777   8.989  1.5160 -1.9542  0.8387
  923MPD2    H113564   2.920   1.602   8.683 -0.7344 -1.3344 -2.3036
  923MPD2    H213565   2.502   1.600   8.640  0.6399 -3.0622  0.3610
  923MPD2    H313566   2.726   1.542   8.560 -2.9094  0.2349 -0.6553
  923MPD2     N13567   2.942   1.713   8.914 -0.1137 -0.5714 -0.5770
  923MPD2    H513568   3.027   1.670   8.878  1.4507  0.5681  1.7203
  923MPD2    N113569   2.454   1.722   8.879 -0.0963  0.4201 -0.4054
  923MPD2    H713570   2.378   1.673   8.832  0.4680 -0.6240 -0.2307
  924MPD2     C13571   2.464   4.294  16.003 -0.2765  0.2479  0.0259
  924MPD2    C113572   2.473   4.328  16.131  0.5507  0.0076 -0.2354
  924MPD2    C213573   2.574   4.412  16.169  0.8793 -0.2867  1.0336
  924MPD2    C313574   2.666   4.460  16.081  0.5074 -0.2317  0.0708
  924MPD2    C413575   2.654   4.424  15.944 -0.1223  0.3507  0.6171
  924MPD2    C513576   2.555   4.331  15.905 -0.1738  0.4214 -0.0380
  924MPD2     H13577   2.568   4.451  16.270  2.3107 -1.9235  1.7543
  924MPD2    H113578   2.710   4.467  15.861 -0.0846  1.1535  1.0567
  924MPD2    H213579   2.379   4.234  15.974 -0.4243  0.1209  0.7418
  924MPD2    H313580   2.548   4.307  15.799  0.9898 -0.6508  0.1313
  924MPD2     N13581   2.775   4.542  16.131 -0.2471 -0.0576  0.1964
  924MPD2    H513582   2.837   4.584  16.063  1.9430 -0.9074  1.6507
  924MPD2    N113583   2.370   4.306  16.217  0.1924 -0.5803 -0.0090
  924MPD2    H713584   2.385   4.352  16.306  0.7218 -0.1089 -0.3464
  925MPD2     C13585   2.103   2.139  14.578  0.1416  0.3845  0.3023
  925MPD2    C113586   1.976   2.181  14.539 -0.0253 -0.0422 -0.6552
  925MPD2    C213587   1.887   2.242  14.627  0.0596 -0.5855  0.2607
  925MPD2    C313588   1.935   2.258  14.757 -0.2949  0.9040 -0.4792
  925MPD2    C413589   2.060   2.219  14.798 -0.3863 -0.2184  0.9875
  925MPD2    C513590   2.139   2.146  14.707  0.2819 -0.0723 -0.1537
  925MPD2     H13591   1.783   2.267  14.605  0.7714  0.2894 -2.1191
  925MPD2    H113592   2.097   2.238  14.898  0.2189 -1.7484  1.0577
  925MPD2    H213593   2.173   2.087  14.514 -3.2215 -1.4949 -1.8976
  925MPD2    H313594   2.236   2.108  14.733 -0.7043 -3.2817 -1.1119
  925MPD2     N13595   1.864   2.328  14.857 -0.6281  0.0603  0.0497
  925MPD2    H513596   1.905   2.336  14.950 -1.6637 -1.6644  0.6423
  925MPD2    N113597   1.938   2.168  14.410  0.2662  0.4747  0.3385
  925MPD2    H713598   1.845   2.198  14.382 -0.0974 -0.5299  0.4667
  926MPD2     C13599   0.552   0.440  13.933 -0.2588 -0.3466  0.6241
  926MPD2    C113600   0.528   0.565  13.876  0.4163  0.4302  0.1824
  926MPD2    C213601   0.591   0.594  13.752  0.4842 -0.6548 -0.3828
  926MPD2    C313602   0.670   0.499  13.689  0.2710 -0.3346  0.0220
  926MPD2    C413603   0.687   0.377  13.747  0.7292  0.7147 -0.3029
  926MPD2    C513604   0.642   0.350  13.872  0.4239 -0.1669 -0.1579
  926MPD2     H13605   0.586   0.696  13.716  1.4284 -0.7497 -0.7630
  926MPD2    H113606   0.735   0.294  13.695  2.5561  1.1361  0.7259
  926MPD2    H213607   0.510   0.414  14.030 -2.1423  0.3711 -0.0057
  926MPD2    H313608   0.659   0.249  13.907 -1.6206 -0.5905 -0.3754
  926MPD2     N13609   0.748   0.520  13.571  1.1560  0.9123 -0.1989
  926MPD2    H513610   0.796   0.440  13.532 -0.9664 -0.5743  0.2481
  926MPD2    N113611   0.434   0.660  13.930 -0.2226 -0.3102 -0.1709
  926MPD2    H713612   0.416   0.732  13.861 -0.9703 -1.7383 -1.4621
  927MPD2     C13613   0.348   2.820  17.449 -0.4018 -0.2943  0.5531
  927MPD2    C113614   0.471   2.803  17.512 -0.0464 -0.2056 -0.4410
  927MPD2    C213615   0.584   2.785  17.433  0.2175 -0.4188  0.2347
  927MPD2    C313616   0.572   2.761  17.295 -0.5649 -0.6755 -0.4133
  927MPD2    C413617   0.450   2.779  17.235 -0.1756 -0.3053 -0.4235
  927MPD2    C513618   0.341   2.811  17.311 -0.0239 -0.1535  0.5888
  927MPD2     H13619   0.683   2.768  17.473  1.4366  1.5785 -1.9648
  927MPD2    H113620   0.442   2.771  17.127  5.2348 -2.2463 -0.6809
  927MPD2    H213621   0.257   2.845  17.501 -0.6576  0.5705 -0.3115
  927MPD2    H313622   0.248   2.823  17.257 -0.5542 -0.4306  1.4440
  927MPD2     N13623   0.684   2.708  17.226  0.1612  0.4649  0.2421
  927MPD2    H513624   0.766   2.689  17.282  0.0625  0.5804  0.4283
  927MPD2    N113625   0.478   2.820  17.649  0.2553 -0.2497  0.5381
  927MPD2    H713626   0.390   2.819  17.700  0.4821  0.4441  0.9421
  928MPD2     C13627   2.988   1.913   0.840 -0.2745  0.8018 -0.1412
  928MPD2    C113628   3.108   1.968   0.892 -0.3603 -0.1735 -0.1353
  928MPD2    C213629   3.224   1.933   0.837  0.3247 -0.7928  0.0863
  928MPD2    C313630   3.232   1.838   0.733 -0.0194 -1.0046  0.0470
  928MPD2    C413631   3.118   1.780   0.689 -0.6233  0.2560  0.1805
  928MPD2    C513632   2.997   1.822   0.740 -0.4725 -0.1976 -0.0028
  928MPD2     H13633   3.316   1.965   0.884  0.8887 -2.8534  0.3845
  928MPD2    H113634   3.115   1.714   0.603  3.1133  1.3424 -0.7555
  928MPD2    H213635   2.889   1.924   0.882  0.2193  2.4701  0.5510
  928MPD2    H313636   2.904   1.792   0.691 -1.6230  2.5251  0.5256
  928MPD2     N13637   3.355   1.812   0.658  0.0023 -0.4433  0.4235
  928MPD2    H513638   3.346   1.750   0.578  0.7972  0.4205 -0.3432
  928MPD2    N113639   3.103   2.050   1.010  0.3765  0.7464  0.2911
  928MPD2    H713640   3.009   2.055   1.047  0.4768 -0.4548  0.6922
  929MPD2     C13641   2.606   1.617   9.870  0.5267  0.0013 -0.4203
  929MPD2    C113642   2.550   1.513   9.939  0.1799  0.3883  0.6515
  929MPD2    C213643   2.505   1.400   9.868  0.0487  0.3626 -0.4278
  929MPD2    C313644   2.500   1.400   9.731  0.0987 -0.5513  0.2644
  929MPD2    C413645   2.558   1.501   9.656  0.1904 -0.3000  0.0312
  929MPD2    C513646   2.613   1.603   9.727  0.3527 -0.1873 -0.1820
  929MPD2     H13647   2.476   1.311   9.922  1.9470 -1.5011 -2.5318
  929MPD2    H113648   2.554   1.525   9.550  0.0321 -0.9758 -0.1154
  929MPD2    H213649   2.645   1.706   9.918  0.1514 -0.6811  1.1419
  929MPD2    H313650   2.643   1.692   9.673  2.5607 -0.4224  0.6428
  929MPD2     N13651   2.431   1.295   9.657  0.7552  0.9614  0.0841
  929MPD2    H513652   2.458   1.297   9.559 -0.3008  3.3437 -0.1678
  929MPD2    N113653   2.538   1.527  10.077 -0.1448 -0.4195  0.3618
  929MPD2    H713654   2.573   1.609  10.126  0.1382 -0.7084  0.6471
  930MPD2     C13655   0.019   3.447  14.127 -0.4747 -0.4480 -0.3110
  930MPD2    C113656   0.151   3.436  14.105 -0.4185  1.3371  0.0636
  930MPD2    C213657   0.196   3.364  13.994  0.1424  0.0565 -0.1975
  930MPD2    C313658   0.111   3.295  13.905 -0.1810 -0.2061 -0.1203
  930MPD2    C413659   4.720   3.310  13.936  0.0484  0.3056  0.3662
  930MPD2    C513660   4.675   3.374  14.044 -0.4691  0.0593 -0.7740
  930MPD2     H13661   0.302   3.376  13.974  0.4228 -0.4049  0.9650
  930MPD2    H113662   4.645   3.247  13.889  0.5811  1.5801 -2.1642
  930MPD2    H213663   4.727   3.508  14.211 -2.2677  0.7776 -1.8704
  930MPD2    H313664   4.570   3.365  14.072 -0.4553  0.0363 -0.7295
  930MPD2     N13665   0.152   3.237  13.783 -0.0801  0.4698  0.3559
  930MPD2    H513666   0.079   3.208  13.719  2.1102 -0.8132 -1.5368
  930MPD2    N113667   0.238   3.531  14.176 -0.2883  0.1248  0.1691
  930MPD2    H713668   0.191   3.610  14.219  0.2178 -0.0125  0.9852
  931MPD2     C13669   1.073   3.089   0.347  0.1692 -0.2893 -0.1447
  931MPD2    C113670   0.988   3.014   0.423  0.6802  1.0458  0.3735
  931MPD2    C213671   1.009   3.000   0.560  0.0384  0.1395  0.0731
  931MPD2    C313672   1.127   3.057   0.620 -0.2156 -0.3202 -0.4870
  931MPD2    C413673   1.213   3.132   0.540  0.1181  0.0095  0.6719
  931MPD2    C513674   1.189   3.144   0.408  0.0995  0.3603 -0.4133
  931MPD2     H13675   0.958   2.925   0.619 -0.0491 -0.3105 -0.5736
  931MPD2    H113676   1.306   3.173   0.580  1.1137 -0.8895 -0.7067
  931MPD2    H213677   1.065   3.098   0.239 -1.5658  0.8877  0.0918
  931MPD2    H313678   1.260   3.187   0.338  2.7720  1.0653  2.7737
  931MPD2     N13679   1.155   3.044   0.759  0.3194  0.0377  0.3676
  931MPD2    H513680   1.228   3.107   0.793 -0.7398  1.3611  0.2106
  931MPD2    N113681   0.875   2.952   0.365  0.2761 -0.2351  0.2962
  931MPD2    H713682   0.861   2.969   0.266  0.9080 -1.2631  0.0386
  932MPD2     C13683   1.288   1.876  11.180 -0.2071 -0.2341  0.9886
  932MPD2    C113684   1.310   1.965  11.281 -0.1412  0.4814 -1.0170
  932MPD2    C213685   1.268   1.926  11.411 -0.7782 -0.0315 -0.6267
  932MPD2    C313686   1.193   1.811  11.433 -0.4045  0.2812 -0.9777
  932MPD2    C413687   1.177   1.724  11.327 -0.3803  0.1553  0.1588
  932MPD2    C513688   1.232   1.753  11.205 -0.1177  0.1604  0.4405
  932MPD2     H13689   1.273   1.993  11.497  0.1857 -0.9140 -0.0036
  932MPD2    H113690   1.129   1.628  11.342 -0.8839  0.2034 -1.1967
  932MPD2    H213691   1.315   1.892  11.077 -1.9262 -0.8123  0.4486
  932MPD2    H313692   1.205   1.683  11.127  0.7453  0.4506 -0.1211
  932MPD2     N13693   1.156   1.762  11.557  0.8780  0.2432  0.6864
  932MPD2    H513694   1.120   1.667  11.560  1.5116 -0.0358 -0.8064
  932MPD2    N113695   1.371   2.095  11.272 -0.2163  0.6098  0.0784
  932MPD2    H713696   1.354   2.150  11.356 -1.1132  0.0636  0.2600
  933MPD2     C13697   2.609   2.107   1.317  0.1269 -0.5955 -0.2360
  933MPD2    C113698   2.679   2.210   1.374 -0.3939 -0.2435 -0.6135
  933MPD2    C213699   2.607   2.321   1.418  0.5574  0.1170  0.0312
  933MPD2    C313700   2.473   2.331   1.406  0.5302 -0.4086  0.1739
  933MPD2    C413701   2.402   2.221   1.358 -0.1723 -0.2005 -0.6930
  933MPD2    C513702   2.473   2.116   1.310  0.4613 -0.1884 -0.5377
  933MPD2     H13703   2.657   2.410   1.455 -0.1151  0.0943  0.9750
  933MPD2    H113704   2.294   2.221   1.361 -0.1656  0.7050 -0.5691
  933MPD2    H213705   2.666   2.017   1.297  1.1049 -0.5929  2.5538
  933MPD2    H313706   2.421   2.027   1.275  1.1753 -0.2665 -1.4068
  933MPD2     N13707   2.410   2.449   1.449  0.5314  0.2393 -0.2808
  933MPD2    H513708   2.474   2.524   1.474  3.4898 -2.1217 -0.8330
  933MPD2    N113709   2.821   2.188   1.381 -0.3180 -0.9245 -0.2309
  933MPD2    H713710   2.854   2.100   1.341  3.0113 -0.8448  2.3059
  934MPD2     C13711   0.203   4.510   1.361  0.1430  0.1111 -0.3784
  934MPD2    C113712   0.221   4.428   1.259  0.2233  0.1093  0.6728
  934MPD2    C213713   0.128   4.329   1.234  0.7167  0.4193  0.7777
  934MPD2    C313714   0.011   4.319   1.311  0.7470 -0.0812 -0.0961
  934MPD2    C413715   4.739   4.397   1.420 -0.1531  0.3457 -0.1449
  934MPD2    C513716   0.099   4.484   1.446 -0.6640 -0.5863 -0.2505
  934MPD2     H13717   0.145   4.274   1.142  1.5667 -0.8647  1.7014
  934MPD2    H113718   4.649   4.394   1.481  0.3034  0.1083  0.5183
  934MPD2    H213719   0.271   4.590   1.389 -0.2227  0.1243  0.4545
  934MPD2    H313720   0.086   4.543   1.536 -1.9077 -0.4974 -0.4852
  934MPD2     N13721   4.649   4.226   1.284  0.1809 -0.0733  0.4128
  934MPD2    H513722   4.573   4.230   1.352 -1.6265  0.2467 -1.6510
  934MPD2    N113723   0.337   4.430   1.175  0.1687 -0.2364 -0.2832
  934MPD2    H713724   0.342   4.371   1.093 -0.3847 -1.4308  0.5289
  935MPD2     C13725   4.734   3.270   0.945  0.6297 -0.0273 -0.5085
  935MPD2    C113726   4.604   3.275   0.990 -0.3974  0.2061  0.3336
  935MPD2    C213727   4.557   3.395   1.047 -0.3258  0.0399  0.1088
  935MPD2    C313728   4.645   3.505   1.062 -0.5732 -0.8342  0.3661
  935MPD2    C413729   0.034   3.492   1.021  0.0884 -0.1894 -0.5881
  935MPD2    C513730   0.078   3.374   0.960  0.0570  0.0001  0.0784
  935MPD2     H13731   4.456   3.397   1.085 -1.0125  2.2496 -1.7975
  935MPD2    H113732   0.107   3.571   1.032 -0.7426  0.4477  0.2223
  935MPD2    H213733   0.029   3.182   0.891 -1.1577 -0.3899 -1.0638
  935MPD2    H313734   0.175   3.378   0.912 -0.9120  1.7815 -1.7505
  935MPD2     N13735   4.603   3.637   1.103 -0.7663  0.4224  0.0251
  935MPD2    H513736   4.672   3.711   1.091 -0.5986  0.1263 -0.8688
  935MPD2    N113737   4.507   3.178   0.958 -0.0232  0.2106  0.1618
  935MPD2    H713738   4.412   3.190   0.991 -0.4017 -0.3897 -0.6937
  936MPD2     C13739   2.907   4.733  12.951  0.7336 -0.0985 -0.0010
  936MPD2    C113740   2.956   0.051  13.067  0.6558 -0.4173  0.9754
  936MPD2    C213741   3.054   0.144  13.051 -0.6432 -0.2250  0.8953
  936MPD2    C313742   3.089   0.199  12.931 -0.3571  0.3569 -0.0490
  936MPD2    C413743   3.040   0.136  12.815  0.1791 -0.6498  0.0332
  936MPD2    C513744   2.954   0.037  12.832  0.1358  0.7888 -0.2148
  936MPD2     H13745   3.089   0.187  13.144 -0.4232  1.5155  0.0158
  936MPD2    H113746   3.075   0.144  12.713 -3.3641 -0.3871 -1.1762
  936MPD2    H213747   2.834   4.652  12.950 -0.1076  0.6721 -1.2667
  936MPD2    H313748   2.920   4.725  12.743  2.5693 -0.7022 -0.2731
  936MPD2     N13749   3.177   0.318  12.927  0.1508  0.0995  0.4875
  936MPD2    H513750   3.203   0.350  13.020  0.1833  0.4349  0.3599
  936MPD2    N113751   2.908   0.032  13.196 -0.3773 -0.5896  0.3211
  936MPD2    H713752   2.947   0.091  13.269  2.0280 -1.6019 -0.1360
  937MPD2     C13753   0.091   1.594  11.397 -0.0228  0.0356  0.0732
  937MPD2    C113754   0.096   1.728  11.370  0.6743 -0.2945 -0.5393
  937MPD2    C213755   0.171   1.777  11.262 -0.2013 -0.1122 -0.6850
  937MPD2    C313756   0.242   1.692  11.181  0.8598 -0.9240 -0.6017
  937MPD2    C413757   0.246   1.561  11.217 -0.4459  0.9319 -0.3985
  937MPD2    C513758   0.161   1.506  11.312 -0.3541  0.0464  0.0359
  937MPD2     H13759   0.178   1.884  11.255 -0.8797 -0.0689 -0.6746
  937MPD2    H113760   0.301   1.490  11.156 -3.2411  0.1493 -2.0177
  937MPD2    H213761   0.043   1.548  11.482 -0.4905  2.1205  0.9283
  937MPD2    H313762   0.167   1.399  11.329 -1.4086  0.5418  3.6467
  937MPD2     N13763   0.327   1.759  11.087 -0.3505 -0.2372  0.2582
  937MPD2    H513764   0.315   1.859  11.075 -0.9704  0.1547  4.1323
  937MPD2    N113765   0.058   1.819  11.462 -0.3296 -0.2859 -0.2276
  937MPD2    H713766   0.088   1.915  11.447 -3.2985  0.9235  1.5778
  938MPD2     C13767   3.358   3.739   0.493 -0.3706 -0.9762  0.3321
  938MPD2    C113768   3.455   3.779   0.581 -0.6564  0.0963  0.0555
  938MPD2    C213769   3.500   3.689   0.676  0.0374 -0.1680  0.3665
  938MPD2    C313770   3.451   3.561   0.679  0.9975  0.3327  0.5053
  938MPD2    C413771   3.357   3.527   0.591  0.3382 -0.6475  0.0369
  938MPD2    C513772   3.306   3.613   0.504  0.8780  0.3733  0.1993
  938MPD2     H13773   3.568   3.723   0.752 -0.3429 -0.7538  0.9663
  938MPD2    H113774   3.334   3.421   0.591 -0.1833 -0.5291 -2.0110
  938MPD2    H213775   3.312   3.805   0.421 -0.8501 -1.0441  0.5776
  938MPD2    H313776   3.237   3.571   0.431 -1.1579  3.0183  0.6423
  938MPD2     N13777   3.492   3.456   0.767  0.0986  0.0593  0.1228
  938MPD2    H513778   3.452   3.363   0.757  0.7501 -0.3006  0.8403
  938MPD2    N113779   3.515   3.910   0.576  0.7647 -0.2544  0.1667
  938MPD2    H713780   3.565   3.940   0.659  0.9002  1.8692 -0.6729
  939MPD2     C13781   4.677   4.719   0.465  0.4249 -0.0392 -0.1286
  939MPD2    C113782   4.567   0.028   0.392 -0.2597  0.1932  0.0288
  939MPD2    C213783   4.509   4.690   0.288 -0.1334 -0.0867 -0.0331
  939MPD2    C313784   4.583   4.580   0.245 -1.0982  0.0191 -0.2051
  939MPD2    C413785   4.703   4.543   0.308 -0.7385  0.0077  0.2308
  939MPD2    C513786   0.011   4.608   0.418  0.2878 -0.4470 -0.0731
  939MPD2     H13787   4.417   4.726   0.243 -0.2025  0.8775  0.8873
  939MPD2    H113788   0.038   4.469   0.280  0.5994  1.2569  0.5225
  939MPD2    H213789   4.706   0.029   0.557 -1.1078  1.7485 -0.5983
  939MPD2    H313790   0.091   4.574   0.482  0.7039 -0.8654 -0.8231
  939MPD2     N13791   4.533   4.509   0.137 -0.3339  0.0521 -0.4978
  939MPD2    H513792   4.440   4.533   0.105  0.3691  1.0797 -1.7585
  939MPD2    N113793   4.503   0.148   0.439 -0.9061  0.2856  0.1808
  939MPD2    H713794   4.545   0.195   0.518 -1.4011 -0.3563  0.8366
  940MPD2     C13795   3.394   0.981  13.087 -1.0389  0.4874 -0.4833
  940MPD2    C113796   3.413   0.851  13.121  0.0029  0.2268 -0.1172
  940MPD2    C213797   3.457   0.757  13.026 -0.2466 -0.0475 -0.0302
  940MPD2    C313798   3.483   0.803  12.899  0.9323  0.5203 -0.5205
  940MPD2    C413799   3.481   0.942  12.870 -0.1963  0.1954  0.6446
  940MPD2    C513800   3.428   1.032  12.961 -0.0251 -0.5299 -0.7420
  940MPD2     H13801   3.467   0.653  13.056 -3.6799 -0.6614 -0.9634
  940MPD2    H113802   3.499   0.973  12.768  0.0053  2.8827  1.4795
  940MPD2    H213803   3.348   1.052  13.156  1.2202 -0.2809  1.7800
  940MPD2    H313804   3.430   1.137  12.934 -2.2247 -0.1748  0.5265
  940MPD2     N13805   3.546   0.722  12.800 -0.2470  0.5911 -0.0343
  940MPD2    H513806   3.573   0.774  12.717  1.1990 -0.8057 -0.4317
  940MPD2    N113807   3.392   0.806  13.252 -1.2168 -0.2099 -0.1841
  940MPD2    H713808   3.398   0.705  13.261 -0.2037  0.0619  2.2059
  941MPD2     C13809   1.972   4.518   9.663 -0.3864 -0.0373  0.1347
  941MPD2    C113810   2.045   4.538   9.777 -0.2812 -0.7049 -0.0432
  941MPD2    C213811   1.986   4.575   9.898  0.0303 -0.4909  0.5956
  941MPD2    C313812   1.848   4.568   9.907 -0.1526  0.1325  1.1272
  941MPD2    C413813   1.774   4.550   9.788  0.1065  0.1494  0.0743
  941MPD2    C513814   1.838   4.526   9.666  0.1344  0.5398 -0.3455
  941MPD2     H13815   2.048   4.603   9.983 -2.3841  1.1684  1.8023
  941MPD2    H113816   1.666   4.539   9.788  0.1212  0.0101 -0.5409
  941MPD2    H213817   2.015   4.490   9.568 -1.0844  1.6275 -0.6750
  941MPD2    H313818   1.778   4.515   9.576 -2.1761 -0.6305  1.3555
  941MPD2     N13819   1.780   4.573  10.029 -0.5033 -0.5064 -0.6305
  941MPD2    H513820   1.679   4.588  10.029 -0.4301  0.0112 -1.9007
  941MPD2    N113821   2.189   4.522   9.781 -0.1480  0.6047 -0.1145
  941MPD2    H713822   2.237   4.527   9.870 -0.1687  2.9327 -0.2344
  942MPD2     C13823   2.038   1.614   9.529  0.9258 -0.2237  0.1893
  942MPD2    C113824   2.064   1.504   9.447 -0.0920  0.3624  0.0667
  942MPD2    C213825   2.172   1.509   9.355 -0.3781 -0.0292 -0.7146
  942MPD2    C313826   2.265   1.608   9.358 -0.2352  0.1742  0.2552
  942MPD2    C413827   2.240   1.716   9.439 -0.2747  0.6529 -0.4316
  942MPD2    C513828   2.132   1.719   9.525  0.3211  0.5685  0.2531
  942MPD2     H13829   2.182   1.427   9.285  2.1756  0.7424 -1.2414
  942MPD2    H113830   2.311   1.796   9.454  0.0482 -0.0819  2.0108
  942MPD2    H213831   1.960   1.635   9.602 -0.9124 -2.1734 -1.1873
  942MPD2    H313832   2.117   1.800   9.595  0.8062 -0.7223  1.8723
  942MPD2     N13833   2.390   1.606   9.288  0.7003 -0.0945 -0.1017
  942MPD2    H513834   2.450   1.687   9.297  1.1412 -0.3878 -0.4307
  942MPD2    N113835   1.985   1.388   9.450  0.3119 -0.5157 -0.3615
  942MPD2    H713836   2.007   1.317   9.381  0.6158 -0.7046 -0.0713
  943MPD2     C13837   0.348   4.447   9.844  0.2434 -0.2583  0.1616
  943MPD2    C113838   0.255   4.409   9.937  0.2210  0.3209 -0.0920
  943MPD2    C213839   0.271   4.464  10.066  0.0935 -0.1783  0.5418
  943MPD2    C313840   0.366   4.558  10.096  0.5448 -0.0726  0.2061
  943MPD2    C413841   0.455   4.595   9.996 -0.3116  0.6368  0.4176
  943MPD2    C513842   0.445   4.539   9.873  0.1637 -0.8327 -0.2129
  943MPD2     H13843   0.200   4.441  10.145 -0.0492 -1.2387  0.0945
  943MPD2    H113844   0.530   4.667  10.026 -0.1525  0.1099  1.2937
  943MPD2    H213845   0.345   4.403   9.745 -5.5156 -0.7817  0.5401
  943MPD2    H313846   0.516   4.562   9.795  0.3694  1.5265  0.6760
  943MPD2     N13847   0.385   4.618  10.225  0.1019 -0.2916 -0.2410
  943MPD2    H513848   0.476   4.648  10.258 -0.7883  1.7355  0.3454
  943MPD2    N113849   0.170   4.298   9.915  0.1010 -0.2764 -0.0110
  943MPD2    H713850   0.167   4.265   9.819 -0.7154  0.2561 -0.1733
  944MPD2     C13851   0.299   4.220  11.370 -0.2007  0.4143 -0.0297
  944MPD2    C113852   0.225   4.118  11.424  0.0861 -0.0082 -0.2219
  944MPD2    C213853   0.170   4.137  11.553 -0.2970  0.3311  0.4959
  944MPD2    C313854   0.183   4.259  11.615  0.4682  0.0630  0.3754
  944MPD2    C413855   0.258   4.360  11.558  0.1366  0.1502  0.2064
  944MPD2    C513856   0.323   4.341  11.433 -0.8938  0.9219 -0.2665
  944MPD2     H13857   0.109   4.055  11.591  1.9282 -1.1240  0.9366
  944MPD2    H113858   0.286   4.452  11.608 -0.1288  0.5022 -0.2907
  944MPD2    H213859   0.350   4.213  11.275 -0.8652  1.3924 -0.4569
  944MPD2    H313860   0.393   4.411  11.389  1.5607 -1.7865 -0.6697
  944MPD2     N13861   0.124   4.279  11.739  0.0197 -0.4847 -0.0902
  944MPD2    H513862   0.071   4.201  11.775 -0.0593 -0.7341 -0.7566
  944MPD2    N113863   0.208   4.008  11.343  0.3006  0.3839 -0.4272
  944MPD2    H713864   0.251   4.002  11.251 -0.2711  0.1021 -0.6750
    1TMC1    C113865   3.328   4.395  14.308 -0.5739  0.0040  0.5154
    1TMC1    C213866   3.281   4.514  14.258  0.4536 -0.3326  0.5695
    1TMC1    C313867   3.151   4.534  14.275 -0.0484  0.1064 -0.3586
    1TMC1    C413868   3.243   4.304  14.364 -0.1149  0.6537 -0.0405
    1TMC1    C513869   3.113   4.334  14.383  0.5823 -0.0480 -0.2769
    1TMC1    C613870   3.067   4.451  14.336  0.1961 -0.0951 -0.0149
    1TMC1     C13871   3.472   4.366  14.300  0.1214 -1.0170 -0.1755
    1TMC1     O13872   3.522   4.296  14.389 -0.6597 -0.2748  0.1072
    1TMC1     H13873   3.340   4.597  14.220 -0.8320  0.1844 -0.2774
    1TMC1    H113874   3.286   4.205  14.380 -1.8112 -0.2824 -1.2435
    1TMC1    H213875   2.960   4.470  14.330  0.0389 -1.2851 -0.9794
    1TMC1    C713876   3.013   4.228  14.381  0.7578  0.3099 -0.6397
    1TMC1    C813877   3.090   4.654  14.231  0.1916  0.1133  0.3233
    1TMC1    O113878   2.903   4.223  14.329 -0.1489  0.8829  0.6873
    1TMC1    O213879   3.007   4.712  14.301  0.1684  0.1958  0.4762
    1TMC1    O313880   3.069   4.119  14.447  0.1178  0.0866 -0.0077
    1TMC1    H313881   3.133   4.162  14.508  1.5084 -0.5958 -0.9868
    1TMC1    O513882   3.169   4.716  14.139  0.0956  0.2698 -0.1185
    1TMC1    H513883   3.239   4.659  14.101  1.3145  0.9208  1.1269
    2MPD2     C13884   3.940   4.531  14.143 -0.3534 -0.3217 -1.2226
    2MPD2    C113885   3.839   4.593  14.068 -0.2361  1.0797 -0.6631
    2MPD2    C213886   3.704   4.555  14.083  0.3492  0.2682 -0.2559
    2MPD2    C313887   3.666   4.453  14.175  0.5798  0.1122 -0.2135
    2MPD2    C413888   3.768   4.390  14.247 -0.9162 -0.0963 -0.3558
    2MPD2    C513889   3.902   4.423  14.224 -0.0447  0.6377 -0.3553
    2MPD2     H13890   3.622   4.605  14.033  0.6166  1.6634  0.6934
    2MPD2    H113891   3.752   4.311  14.319 -0.3330  0.7166  0.6572
    2MPD2    H213892   4.042   4.555  14.117  0.4168 -0.0915  1.9665
    2MPD2    H313893   3.985   4.368  14.269  0.0306 -0.4386 -1.8168
    2MPD2     N13894   3.525   4.430  14.194 -0.5377  0.0155  0.6347
    2MPD2    H513895   3.461   4.478  14.131 -0.7122 -1.2468 -0.1484
    2MPD2    N113896   3.878   4.683  13.970 -0.2228 -0.9966  0.2074
    2MPD2    H713897   3.977   4.704  13.959 -0.5665  0.6397  0.3222
    3TMC2    C113898   3.869   0.100  13.807  0.0603  0.7635 -1.2943
    3TMC2    C213899   3.958   0.174  13.874 -0.0452 -0.2844  0.1130
    3TMC2    C313900   4.006   0.287  13.818  0.0849  0.2958  0.3408
    3TMC2    C413901   3.809   0.139  13.689 -0.2456 -0.5679 -0.0447
    3TMC2    C513902   3.840   0.267  13.653 -0.1151  0.4676 -0.2931
    3TMC2    C613903   3.939   0.341  13.708  0.4803 -0.5821 -0.7370
    3TMC2     C13904   3.795   0.001  13.876 -0.3153  0.1685  0.4241
    3TMC2     O13905   3.678   4.726  13.848 -0.3074  0.8337  0.7720
    3TMC2     H13906   3.997   0.153  13.973  0.7847  1.0537  0.0626
    3TMC2    H113907   3.732   0.078  13.642 -1.4465 -1.3379  2.9328
    3TMC2    H213908   3.984   0.426  13.658  1.9413 -0.6317  0.4909
    3TMC2    C713909   3.765   0.322  13.538  0.0462  1.4544 -0.5736
    3TMC2    C813910   4.118   0.365  13.861 -0.1350 -0.5660 -0.0589
    3TMC2    O113911   3.686   0.248  13.475  0.5953  0.2448  0.5395
    3TMC2    O213912   4.145   0.480  13.832  0.4707  0.1315  0.1156
    3TMC2    O513913   4.196   0.283  13.929  0.2611  0.1689  0.0039
    3TMC2    H513914   4.172   0.189  13.916  4.5209 -0.8685 -0.4272
    4TMC2    C113915   3.670   1.312  13.402  0.1513  0.0128  0.0351
    4TMC2    C213916   3.637   1.341  13.275 -0.5699 -0.1970  0.0310
    4TMC2    C313917   3.667   1.247  13.179 -0.2914 -0.7339 -0.6439
    4TMC2    C413918   3.737   1.191  13.429 -0.4256  0.1333  0.0468
    4TMC2    C513919   3.741   1.097  13.330  0.2041 -0.3767 -0.2446
    4TMC2    C613920   3.698   1.122  13.202 -0.5127 -0.1923  1.3515
    4TMC2     C13921   3.553   1.336  13.486 -0.0699  0.3912  0.2404
    4TMC2     O13922   3.566   1.344  13.606  0.0193  0.5019  0.1492
    4TMC2     H13923   3.592   1.437  13.251 -0.2192  0.0166  0.2331
    4TMC2    H113924   3.769   1.169  13.530 -1.5690 -0.8750  0.1893
    4TMC2    H213925   3.711   1.051  13.121 -2.0150  0.6185  0.3899
    4TMC2    C713926   3.761   0.958  13.376  0.0599 -0.5271  0.1191
    4TMC2    C813927   3.645   1.301  13.043  0.3497  0.0315  0.9075
    4TMC2    O113928   3.755   0.942  13.496  0.1483  0.6011 -0.3477
    4TMC2    O213929   3.551   1.377  13.020  0.2761  0.2611 -0.2163
    4TMC2    O513930   3.699   1.208  12.955  0.6299 -0.0569  0.1626
    4TMC2    H513931   3.781   1.161  12.980 -0.1206 -2.6148 -2.2511
    5MPD2     C13932   3.035   1.377  13.487 -0.2882 -0.4730 -0.0142
    5MPD2    C113933   3.078   1.373  13.356  0.4730  0.0219  0.1341
    5MPD2    C213934   3.216   1.357  13.340 -0.1055 -0.1791 -0.0164
    5MPD2    C313935   3.308   1.354  13.443  0.0022  0.4293 -1.0379
    5MPD2    C413936   3.261   1.363  13.574  0.2934 -0.5974  0.2538
    5MPD2    C513937   3.122   1.376  13.594 -0.0765 -0.1114  0.6061
    5MPD2     H13938   3.253   1.344  13.239 -0.6362 -1.5061 -0.0386
    5MPD2    H113939   3.327   1.374  13.659  0.2989  0.2742  0.1410
    5MPD2    H213940   2.929   1.388  13.504 -0.0764  1.7167 -0.0608
    5MPD2    H313941   3.099   1.376  13.700 -1.1062 -1.7500  0.3876
    5MPD2     N13942   3.444   1.344  13.404 -0.0625  0.1824  0.3808
    5MPD2    H513943   3.456   1.329  13.305  1.6476  2.0702  0.2995
    5MPD2    N113944   2.979   1.378  13.250  0.0616  0.4467 -0.1170
    5MPD2    H713945   2.881   1.387  13.277  0.1053  0.0205  0.1838
    6MPD1     C13946   1.568   2.498  12.514 -0.8190 -0.2630 -0.0686
    6MPD1    C113947   1.594   2.384  12.442  0.1581  0.4155 -0.4360
    6MPD1    C213948   1.700   2.303  12.478  0.2081 -0.3253 -0.1767
    6MPD1    C313949   1.777   2.328  12.591  0.8736  0.4457 -0.1995
    6MPD1    C413950   1.751   2.442  12.665 -0.0357  0.1433  0.3090
    6MPD1    C513951   1.655   2.526  12.620 -1.0740 -0.0706 -0.3337
    6MPD1     H13952   1.711   2.212  12.421 -0.3724 -1.6980  1.8924
    6MPD1    H113953   1.802   2.474  12.755 -0.8379 -1.9652  1.5299
    6MPD1    H213954   1.489   2.571  12.500  0.5366  1.5318  1.6475
    6MPD1    H313955   1.621   2.613  12.674 -0.8881  0.9542 -1.8869
    6MPD1     N13956   1.881   2.242  12.641  0.6266 -0.1994 -0.2084
    6MPD1    H513957   1.937   2.278  12.717  1.5599  0.0410 -1.0137
    6MPD1    N113958   1.529   2.367  12.319  0.4061  0.1010  0.0674
    6MPD1    H613959   1.436   2.408  12.318  0.6804  0.7590  1.7539
    6MPD1    H713960   1.524   2.273  12.281  1.9399 -0.0569  0.2700
    7MPD2     C13961   2.258   1.835  13.201  0.7156  0.5468  0.4099
    7MPD2    C113962   2.265   1.771  13.084  0.0681  0.8489 -0.4981
    7MPD2    C213963   2.335   1.656  13.066 -0.5995  0.4819  0.0175
    7MPD2    C313964   2.409   1.601  13.171 -0.7588  0.0897  0.0959
    7MPD2    C413965   2.398   1.659  13.298  0.3182  0.3340 -0.7811
    7MPD2    C513966   2.316   1.776  13.310  0.0711  0.1251 -0.3925
    7MPD2     H13967   2.334   1.612  12.967  2.7501  1.0029 -0.2458
    7MPD2    H113968   2.459   1.618  13.377 -1.2401  0.2140  0.3414
    7MPD2    H213969   2.201   1.926  13.210 -0.1954 -0.0364  0.5945
    7MPD2    H313970   2.307   1.829  13.404 -0.4380 -1.2353  0.3185
    7MPD2     N13971   2.506   1.499  13.155 -0.3033 -0.2602  0.1576
    7MPD2    H513972   2.550   1.464  13.240  0.6524  0.8187  0.0882
    7MPD2    N113973   2.228   1.836  12.965 -0.3999  0.2452 -0.1276
    7MPD2    H713974   2.238   1.781  12.881 -1.0869 -0.2849  0.1408
    8TMC3    C113975   2.642   1.337  13.037  0.1990 -0.4605  1.1116
    8TMC3    C213976   2.754   1.381  13.107  0.5911 -0.5565 -0.2484
    8TMC3    C313977   2.874   1.374  13.035 -0.2231  0.2629  0.6256
    8TMC3    C413978   2.650   1.279  12.907  0.3437 -0.5736  0.0967
    8TMC3    C513979   2.767   1.293  12.842 -0.4046 -0.7153 -0.4936
    8TMC3    C613980   2.877   1.328  12.908 -0.9596 -0.2774  0.0567
    8TMC3     C13981   2.534   1.426  13.036 -0.2925 -0.6825 -0.3159
    8TMC3     O13982   2.486   1.435  12.929 -0.1071 -0.3771  0.0807
    8TMC3     H13983   2.742   1.433  13.201  1.5760 -0.2012 -0.3137
    8TMC3    H113984   2.565   1.230  12.862  0.3671 -1.1724  0.6921
    8TMC3    H213985   2.976   1.341  12.867 -1.4415  0.8770 -0.7130
    8TMC3    C713986   2.757   1.352  12.712  0.4699  0.0143  0.0571
    8TMC3    C813987   3.000   1.366  13.114  0.0516 -0.0028 -0.1792
    8TMC3    O113988   2.862   1.356  12.650  0.1334  0.6936 -1.3593
    8TMC3    O213989   3.093   1.311  13.060 -0.2920 -0.1998 -0.5429
    9TMC3    C113990   2.068   2.105  12.632 -0.4254  0.2976 -0.6523
    9TMC3    C213991   2.171   2.072  12.548  0.4096 -0.0471 -0.4767
    9TMC3    C313992   2.268   1.982  12.593 -0.2485  0.1406 -0.0737
    9TMC3    C413993   2.075   2.078  12.769  0.0910  0.2406 -0.2404
    9TMC3    C513994   2.176   1.997  12.810  0.4495 -0.1335 -0.1825
    9TMC3    C613995   2.264   1.940  12.721 -0.2917 -0.2567 -0.0847
    9TMC3     C13996   1.944   2.146  12.568 -0.3688 -0.2000  0.0106
    9TMC3     O13997   1.936   2.102  12.455  0.2776  0.5496 -0.0104
    9TMC3     H13998   2.159   2.084  12.441  0.0829 -1.8651 -0.6468
    9TMC3    H113999   1.985   2.099  12.826  0.2836  1.0394 -0.2273
    9TMC3    H214000   2.361   1.904  12.754 -1.0886 -1.2615  1.1551
    9TMC3    C714001   2.169   1.955  12.949  0.1066  0.5220  0.1521
    9TMC3    C814002   2.356   1.912  12.503  0.7682 -0.1990 -0.1673
    9TMC3    O114003   2.101   2.024  13.025  0.0015 -0.1827  0.2263
    9TMC3    O214004   2.413   1.971  12.412 -0.2862  0.3717  0.7046
   10MPD2     C14005   2.695   1.525  12.484  0.0582 -0.0223  0.9661
   10MPD2    C114006   2.617   1.517  12.596  0.1226 -0.5670  1.1084
   10MPD2    C214007   2.512   1.608  12.606 -0.4584 -0.7224 -0.4206
   10MPD2    C314008   2.488   1.710  12.516  0.2850 -0.2469  0.4055
   10MPD2    C414009   2.571   1.719  12.409 -0.2642 -0.4481 -0.1543
   10MPD2    C514010   2.672   1.627  12.397  0.2237  0.4650  0.0132
   10MPD2     H14011   2.448   1.611  12.693  1.2685  0.4115  0.8195
   10MPD2    H114012   2.569   1.806  12.345 -1.5889  0.2002  0.7742
   10MPD2    H214013   2.775   1.453  12.468 -0.6464 -0.6695  0.3587
   10MPD2    H314014   2.743   1.638  12.316 -1.4819  0.2966 -1.4901
   10MPD2     N14015   2.378   1.791  12.552 -0.0592  0.1778  0.0067
   10MPD2    H514016   2.313   1.760  12.624  0.1387 -0.3968 -0.0645
   10MPD2    N114017   2.643   1.421  12.701 -1.2828 -0.2020 -0.0650
   10MPD2    H714018   2.588   1.410  12.786  0.4225 -1.1456  0.9178
   11MPD2     C14019   3.758   0.446  13.277 -0.4818 -0.0994  0.2630
   11MPD2    C114020   3.785   0.516  13.393  0.1088  0.2058 -0.0826
   11MPD2    C214021   3.788   0.649  13.394  0.3194  0.0956 -0.1243
   11MPD2    C314022   3.764   0.723  13.278 -0.0433 -0.1918 -0.3489
   11MPD2    C414023   3.746   0.651  13.160  0.4140  0.2203  1.2379
   11MPD2    C514024   3.748   0.512  13.162 -0.0909 -0.5660 -0.0772
   11MPD2     H14025   3.808   0.696  13.489 -4.1483  1.0970  0.3415
   11MPD2    H114026   3.745   0.699  13.063 -2.3199  0.5851  1.4523
   11MPD2    H214027   3.753   0.338  13.280 -0.1399 -0.0862  1.1720
   11MPD2    H314028   3.743   0.450  13.074 -1.8993 -0.2570 -0.2090
   11MPD2     N14029   3.764   0.864  13.266 -0.1640  0.3530  0.0408
   11MPD2    H514030   3.778   0.888  13.169  0.7132 -0.4830 -0.0362
   11MPD2    N114031   3.803   0.452  13.520 -0.3625  0.0666  0.5662
   11MPD2    H714032   3.818   0.519  13.594  1.8949 -0.4008  0.5333
    1MPD1     C14033   1.163   1.911  17.519  0.3914 -0.8216 -0.3329
    1MPD1    C114034   1.262   1.911  17.616 -0.3357 -0.8051 -0.3687
    1MPD1    C214035   1.373   1.986  17.580 -0.7461 -0.6289 -0.2388
    1MPD1    C314036   1.395   2.028  17.443  0.2256 -0.2527  0.6174
    1MPD1    C414037   1.298   2.009  17.351  0.0762 -0.3058  0.3986
    1MPD1    C514038   1.185   1.957  17.392  0.6541  0.7534  0.3817
    1MPD1     H14039   1.445   1.996  17.660 -0.1582 -1.8530 -0.6109
    1MPD1    H114040   1.310   2.039  17.247 -0.6501 -1.1702  0.0617
    1MPD1    H214041   1.071   1.861  17.548  1.5741 -2.2336  1.0041
    1MPD1    H314042   1.111   1.947  17.312  0.6660 -2.0887  0.7328
    1MPD1     N14043   1.524   2.085  17.400  0.0349  0.5274 -0.0901
    1MPD1    H514044   1.536   2.098  17.300  1.9829  1.0556  0.2096
    1MPD1    N114045   1.226   1.894  17.751 -0.3016  0.2937  0.3939
    1MPD1    H614046   1.151   1.827   0.010 -0.1700  0.0783  0.0935
    1MPD1    H714047   1.305   1.870   0.054 -0.0287 -0.4013 -0.2627
    2MPD1     C14048   2.250   2.803  17.341 -0.4379 -0.2070  0.0311
    2MPD1    C114049   2.229   2.724  17.228 -0.0638  0.0317 -0.0337
    2MPD1    C214050   2.167   2.603  17.245 -0.6864  0.1110  0.5770
    2MPD1    C314051   2.125   2.558  17.368 -0.4144  0.5061 -0.1661
    2MPD1    C414052   2.151   2.632  17.475  0.5721 -0.5710  0.0908
    2MPD1    C514053   2.213   2.758  17.462 -0.1908  0.4980 -0.6071
    2MPD1     H14054   2.134   2.539  17.165  0.4992  0.1054  0.0854
    2MPD1    H114055   2.124   2.603  17.576  2.7287 -0.3996  0.7163
    2MPD1    H214056   2.323   2.883  17.337 -0.9937  0.1298 -3.7669
    2MPD1    H314057   2.242   2.808  17.554 -1.8117 -0.2783  0.3457
    2MPD1     N14058   2.068   2.431  17.380  0.0658  0.2539  0.3218
    2MPD1    H514059   2.036   2.388  17.294  0.7453  0.7020 -0.1455
    2MPD1    N114060   2.296   2.755  17.108  0.2242 -0.1591 -0.0160
    2MPD1    H614061   2.281   2.853  17.086  0.8227 -0.6755 -2.6823
    2MPD1    H714062   2.259   2.694  17.035 -0.5190 -0.0041  0.2308
    3TMC3    C114063   1.952   2.247  17.444 -0.6587  0.4506  0.0466
    3TMC3    C214064   1.995   2.185  17.326 -0.7651  0.1272 -0.2569
    3TMC3    C314065   1.910   2.099  17.264 -0.1880  0.1785 -0.0336
    3TMC3    C414066   1.832   2.226  17.497 -0.4632 -0.1656 -0.1818
    3TMC3    C514067   1.747   2.149  17.436 -0.5989 -0.3180  0.4639
    3TMC3    C614068   1.783   2.082  17.321 -0.4318 -0.5283 -0.7544
    3TMC3     C14069   2.020   2.365  17.494  0.0303  0.1124  0.6912
    3TMC3     O14070   2.001   2.403  17.607 -0.2605 -0.2112 -0.4483
    3TMC3     H14071   2.094   2.207  17.289 -0.6073 -0.8189 -0.4015
    3TMC3    H114072   1.812   2.278  17.590  1.0604 -0.7634  0.4732
    3TMC3    H214073   1.713   2.015  17.273 -2.5146  0.3428  1.0567
    3TMC3    C714074   1.615   2.130  17.489 -0.3969  0.0448 -0.9235
    3TMC3    C814075   1.946   2.047  17.132 -0.0962 -0.1350  0.3303
    3TMC3    O114076   1.590   2.157  17.605  0.0986  0.1004 -0.0827
    3TMC3    O214077   1.853   2.014  17.060 -0.8588  0.4364 -0.1980
    4MPD1     C14078   2.252   1.902  16.744  0.2022 -0.3820  0.5020
    4MPD1    C114079   2.326   1.925  16.856 -0.3787 -0.2348 -0.2453
    4MPD1    C214080   2.268   1.973  16.972  0.8639 -0.5839 -0.5389
    4MPD1    C314081   2.134   1.987  16.985  0.1678 -1.2726  0.2007
    4MPD1    C414082   2.055   1.960  16.871  0.3203  0.1760  0.5723
    4MPD1    C514083   2.113   1.915  16.752 -0.3906  0.0964 -0.4876
    4MPD1     H14084   2.329   1.997  17.059  0.1792 -0.2387 -0.1517
    4MPD1    H114085   1.947   1.973  16.865  0.3790  1.1152  1.5342
    4MPD1    H214086   2.291   1.871  16.648 -2.4192 -0.6105 -0.4946
    4MPD1    H314087   2.056   1.893  16.663  2.0776 -3.5480 -1.1536
    4MPD1     N14088   2.083   2.035  17.104  0.2656 -0.5115 -0.0752
    4MPD1    H514089   2.150   2.079  17.166  1.5401  0.5799 -2.2386
    4MPD1    N114090   2.461   1.883  16.859 -0.1417 -0.2514  0.1288
    4MPD1    H614091   2.497   1.869  16.765 -0.9489 -1.4182 -0.0006
    4MPD1    H714092   2.524   1.943  16.912  2.1295 -1.6493 -0.9504
    1TCq1    O114093   0.681   1.397  10.188 -0.2858  0.9684  0.5682
    1TCq1    C114094   0.803   1.460  10.190 -1.2465 -0.3838 -0.2679
    1TCq1    O214095   0.867   1.492  10.091  0.3899 -0.2137  0.0651
    1TCq1    C214096   0.848   1.504  10.324 -1.2850 -0.3546  0.6829
    1TCq1    C314097   0.952   1.592  10.335 -0.4067  0.0138 -0.2003
    1TCq1    C414098   0.986   1.650  10.452 -0.1328 -0.3707  0.0378
    1TCq1    C514099   0.912   1.628  10.566  0.2406  0.2451 -0.4588
    1TCq1    C614100   0.812   1.535  10.559  0.3668  0.0686  0.3518
    1TCq1    C714101   0.780   1.472  10.440 -0.0349 -0.1442 -0.5468
    1TCq1    C814102   0.760   1.472  10.681 -0.6735 -0.2008 -0.4451
    1TCq1    O414103   0.681   1.384  10.667  0.7387  0.3014 -0.0152
    1TCq1    C914104   1.066   1.763  10.458 -0.0520  0.9169 -0.4974
    1TCq1    O514105   1.034   1.856  10.534 -0.5442  0.2780  0.2555
    1TCq1    O614106   1.156   1.774  10.373 -0.0249 -0.0333  0.2122
    1TCq1    H114107   0.622   1.414  10.265 -0.6939  1.6964  0.1028
    1TCq1    H214108   0.981   1.640  10.242  0.6399 -1.3345 -0.5683
    1TCq1    H314109   0.936   1.693  10.650  0.8542  0.4023 -0.7583
    1TCq1    H414110   0.700   1.398  10.444 -0.1589  0.1098  1.7839
    2MPD1     C14111   0.746   1.388  11.186 -0.6171 -0.4607 -0.7776
    2MPD1    C114112   0.878   1.414  11.153 -0.0416  0.3553  0.3501
    2MPD1    C214113   0.902   1.465  11.026 -0.1823 -0.1078  0.6589
    2MPD1    C314114   0.815   1.454  10.919 -0.2246  0.5843 -0.2661
    2MPD1    C414115   0.691   1.408  10.958 -0.8254 -0.5429  0.0608
    2MPD1    C514116   0.654   1.381  11.091 -0.2984  0.7315 -0.0924
    2MPD1     H14117   1.002   1.494  10.996 -1.4245  0.8293 -2.5084
    2MPD1    H114118   0.610   1.398  10.887 -0.5092  0.6453 -0.4685
    2MPD1    H214119   0.704   1.370  11.284  2.6875  0.4476  0.8385
    2MPD1    H314120   0.553   1.351  11.114  0.3168  0.0514  1.7056
    2MPD1     N14121   0.849   1.488  10.785  0.9401 -0.7126 -0.1115
    2MPD1    H514122   0.938   1.527  10.756  0.7360 -2.3809 -2.9700
    2MPD1    N114123   0.976   1.424  11.247  0.0749 -0.1793  0.1300
    2MPD1    H614124   1.072   1.402  11.221 -0.4748 -1.7520 -0.5849
    2MPD1    H714125   0.954   1.375  11.334 -4.5245 -2.3702 -2.2850
    1TMC1    C114126   1.409   1.749  10.688 -0.1044  0.1853  0.0780
    1TMC1    C214127   1.407   1.815  10.566 -0.2325 -0.1227 -0.5834
    1TMC1    C314128   1.504   1.777  10.467 -0.2726 -0.0800  0.3177
    1TMC1    C414129   1.485   1.642  10.712 -0.1056 -0.5162  0.1192
    1TMC1    C514130   1.576   1.616  10.605 -0.2518 -0.8279 -0.1291
    1TMC1    C614131   1.588   1.670  10.485 -0.2395 -0.2280 -0.0319
    1TMC1     C14132   1.290   1.738  10.763 -0.5035 -0.0569 -0.4266
    1TMC1     O14133   1.260   1.620  10.786  0.0910  0.2973  0.4638
    1TMC1     H14134   1.336   1.893  10.543 -1.1634  0.0746  2.8817
    1TMC1    H114135   1.486   1.583  10.803  1.3829 -0.0169  0.4341
    1TMC1    H214136   1.670   1.646  10.418 -0.1299  2.0593 -0.6908
    1TMC1    C714137   1.663   1.506  10.632 -0.0160 -0.2638 -0.2638
    1TMC1    C814138   1.515   1.866  10.358  0.0526 -0.2634  0.4459
    1TMC1    O114139   1.718   1.453  10.537 -0.5861 -0.2381  0.0975
    1TMC1    O214140   1.623   1.895  10.307 -0.4806  0.2068 -0.0140
    1TMC1    O314141   1.727   1.545  10.741 -0.0401  0.2146 -0.3447
    1TMC1    H314142   1.667   1.587  10.806  2.2364  3.2419 -0.2039
    1TMC1    O514143   1.391   1.890  10.314  0.1208 -0.1258  0.4135
    1TMC1    H514144   1.314   1.857  10.365 -0.4743  1.0377  0.2502
    2MPD1     C14145   0.889   1.957  11.009 -0.3854 -0.0740 -0.1500
    2MPD1    C114146   0.984   2.049  10.975  0.6119 -0.0226 -0.1514
    2MPD1    C214147   1.089   2.008  10.891 -0.1387  0.4055 -0.1169
    2MPD1    C314148   1.116   1.878  10.860  0.3245  0.9602 -0.2913
    2MPD1    C414149   1.028   1.784  10.900 -1.1936 -0.8239  0.1054
    2MPD1    C514150   0.918   1.818  10.976 -0.2068  0.1042  0.3166
    2MPD1     H14151   1.158   2.088  10.866 -0.7533  0.9565 -0.0761
    2MPD1    H114152   1.036   1.676  10.886 -2.2257 -0.6880 -1.5222
    2MPD1    H214153   0.800   1.977  11.068 -0.3233 -1.6421  0.4682
    2MPD1    H314154   0.857   1.734  11.007 -0.4921 -0.5699 -2.1144
    2MPD1     N14155   1.232   1.856  10.796  0.2686 -0.5619 -0.6723
    2MPD1    H514156   1.279   1.942  10.769  1.3528 -0.9182  0.0770
    2MPD1    N114157   0.961   2.187  10.993 -0.6791  0.1199  0.4920
    2MPD1    H614158   1.041   2.250  10.984 -0.1223 -0.9379 -1.8035
    2MPD1    H714159   0.918   2.202  11.084  0.7397 -2.3704  1.5865
    1MPD1     C14160   3.712   1.071  12.298 -0.0185  0.0433  0.6431
    1MPD1    C114161   3.675   1.161  12.395 -0.3222 -0.5518  0.2463
    1MPD1    C214162   3.714   1.292  12.369  0.6836 -0.3127 -0.0767
    1MPD1    C314163   3.786   1.341  12.255 -0.1104  0.0079  0.8618
    1MPD1    C414164   3.816   1.239  12.161 -0.0270  0.2196 -0.4046
    1MPD1    C514165   3.776   1.114  12.184  0.8287 -0.3161  0.6341
    1MPD1     H14166   3.704   1.363  12.451  0.3772 -1.6568  1.0505
    1MPD1    H114167   3.866   1.265  12.067  2.2386  0.1545  0.7790
    1MPD1    H214168   3.690   0.967  12.322 -0.4351  0.3708  1.6829
    1MPD1    H314169   3.806   1.038  12.112 -1.5676 -0.7203  0.0543
    1MPD1     N14170   3.827   1.478  12.244 -0.1205 -0.1692 -0.0067
    1MPD1    H514171   3.790   1.546  12.308 -0.4225 -0.3267 -0.0169
    1MPD1    N114172   3.607   1.120  12.515 -0.4818 -0.4616  0.0015
    1MPD1    H614173   3.566   1.027  12.507  1.0218 -1.0404 -1.0860
    1MPD1    H714174   3.533   1.184  12.541  0.6976 -0.3917  3.1058
    2MPD1     C14175   3.289   2.465  10.237  0.2609  0.2705  0.1593
    2MPD1    C114176   3.361   2.463  10.117 -0.5801 -0.6588  0.3463
    2MPD1    C214177   3.494   2.471  10.126  0.4430 -0.6021 -0.0855
    2MPD1    C314178   3.564   2.474  10.248 -0.6242 -0.1757 -0.2011
    2MPD1    C414179   3.490   2.495  10.364  0.6458 -0.5454 -0.3924
    2MPD1    C514180   3.359   2.496  10.353 -0.3454 -1.1087  0.1802
    2MPD1     H14181   3.549   2.451  10.035 -1.1363  1.7863 -1.5528
    2MPD1    H114182   3.539   2.508  10.460  1.6491 -0.5882 -0.9019
    2MPD1    H214183   3.181   2.468  10.228  0.3426 -0.9640 -1.2896
    2MPD1    H314184   3.303   2.520  10.443  1.5527 -2.3380  1.6895
    2MPD1     N14185   3.705   2.451  10.267 -0.3515 -0.1097 -0.4608
    2MPD1    H514186   3.740   2.462  10.362 -1.0996 -0.2364 -0.1749
    2MPD1    N114187   3.297   2.433   9.994  0.2953 -0.2839  0.2801
    2MPD1    H614188   3.199   2.458   9.996 -0.2134 -2.1963 -0.7032
    2MPD1    H714189   3.348   2.474   9.916  0.6370 -1.3276 -0.0497
    3MPD1     C14190   4.272   1.713   9.809  0.2105  0.1249  0.2726
    3MPD1    C114191   4.232   1.685   9.936  0.4927 -0.6151  0.5148
    3MPD1    C214192   4.192   1.781  10.026  0.5406 -0.1876 -0.0959
    3MPD1    C314193   4.200   1.914   9.985  0.1664  0.1015  0.2071
    3MPD1    C414194   4.254   1.945   9.857  0.3208  0.1078  0.5741
    3MPD1    C514195   4.280   1.842   9.769  0.1662  0.0855  0.5474
    3MPD1     H14196   4.142   1.761  10.120 -1.0134  1.6454 -0.5400
    3MPD1    H114197   4.271   2.045   9.817 -0.7842  1.0840  2.5218
    3MPD1    H214198   4.292   1.629   9.744  1.0665  1.4443 -1.1870
    3MPD1    H314199   4.301   1.864   9.665 -0.6894  0.5324  0.4782
    3MPD1     N14200   4.155   2.011  10.077  0.4175  0.2502  0.0936
    3MPD1    H514201   4.114   1.969  10.160  1.5059  3.4431  2.2740
    3MPD1    N114202   4.201   1.545   9.955  0.1158  0.2167  0.1405
    3MPD1    H614203   4.211   1.508  10.050 -2.1943 -0.7705 -0.0065
    3MPD1    H714204   4.245   1.478   9.892  2.6364  2.4824 -0.4742
    4MPD2     C14205   3.622   2.078  11.794 -0.0517 -0.0956 -0.7270
    4MPD2    C114206   3.754   2.071  11.827  0.0494  0.2962 -0.4636
    4MPD2    C214207   3.850   2.131  11.743  0.5783  0.0229 -0.0543
    4MPD2    C314208   3.816   2.195  11.623 -0.4410  0.1222  0.0481
    4MPD2    C414209   3.686   2.193  11.592  0.1144 -0.5069  0.2106
    4MPD2    C514210   3.587   2.152  11.678  0.1084  0.5645 -0.2279
    4MPD2     H14211   3.947   2.113  11.788  0.1138 -0.7654  0.6432
    4MPD2    H114212   3.662   2.230  11.493 -0.3514  0.0369  0.5185
    4MPD2    H214213   3.547   2.055  11.869 -1.0835 -0.2354 -1.8001
    4MPD2    H314214   3.480   2.165  11.668  0.1941  2.0179  0.6464
    4MPD2     N14215   3.915   2.250  11.545 -0.5078 -0.5115  0.3468
    4MPD2    H514216   4.006   2.218  11.578 -1.0890  0.3229  2.7244
    4MPD2    N114217   3.805   1.996  11.942 -0.0007  0.1857  0.1052
    4MPD2    H714218   3.904   1.998  11.963  0.1357 -2.4710 -0.1916
    5TMC3    C114219   3.833   1.889  12.148 -0.3245  0.0355 -0.9709
    5TMC3    C214220   3.819   1.761  12.186  0.2250  0.2189 -0.6463
    5TMC3    C314221   3.920   1.673  12.151 -0.4536  0.5526  1.1810
    5TMC3    C414222   3.961   1.927  12.116 -0.2629  0.3271 -0.1228
    5TMC3    C514223   4.060   1.840  12.078  0.3031 -1.1082 -0.0570
    5TMC3    C614224   4.037   1.714  12.098 -0.8205  0.3261  0.2040
    5TMC3     C14225   3.743   1.934  12.045  0.8515 -0.7766 -0.2383
    5TMC3     O14226   3.623   1.910  12.060  0.2801  0.3761  0.3758
    5TMC3     H14227   3.723   1.717  12.207  1.4463 -2.5085 -0.8031
    5TMC3    H114228   3.980   2.032  12.096  0.5746  0.2031  0.0035
    5TMC3    H214229   4.111   1.635  12.097  0.4105  1.4799  0.5469
    5TMC3    C714230   4.118   1.875  11.953 -0.3448 -0.0611  0.6339
    5TMC3    C814231   3.903   1.529  12.142 -0.0448  0.2445  0.2634
    5TMC3    O114232   4.094   1.987  11.910  0.1861  0.6839 -0.1207
    5TMC3    O214233   3.964   1.475  12.049 -0.3625  0.7665 -0.5089
    6TMC3    C114234   3.925   2.369  10.218  0.2213  0.4758  0.2851
    6TMC3    C214235   3.996   2.315  10.123  0.0444 -0.3459 -0.6891
    6TMC3    C314236   4.092   2.225  10.157 -0.3392 -0.4944  0.1148
    6TMC3    C414237   3.955   2.337  10.353 -0.1174  0.5127  0.2072
    6TMC3    C514238   4.051   2.239  10.384  0.2385  0.1027  0.3852
    6TMC3    C614239   4.116   2.175  10.284 -0.4212  0.0006 -0.0680
    6TMC3     C14240   3.797   2.412  10.169  0.1506  0.3784  0.1035
    6TMC3     O14241   3.785   2.415  10.044  0.4244 -0.2723 -0.3808
    6TMC3     H14242   3.987   2.345  10.019 -0.5008 -0.7193 -0.7476
    6TMC3    H114243   3.895   2.377  10.434 -0.9836 -1.7220  0.6647
    6TMC3    H214244   4.201   2.109  10.296  0.2040  1.0299  1.1246
    6TMC3    C714245   4.107   2.237  10.517 -0.2950  0.1542 -0.7492
    6TMC3    C814246   4.155   2.150  10.054 -0.2926  0.0425  0.4447
    6TMC3    O114247   4.035   2.295  10.601 -0.2713  0.0003 -0.3998
    6TMC3    O214248   4.193   2.206   9.956  0.5006  0.3630  0.4037
    7MPD2     C14249   4.322   1.802  11.489 -0.1373 -0.4708  0.2931
    7MPD2    C114250   4.293   1.923  11.551 -0.4005 -0.3729  0.3665
    7MPD2    C214251   4.242   1.919  11.679  0.0302 -0.6589  0.1894
    7MPD2    C314252   4.222   1.797  11.746  0.2698 -0.5631 -0.1937
    7MPD2    C414253   4.256   1.680  11.685  0.0585 -0.0284 -0.2732
    7MPD2    C514254   4.297   1.681  11.553 -0.0600 -0.6330 -0.5573
    7MPD2     H14255   4.234   2.009  11.738  0.7842 -2.0174  2.3577
    7MPD2    H114256   4.265   1.586  11.739 -3.2069 -1.0357 -1.5160
    7MPD2    H214257   4.364   1.795  11.389  1.7537 -1.1870  1.1386
    7MPD2    H314258   4.325   1.584  11.514 -1.4667 -0.8506 -1.0081
    7MPD2     N14259   4.172   1.776  11.875  0.5581  0.5712  0.8581
    7MPD2    H514260   4.165   1.680  11.906  0.3511  0.8401  1.6345
    7MPD2    N114261   4.310   2.045  11.477 -0.2884 -0.2678  0.5821
    7MPD2    H714262   4.325   2.026  11.378  0.5301  2.0031  0.2644
    8TMC3    C114263   4.249   2.264  11.421 -0.2978 -0.4061  0.1383
    8TMC3    C214264   4.256   2.222  11.290 -0.2327 -0.4143 -0.0586
    8TMC3    C314265   4.155   2.253  11.204  0.2255  0.3315 -0.6796
    8TMC3    C414266   4.135   2.337  11.463 -0.8004  0.2335  0.5774
    8TMC3    C514267   4.033   2.357  11.378 -0.1502 -0.6410 -0.2031
    8TMC3    C614268   4.043   2.326  11.242  0.6212  0.3860  0.5421
    8TMC3     C14269   4.300   2.177  11.523  0.8184 -0.0192 -0.3889
    8TMC3     O14270   4.271   2.217  11.637 -0.1868  0.4237 -0.3191
    8TMC3     H14271   4.348   2.174  11.261  1.0474  1.9381  0.1281
    8TMC3    H114272   4.127   2.368  11.567 -0.3592 -2.8834  1.5349
    8TMC3    H214273   3.956   2.340  11.180  0.8398 -1.5650 -0.1794
    8TMC3    C714274   3.901   2.320  11.427 -0.1650  0.0955 -0.4399
    8TMC3    C814275   4.152   2.226  11.063  0.4778 -0.0927  0.2006
    8TMC3    O114276   3.800   2.346  11.359 -0.6679 -0.3137  0.2243
    8TMC3    O214277   4.078   2.296  10.995 -0.0969  0.0678  0.2997
    9MPD2     C14278   4.386   2.021  10.877 -0.0566 -0.0599  0.4391
    9MPD2    C114279   4.281   2.107  10.888 -0.0018  0.2770  1.0232
    9MPD2    C214280   4.215   2.149  10.774 -0.1523 -0.6199  0.1464
    9MPD2    C314281   4.255   2.091  10.654 -0.0319 -0.3781  0.2855
    9MPD2    C414282   4.362   2.007  10.646  0.4877 -0.5708  0.2784
    9MPD2    C514283   4.427   1.975  10.755  0.0957 -0.0178  0.1228
    9MPD2     H14284   4.133   2.218  10.794  0.0807 -0.4780  0.6082
    9MPD2    H114285   4.400   1.980  10.548  0.2855  0.5836 -0.1146
    9MPD2    H214286   4.461   2.010  10.954 -0.6167 -0.2422  0.9602
    9MPD2    H314287   4.525   1.928  10.747  0.4649  0.1702  3.3874
    9MPD2     N14288   4.207   2.137  10.527 -0.0516 -0.2211  0.0731
    9MPD2    H514289   4.234   2.086  10.444 -1.6410 -0.4347 -0.3107
    9MPD2    N114290   4.256   2.147  11.020  0.0887 -0.0870 -0.2615
    9MPD2    H714291   4.299   2.089  11.092  1.8055  0.4866 -0.8069
    1MPD1     C14292   3.590   0.624   0.080 -0.1521 -0.1432  1.1391
    1MPD1    C114293   3.625   0.536  17.733  0.2803  0.3231 -0.5728
    1MPD1    C214294   3.547   0.528  17.624 -0.6664  0.3628 -0.5259
    1MPD1    C314295   3.417   0.582  17.621  0.2666 -0.2273 -0.7066
    1MPD1    C414296   3.376   0.655  17.728 -0.0060 -0.2816  0.6889
    1MPD1    C514297   3.462   0.674   0.073 -0.6417  0.3770 -0.4647
    1MPD1     H14298   3.583   0.485  17.531  0.6917  1.5554 -0.5496
    1MPD1    H114299   3.276   0.692  17.747 -0.4059 -0.4818 -0.9776
    1MPD1    H214300   3.657   0.656   0.160 -2.4587 -2.8905  4.1938
    1MPD1    H314301   3.422   0.729   0.158  0.7650  0.1462  0.3398
    1MPD1     N14302   3.323   0.557  17.510  0.1769 -0.3568  0.0079
    1MPD1    H514303   3.231   0.598  17.521  0.1577 -0.7992  1.4174
    1MPD1    N114304   3.756   0.494  17.728  0.0294  0.2749 -0.6044
    1MPD1    H614305   3.786   0.432  17.653  1.3074  0.9709 -0.6694
    1MPD1    H714306   3.788   0.458   0.062 -3.1844 -0.0131  0.4186
    2TMC2    C114307   3.116   0.342  17.167 -0.1961  0.6356 -0.3420
    2TMC2    C214308   3.018   0.435  17.156 -0.7867  0.7209  0.4114
    2TMC2    C314309   3.025   0.548  17.234 -0.0611  0.9948 -0.2126
    2TMC2    C414310   3.228   0.361  17.239 -0.3619 -0.1703 -0.7106
    2TMC2    C514311   3.238   0.480  17.305 -0.1304  0.3085  0.5393
    2TMC2    C614312   3.139   0.573  17.303  0.0712  0.0866 -0.4177
    2TMC2     C14313   3.093   0.208  17.112  0.8737  0.8837  0.0025
    2TMC2     O14314   3.016   0.199  17.019 -0.0832  0.1968 -0.0041
    2TMC2     H14315   2.952   0.420  17.072  0.0868 -3.1319  0.4414
    2TMC2    H114316   3.307   0.288  17.249 -0.3823 -0.1138 -0.1521
    2TMC2    H214317   3.144   0.665  17.361 -1.0781 -1.0282  1.4641
    2TMC2    C714318   3.351   0.488  17.397  0.5506  0.6869  0.0492
    2TMC2    C814319   2.919   0.646  17.240  0.3531  0.5279  0.6792
    2TMC2    O114320   3.441   0.416  17.369  0.0446 -0.2228  0.2400
    2TMC2    O214321   2.942   0.756  17.286  0.6073  0.4534 -0.6709
    2TMC2    O514322   2.832   0.613  17.141 -0.6921 -0.3518  0.2941
    2TMC2    H514323   2.816   0.517  17.127 -2.4110 -0.0771  0.3670
    3MPD1     C14324   3.117   4.433  17.145 -0.0319 -0.5444 -0.1095
    3MPD1    C114325   3.180   4.494  17.254  0.0641  0.0845 -0.0432
    3MPD1    C214326   3.171   4.633  17.278 -0.1312 -0.5441  0.2950
    3MPD1    C314327   3.128   4.716  17.177  0.0811 -0.2134  0.0912
    3MPD1    C414328   3.084   4.657  17.062 -0.1653  0.0903 -0.6507
    3MPD1    C514329   3.080   4.519  17.047  0.9196 -0.7813  0.7995
    3MPD1     H14330   3.207   4.682  17.368 -1.1317 -0.6846  0.7765
    3MPD1    H114331   3.050   4.720  16.980 -1.8274 -0.2147 -0.1941
    3MPD1    H214332   3.128   4.327  17.125 -1.8254 -0.9816  1.2174
    3MPD1    H314333   3.051   4.471  16.954 -0.4851  0.0582  0.8013
    3MPD1     N14334   3.142   0.113  17.200 -0.1825  0.2711  0.1507
    3MPD1    H514335   3.180   0.142  17.290 -1.8520  2.2871  0.1957
    3MPD1    N114336   3.215   4.408  17.366  0.7208 -0.0067 -0.0245
    3MPD1    H614337   3.287   4.447  17.426  0.2262  2.4198 -0.9937
    3MPD1    H714338   3.250   4.320  17.329  0.4095  0.4340 -1.3725
    1TMC1    C114339   2.468   4.403  12.996  0.1476  0.2212  1.0865
    1TMC1    C214340   2.506   4.531  12.991  0.2006  0.2902  0.1241
    1TMC1    C314341   2.402   4.619  12.999 -0.0641 -0.1380  0.7630
    1TMC1    C414342   2.341   4.356  13.025  0.0439  0.3918  0.2038
    1TMC1    C514343   2.241   4.449  13.027  0.3127  0.0700  0.3536
    1TMC1    C614344   2.269   4.585  13.017 -0.6351  0.1266  0.5292
    1TMC1     C14345   2.576   4.308  13.024  0.3395 -0.6077 -0.4611
    1TMC1     O14346   2.549   4.189  13.002  0.1859  0.0636  0.6740
    1TMC1     H14347   2.612   4.555  12.983  0.0845  0.0079 -2.0931
    1TMC1    H114348   2.321   4.249  13.030  1.1645  0.1596 -0.3605
    1TMC1    H214349   2.190   4.659  13.021  0.8971  1.6840  1.4687
    1TMC1    C714350   2.102   4.404  13.015 -0.1982 -0.1901 -0.5395
    1TMC1    C814351   2.430   0.022  12.991 -0.2830 -0.0170 -0.5673
    1TMC1    O114352   2.026   4.464  12.943 -0.2388  0.0334 -0.2579
    1TMC1    O214353   2.542   0.067  13.010  0.3494  0.4538 -0.4592
    1TMC1    O314354   2.084   4.271  13.043 -0.2425  0.3034 -0.5679
    1TMC1    H314355   2.142   4.241  13.116 -1.3895  1.2517  0.7220
    1TMC1    O514356   2.340   0.071  12.902 -0.2054 -0.2874  0.5217
    1TMC1    H514357   2.291   4.734  12.864  0.7567  0.4036 -2.1038
    2MPD2     C14358   2.799   4.143  13.132  0.3322  0.2578  0.1572
    2MPD2    C114359   2.765   4.276  13.172 -0.3581  0.3134 -0.1553
    2MPD2    C214360   2.845   4.331  13.270 -0.4872  0.0516  1.3355
    2MPD2    C314361   2.954   4.274  13.329  0.8796 -0.2798  0.2338
    2MPD2    C414362   2.972   4.136  13.306  0.0238  0.1743  0.6974
    2MPD2    C514363   2.894   4.072  13.206  0.5059  0.3635  0.5884
    2MPD2     H14364   2.838   4.437  13.290 -3.0948  0.5236 -2.0798
    2MPD2    H114365   3.054   4.078  13.346 -0.4137 -2.6030 -2.4007
    2MPD2    H214366   2.752   4.092  13.049  1.8620 -0.3827 -0.3111
    2MPD2    H314367   2.905   3.965  13.196 -2.2291  0.1982 -0.7500
    2MPD2     N14368   3.028   4.349  13.419  0.2726  0.0714 -0.4139
    2MPD2    H514369   3.003   4.447  13.409 -2.5027 -0.6766 -0.8074
    2MPD2    N114370   2.672   4.361  13.107  0.0664  0.1421  0.3173
    2MPD2    H714371   2.670   4.460  13.129 -0.9178 -0.2828  2.0910
    3TCq1    O114372   3.264   0.137  13.556 -0.0468  0.5325 -0.0364
    3TCq1    C114373   3.151   0.058  13.544 -0.3613 -0.0056 -0.5730
    3TCq1    O214374   3.075   0.067  13.454 -0.5269  0.1454 -0.4258
    3TCq1    C214375   3.189   4.670  13.603 -0.2824 -0.9629  0.2828
    3TCq1    C314376   3.238   4.653  13.730 -0.1272 -0.3457  0.1322
    3TCq1    C414377   3.262   4.523  13.777 -0.3361  0.3139 -0.3037
    3TCq1    C514378   3.221   4.416  13.704  0.1315  0.7354 -0.1912
    3TCq1    C614379   3.176   4.428  13.578 -0.1110  0.3200  0.3457
    3TCq1    C714380   3.158   4.557  13.528  0.4689  0.1409  0.1335
    3TCq1    C814381   3.126   4.310  13.500 -0.6254  0.1293  0.5267
    3TCq1    O414382   3.159   4.201  13.544  0.3809  0.5284  0.1628
    3TCq1    C914383   3.339   4.510  13.897  0.4345  0.3441 -0.7011
    3TCq1    O514384   3.356   4.395  13.942 -0.4520 -0.6130 -0.8651
    3TCq1    O614385   3.355   4.613  13.973 -0.3902  0.1929 -0.3362
    3TCq1    H114386   3.338   0.101  13.608  0.4568 -0.8861 -1.7359
    3TCq1    H214387   3.258   0.002  13.789 -1.4589  1.9802 -2.8617
    3TCq1    H314388   3.238   4.314  13.736  0.6225  0.6695 -0.6657
    3TCq1    H414389   3.131   4.562  13.422 -1.0138 -1.8873  0.4114
    1MPD2     C14390   1.727   0.783  15.066 -0.0438 -0.9997 -0.1135
    1MPD2    C114391   1.691   0.799  14.930  0.1497  0.5162  0.2161
    1MPD2    C214392   1.775   0.752  14.833  0.4297 -0.1876 -0.0382
    1MPD2    C314393   1.885   0.668  14.865 -0.3872  0.4288  0.0090
    1MPD2    C414394   1.913   0.653  15.002 -0.3699 -0.0188 -0.0604
    1MPD2    C514395   1.832   0.710  15.099 -0.1432  0.3748 -0.2892
    1MPD2     H14396   1.764   0.772  14.727  0.7840 -1.5055 -0.3286
    1MPD2    H114397   1.993   0.583  15.025  1.7094  1.8871 -1.4228
    1MPD2    H214398   1.667   0.818  15.149  0.9069 -0.8290  0.4984
    1MPD2    H314399   1.855   0.697  15.204 -2.6101  0.0809  0.2325
    1MPD2     N14400   1.968   0.607  14.759  0.0495 -0.1546 -0.1893
    1MPD2    H514401   2.044   0.548  14.789 -0.5567  0.0645  1.7509
    1MPD2    N114402   1.577   0.877  14.900 -0.6555  0.3547 -0.2836
    1MPD2    H714403   1.513   0.896  14.976 -1.0922 -0.4091 -0.4564
    2TMC3    C114404   1.386   0.927  14.766 -0.3778  0.1729  0.4211
    2TMC3    C214405   1.316   0.816  14.793  0.2932 -0.4386  0.1490
    2TMC3    C314406   1.215   0.788  14.711  0.7097 -0.3523 -0.6459
    2TMC3    C414407   1.357   1.012  14.662 -0.3443  0.2705 -0.1225
    2TMC3    C514408   1.250   0.985  14.588 -0.0015 -0.6609  0.1594
    2TMC3    C614409   1.170   0.878  14.615  0.0497  0.3958 -0.0073
    2TMC3     C14410   1.524   0.901  14.773 -0.9253 -0.2374 -0.1685
    2TMC3     O14411   1.580   0.891  14.666 -0.1889 -0.2170  0.1979
    2TMC3     H14412   1.346   0.738  14.863  3.2024  0.6351  0.0951
    2TMC3    H114413   1.431   1.085  14.633 -1.0460  0.4652 -1.4707
    2TMC3    H214414   1.099   0.841  14.541  1.6084 -0.6039 -1.0037
    2TMC3    C714415   1.261   1.014  14.451  0.5163  0.2197 -0.0128
    2TMC3    C814416   1.209   0.655  14.648 -0.2455  0.3406 -0.1744
    2TMC3    O114417   1.251   0.919  14.371  0.4751  0.3863 -0.2069
    2TMC3    O214418   1.109   0.615  14.586  0.6877 -0.0438  0.1338
    3TCq1    O114419   1.578   1.958  13.772 -0.0576 -0.6612 -0.4103
    3TCq1    C114420   1.546   2.035  13.879 -0.0825 -0.1120 -0.8763
    3TCq1    O214421   1.574   2.157  13.892  0.2433 -0.3016 -0.4006
    3TCq1    C214422   1.534   1.936  13.990  0.3964  0.3818  0.1827
    3TCq1    C314423   1.589   1.973  14.111  0.6701 -0.2135 -0.3172
    3TCq1    C414424   1.616   1.872  14.198  0.5017 -0.3802  0.1499
    3TCq1    C514425   1.577   1.747  14.177 -0.2459 -0.1033 -0.0104
    3TCq1    C614426   1.515   1.713  14.063 -0.0524  0.3033 -0.3944
    3TCq1    C714427   1.501   1.808  13.965 -0.2382 -0.3660 -0.0653
    3TCq1    C814428   1.433   1.592  14.048 -0.0070 -0.0093 -0.2432
    3TCq1    O414429   1.369   1.583  13.945 -0.3885 -0.2511 -0.1105
    3TCq1    C914430   1.675   1.904  14.329 -0.1161 -0.2615 -0.2271
    3TCq1    O514431   1.759   1.819  14.382 -0.0727  0.6662 -0.2845
    3TCq1    O614432   1.656   2.017  14.375 -1.0037  0.0421  0.1991
    3TCq1    H114433   1.586   1.861  13.778  1.2987 -0.4810  0.7542
    3TCq1    H214434   1.613   2.075  14.137 -0.2403  0.0196 -0.3857
    3TCq1    H314435   1.602   1.679  14.258  0.6023  1.0531  0.6949
    3TCq1    H414436   1.448   1.782  13.874  0.7726 -3.7138  0.3201
    4MPD2     C14437   1.310   1.333  14.064  0.9334 -0.2601  0.5529
    4MPD2    C114438   1.366   1.398  14.168  0.1851  0.8843 -0.8876
    4MPD2    C214439   1.360   1.330  14.286  0.2264 -0.0078  0.2018
    4MPD2    C314440   1.305   1.201  14.300 -0.1572  0.8376 -0.4861
    4MPD2    C414441   1.262   1.137  14.193 -0.0376 -0.8595  0.2441
    4MPD2    C514442   1.262   1.206  14.074 -0.1658  0.4990 -0.2915
    4MPD2     H14443   1.401   1.378  14.374  1.8023  0.6756 -0.9042
    4MPD2    H114444   1.227   1.034  14.193  1.8509 -1.5089 -1.7969
    4MPD2    H214445   1.304   1.363  13.960 -0.5251  2.0798  1.3219
    4MPD2    H314446   1.222   1.149  13.991  1.0926 -2.6399  1.2505
    4MPD2     N14447   1.302   1.144  14.434  0.1637 -0.0372 -0.1134
    4MPD2    H514448   1.328   1.194  14.518  1.0193  0.0500 -0.4240
    4MPD2    N114449   1.434   1.515  14.161  0.3580  0.0652  0.4536
    4MPD2    H714450   1.477   1.553  14.245  0.8580 -0.8467  0.6108
    5TMC2    C114451   1.941   0.329  14.439 -0.3866 -0.4830 -0.4878
    5TMC2    C214452   1.996   0.372  14.323  0.9976 -0.2047  0.9799
    5TMC2    C314453   2.053   0.494  14.328  0.5518  0.1045  0.0053
    5TMC2    C414454   1.955   0.394  14.560 -0.4292  0.0136 -0.5396
    5TMC2    C514455   2.021   0.511  14.557 -0.4297 -0.3726 -0.8963
    5TMC2    C614456   2.061   0.569  14.441  0.7454 -0.4323  0.1442
    5TMC2     C14457   1.803   0.293  14.418  0.2923  0.0545 -0.3340
    5TMC2     O14458   1.770   0.206  14.338  0.7459 -0.4660  0.2323
    5TMC2     H14459   1.970   0.322  14.231 -0.1350  1.2967  0.4816
    5TMC2    H114460   1.905   0.353  14.647  0.9294 -0.3202  0.0865
    5TMC2    H214461   2.117   0.662  14.448 -0.5439  0.1442  2.6439
    5TMC2    C714462   1.945   0.614  14.626  0.3427 -0.0843  0.2855
    5TMC2    C814463   2.096   0.538  14.201  0.4052 -0.3743 -0.5706
    5TMC2    O114464   1.848   0.653  14.566 -0.7471 -0.8965  0.1322
    5TMC2    O214465   2.080   0.467  14.101  0.4028  0.1507  0.3448
    5TMC2    O514466   2.068   0.666  14.202 -0.1347 -0.2704  0.2739
    5TMC2    H514467   2.066   0.716  14.286  0.2991  0.5644 -0.2112
    6MPD2     C14468   1.304   0.429  14.480 -0.1609  0.0093 -0.8061
    6MPD2    C114469   1.391   0.518  14.552 -0.9200 -0.1555 -0.0314
    6MPD2    C214470   1.529   0.505  14.549 -0.6221 -0.6864  0.3652
    6MPD2    C314471   1.582   0.400  14.478 -0.7266  0.8455 -0.0243
    6MPD2    C414472   1.500   0.310  14.418 -0.0567  0.1647 -0.3595
    6MPD2    C514473   1.363   0.327  14.415 -0.0101 -0.4804  0.1392
    6MPD2     H14474   1.604   0.571  14.590 -2.3568  1.7907 -0.4649
    6MPD2    H114475   1.541   0.222  14.371 -0.8133 -0.1162 -0.4788
    6MPD2    H214476   1.196   0.435  14.484  0.0203  1.9667  1.2836
    6MPD2    H314477   1.298   0.253  14.370 -1.2507 -0.0459  1.2103
    6MPD2     N14478   1.720   0.389  14.480 -0.2281  0.2505 -0.1513
    6MPD2    H514479   1.773   0.460  14.530  0.2624 -0.1524 -0.0898
    6MPD2    N114480   1.342   0.626  14.629  0.2487 -0.0403  0.9790
    6MPD2    H714481   1.413   0.678  14.678 -0.9873  0.7019  1.9984
  945NH3     N114482   0.701   0.744  10.420  0.2213  0.3276 -0.2558
  945NH3     H214483   0.734   0.837  10.445  1.2962 -0.4971  1.4125
  945NH3     H314484   0.655   0.753  10.330  0.2492  0.9351 -0.2102
  945NH3     H414485   0.623   0.731  10.484  0.9464 -1.0643  0.3452
  946SOD     NA14486   3.351   1.976  16.672 -0.0907 -0.0233 -0.0204
  947SOD     NA14487   3.808   3.102  11.057 -0.1451  0.3735  0.1781
  948SOD     NA14488   1.123   4.493   8.004 -0.5320 -0.3932  0.2486
  949SOD     NA14489   2.104   2.956   7.216  0.0883  0.0666 -0.3821
  950SOD     NA14490   2.272   0.648  12.378  0.1301  0.2816 -0.1608
  951SOD     NA14491   4.441   3.397   6.842 -0.0245 -0.1816 -0.0324
  952SOD     NA14492   0.564   0.273   8.447  0.1295 -0.0603  0.3131
  953SOD     NA14493   1.605   4.223  14.750 -0.7841 -0.2309  0.0759
  954SOL     OW14494   2.738   4.480   3.410  0.1696 -0.0471 -0.2309
  954SOL    HW114495   2.808   4.416   3.414 -0.5623 -0.8421 -0.1335
  954SOL    HW214496   2.710   4.477   3.319 -2.4821 -0.3879  0.5843
  955SOL     OW14497   2.244   3.525   7.880 -0.3464  0.0268 -0.0064
  955SOL    HW114498   2.247   3.560   7.791  0.4279 -0.5745 -0.2126
  955SOL    HW214499   2.285   3.443   7.854  1.0981  0.7223  0.0887
  956SOL     OW14500   2.033   3.466  16.244  0.2718  0.3451  0.0607
  956SOL    HW114501   1.948   3.510  16.245  0.5079  0.8361 -3.2656
  956SOL    HW214502   2.031   3.443  16.337  2.3913  1.8342  0.4759
  957SOL     OW14503   3.024   1.740  17.229  0.1580  0.3587 -0.0200
  957SOL    HW114504   3.058   1.688  17.302 -1.2416 -0.5918 -0.0572
  957SOL    HW214505   2.948   1.691  17.199 -0.8191  1.5010  0.6059
  958SOL     OW14506   2.588   3.981  10.083 -0.2218 -0.1107 -0.1414
  958SOL    HW114507   2.575   4.071  10.053  0.3697  0.2454  0.6746
  958SOL    HW214508   2.563   3.921  10.013  3.9160 -1.6783 -0.3354
  959SOL     OW14509   1.692   1.158   5.491 -0.0751 -0.5684  0.0789
  959SOL    HW114510   1.618   1.151   5.430 -2.1502  1.0175  2.4032
  959SOL    HW214511   1.642   1.155   5.572 -0.9634  0.2747 -0.4354
  960SOL     OW14512   1.743   3.804   2.912 -0.2227  0.3656  0.3264
  960SOL    HW114513   1.772   3.718   2.941  0.4068 -0.0529 -1.5561
  960SOL    HW214514   1.828   3.847   2.914  0.6062 -1.4299  3.0347
  961SOL     OW14515   2.269   4.630   4.412 -1.1830  0.0415  0.1616
  961SOL    HW114516   2.357   4.665   4.427 -1.1344  0.5039 -1.1794
  961SOL    HW214517   2.283   4.542   4.445  2.8777  0.6901  0.1741
  962SOL     OW14518   1.829   4.145  16.611  0.1372  0.1087  0.3237
  962SOL    HW114519   1.781   4.171  16.532  1.7943 -0.6798 -0.9424
  962SOL    HW214520   1.788   4.058  16.616 -0.2859  0.4099  1.9582
  963SOL     OW14521   0.105   3.935  12.147  0.8626  0.1097 -0.2265
  963SOL    HW114522   0.104   3.933  12.243  1.1466 -0.4349 -0.2367
  963SOL    HW214523   0.031   3.990  12.121 -0.5295 -1.6834 -0.0891
  964SOL     OW14524   0.625   3.507  11.228 -0.7970 -0.3617 -0.2720
  964SOL    HW114525   0.544   3.490  11.275  0.0831  1.5698  1.9844
  964SOL    HW214526   0.599   3.501  11.136 -0.7912 -0.3509 -0.2743
  965SOL     OW14527   1.382   2.351   6.098  0.6385  0.4001  0.7031
  965SOL    HW114528   1.444   2.281   6.076 -1.8345 -1.9189  1.2125
  965SOL    HW214529   1.416   2.417   6.038  1.5790 -0.4545  0.2791
  966SOL     OW14530   0.640   2.321   4.884 -0.2025  0.2777  0.4120
  966SOL    HW114531   0.623   2.332   4.978 -0.4462 -0.4739  0.4553
  966SOL    HW214532   0.568   2.377   4.858 -0.4844 -0.2513  0.0568
  967SOL     OW14533   2.896   3.635  10.121 -0.6074  0.0387  0.1532
  967SOL    HW114534   2.984   3.673  10.130 -0.7880  0.2798  0.9175
  967SOL    HW214535   2.845   3.710  10.150  0.6005  1.1673 -0.6588
  968SOL     OW14536   1.284   4.223   3.517 -0.4992  0.0054  0.2182
  968SOL    HW114537   1.370   4.264   3.505 -1.0368  1.1640  0.3748
  968SOL    HW214538   1.235   4.297   3.551  2.1006  2.0250 -0.4592
  969SOL     OW14539   2.439   3.133   3.205  0.4438 -0.0950 -0.0871
  969SOL    HW114540   2.347   3.148   3.184  0.0057 -0.3582  1.6356
  969SOL    HW214541   2.483   3.149   3.121  1.8540  3.5213  1.3498
  970SOL     OW14542   3.610   0.065   6.551  0.2112 -0.2455  0.6318
  970SOL    HW114543   3.607   0.141   6.493 -0.8694 -1.9011 -1.4564
  970SOL    HW214544   3.700   0.079   6.582  0.2462  0.6694  0.1473
  971SOL     OW14545   0.877   3.546  11.237  0.4046 -0.0578 -0.0284
  971SOL    HW114546   0.887   3.475  11.299 -0.4035  1.0314  1.3356
  971SOL    HW214547   0.783   3.546  11.223  0.7426 -0.5386 -2.3654
  972SOL     OW14548   2.782   3.582   9.122  0.2969  0.1632 -0.0053
  972SOL    HW114549   2.718   3.578   9.192 -1.0061 -0.4128 -1.2295
  972SOL    HW214550   2.756   3.663   9.078 -2.7975 -0.5496  0.5578
  973SOL     OW14551   1.440   0.580   8.889 -0.2005 -0.2461  0.1198
  973SOL    HW114552   1.394   0.664   8.884  0.0405  0.0053  1.9665
  973SOL    HW214553   1.527   0.607   8.920  0.1398 -1.9426  0.6612
  974SOL     OW14554   0.435   3.137   3.012  0.1850 -0.2179  0.1393
  974SOL    HW114555   0.491   3.106   2.941 -2.6875 -2.2554 -1.1966
  974SOL    HW214556   0.354   3.089   2.995 -0.4985  1.9263 -2.5417
  975SOL     OW14557   4.500   4.080   2.986 -0.2655  0.1155 -0.1684
  975SOL    HW114558   4.439   4.019   3.026  0.6715  1.2661  2.9823
  975SOL    HW214559   4.580   4.044   3.024  0.3431  2.6164  0.8971
  976SOL     OW14560   1.268   0.602   3.958  0.0422 -0.3060  0.3897
  976SOL    HW114561   1.258   0.665   3.887 -0.4774 -0.4827  0.3079
  976SOL    HW214562   1.350   0.565   3.926 -0.5442  0.0941 -1.5848
  977SOL     OW14563   0.509   4.386   9.064  0.3980  0.0619  0.5223
  977SOL    HW114564   0.583   4.395   9.003  0.4777  0.1931  0.6371
  977SOL    HW214565   0.486   4.478   9.078  2.4027  0.7069 -0.3612
  978SOL     OW14566   2.638   2.533   7.345 -0.1489  0.2433  0.2283
  978SOL    HW114567   2.686   2.557   7.424  3.3626 -0.8484 -1.5628
  978SOL    HW214568   2.636   2.438   7.356 -1.6598  0.1467 -0.9092
  979SOL     OW14569   2.291   1.667   2.054 -0.1852 -0.0886  0.2286
  979SOL    HW114570   2.216   1.704   2.100  0.5658  0.2165  1.2096
  979SOL    HW214571   2.278   1.575   2.074 -0.9178  0.1632  0.9157
  980SOL     OW14572   1.295   4.427   3.881 -0.4322 -0.2168  0.2397
  980SOL    HW114573   1.357   4.364   3.917 -0.2750  0.7162  1.5828
  980SOL    HW214574   1.217   4.380   3.851 -1.7690  1.8676  0.4727
  981SOL     OW14575   2.113   1.707   8.609 -0.5863 -0.4476 -0.1458
  981SOL    HW114576   2.055   1.654   8.554 -1.1875 -0.6921  0.7152
  981SOL    HW214577   2.043   1.750   8.659  0.5011  0.2777  0.7583
  982SOL     OW14578   2.432   2.493   2.345  0.0543  0.2926 -0.5361
  982SOL    HW114579   2.476   2.555   2.286 -0.3429  1.0088 -0.0878
  982SOL    HW214580   2.476   2.526   2.424 -2.7536 -1.4403  1.7545
  983SOL     OW14581   3.285   0.938   4.823  0.1998  0.1061  0.1938
  983SOL    HW114582   3.317   0.973   4.906 -1.3841  0.0079  0.8480
  983SOL    HW214583   3.271   0.851   4.859 -1.9750  0.8751  1.2504
  984SOL     OW14584   2.541   2.907  12.710 -0.3048 -0.4117  0.5923
  984SOL    HW114585   2.520   2.984  12.764  0.5134  1.2525 -1.4688
  984SOL    HW214586   2.635   2.904  12.725 -0.0648 -1.0486 -1.1603
  985SOL     OW14587   1.344   0.823   8.864  0.8383 -0.0310 -0.1174
  985SOL    HW114588   1.261   0.862   8.890  0.0446 -0.9026 -1.3768
  985SOL    HW214589   1.351   0.894   8.800  2.0368  0.9577  1.0853
  986SOL     OW14590   1.109   1.817  12.494  0.1762  0.5015  0.7167
  986SOL    HW114591   1.085   1.860  12.412  0.1606  0.3679  0.6513
  986SOL    HW214592   1.194   1.779  12.472 -1.2647 -2.8074  0.7169
  987SOL     OW14593   4.023   2.440   8.086 -0.7774 -0.4689  0.1981
  987SOL    HW114594   3.944   2.445   8.140  0.8801 -0.8275  2.6966
  987SOL    HW214595   3.986   2.463   8.001 -3.0543  0.0672  1.3372
  988SOL     OW14596   3.815   0.367  10.087  0.6019 -0.0162  0.5221
  988SOL    HW114597   3.758   0.290  10.089 -2.7437  2.4145 -1.9403
  988SOL    HW214598   3.756   0.436  10.116  0.0517  0.5152 -1.8959
  989SOL     OW14599   4.008   0.408   2.196  0.7417  0.1083 -0.2011
  989SOL    HW114600   4.091   0.365   2.214  0.2649 -0.9440 -0.5185
  989SOL    HW214601   3.980   0.369   2.113  2.3821  1.5432 -1.4242
  990SOL     OW14602   3.513   4.412   3.245  0.2492 -0.4437 -0.1617
  990SOL    HW114603   3.609   4.404   3.247  0.1095 -2.5793 -1.9540
  990SOL    HW214604   3.503   4.500   3.282  1.3497 -0.2684 -0.2750
  991SOL     OW14605   4.323   0.329   0.069 -0.2925 -0.2900 -0.4483
  991SOL    HW114606   4.311   0.290   0.155  1.2061 -0.6747 -0.4064
  991SOL    HW214607   4.256   0.397   0.067 -0.6732 -0.7135 -2.6533
  992SOL     OW14608   1.061   0.619   9.226  0.2694 -0.5638 -0.2657
  992SOL    HW114609   1.049   0.524   9.232  2.3124 -0.7224  1.2913
  992SOL    HW214610   1.124   0.627   9.297 -0.5731  0.5147  0.3630
  993SOL     OW14611   3.194   4.696   2.304 -0.0532  0.2559 -0.9118
  993SOL    HW114612   3.113   4.647   2.285 -0.2950  0.0945  0.5299
  993SOL    HW214613   3.153   0.029   2.351 -2.6275 -1.1144 -1.0174
  994SOL     OW14614   2.818   0.952   9.032 -0.9504 -0.1612  0.4236
  994SOL    HW114615   2.773   1.020   8.983 -2.4007 -2.1860 -1.0455
  994SOL    HW214616   2.905   0.990   9.043 -1.0297  0.1089  0.0983
  995SOL     OW14617   3.692   1.567   6.247  0.2663  0.2854 -0.4421
  995SOL    HW114618   3.672   1.562   6.154  0.0711  0.4818 -0.4113
  995SOL    HW214619   3.729   1.480   6.263 -0.7904 -0.0491  0.2148
  996SOL     OW14620   4.426   3.226   5.481 -0.0607  0.4082  0.2254
  996SOL    HW114621   4.483   3.182   5.544 -0.6271 -1.8767 -0.8586
  996SOL    HW214622   4.482   3.263   5.413  0.2064 -0.9580 -0.2920
  997SOL     OW14623   3.498   1.509   2.929  0.5728  0.5966  0.1859
  997SOL    HW114624   3.465   1.598   2.923 -0.8133  0.1710  1.2469
  997SOL    HW214625   3.492   1.501   3.024 -0.0625 -2.6634 -0.1031
  998SOL     OW14626   4.080   2.532  16.512  0.4698 -0.5548  0.2460
  998SOL    HW114627   4.084   2.452  16.565 -0.6261 -0.2529  0.7837
  998SOL    HW214628   4.168   2.551  16.480  0.1813 -0.3090 -0.4164
  999SOL     OW14629   2.575   2.991  10.639  0.4529  0.0718 -0.1641
  999SOL    HW114630   2.581   2.926  10.569  0.5475  0.4843 -0.5414
  999SOL    HW214631   2.551   2.935  10.713  1.6277 -0.1237  0.0629
 1000SOL     OW14632   1.318   0.314   9.652  0.0222  0.2117 -0.2653
 1000SOL    HW114633   1.266   0.238   9.675  3.5573 -2.1616 -0.0731
 1000SOL    HW214634   1.261   0.384   9.683  2.3632  2.0994 -0.1977
 1001SOL     OW14635   4.578   1.664   7.670 -0.3089 -0.4985 -0.3210
 1001SOL    HW114636   4.503   1.615   7.636 -1.2492 -1.2111  2.7641
 1001SOL    HW214637   4.580   1.734   7.604 -2.2212 -0.2951 -0.1826
 1002SOL     OW14638   0.812   1.223   9.717  0.1549  0.0749 -0.5341
 1002SOL    HW114639   0.822   1.309   9.759 -4.1269 -0.3405  1.3574
 1002SOL    HW214640   0.720   1.223   9.692  0.0087  0.3594 -0.0028
 1003SOL     OW14641   4.643   1.946   7.042 -0.1364  0.3379  0.0675
 1003SOL    HW114642   4.564   1.892   7.039  0.5620 -0.8333  2.6270
 1003SOL    HW214643   4.670   1.947   6.951  0.6387 -1.5909  0.2677
 1004SOL     OW14644   1.724   2.801   8.548  0.6532  0.1091 -0.3745
 1004SOL    HW114645   1.819   2.811   8.561  0.6827 -0.4993 -0.1250
 1004SOL    HW214646   1.687   2.861   8.614  0.7675 -1.3964  1.0652
 1005SOL     OW14647   1.061   0.439   5.678  0.0689 -0.3895  0.2909
 1005SOL    HW114648   0.994   0.410   5.617  0.6289 -2.3811  0.6234
 1005SOL    HW214649   1.124   0.472   5.614  0.2686 -0.0619  0.6539
 1006SOL     OW14650   2.776   3.442   5.910  0.8202 -0.3541 -0.5818
 1006SOL    HW114651   2.867   3.435   5.881  1.3296  0.2320  0.8344
 1006SOL    HW214652   2.784   3.515   5.972 -0.9980 -1.2751  0.7379
 1007SOL     OW14653   1.682   4.228   1.571 -0.2707 -0.3338  0.3247
 1007SOL    HW114654   1.729   4.271   1.500  2.5363 -2.2830  0.9930
 1007SOL    HW214655   1.750   4.167   1.599  0.8512  1.2591  1.0457
 1008SOL     OW14656   2.821   2.496   4.525  0.3514 -0.1119 -0.5240
 1008SOL    HW114657   2.875   2.418   4.536 -1.2244 -0.9206  1.5732
 1008SOL    HW214658   2.846   2.549   4.600 -0.8914  1.0631 -0.9430
 1009SOL     OW14659   1.440   2.733   3.334  0.0266  0.4120  0.4650
 1009SOL    HW114660   1.461   2.805   3.274 -0.0602 -0.2522 -0.3715
 1009SOL    HW214661   1.427   2.658   3.276  1.8840  0.1896  0.3390
 1010SOL     OW14662   2.460   3.287   8.000  0.0957  0.2970 -0.3797
 1010SOL    HW114663   2.486   3.375   8.025 -1.6369  0.1847  1.8099
 1010SOL    HW214664   2.425   3.247   8.080 -0.9506  0.2238 -0.8780
 1011SOL     OW14665   3.089   2.669   8.291 -0.1263 -0.0101  0.4340
 1011SOL    HW114666   3.174   2.634   8.266 -1.0673 -2.3679  0.4465
 1011SOL    HW214667   3.034   2.590   8.290 -1.0618  0.6388  1.4590
 1012SOL     OW14668   0.926   2.058   0.542 -0.4174  0.5134 -0.0278
 1012SOL    HW114669   0.842   2.016   0.559 -0.7463  0.6796 -1.2154
 1012SOL    HW214670   0.974   1.985   0.504  0.2332  0.2706  1.2815
 1013SOL     OW14671   0.824   3.924   5.035  0.1739 -0.0308 -0.2414
 1013SOL    HW114672   0.792   4.009   5.064  0.2936 -0.0542 -0.0388
 1013SOL    HW214673   0.818   3.879   5.120  1.1237 -0.2795 -0.3099
 1014SOL     OW14674   0.399   2.671   7.624  0.2776 -0.1437  0.2697
 1014SOL    HW114675   0.424   2.706   7.539 -0.2449  0.7744  0.4838
 1014SOL    HW214676   0.443   2.734   7.682 -1.1694 -0.1435  1.3635
 1015SOL     OW14677   2.392   4.714  16.049 -0.2232 -0.2910  0.5195
 1015SOL    HW114678   2.325   4.646  16.040  0.5789 -0.9845 -0.2224
 1015SOL    HW214679   2.439   4.683  16.126 -1.1669 -1.1390  0.7580
 1016SOL     OW14680   4.470   0.438   4.359  0.4236  0.2733 -0.0787
 1016SOL    HW114681   4.534   0.503   4.328  1.1256 -0.4221 -0.0798
 1016SOL    HW214682   4.392   0.470   4.312 -0.8025 -1.1885  0.9831
 1017SOL     OW14683   0.051   0.074   2.449  0.5860 -0.3317  0.1848
 1017SOL    HW114684   0.099   0.008   2.499 -0.5477 -0.5670  0.9710
 1017SOL    HW214685   0.114   0.145   2.457 -0.0692  0.0911  1.5203
 1018SOL     OW14686   4.673   4.469   5.848 -0.2081 -0.2007  1.2052
 1018SOL    HW114687   4.596   4.418   5.822 -0.7959  1.0308  0.5137
 1018SOL    HW214688   4.732   4.399   5.876 -0.5325 -0.9695 -0.0161
 1019SOL     OW14689   0.180   0.380   5.212  0.8384  0.4726 -0.1071
 1019SOL    HW114690   0.119   0.425   5.270  0.3682  0.0660 -0.2872
 1019SOL    HW214691   0.244   0.352   5.277  1.0816 -2.1159 -1.4779
 1020SOL     OW14692   0.856   0.784  14.690  0.4215 -0.1435  0.7213
 1020SOL    HW114693   0.882   0.790  14.598 -1.2962  0.1619  0.2604
 1020SOL    HW214694   0.829   0.693  14.686 -1.5524  0.4354  0.9549
 1021SOL     OW14695   4.294   2.661  15.924  0.7965 -0.1774  0.1265
 1021SOL    HW114696   4.383   2.664  15.889  0.7606 -0.8083 -0.0234
 1021SOL    HW214697   4.264   2.570  15.920  0.6776 -0.1724  0.8864
 1022SOL     OW14698   4.154   4.176   8.269  0.5988 -0.4008 -0.3918
 1022SOL    HW114699   4.129   4.234   8.340 -1.4574 -1.5207 -0.2060
 1022SOL    HW214700   4.073   4.127   8.258  0.3641  0.4836 -2.4962
 1023SOL     OW14701   1.754   1.844  15.310 -0.4054  0.1262 -0.7082
 1023SOL    HW114702   1.694   1.788  15.261  1.5531 -2.2747 -0.3496
 1023SOL    HW214703   1.839   1.804  15.290  0.2318  1.7776 -1.3017
 1024SOL     OW14704   3.876   4.225  13.441 -0.1464  0.1903 -0.1529
 1024SOL    HW114705   3.802   4.166  13.457 -1.1528  1.7802  1.0896
 1024SOL    HW214706   3.854   4.237  13.349 -0.9246  0.1817  0.0238
 1025SOL     OW14707   0.757   4.186   4.575 -0.5791  0.2087 -0.2372
 1025SOL    HW114708   0.770   4.228   4.660  2.0277  0.0092 -0.5580
 1025SOL    HW214709   0.672   4.221   4.548 -0.8751 -1.1069 -1.0171
 1026SOL     OW14710   2.304   0.690   0.280  0.2668  0.2281 -0.5453
 1026SOL    HW114711   2.342   0.777   0.269  0.8181  0.0494 -0.0978
 1026SOL    HW214712   2.231   0.705   0.340  0.9937 -2.3400  0.9872
 1027SOL     OW14713   1.759   2.554   3.421  0.7934 -0.5668  0.0904
 1027SOL    HW114714   1.733   2.640   3.454  2.3581 -0.6299  1.4888
 1027SOL    HW214715   1.720   2.498   3.487 -0.7104  1.3980  0.8478
 1028SOL     OW14716   4.056   0.931  14.986  0.0026  0.0463 -0.1676
 1028SOL    HW114717   4.130   0.979  14.949  0.8290 -0.6928  0.5011
 1028SOL    HW214718   4.103   0.881  15.053 -0.7185  0.7534  0.8654
 1029SOL     OW14719   2.543   1.115   6.015  0.2870 -0.2389  0.2373
 1029SOL    HW114720   2.544   1.099   5.921  1.4355 -2.6421  0.6630
 1029SOL    HW214721   2.468   1.066   6.048 -0.6821 -0.3328 -2.0943
 1030SOL     OW14722   4.004   0.081  14.749 -0.3479  0.6345  0.2494
 1030SOL    HW114723   3.974   0.023  14.678 -0.1401 -2.8241  3.0148
 1030SOL    HW214724   3.925   0.134  14.762 -0.3594  0.3731  1.2118
 1031SOL     OW14725   3.402   3.914   8.044 -0.7874 -0.3418  0.5271
 1031SOL    HW114726   3.459   3.871   7.981 -1.7193 -2.5234  1.1927
 1031SOL    HW214727   3.468   3.970   8.085  1.6931 -1.0124 -2.5503
 1032SOL     OW14728   4.443   1.838   5.599 -0.4968  0.0663  0.6455
 1032SOL    HW114729   4.451   1.899   5.525  0.7147  2.8850  3.1060
 1032SOL    HW214730   4.348   1.823   5.597 -0.4861 -0.0009  0.6444
 1033SOL     OW14731   1.257   3.387  11.319  0.2581  0.2193 -0.1532
 1033SOL    HW114732   1.326   3.430  11.269 -0.6619 -0.1004 -1.6942
 1033SOL    HW214733   1.192   3.414  11.254 -1.1184 -1.4939  0.5127
 1034SOL     OW14734   2.254   4.213  16.718  0.6084  0.2066  0.7321
 1034SOL    HW114735   2.201   4.134  16.727  2.9319 -1.4092  0.1153
 1034SOL    HW214736   2.203   4.268  16.777  0.0356  1.1143 -0.6045
 1035SOL     OW14737   1.938   0.768   9.625  0.1010 -0.4180 -0.6885
 1035SOL    HW114738   2.033   0.774   9.635 -0.0542 -0.8324  1.0175
 1035SOL    HW214739   1.900   0.796   9.708  0.4444 -0.1179 -0.6287
 1036SOL     OW14740   1.928   2.233   0.066 -0.2433 -0.4695 -0.3667
 1036SOL    HW114741   1.948   2.319   0.030  0.6815 -0.8206 -0.6966
 1036SOL    HW214742   2.006   2.208   0.115 -0.4336 -1.4702 -0.5836
 1037SOL     OW14743   0.824   3.804  10.557  0.2259  0.2325  0.6214
 1037SOL    HW114744   0.737   3.822  10.521 -0.6461 -0.8239  2.1571
 1037SOL    HW214745   0.844   3.890  10.594  1.8541 -0.3327  1.0529
 1038SOL     OW14746   1.903   2.135   0.423  0.2062 -0.0658 -0.0728
 1038SOL    HW114747   1.833   2.200   0.428 -0.6397 -0.9482 -0.3615
 1038SOL    HW214748   1.971   2.172   0.367  0.3701 -0.4356 -0.1172
 1039SOL     OW14749   0.246   1.494   2.836  0.4538  0.0406  0.1947
 1039SOL    HW114750   0.195   1.525   2.910 -0.9644 -1.4959 -0.1525
 1039SOL    HW214751   0.334   1.494   2.874 -0.6215  1.4377  2.6285
 1040SOL     OW14752   1.848   3.428   0.003  0.9967  0.4713 -0.5930
 1040SOL    HW114753   1.938   3.447   0.028  1.3880 -1.2470 -0.6928
 1040SOL    HW214754   1.839   3.334   0.017  0.5769  0.7309  0.8823
 1041SOL     OW14755   4.005   3.684   5.591  0.1754 -0.1195  0.2048
 1041SOL    HW114756   3.922   3.730   5.579  0.5779  0.9421  1.4427
 1041SOL    HW214757   4.036   3.707   5.678  0.9710  1.0462 -0.3772
 1042SOL     OW14758   3.940   3.098   7.042  0.1407  0.0746  0.2998
 1042SOL    HW114759   3.869   3.127   7.100 -0.0739  0.8310 -0.3344
 1042SOL    HW214760   4.014   3.141   7.084  0.8154 -1.5110  0.6899
 1043SOL     OW14761   4.393   3.221  14.361  0.2131 -0.2683 -0.1144
 1043SOL    HW114762   4.468   3.269  14.394  0.0924  0.5654 -1.0366
 1043SOL    HW214763   4.356   3.286  14.301 -0.1458  0.8377  1.3151
 1044SOL     OW14764   1.629   2.547   3.883 -0.4875  0.0531 -0.0753
 1044SOL    HW114765   1.630   2.642   3.869 -1.4440  0.0522 -0.1481
 1044SOL    HW214766   1.713   2.517   3.848 -0.7897 -1.4613  0.4775
 1045SOL     OW14767   4.403   4.147   3.478  0.5861 -0.1345 -0.1565
 1045SOL    HW114768   4.465   4.077   3.457 -1.0172 -1.4938 -0.3218
 1045SOL    HW214769   4.404   4.206   3.403 -0.7735  0.7656  0.5322
 1046SOL     OW14770   1.730   4.227   4.216  0.0671  0.5624  0.0483
 1046SOL    HW114771   1.727   4.282   4.138  0.4539 -0.1685 -0.4849
 1046SOL    HW214772   1.640   4.231   4.247  0.9768  1.6144  2.5986
 1047SOL     OW14773   0.193   3.965   2.823  0.1503  0.1858  0.1378
 1047SOL    HW114774   0.202   4.052   2.861 -1.5556 -0.5491  2.2100
 1047SOL    HW214775   0.204   4.001   2.735 -1.4396 -1.3656 -0.7099
 1048SOL     OW14776   1.667   3.811   3.468  0.0955  0.3193  0.3077
 1048SOL    HW114777   1.626   3.798   3.383 -0.1593  0.1146  0.4607
 1048SOL    HW214778   1.663   3.728   3.516  1.3242 -0.0689 -0.2711
 1049SOL     OW14779   0.744   1.776   9.040  0.1439 -0.0422 -0.1815
 1049SOL    HW114780   0.744   1.856   8.988 -2.2171 -0.3351 -0.6302
 1049SOL    HW214781   0.744   1.812   9.129  1.1023 -0.6706  0.0727
 1050SOL     OW14782   1.982   3.774  11.507 -0.2071 -0.4827  0.2229
 1050SOL    HW114783   1.988   3.684  11.540  1.1556  1.0870  4.2592
 1050SOL    HW214784   2.061   3.813  11.544 -0.3709 -0.7880  0.9050
 1051SOL     OW14785   4.304   2.901  11.187  0.0501  0.5007  0.6404
 1051SOL    HW114786   4.368   2.971  11.202  0.7594 -0.5647  2.6112
 1051SOL    HW214787   4.243   2.940  11.250  1.2506  1.5508  1.1679
 1052SOL     OW14788   0.553   0.087   6.973  0.8427  0.1614  0.3153
 1052SOL    HW114789   0.496   0.135   6.912  1.6023 -0.0305 -0.5416
 1052SOL    HW214790   0.623   0.055   6.916  0.5148  1.0490 -0.5998
 1053SOL     OW14791   3.219   2.604   4.414  0.1053  0.1084 -0.1284
 1053SOL    HW114792   3.276   2.632   4.342  0.0721  0.5433  0.0152
 1053SOL    HW214793   3.184   2.687   4.447 -1.8117  0.8365 -3.9532
 1054SOL     OW14794   3.669   1.426  15.674 -0.2702  0.1475 -0.3689
 1054SOL    HW114795   3.606   1.450  15.607 -0.0142 -1.3358 -1.1351
 1054SOL    HW214796   3.663   1.485  15.750 -0.0189  1.5008 -1.3844
 1055SOL     OW14797   1.945   3.453   8.495 -0.0066  0.6510 -0.3831
 1055SOL    HW114798   2.016   3.400   8.458 -0.3441 -1.0955  1.4463
 1055SOL    HW214799   1.872   3.391   8.502 -0.1319  0.6269 -1.8900
 1056SOL     OW14800   1.954   2.334   2.235  0.5360  0.3425 -0.2578
 1056SOL    HW114801   1.924   2.247   2.260  0.6597 -0.1156 -1.6642
 1056SOL    HW214802   2.035   2.333   2.287  0.8231  0.0159 -0.7047
 1057SOL     OW14803   0.639   1.300   5.275  0.1611  0.6322  0.7885
 1057SOL    HW114804   0.677   1.242   5.210 -2.1094 -0.0785  0.0917
 1057SOL    HW214805   0.569   1.337   5.221 -1.1064  0.8187  2.5344
 1058SOL     OW14806   2.033   4.296  14.679 -0.3012  0.2034 -0.0868
 1058SOL    HW114807   2.041   4.300  14.774  0.7220 -1.0037 -0.1212
 1058SOL    HW214808   2.125   4.292  14.651 -0.7276 -2.0881 -1.1734
 1059SOL     OW14809   0.814   1.031   1.283 -0.3056  0.8243 -0.0343
 1059SOL    HW114810   0.827   1.090   1.209  1.5624  1.0612  0.4918
 1059SOL    HW214811   0.899   1.031   1.327  0.6715 -0.9988 -1.9525
 1060SOL     OW14812   0.773   1.342   1.597 -0.5348  0.2663  0.1612
 1060SOL    HW114813   0.767   1.280   1.670  0.7667  2.2111  1.9196
 1060SOL    HW214814   0.865   1.366   1.610 -0.2843 -0.2637 -0.6360
 1061SOL     OW14815   3.317   2.585  16.310  0.0857  0.1597 -0.0367
 1061SOL    HW114816   3.369   2.616  16.236  0.3979  0.3236  0.2460
 1061SOL    HW214817   3.272   2.510  16.271  1.0812 -1.3766  1.7359
 1062SOL     OW14818   0.547   3.564  13.476  0.3719  0.4173  0.1581
 1062SOL    HW114819   0.505   3.644  13.445 -2.7821 -0.5368  2.0356
 1062SOL    HW214820   0.474   3.537  13.532  1.0721 -0.4658  0.6371
 1063SOL     OW14821   0.634   1.429   4.001 -0.2521  0.5844  0.5729
 1063SOL    HW114822   0.727   1.424   4.024  0.1687 -0.1684 -1.2779
 1063SOL    HW214823   0.612   1.520   4.021 -0.9327  0.6334 -0.3904
 1064SOL     OW14824   3.983   4.276   6.475 -0.1280  0.3045  0.0564
 1064SOL    HW114825   3.962   4.185   6.496  0.8351  0.1755  0.4534
 1064SOL    HW214826   4.044   4.270   6.402  2.3446  1.7027  1.9957
 1065SOL     OW14827   1.709   0.077  12.482 -0.1304  0.0327  0.5355
 1065SOL    HW114828   1.651   0.151  12.503  0.5231  0.8438 -0.5136
 1065SOL    HW214829   1.672   0.027  12.555 -2.2883  0.6159 -0.1297
 1066SOL     OW14830   4.010   1.416   0.294  0.5047 -0.1814 -0.4104
 1066SOL    HW114831   4.068   1.392   0.366  3.1753 -0.0572 -2.5425
 1066SOL    HW214832   3.922   1.393   0.325  0.3384  0.1199 -0.6607
 1067SOL     OW14833   2.204   3.511   8.181 -0.0420  0.1423 -0.0370
 1067SOL    HW114834   2.154   3.581   8.138  0.6947  0.3456 -0.5642
 1067SOL    HW214835   2.285   3.558   8.160 -0.4594  0.8010 -0.1970
 1068SOL     OW14836   0.362   0.994   4.905 -0.2505 -0.0244 -0.5448
 1068SOL    HW114837   0.342   0.908   4.942  1.4661  0.5640  1.7521
 1068SOL    HW214838   0.391   0.954   4.823 -0.8056 -1.4553 -0.0466
 1069SOL     OW14839   2.204   0.889   9.658  0.2314  0.2794  0.3036
 1069SOL    HW114840   2.296   0.864   9.661 -0.2223 -1.6234 -1.6835
 1069SOL    HW214841   2.212   0.982   9.639 -0.6063  0.2126 -0.3425
 1070SOL     OW14842   1.213   3.634   2.594  0.5474 -0.0999  0.1163
 1070SOL    HW114843   1.189   3.707   2.536  0.8763 -0.2143 -0.1686
 1070SOL    HW214844   1.139   3.575   2.579  2.9066 -2.9866 -0.1756
 1071SOL     OW14845   3.084   2.667  14.497 -0.1677  0.1143 -0.0646
 1071SOL    HW114846   3.066   2.619  14.417  1.0383  0.4983 -0.5780
 1071SOL    HW214847   3.112   2.740  14.441  3.4692 -1.5392 -0.4604
 1072SOL     OW14848   1.483   3.029  15.781  0.5079  0.0389 -0.4995
 1072SOL    HW114849   1.454   3.089  15.712  2.6979  2.2731  0.5465
 1072SOL    HW214850   1.416   3.038  15.850  0.0458  1.2215 -1.1011
 1073SOL     OW14851   0.521   3.555  10.506  0.3449 -0.2047  0.2501
 1073SOL    HW114852   0.562   3.584  10.588  0.5087  3.7444 -1.2721
 1073SOL    HW214853   0.509   3.460  10.519  3.8287 -0.4992  1.2397
 1074SOL     OW14854   4.380   4.036   8.342 -0.4124  0.5013  0.1508
 1074SOL    HW114855   4.392   4.065   8.433 -0.0103  0.8455 -0.0093
 1074SOL    HW214856   4.306   4.085   8.307 -0.1020  0.4555 -0.5830
 1075SOL     OW14857   1.909   0.400   7.676  0.6039  0.0976 -0.0017
 1075SOL    HW114858   1.866   0.421   7.593  0.1829  1.2176  0.4999
 1075SOL    HW214859   1.930   0.484   7.716 -1.4153 -0.3922  2.0671
 1076SOL     OW14860   2.173   4.135   3.369 -0.3415 -0.4765 -0.1322
 1076SOL    HW114861   2.195   4.087   3.449  1.2295  1.9291  0.8810
 1076SOL    HW214862   2.253   4.120   3.319  0.5393 -0.9237  1.4237
 1077SOL     OW14863   2.377   0.992   6.698 -0.4408 -0.1664 -0.4640
 1077SOL    HW114864   2.360   1.072   6.648  0.4177  0.7889  0.7847
 1077SOL    HW214865   2.297   0.943   6.680 -0.4660 -0.0302 -0.7299
 1078SOL     OW14866   2.918   4.252  11.195  0.2592 -0.5943  0.1260
 1078SOL    HW114867   2.985   4.215  11.253  2.0370  0.9377 -0.9598
 1078SOL    HW214868   2.976   4.288  11.129  1.7588 -0.2902  1.6184
 1079SOL     OW14869   2.811   4.479  11.754 -0.3726 -0.5202 -0.5991
 1079SOL    HW114870   2.738   4.537  11.734 -0.0925 -0.1213 -0.4622
 1079SOL    HW214871   2.771   4.396  11.778  0.8467 -0.2264  2.4194
 1080SOL     OW14872   0.129   4.254   7.359  0.4696  0.0314  0.0931
 1080SOL    HW114873   0.191   4.183   7.338 -2.1150 -2.2634  0.3192
 1080SOL    HW214874   0.153   4.334   7.311 -0.9849  1.4081  1.6684
 1081SOL     OW14875   2.354   4.406   4.606 -0.4646 -0.0203 -0.2528
 1081SOL    HW114876   2.337   4.314   4.587  0.3080 -0.1577 -0.2675
 1081SOL    HW214877   2.447   4.392   4.591 -0.2433 -0.5914  1.6033
 1082SOL     OW14878   4.003   2.132   6.273  0.2915 -0.0399  0.3279
 1082SOL    HW114879   4.071   2.173   6.326  1.5989 -1.3553 -0.3345
 1082SOL    HW214880   3.952   2.208   6.244  0.4328  0.0780  0.3896
 1083SOL     OW14881   2.782   2.998   6.903 -0.2678 -0.9948 -0.1568
 1083SOL    HW114882   2.737   2.970   6.983  2.6992  1.3872  2.3457
 1083SOL    HW214883   2.710   2.983   6.841 -1.5344 -0.6561  1.2390
 1084SOL     OW14884   1.029   1.129   4.987  0.1590 -0.3400  0.1925
 1084SOL    HW114885   0.973   1.205   4.979  0.3993 -0.3506 -1.6107
 1084SOL    HW214886   0.964   1.061   4.969 -1.0949  0.7087  0.8576
 1085SOL     OW14887   2.921   1.911  15.799  0.2506  0.2624 -0.3385
 1085SOL    HW114888   2.904   1.946  15.711 -0.7836 -3.5626 -1.6970
 1085SOL    HW214889   2.891   1.983  15.854 -0.7174 -0.1366 -0.3420
 1086SOL     OW14890   1.411   3.685  17.229  0.1070  0.2204 -0.1169
 1086SOL    HW114891   1.495   3.720  17.200  0.1694 -0.1004 -0.3264
 1086SOL    HW214892   1.373   3.686  17.141  1.1258  0.5509 -0.5519
 1087SOL     OW14893   3.125   0.699   2.200  0.4312 -0.6312 -0.0834
 1087SOL    HW114894   3.159   0.786   2.222 -0.6097 -0.1462 -0.3960
 1087SOL    HW214895   3.068   0.722   2.127 -0.5354  0.9031  1.1328
 1088SOL     OW14896   2.304   2.664   8.516  0.1679 -0.2720  0.1241
 1088SOL    HW114897   2.236   2.731   8.528  0.1336 -0.1908 -0.4868
 1088SOL    HW214898   2.360   2.674   8.593  0.1840  0.0952  0.0687
 1089SOL     OW14899   2.442   0.232  15.963  0.0456  0.3545 -0.0807
 1089SOL    HW114900   2.407   0.150  15.997  3.1424 -2.1858 -3.0103
 1089SOL    HW214901   2.381   0.296  16.000 -2.5918 -1.4246 -1.3406
 1090SOL     OW14902   2.279   3.498  13.752 -0.4640  0.0558 -0.3148
 1090SOL    HW114903   2.204   3.556  13.763  1.7378  3.1054 -1.1550
 1090SOL    HW214904   2.317   3.527  13.668  0.4484 -0.0847  0.0438
 1091SOL     OW14905   3.407   4.458  10.742  0.5821  0.4880 -0.2696
 1091SOL    HW114906   3.319   4.486  10.714  1.2663  1.7428 -1.1567
 1091SOL    HW214907   3.434   4.411  10.663 -0.5654  0.9609 -0.9545
 1092SOL     OW14908   2.750   3.228   2.464 -0.9243  0.7246  0.1357
 1092SOL    HW114909   2.808   3.274   2.403  1.4384  2.5768  3.8240
 1092SOL    HW214910   2.812   3.195   2.529 -1.5142 -1.1494 -0.2356
 1093SOL     OW14911   1.879   0.585   8.206 -0.5806 -0.4545  0.7562
 1093SOL    HW114912   1.963   0.589   8.160  0.0780  2.6057  2.2180
 1093SOL    HW214913   1.817   0.601   8.135 -0.1838  1.6864  0.8765
 1094SOL     OW14914   2.941   2.853  16.888 -0.5664  0.2523 -0.0791
 1094SOL    HW114915   3.024   2.810  16.911 -0.0581  1.4246  0.2760
 1094SOL    HW214916   2.938   2.824  16.797  1.1263 -1.6514  0.4731
 1095SOL     OW14917   3.711   0.836   2.824  0.2126 -0.0436  0.0425
 1095SOL    HW114918   3.725   0.742   2.824 -1.2718 -0.2718  0.8461
 1095SOL    HW214919   3.803   0.861   2.828 -0.0410  0.7107  1.0950
 1096SOL     OW14920   2.678   2.443  10.391  0.7440 -0.3611  0.2441
 1096SOL    HW114921   2.679   2.504  10.465  3.5964  0.1657 -0.2281
 1096SOL    HW214922   2.600   2.474  10.344  0.2548 -0.4802  0.9824
 1097SOL     OW14923   3.684   1.489  17.220  0.0546  0.4206  0.3617
 1097SOL    HW114924   3.677   1.409  17.167 -2.5684 -0.2687  1.7087
 1097SOL    HW214925   3.760   1.467  17.274  0.9467 -3.3177 -2.3624
 1098SOL     OW14926   0.077   4.115  17.530  0.1735 -0.0748  0.4373
 1098SOL    HW114927   0.121   4.200  17.519 -2.9284  1.2185 -2.1038
 1098SOL    HW214928   0.115   4.086  17.613  0.6475  0.8714  0.5520
 1099SOL     OW14929   2.857   0.124   0.305  0.8291  0.5468 -0.1142
 1099SOL    HW114930   2.904   0.198   0.343  1.1078  0.4332 -0.2363
 1099SOL    HW214931   2.923   0.057   0.288  0.1348 -0.0925 -0.2924
 1100SOL     OW14932   0.157   2.633   4.429  0.1996 -0.0582  0.1027
 1100SOL    HW114933   0.152   2.568   4.499  3.8986 -2.3312 -1.7438
 1100SOL    HW214934   0.241   2.617   4.387 -0.4660 -0.4779 -1.0817
 1101SOL     OW14935   3.902   1.667   9.141  0.2042 -0.2639  0.4029
 1101SOL    HW114936   3.854   1.676   9.059 -1.1365 -1.1960  1.0891
 1101SOL    HW214937   3.977   1.611   9.123  0.3385  0.1978 -0.4565
 1102SOL     OW14938   4.034   3.403   8.539 -0.1196  0.1373  0.9069
 1102SOL    HW114939   3.972   3.444   8.599 -2.0818 -0.8892 -0.4021
 1102SOL    HW214940   4.027   3.462   8.464  0.5373 -1.5843 -0.5147
 1103SOL     OW14941   3.111   4.108   3.881  0.0121 -0.0029 -0.0733
 1103SOL    HW114942   3.184   4.122   3.821 -1.2953  0.7769 -1.4982
 1103SOL    HW214943   3.116   4.178   3.946  0.7602 -1.6268  1.6345
 1104SOL     OW14944   1.913   0.554   2.101 -0.1321 -0.5290  0.3618
 1104SOL    HW114945   1.865   0.637   2.094  0.8379  0.1090  1.3599
 1104SOL    HW214946   1.879   0.518   2.182 -1.2151  1.3724  0.7628
 1105SOL     OW14947   3.804   0.749   4.476 -0.4194 -0.3007  0.6067
 1105SOL    HW114948   3.790   0.843   4.486 -0.5082 -0.3666  1.1036
 1105SOL    HW214949   3.887   0.742   4.428  0.3100  0.7729  1.7031
 1106SOL     OW14950   4.690   4.548   3.964 -0.2525  0.4991 -0.7756
 1106SOL    HW114951   4.646   4.524   4.045  1.5148  1.3339  0.4225
 1106SOL    HW214952   4.720   4.459   3.941 -1.6481  0.2384 -1.5949
 1107SOL     OW14953   0.996   0.183   8.026  0.0608  0.0542  0.0098
 1107SOL    HW114954   1.048   0.263   8.031 -1.5632  1.0533  0.9871
 1107SOL    HW214955   1.054   0.109   8.012  1.4697  0.7509  2.1953
 1108SOL     OW14956   3.764   2.004   7.064 -0.4529 -0.5040  0.3182
 1108SOL    HW114957   3.710   2.082   7.080 -2.1053 -1.8428  1.2751
 1108SOL    HW214958   3.770   2.013   6.969 -1.9391  0.4026  0.2998
 1109SOL     OW14959   2.800   3.382   8.556 -0.3421 -0.1008 -0.3161
 1109SOL    HW114960   2.849   3.459   8.526  0.2146 -1.1127 -1.9614
 1109SOL    HW214961   2.772   3.410   8.644  0.7590 -1.3879  0.4279
 1110SOL     OW14962   0.331   3.947   0.904  0.3117 -0.3273  0.1606
 1110SOL    HW114963   0.340   3.853   0.888  1.0389 -0.6932  2.7789
 1110SOL    HW214964   0.413   3.989   0.876 -0.6537  2.6867  1.9117
 1111SOL     OW14965   4.036   1.970  12.935  0.7375 -0.2800  0.4664
 1111SOL    HW114966   3.991   2.051  12.962 -0.0332 -0.2398 -0.9046
 1111SOL    HW214967   3.968   1.902  12.939 -2.2598  2.7232  0.5125
 1112SOL     OW14968   2.989   3.567   1.902 -0.0225 -0.5359 -0.1538
 1112SOL    HW114969   2.965   3.555   1.810 -1.1792  2.1777 -0.2094
 1112SOL    HW214970   3.008   3.476   1.925  0.5228  0.2699  2.6434
 1113SOL     OW14971   0.428   3.226   0.778  0.6544  0.7284 -0.2204
 1113SOL    HW114972   0.509   3.183   0.753  0.1251  0.2401 -1.1129
 1113SOL    HW214973   0.432   3.292   0.708 -0.2566  0.1170 -0.8477
 1114SOL     OW14974   3.273   1.950  11.764 -0.2076 -0.7833  0.2074
 1114SOL    HW114975   3.311   1.868  11.795  1.2083  0.5207  1.9906
 1114SOL    HW214976   3.288   1.993  11.848  0.5713 -2.7427  1.0638
 1115SOL     OW14977   1.150   2.557   4.407 -0.3550  0.0174 -0.4758
 1115SOL    HW114978   1.213   2.586   4.341  0.7924 -0.4527  0.4149
 1115SOL    HW214979   1.124   2.478   4.360 -2.1612  0.4870 -0.2634
 1116SOL     OW14980   0.501   0.806   4.256 -0.1996  0.0163  0.5212
 1116SOL    HW114981   0.590   0.791   4.289 -0.8498  0.7430  2.6340
 1116SOL    HW214982   0.453   0.767   4.329  0.5844 -2.8326 -0.4683
 1117SOL     OW14983   0.682   2.564   3.487  0.1507  0.4457 -0.0654
 1117SOL    HW114984   0.682   2.594   3.395 -0.8455 -0.1924 -0.2653
 1117SOL    HW214985   0.597   2.598   3.514  0.9394  1.4716  1.1058
 1118SOL     OW14986   2.326   3.130   4.519  0.2970  0.2130  0.1687
 1118SOL    HW114987   2.275   3.088   4.450  0.9365 -1.2694  0.6023
 1118SOL    HW214988   2.407   3.145   4.471 -0.0629  1.2147 -0.1372
 1119SOL     OW14989   0.783   4.657   2.376  0.3268  0.2510 -0.3784
 1119SOL    HW114990   0.760   4.565   2.369 -0.8562  0.6189 -1.2629
 1119SOL    HW214991   0.709   4.694   2.329  2.2381  0.4126 -3.2587
 1120SOL     OW14992   0.496   3.465   0.942 -0.4926  0.5407 -0.3179
 1120SOL    HW114993   0.589   3.487   0.944  0.1169 -1.9503 -1.7126
 1120SOL    HW214994   0.488   3.385   0.890 -3.1239 -2.4139  4.5902
 1121SOL     OW14995   4.247   0.021   1.718 -0.4277  0.1254 -0.2296
 1121SOL    HW114996   4.194   0.099   1.701  1.9425  1.3946 -1.7325
 1121SOL    HW214997   4.256   4.723   1.630 -2.5142 -1.1669  0.0952
 1122SOL     OW14998   2.994   1.569   7.806  0.4199  0.1174 -0.2916
 1122SOL    HW114999   2.952   1.622   7.739  1.9304  0.0031 -1.3418
 1122SOL    HW215000   3.052   1.508   7.759  0.4700 -0.4172  0.4557
 1123SOL     OW15001   2.948   3.718   3.506  0.0132  0.5910  0.0734
 1123SOL    HW115002   2.969   3.794   3.561  1.9544  0.5924 -0.6990
 1123SOL    HW215003   2.973   3.738   3.416 -1.8785  0.7296 -0.4298
 1124SOL     OW15004   4.717   3.631  12.145 -0.3460 -0.1334  0.3206
 1124SOL    HW115005   4.629   3.654  12.115 -0.3361 -0.8485 -0.2545
 1124SOL    HW215006   0.032   3.704  12.116 -0.0329 -0.8204 -0.8110
 1125SOL     OW15007   2.154   2.282  13.064 -0.1271  0.1093 -0.0943
 1125SOL    HW115008   2.240   2.242  13.073 -0.5690 -0.8224 -0.0731
 1125SOL    HW215009   2.109   2.209  13.021 -1.6604  0.4274  0.9688
 1126SOL     OW15010   3.122   2.157   4.297  0.1212 -0.2308  0.2261
 1126SOL    HW115011   3.040   2.128   4.337  0.1098  0.4455  0.6892
 1126SOL    HW215012   3.109   2.250   4.313  0.8409 -0.2089  0.6922
 1127SOL     OW15013   1.635   0.455  14.182 -0.2983 -0.3307 -0.3239
 1127SOL    HW115014   1.632   0.431  14.274  0.5658  3.9165  0.7949
 1127SOL    HW215015   1.612   0.547  14.190 -0.1224 -0.3374  0.2157
 1128SOL     OW15016   1.785   0.653   7.060 -0.7468  0.6464 -0.4798
 1128SOL    HW115017   1.761   0.731   7.008 -1.4895 -0.1409 -1.3198
 1128SOL    HW215018   1.799   0.695   7.144 -0.7480 -0.4504  0.0654
 1129SOL     OW15019   1.227   2.883   3.436 -0.0094  0.4701  0.0385
 1129SOL    HW115020   1.253   2.832   3.512  0.2884 -0.4722 -0.6943
 1129SOL    HW215021   1.252   2.830   3.360  0.0312  1.9327 -0.9822
 1130SOL     OW15022   0.349   4.034   3.460 -0.4023 -0.8013 -0.3457
 1130SOL    HW115023   0.438   4.066   3.441 -1.6140  3.3579  0.9938
 1130SOL    HW215024   0.300   4.104   3.417 -0.6893 -0.3042  0.7998
 1131SOL     OW15025   0.454   3.404   0.580 -0.6414 -0.2619 -0.0689
 1131SOL    HW115026   0.476   3.496   0.565  0.7227 -0.8145 -1.5026
 1131SOL    HW215027   0.393   3.387   0.509 -0.9254  0.0439  0.1037
 1132SOL     OW15028   2.804   4.371   8.239 -0.2918  0.2774 -0.1727
 1132SOL    HW115029   2.789   4.464   8.225 -0.0353  0.3846  0.2673
 1132SOL    HW215030   2.875   4.381   8.303 -1.3170  0.3626  0.9465
 1133SOL     OW15031   4.601   4.056   8.213 -0.0681  0.0806  0.1342
 1133SOL    HW115032   4.665   3.991   8.241 -1.0319 -1.0865 -0.3485
 1133SOL    HW215033   4.528   4.038   8.273 -0.9349 -0.4903 -1.0701
 1134SOL     OW15034   1.921   3.628   3.293 -0.1723  0.0281 -0.5856
 1134SOL    HW115035   1.864   3.667   3.226 -1.2606 -2.0095 -0.8716
 1134SOL    HW215036   1.972   3.705   3.315  0.9271 -0.6940 -0.5993
 1135SOL     OW15037   3.557   1.195   8.028 -0.1968 -0.3702  0.1819
 1135SOL    HW115038   3.594   1.123   7.977 -1.1612 -0.9680  0.3182
 1135SOL    HW215039   3.616   1.267   8.005  0.3861 -1.0358 -0.4219
 1136SOL     OW15040   4.457   2.013   7.719  0.1312  0.8018 -0.5056
 1136SOL    HW115041   4.488   1.974   7.638 -0.2830  1.0629 -0.7925
 1136SOL    HW215042   4.506   2.095   7.721 -0.8715  1.4482 -1.8500
 1137SOL     OW15043   0.564   0.078  14.510 -0.6265 -0.3246  0.5990
 1137SOL    HW115044   0.655   0.050  14.503 -0.3482  1.3063 -2.1855
 1137SOL    HW215045   0.573   0.169  14.482 -0.5949 -1.1992 -2.2449
 1138SOL     OW15046   4.126   4.058   2.515 -0.2049  0.1975 -0.0467
 1138SOL    HW115047   4.098   4.083   2.603  1.1198  1.8767 -0.0990
 1138SOL    HW215048   4.067   4.116   2.467 -0.5257  0.7140  0.9661
 1139SOL     OW15049   1.894   4.247   1.027 -0.0193 -0.4811  0.2822
 1139SOL    HW115050   1.977   4.294   1.017 -1.1877  1.4611 -0.1893
 1139SOL    HW215051   1.904   4.236   1.121 -0.8582 -0.5265  0.3656
 1140SOL     OW15052   0.393   0.289   6.803 -0.1634 -0.3795  0.0040
 1140SOL    HW115053   0.333   0.364   6.805 -0.5554 -0.6904 -0.0648
 1140SOL    HW215054   0.378   0.259   6.714  2.1894 -1.6680  0.0281
 1141SOL     OW15055   0.445   1.154   3.013  0.5915 -0.2096  0.2019
 1141SOL    HW115056   0.359   1.116   2.999  0.8183 -0.8052  0.4196
 1141SOL    HW215057   0.429   1.246   2.992 -0.9735 -0.5191  0.0500
 1142SOL     OW15058   3.547   2.540   6.216  0.8706 -0.5098  0.0547
 1142SOL    HW115059   3.474   2.583   6.173  1.9901 -0.5548 -1.8624
 1142SOL    HW215060   3.511   2.496   6.293  0.7679 -2.1955 -0.9583
 1143SOL     OW15061   1.428   3.465   1.162  0.0505 -0.1479  0.4215
 1143SOL    HW115062   1.333   3.454   1.171  0.0489 -0.0550  0.5169
 1143SOL    HW215063   1.436   3.558   1.140  0.3727 -0.1076  0.7208
 1144SOL     OW15064   3.308   3.608  14.150  0.2347 -0.0575 -0.1524
 1144SOL    HW115065   3.280   3.694  14.182  1.6793  1.0948 -1.9820
 1144SOL    HW215066   3.311   3.566  14.236  0.8998 -1.1076 -0.6942
 1145SOL     OW15067   0.805   1.547  17.294  0.2133  0.7587 -0.5074
 1145SOL    HW115068   0.895   1.518  17.311 -0.7132 -1.5107  0.5475
 1145SOL    HW215069   0.756   1.470  17.324 -2.4201  2.2831 -0.9703
 1146SOL     OW15070   4.444   0.874   1.074 -0.6631 -0.3181 -0.5334
 1146SOL    HW115071   4.471   0.962   1.048  1.6303 -0.8539  0.0610
 1146SOL    HW215072   4.531   0.837   1.091 -0.0597  1.1693 -0.3916
 1147SOL     OW15073   0.743   2.363  16.736  0.1411  0.3129  0.1114
 1147SOL    HW115074   0.721   2.453  16.713 -1.7669  0.0353  0.8728
 1147SOL    HW215075   0.826   2.354  16.690 -0.3991  0.3054 -0.8545
 1148SOL     OW15076   0.169   4.045   4.840  0.1548  0.1819 -0.4538
 1148SOL    HW115077   0.197   4.064   4.750 -1.2516  1.6116 -0.5959
 1148SOL    HW215078   0.111   4.119   4.858  0.5846 -0.1074  2.1653
 1149SOL     OW15079   0.941   0.508   3.447  0.8544  0.4330 -0.0150
 1149SOL    HW115080   0.952   0.601   3.466  1.1738  1.0892 -3.5216
 1149SOL    HW215081   1.029   0.487   3.418  0.7175  1.0422 -0.8628
 1150SOL     OW15082   1.992   1.477  10.792 -0.1111 -0.4717 -0.1597
 1150SOL    HW115083   2.004   1.439  10.705  3.0643  0.0125  0.0755
 1150SOL    HW215084   1.916   1.535  10.782  1.1177  1.0867 -0.4153
 1151SOL     OW15085   3.077   1.805   2.937 -0.0347 -0.0808  0.6520
 1151SOL    HW115086   3.131   1.813   2.858  0.9511 -0.1827  1.3142
 1151SOL    HW215087   3.023   1.730   2.912  2.5278 -0.7208 -3.0163
 1152SOL     OW15088   3.703   0.109  14.790  0.0047 -0.3179  0.3627
 1152SOL    HW115089   3.675   0.159  14.867 -0.3170  0.6844 -0.3954
 1152SOL    HW215090   3.625   0.067  14.752 -1.1729  1.9058  0.2839
 1153SOL     OW15091   2.640   1.375  13.385  0.2069 -0.4748 -0.1716
 1153SOL    HW115092   2.652   1.285  13.356 -0.6912 -1.0814  1.3123
 1153SOL    HW215093   2.591   1.371  13.468  2.8955 -1.2887  1.3706
 1154SOL     OW15094   2.280   0.757   8.353  0.4853 -0.2153  0.3541
 1154SOL    HW115095   2.208   0.815   8.377  0.8643 -0.5641  2.3808
 1154SOL    HW215096   2.335   0.773   8.431 -0.9713  0.8187  1.1634
 1155SOL     OW15097   0.714   2.668  14.532 -0.3235  0.1539 -0.3580
 1155SOL    HW115098   0.674   2.726  14.596 -0.2106  0.4453 -0.5516
 1155SOL    HW215099   0.734   2.602  14.598 -0.7644  2.7826  2.4171
 1156SOL     OW15100   1.770   0.373   1.953  0.1749 -0.1198 -0.3952
 1156SOL    HW115101   1.812   0.292   1.982 -1.4236 -0.7095  0.2963
 1156SOL    HW215102   1.824   0.438   1.998 -1.0426  0.6484 -0.0443
 1157SOL     OW15103   1.551   0.539   3.926  0.2375 -0.0582 -0.0010
 1157SOL    HW115104   1.572   0.452   3.960 -0.5949 -1.2365 -2.4834
 1157SOL    HW215105   1.624   0.555   3.866  0.8234 -0.8207  0.5100
 1158SOL     OW15106   0.906   1.214   2.436  0.1767  0.2900 -0.2079
 1158SOL    HW115107   0.939   1.277   2.372  0.5738  0.5495  0.2449
 1158SOL    HW215108   0.948   1.131   2.415 -0.7566 -0.3449  0.4512
 1159SOL     OW15109   3.899   0.869  11.947 -0.2590 -0.0989 -0.4655
 1159SOL    HW115110   3.937   0.791  11.986 -0.0229 -0.4645 -1.4256
 1159SOL    HW215111   3.975   0.923  11.927 -0.7064  0.6489 -0.1494
 1160SOL     OW15112   3.560   3.920   5.784 -0.7637  0.2310  1.1705
 1160SOL    HW115113   3.543   4.001   5.832  0.9972  1.6410 -0.6200
 1160SOL    HW215114   3.626   3.882   5.842 -1.3282  2.2673  3.1522
 1161SOL     OW15115   1.252   4.297   9.453  0.1545 -0.5463 -0.2428
 1161SOL    HW115116   1.218   4.385   9.469  0.2789 -0.4173 -0.7028
 1161SOL    HW215117   1.210   4.256   9.529  0.0016 -1.3758 -0.7841
 1162SOL     OW15118   4.429   4.110   4.491  0.4929  0.1421  0.5170
 1162SOL    HW115119   4.438   4.073   4.403  1.0990  1.8362 -0.1385
 1162SOL    HW215120   4.399   4.040   4.549  0.0598 -0.8081 -0.8663
 1163SOL     OW15121   2.039   3.298   7.579  0.4868  0.1042 -0.3715
 1163SOL    HW115122   2.066   3.208   7.598  1.6064 -0.1640 -3.1478
 1163SOL    HW215123   1.981   3.274   7.507 -0.3558 -0.2635  0.4311
 1164SOL     OW15124   3.649   2.512   8.758  0.5081  0.0503  0.4777
 1164SOL    HW115125   3.588   2.581   8.786  2.2842  0.9048  2.2281
 1164SOL    HW215126   3.620   2.433   8.803 -1.6975  1.5753  1.7357
 1165SOL     OW15127   3.219   4.649   3.013  0.2739  0.1112 -0.0869
 1165SOL    HW115128   3.206   4.636   2.919  1.0057  0.1598 -0.1968
 1165SOL    HW215129   3.185   4.738   3.021  0.0844 -0.1580  2.1206
 1166SOL     OW15130   3.453   3.565  16.423 -0.6344  0.4873  0.2039
 1166SOL    HW115131   3.468   3.541  16.514  0.4912  0.1522 -0.0712
 1166SOL    HW215132   3.480   3.488  16.374  0.2104  0.5652  0.5450
 1167SOL     OW15133   3.039   1.645   4.830  0.0256 -0.0654  0.3932
 1167SOL    HW115134   3.085   1.650   4.913 -1.3754  0.2390  1.1452
 1167SOL    HW215135   2.961   1.696   4.853  0.9164  1.9536 -1.1184
 1168SOL     OW15136   0.408   2.340   8.884 -0.4269 -0.5728  0.4203
 1168SOL    HW115137   0.448   2.275   8.942 -1.8821 -1.8634 -0.0443
 1168SOL    HW215138   0.455   2.315   8.805  0.4185  1.2030  0.3553
 1169SOL     OW15139   4.372   3.299   6.220 -0.4088  0.2516 -0.0418
 1169SOL    HW115140   4.399   3.211   6.194  0.3742  0.8352 -1.1985
 1169SOL    HW215141   4.285   3.309   6.181 -0.5232 -0.3270  0.0723
 1170SOL     OW15142   1.934   4.567  17.474 -0.0415 -0.4721  0.3255
 1170SOL    HW115143   2.001   4.508  17.508  0.3189  1.7151  3.4345
 1170SOL    HW215144   1.921   4.626  17.549 -1.1831 -0.4398  0.1023
 1171SOL     OW15145   3.944   3.016   4.015  0.0245  0.2050  0.7823
 1171SOL    HW115146   3.979   3.094   4.058  1.9508 -1.3989  2.1506
 1171SOL    HW215147   4.025   2.979   3.979 -0.3395 -2.1263  2.3709
 1172SOL     OW15148   2.552   2.060   9.217  0.6449  0.0610  0.1603
 1172SOL    HW115149   2.554   2.029   9.126 -0.9137 -0.7611  0.4149
 1172SOL    HW215150   2.563   2.152   9.191  0.7799 -0.1509 -0.5433
 1173SOL     OW15151   1.913   0.651  10.334 -0.2694 -0.5958 -0.7226
 1173SOL    HW115152   2.008   0.651  10.343 -0.0540 -2.1345 -2.8901
 1173SOL    HW215153   1.886   0.724  10.390  1.9929 -0.2213 -0.1307
 1174SOL     OW15154   0.182   3.110  11.920 -0.2898  0.0199  0.1518
 1174SOL    HW115155   0.146   3.043  11.978  1.1500  0.7623  1.9158
 1174SOL    HW215156   0.215   3.065  11.842 -2.0019 -0.2148 -0.4238
 1175SOL     OW15157   0.981   4.574   9.217  0.2437 -0.0979  0.3129
 1175SOL    HW115158   1.012   4.573   9.307  0.4272 -0.8932  0.2384
 1175SOL    HW215159   0.893   4.609   9.232 -0.2651 -1.7827  1.2144
 1176SOL     OW15160   2.548   4.453   2.884  0.2949  0.0180  0.6949
 1176SOL    HW115161   2.540   4.510   2.808  1.4587  0.8147  1.1690
 1176SOL    HW215162   2.552   4.365   2.847 -1.6984  1.5422 -3.0996
 1177SOL     OW15163   1.972   4.101   2.774  0.0450 -0.1288  0.0352
 1177SOL    HW115164   1.898   4.116   2.716 -0.0383  0.8201  0.3962
 1177SOL    HW215165   1.981   4.187   2.814 -0.6932 -0.8316  1.7035
 1178SOL     OW15166   4.701   4.460  17.246 -0.0814 -0.7091 -0.5682
 1178SOL    HW115167   4.719   4.527  17.180 -1.9751  1.0872  0.7668
 1178SOL    HW215168   0.052   4.434  17.264  0.7604  2.1740 -0.6700
 1179SOL     OW15169   1.404   1.172  12.280  0.8823 -0.0047 -0.0997
 1179SOL    HW115170   1.354   1.233  12.225  0.6385  0.2260  0.3776
 1179SOL    HW215171   1.494   1.189  12.253  1.4209 -2.5721  0.0640
 1180SOL     OW15172   2.860   2.315   7.640 -0.6507  0.2469 -0.7800
 1180SOL    HW115173   2.864   2.409   7.656  0.9905  0.2683 -1.2448
 1180SOL    HW215174   2.924   2.274   7.698 -0.5256  1.8773  0.2147
 1181SOL     OW15175   3.628   3.374   3.433  0.7748  0.0260  0.0560
 1181SOL    HW115176   3.554   3.312   3.435  2.9569 -2.6272 -1.8760
 1181SOL    HW215177   3.698   3.337   3.380 -0.6065 -1.1057 -0.9994
 1182SOL     OW15178   3.147   2.952  11.447  0.8499 -0.6804 -0.0789
 1182SOL    HW115179   3.089   3.025  11.425 -0.3108 -1.5876  0.0335
 1182SOL    HW215180   3.211   2.956  11.376  0.5454 -1.2842 -0.3794
 1183SOL     OW15181   2.463   1.533   0.054  0.4502 -0.4058 -0.8189
 1183SOL    HW115182   2.550   1.505   0.085  0.7370  0.2687 -1.0135
 1183SOL    HW215183   2.458   1.486  17.726  0.1001 -0.8777 -0.5290
 1184SOL     OW15184   4.316   2.859   8.915 -0.0613  0.0586  0.0972
 1184SOL    HW115185   4.280   2.878   8.827  0.5269  0.4537 -0.0591
 1184SOL    HW215186   4.249   2.814   8.965  0.8528  0.8817  2.0463
 1185SOL     OW15187   1.453   3.211   8.726  0.4524  0.0781 -0.3145
 1185SOL    HW115188   1.364   3.189   8.699  0.2318 -1.4535  1.5918
 1185SOL    HW215189   1.453   3.306   8.735 -2.0876  0.0969 -0.6623
 1186SOL     OW15190   2.917   4.027   9.402 -0.0504 -0.8420 -0.5497
 1186SOL    HW115191   2.832   4.011   9.360 -0.3710 -0.5955  0.0023
 1186SOL    HW215192   2.936   3.935   9.417  0.6288 -0.8088 -1.2110
 1187SOL     OW15193   0.636   3.948  16.521  0.4010 -0.8937  0.7348
 1187SOL    HW115194   0.607   4.011  16.587 -0.3335 -1.1143  0.6142
 1187SOL    HW215195   0.599   3.869  16.560  0.5396 -2.1041 -1.5615
 1188SOL     OW15196   2.097   0.660   6.158 -0.0149 -0.1282  0.3226
 1188SOL    HW115197   2.028   0.674   6.222  0.5524 -2.3980  1.4180
 1188SOL    HW215198   2.166   0.717   6.193  0.1071  0.0586 -0.2217
 1189SOL     OW15199   0.637   0.881  16.433 -0.1405 -0.0735  0.2072
 1189SOL    HW115200   0.694   0.959  16.427  0.0019 -0.2082 -0.1808
 1189SOL    HW215201   0.551   0.907  16.401  0.4589 -1.1815 -2.2853
 1190SOL     OW15202   0.708   3.576   4.276  0.0415 -0.5843 -0.6966
 1190SOL    HW115203   0.705   3.635   4.200  2.8002 -0.4702 -0.7150
 1190SOL    HW215204   0.655   3.502   4.246  0.2551 -1.1796  0.3957
 1191SOL     OW15205   1.131   2.117   9.283 -0.3941 -0.1747 -0.5716
 1191SOL    HW115206   1.216   2.104   9.325 -0.8816 -1.1652  0.1199
 1191SOL    HW215207   1.071   2.124   9.358  1.7493  2.7427  0.9019
 1192SOL     OW15208   1.464   2.186  13.593 -0.2177  0.0057  0.0714
 1192SOL    HW115209   1.520   2.137  13.653  0.1072  0.2672 -0.0190
 1192SOL    HW215210   1.396   2.118  13.591  1.7113 -1.9726  0.9335
 1193SOL     OW15211   0.031   0.064  12.588  0.1403  0.3688  0.3118
 1193SOL    HW115212   0.050   0.158  12.590 -0.1663  0.4670 -1.2818
 1193SOL    HW215213   4.714   0.057  12.664  0.9664 -0.4698  0.8468
 1194SOL     OW15214   3.921   3.968   0.959 -0.6054 -0.2867 -0.5132
 1194SOL    HW115215   3.945   3.877   0.940  3.2478  0.3189  1.3984
 1194SOL    HW215216   3.992   3.985   1.022  0.5334 -0.6040 -1.6981
 1195SOL     OW15217   2.435   2.937  11.959  0.0631  0.4447  0.1276
 1195SOL    HW115218   2.354   2.915  11.914 -1.3645  1.3215  2.2406
 1195SOL    HW215219   2.506   2.917  11.898  1.5911  2.8628  1.1060
 1196SOL     OW15220   3.382   0.259  13.140 -0.1468  0.1976  0.3474
 1196SOL    HW115221   3.382   0.307  13.222  0.9640  2.3330 -0.8860
 1196SOL    HW215222   3.459   0.209  13.165 -0.0130  0.2522  0.0525
 1197SOL     OW15223   4.540   2.731   4.697  0.0056 -0.4685 -0.3818
 1197SOL    HW115224   4.518   2.638   4.689 -0.7155 -0.4780  1.7037
 1197SOL    HW215225   4.622   2.720   4.744  0.5473  0.3945 -1.1359
 1198SOL     OW15226   3.142   3.365   8.899 -0.1032  0.2784 -0.6497
 1198SOL    HW115227   3.213   3.418   8.863 -0.8598  2.4710  1.0835
 1198SOL    HW215228   3.195   3.316   8.963 -0.7317  0.6217  0.1376
 1199SOL     OW15229   2.517   3.948   7.639  0.1711 -0.4447  0.3038
 1199SOL    HW115230   2.525   3.937   7.545  1.4170  0.1465  0.3471
 1199SOL    HW215231   2.434   3.903   7.659 -0.2459 -1.1367 -2.9754
 1200SOL     OW15232   1.607   3.461   9.308 -0.3809  0.7009  0.0357
 1200SOL    HW115233   1.604   3.461   9.212  0.8612 -1.3218 -0.0077
 1200SOL    HW215234   1.569   3.374   9.323 -0.2719  0.3006 -2.0480
 1201SOL     OW15235   4.167   2.151  16.921  0.3598 -1.3095  0.5298
 1201SOL    HW115236   4.164   2.082  16.987 -2.4328  0.2645  2.0477
 1201SOL    HW215237   4.252   2.194  16.936 -1.5129  2.1559  1.2009
 1202SOL     OW15238   4.402   3.332   9.116  0.3027  0.3604 -0.8000
 1202SOL    HW115239   4.388   3.238   9.130  1.8903  0.0216 -1.4760
 1202SOL    HW215240   4.421   3.361   9.206 -0.2853 -2.1408  0.1208
 1203SOL     OW15241   3.065   3.442   9.232 -0.1307  0.0176  0.4335
 1203SOL    HW115242   3.120   3.474   9.302  1.0064  0.1885 -0.5368
 1203SOL    HW215243   2.987   3.441   9.287 -1.1514  0.4790 -0.9882
 1204SOL     OW15244   0.813   1.084   6.718 -0.5251 -0.4341  0.0627
 1204SOL    HW115245   0.893   1.116   6.675 -0.4910 -0.4329  0.1261
 1204SOL    HW215246   0.860   1.011   6.759  1.3844  0.5332 -0.3573
 1205SOL     OW15247   0.892   4.108  17.704 -0.2569 -0.0931 -0.1079
 1205SOL    HW115248   0.889   4.106   0.045  0.9284  2.9300 -0.0187
 1205SOL    HW215249   0.985   4.112  17.684  0.3536 -0.9793  2.5541
 1206SOL     OW15250   1.847   3.221   2.577 -0.3534 -0.3352 -0.3723
 1206SOL    HW115251   1.754   3.200   2.584  0.0974 -1.8622  0.9519
 1206SOL    HW215252   1.855   3.306   2.533  0.3111  0.6567  1.6954
 1207SOL     OW15253   2.515   1.857   9.354 -0.0574  0.1202 -0.3376
 1207SOL    HW115254   2.589   1.869   9.413 -1.2934 -2.3141  1.7132
 1207SOL    HW215255   2.521   1.942   9.310  2.0942  0.1531  0.0200
 1208SOL     OW15256   3.066   3.893   4.015 -0.2991  0.0214 -0.3248
 1208SOL    HW115257   2.972   3.912   4.016 -0.4685 -0.9793  1.6069
 1208SOL    HW215258   3.100   3.964   3.959 -0.5883  1.4177  1.2879
 1209SOL     OW15259   1.945   2.137   4.873 -0.4774  1.1009  0.5704
 1209SOL    HW115260   1.910   2.070   4.932 -2.9963  1.7354 -0.1779
 1209SOL    HW215261   1.872   2.130   4.811  1.6291  2.4016 -2.0354
 1210SOL     OW15262   0.771   2.156   3.807 -0.1571 -0.4044  0.0694
 1210SOL    HW115263   0.802   2.216   3.738 -0.5919 -0.8024 -0.4748
 1210SOL    HW215264   0.692   2.209   3.822 -1.8968 -3.2326  0.8211
 1211SOL     OW15265   3.180   1.250   0.226  0.0786  0.2711  0.6092
 1211SOL    HW115266   3.211   1.291   0.145  0.6170 -2.1771 -0.4214
 1211SOL    HW215267   3.097   1.210   0.199 -1.2999  1.0772  3.6559
 1212SOL     OW15268   4.257   4.651   4.631  0.1200  0.8275  0.0804
 1212SOL    HW115269   4.291   4.661   4.543 -1.2702 -0.1499 -0.5703
 1212SOL    HW215270   4.208   4.733   4.642 -1.0359  0.0399  0.8929
 1213SOL     OW15271   4.513   4.422   4.161  0.0624  0.2491  0.0227
 1213SOL    HW115272   4.517   4.398   4.253 -0.9887  2.0188  0.5426
 1213SOL    HW215273   4.428   4.394   4.128  1.0898 -0.6345 -1.8976
 1214SOL     OW15274   1.387   4.350  14.534  0.0713 -0.1262 -0.1462
 1214SOL    HW115275   1.376   4.287  14.463 -1.1109 -1.2685  1.0432
 1214SOL    HW215276   1.361   4.433  14.493 -0.1453  1.4769  3.1927
 1215SOL     OW15277   2.020   2.110  11.688 -0.3803 -0.2278 -0.2092
 1215SOL    HW115278   2.085   2.133  11.754 -0.9767  2.2020 -0.4694
 1215SOL    HW215279   2.047   2.019  11.676 -0.7226 -0.5155  1.1703
 1216SOL     OW15280   3.240   0.373  12.222 -0.5707 -0.1837  0.3046
 1216SOL    HW115281   3.305   0.356  12.289  0.3776  0.0218 -0.5586
 1216SOL    HW215282   3.228   0.467  12.228 -1.3741 -0.1759 -1.4301
 1217SOL     OW15283   0.966   4.142  17.302  0.4197  0.2518  0.0249
 1217SOL    HW115284   1.046   4.091  17.316  0.0956 -0.1870  0.2795
 1217SOL    HW215285   0.896   4.089  17.339  1.1450 -1.5151 -1.1106
 1218SOL     OW15286   4.632   2.908   9.149  0.1832 -0.6796 -0.3548
 1218SOL    HW115287   4.697   2.879   9.213 -0.0322 -1.7471 -0.6228
 1218SOL    HW215288   4.585   2.980   9.192 -1.5102 -3.0658  1.8126
 1219SOL     OW15289   0.913   1.521  14.541 -0.3365  0.0916  0.4529
 1219SOL    HW115290   0.917   1.477  14.456  2.0576 -1.0503  1.1540
 1219SOL    HW215291   1.008   1.525  14.552 -0.3037  1.8037 -0.4307
 1220SOL     OW15292   0.979   0.180   7.109  0.3066  1.2669 -0.0246
 1220SOL    HW115293   0.904   0.199   7.166  0.0151 -0.1770  0.0655
 1220SOL    HW215294   1.042   0.247   7.136 -1.8724  3.0724  0.6779
 1221SOL     OW15295   2.878   0.699   6.409  0.6635 -0.0231 -0.2405
 1221SOL    HW115296   2.936   0.709   6.485  0.1339 -0.8227  0.2691
 1221SOL    HW215297   2.949   0.727   6.351  1.6437 -2.0971 -0.0735
 1222SOL     OW15298   2.490   3.488   9.849 -0.7398  0.2227 -0.0107
 1222SOL    HW115299   2.546   3.441   9.788 -0.5178 -0.1299  0.4631
 1222SOL    HW215300   2.407   3.476   9.803 -0.3177 -0.4800 -0.5941
 1223SOL     OW15301   1.391   4.394  11.295  0.4302  0.6922  0.2809
 1223SOL    HW115302   1.384   4.473  11.240 -0.6416 -1.5193 -2.7415
 1223SOL    HW215303   1.302   4.359  11.286  0.2601  1.6839 -2.0076
 1224SOL     OW15304   1.500   4.501   8.909  0.1217 -0.3961 -0.6647
 1224SOL    HW115305   1.528   4.428   8.964 -0.7430 -0.7808 -0.7413
 1224SOL    HW215306   1.547   4.487   8.826  1.7064 -0.7964  0.3062
 1225SOL     OW15307   3.294   1.618   3.355 -0.1232 -0.2076 -0.2186
 1225SOL    HW115308   3.284   1.712   3.342 -0.9960 -0.0179  1.9090
 1225SOL    HW215309   3.368   1.608   3.296  1.0745  2.0564  0.9349
 1226SOL     OW15310   0.617   1.983  11.355 -0.1393  0.2407 -0.0384
 1226SOL    HW115311   0.527   1.960  11.378  0.2813 -0.5440  0.8615
 1226SOL    HW215312   0.668   1.926  11.413  3.8935  2.2519 -1.5937
 1227SOL     OW15313   2.553   2.403   1.770 -0.3337 -0.3323  0.0488
 1227SOL    HW115314   2.462   2.374   1.767  0.2342 -2.2238  1.3315
 1227SOL    HW215315   2.545   2.490   1.730  1.0377 -0.7724 -1.1784
 1228SOL     OW15316   0.148   4.657   6.610 -0.7088  0.4325  0.7573
 1228SOL    HW115317   0.124   4.572   6.646 -0.7314  0.0166 -0.2374
 1228SOL    HW215318   0.074   4.659   6.550 -0.4848 -0.7256  0.4497
 1229SOL     OW15319   4.015   1.501   8.270  0.4667  0.0111  0.3891
 1229SOL    HW115320   4.000   1.409   8.249  0.5509  0.9713 -3.7797
 1229SOL    HW215321   3.934   1.538   8.233  0.9395  1.1942  0.5350
 1230SOL     OW15322   2.038   0.592   0.785 -0.2411  0.0235 -0.3478
 1230SOL    HW115323   2.026   0.623   0.874 -0.8021  3.1505 -1.5264
 1230SOL    HW215324   1.951   0.606   0.746 -0.4388  1.0967  0.4980
 1231SOL     OW15325   0.038   4.436   6.694 -0.2619  0.4252 -0.0122
 1231SOL    HW115326   4.708   4.397   6.641 -1.1078 -1.4611  2.5202
 1231SOL    HW215327   0.066   4.352   6.729  3.2407  1.5099 -0.2168
 1232SOL     OW15328   3.836   2.679  17.187  0.4663 -0.0577 -0.3224
 1232SOL    HW115329   3.784   2.600  17.203  1.8198 -1.2162 -1.6769
 1232SOL    HW215330   3.867   2.665  17.098 -0.4244  1.6361 -0.8979
 1233SOL     OW15331   0.732   3.130   4.806 -0.0047 -0.3850  0.0627
 1233SOL    HW115332   0.691   3.212   4.834 -2.4620 -1.6169  0.1092
 1233SOL    HW215333   0.708   3.133   4.713 -1.4219  2.0468  0.5034
 1234SOL     OW15334   0.438   4.037   1.888 -0.3132  0.1192 -0.6250
 1234SOL    HW115335   0.477   4.025   1.801 -0.1778 -0.5674 -0.4733
 1234SOL    HW215336   0.360   4.090   1.874 -0.9430 -0.5672  0.3042
 1235SOL     OW15337   3.898   2.636   0.681  0.2456  0.2090  0.0532
 1235SOL    HW115338   3.945   2.660   0.601 -0.2487 -0.1074 -0.3303
 1235SOL    HW215339   3.918   2.709   0.740  1.2272 -0.7227  0.8889
 1236SOL     OW15340   3.493   1.652   8.519 -0.4308 -0.4540 -0.0961
 1236SOL    HW115341   3.421   1.701   8.558 -0.6553  0.4010 -1.5911
 1236SOL    HW215342   3.534   1.618   8.599 -1.1184 -0.4172  0.2745
 1237SOL     OW15343   3.723   1.673   7.333  0.4497  0.2073 -0.2314
 1237SOL    HW115344   3.799   1.686   7.276 -0.4044  1.3853 -1.0925
 1237SOL    HW215345   3.709   1.760   7.369  1.4012  0.8345 -1.3822
 1238SOL     OW15346   2.610   4.571   8.597 -0.2328 -0.1414  0.3816
 1238SOL    HW115347   2.537   4.630   8.580  0.1173  0.0325 -0.5713
 1238SOL    HW215348   2.566   4.516   8.662 -2.7906  0.8414 -0.5610
 1239SOL     OW15349   2.498   3.916   2.574 -0.1049 -0.5805 -0.6383
 1239SOL    HW115350   2.446   3.925   2.654  1.0780  1.8669 -0.1366
 1239SOL    HW215351   2.451   3.837   2.547  2.6540 -2.0881 -1.0199
 1240SOL     OW15352   4.456   4.080   6.984  0.0607 -0.1580 -0.7223
 1240SOL    HW115353   4.388   4.087   6.917 -0.6293  1.6963  0.1619
 1240SOL    HW215354   4.488   4.168   6.964 -1.8561  1.1197  1.8277
 1241SOL     OW15355   0.038   2.590   0.292  0.2524  0.4551  0.2989
 1241SOL    HW115356   0.039   2.568   0.385  1.2416  0.3324  0.2530
 1241SOL    HW215357   0.113   2.646   0.274  2.0789 -2.0448  0.1188
 1242SOL     OW15358   3.504   3.002   7.582 -0.3503 -0.3193 -0.0843
 1242SOL    HW115359   3.460   2.972   7.662 -1.2862  0.2673 -0.3805
 1242SOL    HW215360   3.457   3.084   7.569 -0.0891 -0.6618 -3.1478
 1243SOL     OW15361   1.570   2.645  14.585  0.1883  0.0508  0.0459
 1243SOL    HW115362   1.648   2.686  14.623 -0.7017 -0.8481  2.8582
 1243SOL    HW215363   1.563   2.697  14.505 -2.3412 -0.6468 -0.1815
 1244SOL     OW15364   0.890   2.348   0.250 -0.3394 -0.2214 -0.1331
 1244SOL    HW115365   0.863   2.261   0.221 -2.0432  0.4328 -0.4593
 1244SOL    HW215366   0.892   2.386   0.162 -0.0358  1.7068  0.7136
 1245SOL     OW15367   2.912   1.002  16.509  0.4865  0.0078  0.0884
 1245SOL    HW115368   2.950   0.932  16.562  0.0224 -0.2410  0.0930
 1245SOL    HW215369   2.932   0.966  16.422 -1.0334  1.5595 -0.9183
 1246SOL     OW15370   2.855   1.788   6.273 -0.6250  0.0751 -0.2818
 1246SOL    HW115371   2.938   1.762   6.314 -0.4573 -1.5974 -1.7219
 1246SOL    HW215372   2.861   1.752   6.185 -2.5413  0.0911 -0.4082
 1247SOL     OW15373   4.517   2.439   9.022  0.1857  0.6014  0.3769
 1247SOL    HW115374   4.550   2.378   8.955 -3.5090  3.4640 -4.0401
 1247SOL    HW215375   4.426   2.422   8.998  0.4825  0.5627 -0.7386
 1248SOL     OW15376   3.372   3.717   5.144 -0.3771  0.2051 -0.6101
 1248SOL    HW115377   3.299   3.656   5.156 -0.4973  0.6498  0.9301
 1248SOL    HW215378   3.442   3.664   5.183  0.6220 -0.1632 -2.9116
 1249SOL     OW15379   2.111   3.847   2.405 -0.2818 -0.1818 -0.2868
 1249SOL    HW115380   2.156   3.892   2.476  0.9040 -0.1894 -1.0472
 1249SOL    HW215381   2.044   3.804   2.458 -1.0689  3.0533  1.3486
 1250SOL     OW15382   0.450   1.248   4.873  0.2785 -0.2652 -0.4948
 1250SOL    HW115383   0.422   1.157   4.877  0.0421 -0.0459  2.7683
 1250SOL    HW215384   0.374   1.289   4.832 -0.9137 -2.0596 -0.0690
 1251SOL     OW15385   3.994   0.530  14.182 -0.1097 -0.4676 -0.4106
 1251SOL    HW115386   4.059   0.550  14.249 -1.1545 -0.1506  0.4939
 1251SOL    HW215387   3.985   0.606  14.124 -2.8323 -0.2718  0.2544
 1252SOL     OW15388   4.494   0.652  16.735 -0.7943  0.3905 -0.3618
 1252SOL    HW115389   4.410   0.646  16.781  0.7582  2.1281  2.7160
 1252SOL    HW215390   4.513   0.558  16.723 -2.4386 -0.0066  0.1551
 1253SOL     OW15391   3.425   0.938   0.859  0.0257  0.1023  0.5641
 1253SOL    HW115392   3.449   0.899   0.775 -0.5806 -2.2367  1.4693
 1253SOL    HW215393   3.475   1.019   0.856 -0.2356  0.3234  2.0434
 1254SOL     OW15394   2.938   0.858  16.257  0.2629 -0.4945 -0.0474
 1254SOL    HW115395   2.946   0.764  16.274  0.0199 -0.3220  1.0095
 1254SOL    HW215396   2.845   0.859  16.234  0.4098 -1.3960 -0.6858
 1255SOL     OW15397   1.694   3.128   7.599  0.6040 -0.0988 -0.1748
 1255SOL    HW115398   1.698   3.123   7.695  2.1431  1.1632 -0.1819
 1255SOL    HW215399   1.694   3.224   7.595 -1.9295 -0.0863 -0.2664
 1256SOL     OW15400   1.238   2.153   9.869 -0.1461  0.5848  0.6566
 1256SOL    HW115401   1.326   2.115   9.879 -1.4874 -2.7793 -0.3243
 1256SOL    HW215402   1.215   2.173   9.960  1.8149 -0.3530  1.3745
 1257SOL     OW15403   0.513   3.628   5.067  0.0692  0.3148 -0.1568
 1257SOL    HW115404   0.562   3.677   5.132 -2.3734  0.5164  1.5071
 1257SOL    HW215405   0.591   3.614   5.012  0.8082 -2.1612  1.5176
 1258SOL     OW15406   2.002   4.044   5.020 -0.2597  0.1916 -0.1999
 1258SOL    HW115407   1.955   4.000   4.948  0.7479  1.1709 -1.4599
 1258SOL    HW215408   2.086   4.001   5.008  0.1810  0.4000  2.3091
 1259SOL     OW15409   3.013   4.243  12.327 -0.3159 -0.5036 -0.1602
 1259SOL    HW115410   2.952   4.307  12.289  0.8143 -0.6317 -2.2261
 1259SOL    HW215411   3.028   4.271  12.417 -3.1326  1.0334 -0.1786
 1260SOL     OW15412   2.258   0.272  10.998  0.4978  0.0151  0.2545
 1260SOL    HW115413   2.335   0.298  10.948 -0.1814 -1.8142 -1.7407
 1260SOL    HW215414   2.249   0.178  10.982 -0.8430  0.1332  0.3080
 1261SOL     OW15415   3.779   0.041  15.618  0.0570 -0.3352 -0.6461
 1261SOL    HW115416   3.684   0.052  15.613  0.1665  2.2379  2.6985
 1261SOL    HW215417   3.804   0.129  15.649  3.6169 -2.4104  2.4585
 1262SOL     OW15418   3.143   4.329   7.248 -0.0987  0.4731 -0.1947
 1262SOL    HW115419   3.235   4.343   7.270  0.1904 -0.2305 -0.9521
 1262SOL    HW215420   3.099   4.332   7.333  0.4684  0.4100  0.1013
 1263SOL     OW15421   3.426   1.522   7.963  0.2382 -0.2382  0.7792
 1263SOL    HW115422   3.503   1.541   8.016 -0.2789  3.6715  0.0783
 1263SOL    HW215423   3.376   1.476   8.031  0.6539 -0.8449  0.6703
 1264SOL     OW15424   1.353   1.126   2.304 -0.3908  0.4844  0.3775
 1264SOL    HW115425   1.436   1.146   2.348  0.9201 -0.8395 -1.5532
 1264SOL    HW215426   1.363   1.191   2.235 -0.3171 -1.2032 -1.1834
 1265SOL     OW15427   2.298   2.517   7.605  0.5431  0.5432  0.0945
 1265SOL    HW115428   2.344   2.600   7.610  0.9120  0.4221 -1.3412
 1265SOL    HW215429   2.288   2.490   7.513  2.6402  0.1454 -0.0169
 1266SOL     OW15430   1.751   2.006  14.902  0.2119 -0.3587  0.2540
 1266SOL    HW115431   1.768   1.912  14.896  0.7977 -0.1991 -0.5592
 1266SOL    HW215432   1.745   2.031  14.810 -1.1928  0.6960  0.6310
 1267SOL     OW15433   4.182   3.114   5.474 -0.3747 -0.4511  0.1270
 1267SOL    HW115434   4.167   3.084   5.385  1.8007 -1.4604  0.1017
 1267SOL    HW215435   4.267   3.158   5.465 -0.9844  0.6601 -0.2285
 1268SOL     OW15436   4.320   0.649   7.868 -0.2605  0.3248 -0.4063
 1268SOL    HW115437   4.329   0.557   7.896 -1.5823  0.7870  1.5275
 1268SOL    HW215438   4.295   0.692   7.950  1.3690  2.0239 -0.8005
 1269SOL     OW15439   0.873   1.782   1.962  0.4887 -0.2910  0.0239
 1269SOL    HW115440   0.925   1.772   2.042  0.9853 -0.5417 -0.3308
 1269SOL    HW215441   0.907   1.865   1.929 -1.4117 -0.4383 -2.2921
 1270SOL     OW15442   4.271   3.256   7.947 -0.5182  0.1559  0.0472
 1270SOL    HW115443   4.302   3.256   7.857 -2.1536  2.0815 -0.5026
 1270SOL    HW215444   4.208   3.327   7.939 -1.6268 -0.9466 -0.9301
 1271SOL     OW15445   3.644   1.525   5.985  0.5610  0.0091  0.3803
 1271SOL    HW115446   3.562   1.563   5.955 -0.1019 -1.1335  0.7501
 1271SOL    HW215447   3.643   1.432   5.962 -0.9976  0.4448 -1.3235
 1272SOL     OW15448   3.071   3.991   7.220 -0.4807  0.2797  0.3792
 1272SOL    HW115449   3.133   4.056   7.251 -0.4802 -0.7506  2.5563
 1272SOL    HW215450   2.996   4.005   7.278 -1.7443  0.6608 -1.3500
 1273SOL     OW15451   0.198   4.300   4.192 -0.1146 -0.3179  0.3383
 1273SOL    HW115452   0.291   4.312   4.171  0.4272 -2.6059  1.4109
 1273SOL    HW215453   0.208   4.229   4.255  0.4010 -2.1045 -1.7591
 1274SOL     OW15454   2.010   2.159   3.297  0.1054  0.6455 -0.2976
 1274SOL    HW115455   2.010   2.254   3.283 -0.7308  0.5291 -1.1050
 1274SOL    HW215456   2.019   2.154   3.392 -0.6881 -1.2643 -0.3265
 1275SOL     OW15457   2.945   2.052   4.685  0.6197  0.3506  0.1562
 1275SOL    HW115458   2.925   2.112   4.758  0.6459 -0.0284  0.4726
 1275SOL    HW215459   3.025   2.015   4.722  0.4397 -1.8541 -1.7103
 1276SOL     OW15460   2.468   0.580  17.023 -0.0827 -0.3517  0.0415
 1276SOL    HW115461   2.562   0.586  17.042  0.4372 -0.8556 -2.2864
 1276SOL    HW215462   2.434   0.543  17.104 -0.7151  0.3520  0.0943
 1277SOL     OW15463   0.695   0.848   9.112 -0.3553 -0.9075 -0.5759
 1277SOL    HW115464   0.726   0.783   9.175 -2.7484 -1.7039 -0.2052
 1277SOL    HW215465   0.733   0.924   9.156  0.1164 -0.5606 -1.5764
 1278SOL     OW15466   1.531   0.799   7.491  0.1307 -0.6231  0.1670
 1278SOL    HW115467   1.625   0.807   7.506  0.1106 -0.5226  0.2408
 1278SOL    HW215468   1.491   0.875   7.534 -0.8909  0.3737 -2.5316
 1279SOL     OW15469   0.158   3.012   0.003 -0.4230 -0.3074 -0.2023
 1279SOL    HW115470   0.116   2.996   0.087 -2.4220  3.1734 -0.5331
 1279SOL    HW215471   0.095   3.068  17.712 -1.4311 -0.6279  0.7996
 1280SOL     OW15472   0.739   2.522   0.466 -0.0563  0.3608 -0.4405
 1280SOL    HW115473   0.781   2.438   0.447 -2.2180 -1.0816  1.0918
 1280SOL    HW215474   0.646   2.507   0.452 -0.1161  1.8178 -1.5737
 1281SOL     OW15475   4.246   0.689   8.962 -0.3479 -0.4059 -0.2676
 1281SOL    HW115476   4.341   0.673   8.963 -0.3466 -0.5255 -2.4361
 1281SOL    HW215477   4.242   0.755   9.031 -1.7009  0.3678 -1.0851
 1282SOL     OW15478   0.681   3.458   0.280 -0.4000 -0.0863 -0.0628
 1282SOL    HW115479   0.764   3.422   0.311 -0.6816  0.6413  1.5266
 1282SOL    HW215480   0.711   3.548   0.287  1.5230 -0.5454 -2.1573
 1283SOL     OW15481   4.239   2.740   5.204  0.0007 -0.0998 -0.0354
 1283SOL    HW115482   4.223   2.828   5.237  2.0374  1.5147 -3.3677
 1283SOL    HW215483   4.328   2.740   5.169  0.1224  0.5024  0.2890
 1284SOL     OW15484   0.644   3.348   2.791  0.4771 -0.8178 -0.1448
 1284SOL    HW115485   0.633   3.432   2.837  0.3399 -0.8789 -0.0663
 1284SOL    HW215486   0.708   3.374   2.725  1.0194  2.2860  1.5752
 1285SOL     OW15487   0.819   0.087   5.499  0.4948  0.0474 -0.3364
 1285SOL    HW115488   0.770   0.076   5.417 -3.9724  0.2127  2.2822
 1285SOL    HW215489   0.797   0.008   5.549 -1.2613  0.0319 -1.1335
 1286SOL     OW15490   1.427   4.395   7.293 -0.5700  0.3967 -0.2335
 1286SOL    HW115491   1.445   4.489   7.293 -0.4788  0.3815 -2.4789
 1286SOL    HW215492   1.471   4.369   7.212  2.3756 -0.4979  1.6362
 1287SOL     OW15493   1.351   1.785   7.091  0.5710 -0.3825 -0.6803
 1287SOL    HW115494   1.397   1.750   7.015  0.5284 -2.9590  0.4631
 1287SOL    HW215495   1.426   1.784   7.151  0.6035 -0.6593 -0.7233
 1288SOL     OW15496   2.122   1.210   3.751  0.5697  0.2452 -0.2287
 1288SOL    HW115497   2.200   1.155   3.742 -0.9726 -1.8222 -0.9231
 1288SOL    HW215498   2.157   1.276   3.811 -0.6748  0.6541  0.0522
 1289SOL     OW15499   4.454   3.108  13.775  0.3577  0.0935  0.2285
 1289SOL    HW115500   4.381   3.063  13.733  0.7512 -2.1977  2.0373
 1289SOL    HW215501   4.422   3.198  13.763  3.3465  1.1370 -0.1434
 1290SOL     OW15502   0.564   2.264  10.145  1.0470  0.0640 -0.3893
 1290SOL    HW115503   0.576   2.341  10.089 -0.3866  1.3324  1.0455
 1290SOL    HW215504   0.611   2.283  10.226 -1.8625 -1.4807  1.6323
 1291SOL     OW15505   4.436   2.611   2.445 -0.3292 -0.3657  0.3677
 1291SOL    HW115506   4.427   2.550   2.518  0.5776  1.4479  1.9987
 1291SOL    HW215507   4.423   2.549   2.372  1.5026 -1.6424  1.1453
 1292SOL     OW15508   4.122   2.225   7.765 -0.0180 -0.0421 -0.1447
 1292SOL    HW115509   4.085   2.277   7.694 -0.9952  0.1923  0.5399
 1292SOL    HW215510   4.192   2.280   7.800  0.4668 -1.6718  1.4922
 1293SOL     OW15511   0.821   1.058  17.042  0.0820 -0.2861 -0.0384
 1293SOL    HW115512   0.727   1.046  17.044 -0.0399  0.7120  0.3337
 1293SOL    HW215513   0.830   1.147  17.005  0.7782 -1.4479 -2.6719
 1294SOL     OW15514   1.790   2.439  13.759  0.0818 -0.0871  1.0433
 1294SOL    HW115515   1.806   2.364  13.701 -0.4841  1.2934 -0.8762
 1294SOL    HW215516   1.880   2.471  13.765  1.2296 -2.8291 -1.5829
 1295SOL     OW15517   3.377   4.036   6.089 -0.2407  0.0019  0.1048
 1295SOL    HW115518   3.350   3.956   6.133 -0.6568 -0.2110 -0.5317
 1295SOL    HW215519   3.366   4.099   6.160  2.2825  0.0353  0.4530
 1296SOL     OW15520   4.636   2.274   9.889  0.0020  0.2259 -0.1035
 1296SOL    HW115521   4.726   2.264   9.859 -0.2731 -0.8785 -0.5586
 1296SOL    HW215522   4.638   2.368   9.907  1.7769  0.2119 -0.2077
 1297SOL     OW15523   3.760   0.636   7.601 -0.5127  0.1186  0.7328
 1297SOL    HW115524   3.836   0.667   7.650 -1.2632  3.1240 -0.0201
 1297SOL    HW215525   3.695   0.615   7.668 -0.9964 -1.8133 -0.3403
 1298SOL     OW15526   2.533   1.024   0.428 -0.0386 -0.4013  0.2049
 1298SOL    HW115527   2.463   0.993   0.371  0.0377 -0.9774  0.4251
 1298SOL    HW215528   2.568   1.091   0.368 -0.6302  0.3254  0.6694
 1299SOL     OW15529   0.725   4.048  14.166  0.3757  0.4421  0.1951
 1299SOL    HW115530   0.787   4.078  14.100 -1.5281  0.7490 -1.4226
 1299SOL    HW215531   0.639   4.080  14.139 -0.7193 -1.1412  1.8050
 1300SOL     OW15532   2.073   1.949   3.500  0.7156 -0.6211  0.2975
 1300SOL    HW115533   2.111   1.972   3.584 -1.1856 -1.7599  1.4648
 1300SOL    HW215534   2.151   1.917   3.454  1.5535  1.2654  0.4239
 1301SOL     OW15535   3.514   1.114   0.574 -0.0318 -0.4061  0.1739
 1301SOL    HW115536   3.474   1.028   0.571 -0.2916 -0.1969 -2.4857
 1301SOL    HW215537   3.546   1.110   0.664  0.6366  1.4411  0.0276
 1302SOL     OW15538   3.798   0.382  16.388  0.2833 -0.0175 -0.4817
 1302SOL    HW115539   3.749   0.400  16.308  0.5222  1.3680 -0.3154
 1302SOL    HW215540   3.884   0.355  16.356  0.5492  0.5858 -0.2667
 1303SOL     OW15541   0.481   2.595   6.175 -0.1191  0.2738 -0.8744
 1303SOL    HW115542   0.414   2.611   6.108 -2.2423 -2.1063  0.6890
 1303SOL    HW215543   0.426   2.565   6.247  0.6257 -0.7978 -0.7589
 1304SOL     OW15544   2.592   2.142   5.605  0.3918  0.1339 -0.2428
 1304SOL    HW115545   2.589   2.192   5.686 -3.2730  0.4837 -0.5666
 1304SOL    HW215546   2.521   2.078   5.613  0.4547  0.1877  0.7485
 1305SOL     OW15547   1.661   0.439   5.352  0.6319  0.0887 -0.0321
 1305SOL    HW115548   1.630   0.521   5.314  0.5463 -0.0668 -0.3026
 1305SOL    HW215549   1.611   0.388   5.287 -0.4994  0.3640  0.6268
 1306SOL     OW15550   0.167   2.938   9.298  0.2826  0.4780 -0.1198
 1306SOL    HW115551   0.178   2.877   9.226  0.9060 -0.3130  0.6468
 1306SOL    HW215552   0.224   3.007   9.263  0.4034  1.3071  1.6965
 1307SOL     OW15553   0.444   3.228   7.686  0.0793  0.4983  0.3569
 1307SOL    HW115554   0.399   3.291   7.743  1.8857  0.2293  2.0439
 1307SOL    HW215555   0.532   3.225   7.724  0.1092  0.0096  0.2415
 1308SOL     OW15556   1.848   0.412  16.508  0.3688 -0.1152 -0.4796
 1308SOL    HW115557   1.839   0.369  16.423 -1.8281  0.2659 -0.4317
 1308SOL    HW215558   1.784   0.483  16.507  0.0650 -0.3581  2.6185
 1309SOL     OW15559   3.548   3.283   4.322 -0.9527  0.0424  0.2110
 1309SOL    HW115560   3.485   3.306   4.254 -2.4633 -1.2167  1.1983
 1309SOL    HW215561   3.619   3.246   4.268 -0.7536  1.3962 -0.4453
 1310SOL     OW15562   4.628   1.480   9.497  0.5204  0.0203 -0.2618
 1310SOL    HW115563   4.672   1.483   9.412 -0.0965  2.1234 -0.5135
 1310SOL    HW215564   4.657   1.563   9.535  3.2102 -2.1411  2.3149
 1311SOL     OW15565   1.457   4.393  12.416 -0.2354 -0.3226  0.0097
 1311SOL    HW115566   1.460   4.485  12.388  0.0476 -0.1563  0.5748
 1311SOL    HW215567   1.421   4.360  12.334 -3.1773  0.7660  0.8378
 1312SOL     OW15568   3.438   3.887   4.675 -0.1475  0.1688 -0.3008
 1312SOL    HW115569   3.417   3.959   4.615 -1.8721 -0.9907 -1.0852
 1312SOL    HW215570   3.413   3.918   4.762  1.1920 -2.5267  1.0326
 1313SOL     OW15571   4.347   2.416   7.830 -0.0238 -0.5723 -0.2661
 1313SOL    HW115572   4.338   2.440   7.922 -1.7763  2.6098 -1.2643
 1313SOL    HW215573   4.410   2.344   7.830 -0.9743 -1.4132 -0.3195
 1314SOL     OW15574   3.808   4.715   4.173 -0.9834 -0.6821 -0.0676
 1314SOL    HW115575   3.892   4.695   4.132 -1.0552  0.1402 -0.6210
 1314SOL    HW215576   3.752   4.666   4.113 -1.1568 -1.1322  0.4648
 1315SOL     OW15577   3.359   4.260   8.185  0.5317  0.0272  0.2232
 1315SOL    HW115578   3.268   4.264   8.156  0.9476  2.6432 -0.7056
 1315SOL    HW215579   3.360   4.224   8.273  0.6074  0.4472  0.3929
 1316SOL     OW15580   4.347   4.299   2.925 -0.1086 -0.4252 -0.4506
 1316SOL    HW115581   4.411   4.234   2.953 -0.8777 -0.5714  0.9757
 1316SOL    HW215582   4.268   4.252   2.954  0.2551 -0.6032  0.2600
 1317SOL     OW15583   2.201   3.400  13.988  0.2264  0.6794  0.5587
 1317SOL    HW115584   2.201   3.305  13.993  0.6206  0.6839  0.6402
 1317SOL    HW215585   2.228   3.416  13.898 -1.8639 -0.4771 -0.2678
 1318SOL     OW15586   2.001   0.490   1.519 -0.3182  0.1957 -0.1131
 1318SOL    HW115587   2.076   0.546   1.499  2.0005 -2.4543  1.1625
 1318SOL    HW215588   2.003   0.507   1.613 -0.5913  1.9041 -0.4105
 1319SOL     OW15589   0.866   3.143   2.235  0.2274 -0.2371 -0.6015
 1319SOL    HW115590   0.789   3.133   2.180 -0.5937  2.4215  0.0595
 1319SOL    HW215591   0.892   3.052   2.253  0.6659 -0.1369 -0.7134
 1320SOL     OW15592   3.219   3.600   6.439 -0.0644  0.0172  0.1675
 1320SOL    HW115593   3.177   3.517   6.418  1.6021 -0.0698 -2.8603
 1320SOL    HW215594   3.157   3.617   6.510 -1.6944 -1.3589 -0.9560
 1321SOL     OW15595   2.673   1.816  17.233  0.6824 -0.3967 -0.3881
 1321SOL    HW115596   2.737   1.878  17.197 -0.2744  0.7285 -0.1180
 1321SOL    HW215597   2.597   1.831  17.177  1.6221 -1.9518 -2.0697
 1322SOL     OW15598   4.733   2.197   6.511 -0.5823 -0.2938 -0.1340
 1322SOL    HW115599   0.023   2.106   6.504 -0.0520 -0.1746  0.6698
 1322SOL    HW215600   0.004   2.208   6.605  0.2292  0.8930 -0.3670
 1323SOL     OW15601   3.533   3.449  10.964  0.0608  0.4937  0.1489
 1323SOL    HW115602   3.480   3.401  11.027 -0.8808  0.0671 -0.9625
 1323SOL    HW215603   3.496   3.536  10.977 -3.2978 -0.3281 -3.7345
 1324SOL     OW15604   1.368   1.428  11.363  0.3999 -0.4055 -0.0429
 1324SOL    HW115605   1.327   1.424  11.277  0.6008  1.5981 -0.2278
 1324SOL    HW215606   1.456   1.461  11.344  0.4802 -1.1031 -0.8857
 1325SOL     OW15607   1.934   1.267   3.055  0.0133  0.4270  0.2544
 1325SOL    HW115608   2.002   1.332   3.072  1.6894 -0.6577 -2.1027
 1325SOL    HW215609   1.905   1.247   3.144  0.2893 -0.8066  0.0774
 1326SOL     OW15610   0.353   2.582  12.500  0.3387  0.3175 -0.7373
 1326SOL    HW115611   0.422   2.639  12.533  1.8333 -2.5711  1.0742
 1326SOL    HW215612   0.288   2.646  12.528  2.4411  0.5342  3.5317
 1327SOL     OW15613   1.376   4.401   7.550 -0.2561 -0.1392 -0.0496
 1327SOL    HW115614   1.317   4.476   7.559  0.0211  0.2441 -1.5098
 1327SOL    HW215615   1.398   4.412   7.458 -1.2864  0.2377 -0.2540
 1328SOL     OW15616   1.083   1.077   4.525  0.1889  0.2195 -0.6066
 1328SOL    HW115617   1.138   1.006   4.559 -1.6004 -0.6504  0.4730
 1328SOL    HW215618   1.000   1.045   4.559 -0.7182  1.2190 -1.9008
 1329SOL     OW15619   1.949   0.597   6.822 -0.4198 -0.5002 -0.3528
 1329SOL    HW115620   1.887   0.604   6.894 -0.9924  0.2035 -0.9076
 1329SOL    HW215621   2.021   0.555   6.868 -0.7899  2.4826  2.9026
 1330SOL     OW15622   2.082   2.726  16.574  0.8099 -0.7164  0.5833
 1330SOL    HW115623   2.116   2.696  16.490 -0.2898  0.6408 -0.3448
 1330SOL    HW215624   2.170   2.749  16.603  0.6688  0.4447  0.1013
 1331SOL     OW15625   4.535   3.756   9.014  0.1879 -0.4579 -0.4193
 1331SOL    HW115626   4.471   3.691   8.985 -0.5473  0.9794 -2.0202
 1331SOL    HW215627   4.568   3.711   9.092  2.0033  1.0377 -0.3216
 1332SOL     OW15628   1.273   0.264  15.731  0.1385  0.2035  0.2213
 1332SOL    HW115629   1.209   0.204  15.769 -0.1393 -0.0100 -0.5701
 1332SOL    HW215630   1.217   0.320  15.677  1.0555  0.6280 -0.2889
 1333SOL     OW15631   1.822   2.337  16.881  0.1898 -0.0049  0.0272
 1333SOL    HW115632   1.885   2.343  16.809 -2.2026 -1.6165 -2.1895
 1333SOL    HW215633   1.804   2.244  16.896 -0.1953 -0.0490 -0.7416
 1334SOL     OW15634   0.489   0.736   7.094 -0.2468 -0.8516 -0.4464
 1334SOL    HW115635   0.408   0.768   7.132 -0.4166 -1.4861 -0.2747
 1334SOL    HW215636   0.469   0.643   7.089 -0.7454 -0.8341  1.1157
 1335SOL     OW15637   0.397   0.944   3.448  0.1806  0.2303 -0.2430
 1335SOL    HW115638   0.434   0.970   3.363 -2.4981 -2.0984 -2.1237
 1335SOL    HW215639   0.472   0.980   3.495 -1.1298  3.6094 -0.7443
 1336SOL     OW15640   2.871   2.373   2.383  0.2401  0.0835 -0.5711
 1336SOL    HW115641   2.889   2.311   2.454 -3.6559  0.0382  0.3620
 1336SOL    HW215642   2.801   2.331   2.333 -1.2767  0.6026  1.1175
 1337SOL     OW15643   0.339   4.713  13.613  0.0872 -0.3566 -0.1270
 1337SOL    HW115644   0.339   4.643  13.679 -0.5704  2.0338  2.4342
 1337SOL    HW215645   0.433   4.723  13.602 -0.2971  1.7443 -1.5200
 1338SOL     OW15646   3.565   0.204   3.175 -0.0810 -0.0441 -0.0739
 1338SOL    HW115647   3.580   0.112   3.156  0.6168  0.0283  0.1139
 1338SOL    HW215648   3.646   0.216   3.225 -0.6146 -0.0326  0.8052
 1339SOL     OW15649   2.421   3.576   8.568 -0.0384 -0.5355 -0.7240
 1339SOL    HW115650   2.437   3.567   8.662  0.3548  0.6714 -0.6658
 1339SOL    HW215651   2.501   3.622   8.542  0.4582 -1.4594 -0.8018
 1340SOL     OW15652   2.914   2.970  11.802  0.2551 -0.3855  0.3525
 1340SOL    HW115653   2.983   2.953  11.866  0.3792  0.5230  0.4608
 1340SOL    HW215654   2.880   3.055  11.830 -0.8324  0.3820 -3.2759
 1341SOL     OW15655   4.286   0.575  16.068  0.5243 -0.2599 -0.8944
 1341SOL    HW115656   4.293   0.665  16.036 -1.2652 -0.0451 -0.6680
 1341SOL    HW215657   4.225   0.524  16.014  1.6223 -0.9004 -1.5341
 1342SOL     OW15658   0.483   0.363   0.704  0.0201  0.5877 -0.1680
 1342SOL    HW115659   0.498   0.437   0.763  2.2389 -1.4560  1.8151
 1342SOL    HW215660   0.525   0.404   0.628 -0.3383  1.0452 -0.1269
 1343SOL     OW15661   1.407   3.196   0.832  0.0330 -0.0704  0.3427
 1343SOL    HW115662   1.458   3.128   0.787 -1.0430  0.0273 -1.0396
 1343SOL    HW215663   1.464   3.214   0.907  2.3603  0.0700 -1.4433
 1344SOL     OW15664   2.721   1.057   7.679  0.0289 -0.2367 -0.6243
 1344SOL    HW115665   2.764   1.126   7.730  1.3560 -0.2500 -1.7461
 1344SOL    HW215666   2.792   0.995   7.661 -0.0785 -0.9587  1.3672
 1345SOL     OW15667   2.878   2.402   2.897 -0.0666 -0.2289 -0.2391
 1345SOL    HW115668   2.870   2.410   2.992  0.7548 -0.1622 -0.1743
 1345SOL    HW215669   2.887   2.307   2.885  0.5414  0.0588 -2.0806
 1346SOL     OW15670   4.081   0.663  13.632  0.1688  0.0491 -0.1892
 1346SOL    HW115671   4.131   0.630  13.707 -2.0621 -0.9418  0.8507
 1346SOL    HW215672   4.038   0.731  13.682 -0.4091 -0.0425 -0.5681
 1347SOL     OW15673   1.879   0.841  16.284  0.2001 -0.0297 -0.5297
 1347SOL    HW115674   1.798   0.874  16.246  0.7035 -1.9178 -3.1961
 1347SOL    HW215675   1.904   0.911  16.344  1.1013  0.6187 -1.6780
 1348SOL     OW15676   0.034   0.687   0.134 -0.5455 -0.2156 -0.1638
 1348SOL    HW115677   0.109   0.632   0.158 -1.4432 -0.9271  1.0075
 1348SOL    HW215678   0.013   0.720   0.221  1.6894  2.3735 -0.6069
 1349SOL     OW15679   1.024   0.641   3.703  0.2121 -0.0045  0.0896
 1349SOL    HW115680   1.032   0.546   3.700  0.1568  0.0311 -1.3208
 1349SOL    HW215681   1.117   0.663   3.697  0.6630 -2.2182 -0.8440
 1350SOL     OW15682   1.836   2.226   2.870  0.2708  0.3106 -0.2462
 1350SOL    HW115683   1.746   2.224   2.839  0.2064  1.8095 -0.1479
 1350SOL    HW215684   1.831   2.171   2.948 -0.9179 -0.2629 -0.7219
 1351SOL     OW15685   1.597   0.581   0.497  0.1984  0.5739 -0.4264
 1351SOL    HW115686   1.564   0.600   0.410 -1.1458 -1.3113 -0.3426
 1351SOL    HW215687   1.539   0.510   0.524 -0.2662  0.4358 -1.8210
 1352SOL     OW15688   2.394   2.161  13.148 -0.2851 -0.2733 -0.0094
 1352SOL    HW115689   2.472   2.113  13.177 -0.8532  0.0554  2.0216
 1352SOL    HW215690   2.343   2.173  13.228 -1.5513  0.4831 -0.9280
 1353SOL     OW15691   2.206   4.335   1.128  0.2561 -0.3937 -0.7324
 1353SOL    HW115692   2.237   4.383   1.205 -2.8846 -1.1262  0.9413
 1353SOL    HW215693   2.216   4.414   1.074  1.4185 -0.6175 -0.8491
 1354SOL     OW15694   0.506   3.362   4.237 -0.5501  0.2655  0.2167
 1354SOL    HW115695   0.485   3.339   4.328 -2.7545 -0.2412 -0.4377
 1354SOL    HW215696   0.418   3.376   4.204 -1.2649 -0.3205  1.8423
 1355SOL     OW15697   4.138   3.371   2.254  0.1936  0.2034  0.3021
 1355SOL    HW115698   4.087   3.328   2.186 -1.9126 -0.5076  2.3223
 1355SOL    HW215699   4.186   3.436   2.203 -0.1487  0.0760 -0.1892
 1356SOL     OW15700   3.657   3.459   8.908 -0.2743  0.4495 -0.1113
 1356SOL    HW115701   3.698   3.523   8.966  0.0623  0.1011  0.0322
 1356SOL    HW215702   3.710   3.385   8.937 -1.0631 -0.5438 -1.2065
 1357SOL     OW15703   1.030   2.541   8.395 -0.3622 -0.2034 -0.4878
 1357SOL    HW115704   1.017   2.455   8.355  0.6629  0.9000 -3.2058
 1357SOL    HW215705   1.121   2.560   8.369 -0.8783 -1.0996 -2.9501
 1358SOL     OW15706   2.879   2.430   4.833 -0.2594  0.0635 -0.3112
 1358SOL    HW115707   2.783   2.423   4.830 -0.1466 -1.4179 -0.3933
 1358SOL    HW215708   2.906   2.369   4.901  0.0506  1.6937  1.0288
 1359SOL     OW15709   2.753   0.572   1.260  0.0929 -0.2595 -0.2948
 1359SOL    HW115710   2.724   0.504   1.320 -2.2501  2.7731  2.0082
 1359SOL    HW215711   2.816   0.622   1.311  0.6707  2.4280 -3.6896
 1360SOL     OW15712   0.886   3.565  16.512 -0.1544  0.4502  0.1368
 1360SOL    HW115713   0.970   3.527  16.539  0.4557 -0.6409 -3.4032
 1360SOL    HW215714   0.905   3.642  16.458 -2.1910  1.2614  0.5643
 1361SOL     OW15715   1.372   4.005   2.155 -0.2579 -0.2048  0.0641
 1361SOL    HW115716   1.345   3.983   2.244 -2.3007  1.1372 -0.2302
 1361SOL    HW215717   1.378   3.916   2.120  1.3105 -0.5384  1.2045
 1362SOL     OW15718   3.987   3.733   2.562  0.3987  0.1667  0.2487
 1362SOL    HW115719   4.045   3.774   2.627 -0.8174  1.5448  0.4745
 1362SOL    HW215720   4.026   3.647   2.550 -1.6275 -0.5189 -1.2646
 1363SOL     OW15721   3.873   0.746   6.378 -0.3812 -0.1654  0.3377
 1363SOL    HW115722   3.888   0.671   6.321 -1.9657 -0.3221  0.1185
 1363SOL    HW215723   3.778   0.752   6.389 -0.2551 -0.8821  1.8853
 1364SOL     OW15724   0.627   3.565  12.115  0.4782  0.0825  0.3176
 1364SOL    HW115725   0.638   3.643  12.061  1.0977 -0.7497 -0.7541
 1364SOL    HW215726   0.688   3.508  12.068  0.3577 -0.4268  0.7826
 1365SOL     OW15727   0.987   3.956   4.809  0.3119 -0.2129  0.6581
 1365SOL    HW115728   0.959   4.043   4.779  0.1095 -0.7836 -0.7884
 1365SOL    HW215729   0.944   3.960   4.895 -0.3004 -0.3889  0.3613
 1366SOL     OW15730   2.924   1.233  12.407  0.2306  0.7182 -0.2225
 1366SOL    HW115731   2.977   1.174  12.461 -0.1721 -0.2695 -0.9080
 1366SOL    HW215732   2.888   1.290  12.474  2.5932  1.1732  0.6810
 1367SOL     OW15733   4.602   1.475   6.462  0.3460 -0.4042 -0.4452
 1367SOL    HW115734   4.662   1.493   6.534  2.0903  0.4877 -2.0959
 1367SOL    HW215735   4.663   1.493   6.390 -0.4483  0.4580 -0.9078
 1368SOL     OW15736   4.621   3.224   0.265 -1.0132 -0.1568  0.7212
 1368SOL    HW115737   4.696   3.180   0.225 -0.8637  1.4493 -0.7309
 1368SOL    HW215738   4.613   3.161   0.337 -0.1316 -2.6486 -1.3656
 1369SOL     OW15739   2.844   3.157   5.925 -0.1230 -0.1310  0.7348
 1369SOL    HW115740   2.837   3.094   5.996 -0.6338 -0.1772  0.6416
 1369SOL    HW215741   2.842   3.242   5.970 -3.0074 -0.7720  1.7814
 1370SOL     OW15742   1.047   3.547  17.311  0.2476  0.4704  0.6122
 1370SOL    HW115743   1.026   3.495  17.388  1.8793 -2.0801 -0.6774
 1370SOL    HW215744   1.118   3.606  17.337  0.2583 -0.1858  2.0360
 1371SOL     OW15745   3.453   4.043   3.687  0.2336 -0.0142  0.3409
 1371SOL    HW115746   3.491   4.095   3.758  1.3390 -0.3947  0.0235
 1371SOL    HW215747   3.382   4.104   3.665  1.3194  1.1734  0.0871
 1372SOL     OW15748   2.676   4.411   1.796  0.4278  0.5080 -0.0010
 1372SOL    HW115749   2.707   4.329   1.758 -0.7411  1.4695 -3.0798
 1372SOL    HW215750   2.597   4.388   1.845  0.4052 -0.1195 -0.3328
 1373SOL     OW15751   2.011   3.908   3.221  0.3580 -0.0680 -0.1341
 1373SOL    HW115752   1.992   3.884   3.130 -0.6116  1.4315 -0.3414
 1373SOL    HW215753   2.093   3.863   3.241  1.4592  1.0652 -2.0519
 1374SOL     OW15754   2.231   4.469  10.084 -0.3120 -0.2680  0.0956
 1374SOL    HW115755   2.283   4.447  10.161 -0.2608  0.7323  0.3490
 1374SOL    HW215756   2.140   4.473  10.114 -0.3431  0.4486 -0.1072
 1375SOL     OW15757   4.031   1.486  12.481 -0.3872 -0.5862 -0.0690
 1375SOL    HW115758   4.100   1.434  12.441 -0.6869  0.4748 -1.9584
 1375SOL    HW215759   3.949   1.439  12.496  0.2695 -1.8325 -0.4159
 1376SOL     OW15760   2.613   3.133   4.424  0.3712 -0.6759  0.3612
 1376SOL    HW115761   2.653   3.077   4.491  2.0590 -0.3372 -0.3626
 1376SOL    HW215762   2.651   3.218   4.447  0.4882 -0.4477 -0.6681
 1377SOL     OW15763   0.487   0.616   9.098 -0.0623  0.3525 -0.1983
 1377SOL    HW115764   0.503   0.528   9.065 -0.6493  0.0662  0.2787
 1377SOL    HW215765   0.574   0.655   9.109  0.3906 -1.2694  1.9547
 1378SOL     OW15766   0.969   2.573   9.906  0.0824 -0.0415 -0.0879
 1378SOL    HW115767   0.972   2.527   9.990 -0.0202 -1.3992 -0.8227
 1378SOL    HW215768   1.015   2.511   9.849 -2.1728 -0.5619 -1.3268
 1379SOL     OW15769   0.191   1.755   5.185 -0.0426  0.0668 -0.1407
 1379SOL    HW115770   0.196   1.713   5.271  2.0148  2.4733  0.9213
 1379SOL    HW215771   0.212   1.676   5.135 -1.8273 -1.9222  2.3032
 1380SOL     OW15772   0.993   0.934   3.360 -0.0932 -0.1349  0.0435
 1380SOL    HW115773   0.944   0.870   3.309 -0.6916  1.2790 -1.1483
 1380SOL    HW215774   1.068   0.882   3.389  0.7185  1.5476  0.9460
 1381SOL     OW15775   0.795   0.882   1.942  0.1438  0.0917  0.4354
 1381SOL    HW115776   0.715   0.832   1.953 -0.3109  0.4936 -1.0789
 1381SOL    HW215777   0.857   0.828   1.991  1.3726 -1.4816 -2.8354
 1382SOL     OW15778   3.181   4.074   9.354 -0.1686  0.2741  0.3343
 1382SOL    HW115779   3.172   4.025   9.272 -0.8972 -0.7501  1.0310
 1382SOL    HW215780   3.088   4.076   9.375 -0.5160  0.4784 -1.2147
 1383SOL     OW15781   3.626   4.110   1.739 -0.1080 -0.4818  0.2661
 1383SOL    HW115782   3.537   4.140   1.759  0.2790  0.0910  1.0859
 1383SOL    HW215783   3.603   4.020   1.716 -1.7131 -0.2774  1.0452
 1384SOL     OW15784   0.524   3.814   7.112 -0.4644  0.5165 -0.1181
 1384SOL    HW115785   0.454   3.750   7.125  0.6833 -0.9043 -0.8757
 1384SOL    HW215786   0.596   3.758   7.083  0.0488  0.9293  0.3712
 1385SOL     OW15787   1.752   3.485   6.543 -0.0888 -1.2360 -0.4392
 1385SOL    HW115788   1.838   3.459   6.574 -0.4011  0.9392  2.2055
 1385SOL    HW215789   1.737   3.450   6.455  0.8105  1.2272 -1.5697
 1386SOL     OW15790   4.049   3.303   7.562  0.4320 -0.1770 -0.1174
 1386SOL    HW115791   4.047   3.360   7.485 -1.4099  0.8313  0.6624
 1386SOL    HW215792   3.992   3.343   7.627  1.7352  0.4397  0.6465
 1387SOL     OW15793   0.661   4.630   3.709  0.5123 -0.2946 -0.3831
 1387SOL    HW115794   0.567   4.639   3.725  0.6686 -0.7923  0.8141
 1387SOL    HW215795   0.684   4.698   3.645 -1.9727 -0.2101 -1.1763
 1388SOL     OW15796   1.130   2.708   7.570  0.2329 -0.3952 -0.1104
 1388SOL    HW115797   1.221   2.709   7.600  0.8566 -1.2704 -1.9837
 1388SOL    HW215798   1.139   2.704   7.475  0.5276  1.8566 -0.1766
 1389SOL     OW15799   2.068   2.800   8.425 -0.2973 -0.1341 -0.2643
 1389SOL    HW115800   2.122   2.766   8.353 -2.1227 -1.0225 -1.2091
 1389SOL    HW215801   2.026   2.873   8.380 -3.5258 -1.6264  0.3716
 1390SOL     OW15802   1.954   1.816   3.752 -0.6226 -0.3257 -0.0230
 1390SOL    HW115803   1.884   1.751   3.745 -1.5543  0.6141  0.6997
 1390SOL    HW215804   2.028   1.787   3.698 -0.1720  1.2059 -0.2071
 1391SOL     OW15805   1.092   0.907   4.179  0.2156  0.3740  0.4322
 1391SOL    HW115806   1.028   0.866   4.237  0.4363  0.0211  0.4257
 1391SOL    HW215807   1.164   0.844   4.181  0.0787  0.2871  2.2063
 1392SOL     OW15808   3.053   2.621   9.073  0.0535  0.3285 -0.2270
 1392SOL    HW115809   2.960   2.640   9.063 -0.6891 -2.9947  0.3196
 1392SOL    HW215810   3.044   2.560   9.147  0.7928  1.8736  1.1255
 1393SOL     OW15811   2.136   1.665   3.623  0.2002  0.5394  0.2380
 1393SOL    HW115812   2.150   1.687   3.531  1.0858 -0.7747  0.0532
 1393SOL    HW215813   2.219   1.620   3.639 -1.0117 -2.0294 -0.6790
 1394SOL     OW15814   2.318   2.575   4.344 -0.1229  0.5369 -0.0150
 1394SOL    HW115815   2.390   2.637   4.330  0.3015  0.0162 -0.1497
 1394SOL    HW215816   2.374   2.500   4.365  2.5472  2.5661  0.0715
 1395SOL     OW15817   2.214   4.033   8.699 -0.1388 -0.0339 -0.2657
 1395SOL    HW115818   2.236   4.090   8.625 -4.3274 -0.6297 -1.9553
 1395SOL    HW215819   2.292   3.980   8.716 -0.3725 -0.0770  0.7027
 1396SOL     OW15820   1.850   4.638  12.856 -0.2153  0.2141  0.2557
 1396SOL    HW115821   1.915   4.578  12.891  0.9048 -0.3174 -2.8104
 1396SOL    HW215822   1.907   4.705  12.819  0.9944 -1.7937 -1.4324
 1397SOL     OW15823   2.324   2.118  15.960  0.5844 -0.4294  0.0150
 1397SOL    HW115824   2.244   2.152  16.001 -0.5087 -2.1974 -0.6802
 1397SOL    HW215825   2.372   2.201  15.960  2.9998 -1.8260  2.4027
 1398SOL     OW15826   1.839   1.911   0.257  0.0560  0.1936  0.4515
 1398SOL    HW115827   1.787   1.969   0.202 -2.8349 -1.2564  1.6836
 1398SOL    HW215828   1.852   1.975   0.327 -0.6565  1.1681 -0.3159
 1399SOL     OW15829   3.123   2.306   7.228  0.3760  0.0796  0.2889
 1399SOL    HW115830   3.142   2.239   7.294 -0.6557 -0.4398  0.0620
 1399SOL    HW215831   3.192   2.371   7.242 -0.2019  0.5648  0.8685
 1400SOL     OW15832   0.873   3.158   8.551 -0.0132  0.1142 -0.0494
 1400SOL    HW115833   0.783   3.141   8.577  0.7785 -1.1324  1.8741
 1400SOL    HW215834   0.914   3.072   8.556  0.0624  0.2252  1.2282
 1401SOL     OW15835   0.199   4.321   9.482  0.2935 -0.0670  0.7339
 1401SOL    HW115836   0.291   4.340   9.503  0.6238 -0.2924 -0.5267
 1401SOL    HW215837   0.153   4.393   9.524 -2.2918 -0.4244 -1.5003
 1402SOL     OW15838   0.756   1.821   9.685 -0.3452 -0.1609 -0.0667
 1402SOL    HW115839   0.689   1.795   9.749 -1.8528  2.7399 -0.4771
 1402SOL    HW215840   0.802   1.739   9.666  0.0030 -0.0339  0.2260
 1403SOL     OW15841   1.255   3.104  15.904  0.3134 -0.8491  0.2606
 1403SOL    HW115842   1.194   3.147  15.842 -0.2763 -1.0303  0.7159
 1403SOL    HW215843   1.196   3.090  15.978  1.9116 -0.5948  1.5776
 1404SOL     OW15844   3.721   0.470   2.007  0.2593 -0.1005  0.1461
 1404SOL    HW115845   3.646   0.450   1.952  0.3015  0.1013  0.0124
 1404SOL    HW215846   3.711   0.564   2.023  2.4089  0.3558 -1.0910
 1405SOL     OW15847   3.822   1.024   4.388 -0.0438 -0.2911  0.0576
 1405SOL    HW115848   3.850   1.113   4.367 -0.1577 -0.8264 -2.3209
 1405SOL    HW215849   3.883   1.013   4.461 -0.6479  1.9884  0.9207
 1406SOL     OW15850   4.645   2.842  13.468  0.1260 -0.0460 -0.7623
 1406SOL    HW115851   4.735   2.812  13.474 -0.3396 -1.2884  0.0913
 1406SOL    HW215852   4.642   2.866  13.375  0.9752  1.6005 -0.3470
 1407SOL     OW15853   3.637   4.394  10.145  0.7694  0.4062 -0.0890
 1407SOL    HW115854   3.689   4.456  10.094 -1.0171  0.0525 -2.3249
 1407SOL    HW215855   3.645   4.312  10.097 -0.5021  0.7039 -0.7967
 1408SOL     OW15856   2.982   3.795   8.925 -0.0187 -0.1735  0.1189
 1408SOL    HW115857   2.982   3.702   8.905 -2.1031 -0.3207  0.7499
 1408SOL    HW215858   2.893   3.826   8.942  0.1007 -0.0196  0.4746
 1409SOL     OW15859   2.063   3.985   3.878 -0.6226  0.1027 -0.6999
 1409SOL    HW115860   2.078   3.996   3.784  2.3353  2.5583  0.0617
 1409SOL    HW215861   2.062   4.076   3.907  1.3383 -0.5824  1.5606
 1410SOL     OW15862   3.601   2.839  17.066  1.0742 -0.1605  0.3109
 1410SOL    HW115863   3.686   2.800  17.047  1.0898 -0.8836  1.8300
 1410SOL    HW215864   3.542   2.768  17.041  2.1075 -0.3289 -1.5988
 1411SOL     OW15865   3.336   1.557   9.659  0.5017  0.4289 -0.1120
 1411SOL    HW115866   3.328   1.610   9.738  0.2142  0.0375  0.1238
 1411SOL    HW215867   3.429   1.539   9.665  0.1826 -1.0798  0.3231
 1412SOL     OW15868   2.315   1.890   4.091 -0.0419  0.4088  0.0529
 1412SOL    HW115869   2.353   1.889   4.179 -2.2225 -2.7537  0.9570
 1412SOL    HW215870   2.353   1.974   4.066 -0.2711  1.0572  1.9340
 1413SOL     OW15871   3.525   3.591   8.064 -0.1223 -0.1641  0.3681
 1413SOL    HW115872   3.537   3.497   8.049  0.8895  0.1478 -0.7538
 1413SOL    HW215873   3.430   3.601   8.071 -0.2516 -1.9617  0.9940
 1414SOL     OW15874   3.519   0.363  12.044  0.1266 -0.1006 -0.1293
 1414SOL    HW115875   3.536   0.441  11.992 -0.1101 -0.4113 -0.6839
 1414SOL    HW215876   3.609   0.371  12.074  1.1814  1.2080 -3.6209
 1415SOL     OW15877   1.695   0.570   6.068 -0.6971 -0.5323 -0.3041
 1415SOL    HW115878   1.665   0.616   5.990  0.9161 -0.2034 -0.7153
 1415SOL    HW215879   1.630   0.499   6.070 -0.3321 -0.8228  1.1155
 1416SOL     OW15880   3.781   3.268   8.416 -0.0309  0.0758  0.1537
 1416SOL    HW115881   3.834   3.336   8.373 -0.2450  0.2818  0.2147
 1416SOL    HW215882   3.745   3.313   8.492  1.7047  0.5576  0.6756
 1417SOL     OW15883   2.867   2.773   4.779  0.4865  0.3622 -0.0957
 1417SOL    HW115884   2.798   2.724   4.823 -0.5007  0.6278 -1.3649
 1417SOL    HW215885   2.889   2.829   4.854 -0.6024 -0.6532  0.9790
 1418SOL     OW15886   0.958   0.230  15.744 -0.1090 -0.1047 -0.2193
 1418SOL    HW115887   0.972   0.293  15.673 -0.7534 -0.1040 -0.3541
 1418SOL    HW215888   0.864   0.247  15.751  0.5301  3.0220  0.6357
 1419SOL     OW15889   0.277   0.859   6.125  0.1204 -0.0629 -0.3419
 1419SOL    HW115890   0.220   0.848   6.049  0.4064 -2.4819 -0.2120
 1419SOL    HW215891   0.231   0.804   6.188  1.0916  1.4573  1.7004
 1420SOL     OW15892   3.145   2.114   5.842  0.6332 -0.8188  0.3758
 1420SOL    HW115893   3.112   2.078   5.924  1.7528 -1.0939  0.7027
 1420SOL    HW215894   3.212   2.171   5.881 -0.0837 -2.0624  3.4531
 1421SOL     OW15895   1.547   3.218   3.095 -0.3161  0.2012 -0.1253
 1421SOL    HW115896   1.518   3.304   3.126 -1.4758 -0.7827  1.5135
 1421SOL    HW215897   1.479   3.202   3.029 -0.5566 -0.6661  0.3299
 1422SOL     OW15898   0.376   3.601   9.535  0.4735  0.1524 -0.0532
 1422SOL    HW115899   0.318   3.612   9.610  1.8926 -0.1777  1.0990
 1422SOL    HW215900   0.425   3.684   9.537 -2.3521  1.7964  1.1469
 1423SOL     OW15901   0.025   0.986   5.002 -0.5328 -0.3275  0.6459
 1423SOL    HW115902   4.684   1.014   4.960 -1.1514 -2.3875  0.4513
 1423SOL    HW215903   4.729   0.925   5.067 -1.5289  0.5663  0.9479
 1424SOL     OW15904   3.009   1.746  16.895  0.0524  0.3092  0.7012
 1424SOL    HW115905   2.981   1.656  16.910  0.8234 -0.0373  0.0046
 1424SOL    HW215906   2.934   1.803  16.914  1.7329  3.0303 -0.8669
 1425SOL     OW15907   2.098   1.651  14.464  0.1446 -0.3944 -0.5071
 1425SOL    HW115908   2.040   1.727  14.465 -0.3338 -0.7363 -2.7235
 1425SOL    HW215909   2.030   1.584  14.473  2.0896 -2.0312  1.9316
 1426SOL     OW15910   3.675   1.236  11.523  0.3503  0.2728 -0.4431
 1426SOL    HW115911   3.593   1.283  11.533  1.9753  3.0242  0.0028
 1426SOL    HW215912   3.641   1.147  11.529  0.0117  0.3454 -1.2653
 1427SOL     OW15913   1.254   3.297  16.768  0.6577 -0.2513  0.2918
 1427SOL    HW115914   1.338   3.254  16.785  1.5998  1.9112  1.1894
 1427SOL    HW215915   1.206   3.214  16.777  1.8251 -0.7115  2.4708
 1428SOL     OW15916   3.170   2.805   1.982  0.6910  0.2938  0.0509
 1428SOL    HW115917   3.160   2.710   1.986 -0.3098  0.4606  1.4711
 1428SOL    HW215918   3.159   2.831   2.074  0.0166  0.8020 -0.1795
 1429SOL     OW15919   3.156   2.541   3.122 -0.2780 -0.1851 -0.1253
 1429SOL    HW115920   3.097   2.491   3.178 -0.7578  1.6066  0.9766
 1429SOL    HW215921   3.214   2.560   3.195  0.1064  0.4883 -0.6054
 1430SOL     OW15922   2.395   4.590   8.898 -0.4965  0.3911  0.1391
 1430SOL    HW115923   2.421   4.676   8.866 -2.2207  0.7233 -0.3780
 1430SOL    HW215924   2.307   4.578   8.861  0.3405  3.6571 -2.8414
 1431SOL     OW15925   2.479   1.188   1.290 -0.1681  0.7364  0.0815
 1431SOL    HW115926   2.541   1.253   1.257 -2.3244  2.7793  0.0545
 1431SOL    HW215927   2.427   1.232   1.358 -0.6424  1.0194 -0.4662
 1432SOL     OW15928   2.372   3.971  10.875 -0.1121  0.1835  0.3101
 1432SOL    HW115929   2.368   4.055  10.828  0.6314  0.2234  0.3277
 1432SOL    HW215930   2.353   3.995  10.966 -0.7081 -0.3307  0.3226
 1433SOL     OW15931   1.309   4.728  15.947  0.4841  0.0706 -0.0689
 1433SOL    HW115932   1.232   0.044  15.957 -0.5365 -1.1862 -1.1330
 1433SOL    HW215933   1.297   4.686  15.862  0.6977  1.3684 -0.7390
 1434SOL     OW15934   4.232   1.107   5.823 -0.1692  0.5468  0.0081
 1434SOL    HW115935   4.188   1.023   5.811  0.1047  0.5606 -1.0744
 1434SOL    HW215936   4.323   1.077   5.831  0.1263  1.4438  0.0184
 1435SOL     OW15937   1.935   4.073   7.727  0.2057 -0.0051  0.4335
 1435SOL    HW115938   1.973   4.042   7.645  0.0594 -0.9930  0.7359
 1435SOL    HW215939   1.925   3.990   7.774 -0.2798  1.1647  2.3986
 1436SOL     OW15940   2.607   1.266   1.587  0.0488 -0.5674 -0.0786
 1436SOL    HW115941   2.663   1.343   1.598  1.9575 -2.0789  0.6103
 1436SOL    HW215942   2.552   1.291   1.513  1.8212  0.7256 -0.9603
 1437SOL     OW15943   3.744   3.855   9.635  0.3046  0.7868 -0.0281
 1437SOL    HW115944   3.698   3.911   9.697 -0.3130 -1.2903  1.3876
 1437SOL    HW215945   3.779   3.914   9.569  0.0139  1.0508  0.0510
 1438SOL     OW15946   3.303   4.232   5.532  0.0337  0.2763 -0.0097
 1438SOL    HW115947   3.264   4.190   5.609  3.0590 -2.0872  0.2725
 1438SOL    HW215948   3.338   4.162   5.477  0.6128  0.9510 -0.5018
 1439SOL     OW15949   3.975   0.145  12.212 -0.4616 -0.1575 -0.5809
 1439SOL    HW115950   3.983   0.204  12.288  1.2555 -2.2684  0.8859
 1439SOL    HW215951   3.904   0.087  12.240  0.2883 -1.5908 -1.6417
 1440SOL     OW15952   3.434   4.559   3.848  0.1276 -0.1853  0.0241
 1440SOL    HW115953   3.345   4.593   3.840  0.3622  0.2775 -0.6262
 1440SOL    HW215954   3.448   4.512   3.765  2.1043 -0.8784  0.7396
 1441SOL     OW15955   2.819   1.565  10.745  0.2166  0.0263  0.0053
 1441SOL    HW115956   2.742   1.620  10.759  0.8198  0.8348  0.1942
 1441SOL    HW215957   2.868   1.560  10.828 -1.1314  0.8262  0.8504
 1442SOL     OW15958   0.318   1.426   5.595 -0.4690  0.2503  0.0042
 1442SOL    HW115959   0.308   1.368   5.519  0.7542  1.0895 -0.8025
 1442SOL    HW215960   0.404   1.388   5.615  1.1024  3.2860 -0.9857
 1443SOL     OW15961   4.085   0.022   7.274  0.4838  0.3933  0.2920
 1443SOL    HW115962   3.994   4.736   7.264  0.6882  0.1859 -1.1180
 1443SOL    HW215963   4.106   0.014   7.367 -0.2996  1.4239  0.5485
 1444SOL     OW15964   4.146   0.267   7.157 -0.5026  0.5821 -0.7616
 1444SOL    HW115965   4.133   0.175   7.180 -2.2565  0.1653 -3.4054
 1444SOL    HW215966   4.168   0.312   7.238 -2.1187  0.9698 -0.5268
 1445SOL     OW15967   3.972   1.599  13.085  0.2309  0.2148 -0.8571
 1445SOL    HW115968   3.930   1.671  13.038  0.5504  1.0097  0.0647
 1445SOL    HW215969   3.941   1.615  13.174  2.7285  0.4601 -0.0255
 1446SOL     OW15970   0.631   2.599  16.635 -0.1501  0.0121 -0.1451
 1446SOL    HW115971   0.647   2.639  16.550  0.9667 -2.5842 -1.1772
 1446SOL    HW215972   0.561   2.645  16.680 -0.6406 -1.2234  0.3666
 1447SOL     OW15973   4.372   2.256   5.593 -0.6397 -0.9448  0.0288
 1447SOL    HW115974   4.440   2.311   5.634 -0.2042 -1.4198 -0.0613
 1447SOL    HW215975   4.378   2.185   5.657 -1.5511 -0.8822  0.1744
 1448SOL     OW15976   0.146   3.591   8.909 -0.5915  0.1581  0.0264
 1448SOL    HW115977   0.183   3.662   8.961 -0.0792 -1.5436  1.9820
 1448SOL    HW215978   0.157   3.510   8.960  0.6931  0.0361 -0.4530
 1449SOL     OW15979   2.857   0.003   1.286 -0.1025 -0.7301 -0.3976
 1449SOL    HW115980   2.896   4.713   1.203  1.8384  0.3913  0.1111
 1449SOL    HW215981   2.860   0.099   1.284  1.6391 -0.7385  2.5584
 1450SOL     OW15982   3.015   2.305   1.957 -0.1561  0.2553 -0.2672
 1450SOL    HW115983   2.945   2.274   1.900  0.0147 -0.7664  0.0819
 1450SOL    HW215984   3.051   2.224   1.993  0.6098  0.0550 -1.5236
 1451SOL     OW15985   1.223   3.239  16.228 -0.4623 -0.2259 -0.1749
 1451SOL    HW115986   1.235   3.326  16.266  0.0539  0.2598 -1.4821
 1451SOL    HW215987   1.228   3.265  16.136  0.0580 -0.6664 -0.2673
 1452SOL     OW15988   0.406   2.247   8.275  0.2334 -0.2665 -0.0927
 1452SOL    HW115989   0.418   2.158   8.241  2.4755 -0.1304  0.3356
 1452SOL    HW215990   0.496   2.279   8.283 -0.3905  0.7049  2.9523
 1453SOL     OW15991   4.250   3.464   6.973  0.1682  0.0411 -0.6549
 1453SOL    HW115992   4.231   3.523   7.045 -1.4718 -0.8424 -0.3574
 1453SOL    HW215993   4.207   3.498   6.894  0.2434  0.5682 -0.4663
 1454SOL     OW15994   0.391   4.547  13.814 -0.8611  0.0084 -0.2486
 1454SOL    HW115995   0.318   4.522  13.872 -0.4308  3.3502  1.7049
 1454SOL    HW215996   0.474   4.507  13.841  0.7764  3.3943 -0.3187
 1455SOL     OW15997   3.461   1.043   5.491 -0.3001  0.3166 -0.0462
 1455SOL    HW115998   3.452   0.948   5.486  2.1473  0.2312 -3.1354
 1455SOL    HW215999   3.397   1.067   5.558 -1.2447 -1.1683 -0.4133
 1456SOL     OW16000   1.439   1.720   4.587  0.0012  0.1777 -0.2764
 1456SOL    HW116001   1.400   1.748   4.504  1.5005 -0.2485 -1.1186
 1456SOL    HW216002   1.379   1.737   4.660  1.0283  0.2750  0.5467
 1457SOL     OW16003   2.400   0.112   2.576  0.1764  0.5987 -0.4565
 1457SOL    HW116004   2.463   0.042   2.562 -1.7024 -1.5147  1.7348
 1457SOL    HW216005   2.324   0.086   2.525 -0.3729  1.0840  0.1071
 1458SOL     OW16006   2.474   0.390   8.199 -0.4471  0.3536 -0.3442
 1458SOL    HW116007   2.422   0.470   8.201  0.0585  0.6398  0.9042
 1458SOL    HW216008   2.406   0.330   8.231 -0.3509  0.8070  0.7234
 1459SOL     OW16009   4.713   0.105   4.060  0.5477 -0.0211  0.1720
 1459SOL    HW116010   4.718   0.076   4.151 -0.0434 -3.1303 -0.7904
 1459SOL    HW216011   4.628   0.073   4.031 -0.4766  0.7218  2.3109
 1460SOL     OW16012   4.603   1.166  13.386  0.3997 -0.2348  0.6795
 1460SOL    HW116013   4.610   1.120  13.303  3.0125  0.1580  0.6920
 1460SOL    HW216014   4.541   1.108  13.431  1.5223 -3.0331 -1.4629
 1461SOL     OW16015   0.148   3.815  15.248 -0.0941  0.1038 -0.0485
 1461SOL    HW116016   0.062   3.803  15.207 -0.9684  0.7318  1.5597
 1461SOL    HW216017   0.119   3.830  15.338  2.3734  1.7847  0.4655
 1462SOL     OW16018   2.211   1.926  15.772 -0.0347  0.0265  0.6265
 1462SOL    HW116019   2.242   1.963  15.690 -0.1845 -0.4377  0.3584
 1462SOL    HW216020   2.242   1.987  15.839  0.0682  0.6321  0.0206
 1463SOL     OW16021   1.085   3.809   0.845 -0.6872  0.0471 -0.1583
 1463SOL    HW116022   1.104   3.777   0.757  2.5503  1.1583  0.1442
 1463SOL    HW216023   1.148   3.760   0.898  0.4182  2.0286  0.3566
 1464SOL     OW16024   4.215   1.776   6.427  0.1411 -0.8184  0.4622
 1464SOL    HW116025   4.185   1.690   6.399 -1.3804 -0.1958  0.1872
 1464SOL    HW216026   4.202   1.824   6.346 -0.4741 -1.0404  0.4323
 1465SOL     OW16027   1.339   0.296   4.582 -0.1673  0.3684  0.0282
 1465SOL    HW116028   1.288   0.336   4.652 -0.3054  2.4057 -1.2607
 1465SOL    HW216029   1.407   0.250   4.631 -0.9895 -0.1828  0.6617
 1466SOL     OW16030   2.596   1.408   5.316 -0.0147  0.4060 -0.7023
 1466SOL    HW116031   2.570   1.457   5.237  2.3530  1.0633 -1.0723
 1466SOL    HW216032   2.515   1.381   5.359  0.7200 -0.4454  0.1383
 1467SOL     OW16033   1.325   4.147   5.421  0.1273  0.6606 -0.1257
 1467SOL    HW116034   1.333   4.070   5.365 -1.1565  0.2990  0.1773
 1467SOL    HW216035   1.312   4.210   5.351  0.7749  0.8000 -0.1183
 1468SOL     OW16036   3.158   2.899   4.450  0.0453  0.1700 -0.1142
 1468SOL    HW116037   3.244   2.941   4.448 -0.4313  1.1109 -0.5887
 1468SOL    HW216038   3.126   2.908   4.539  1.7390 -0.8052  0.6071
 1469SOL     OW16039   0.078   0.667   2.710 -0.2544  0.1883 -0.2829
 1469SOL    HW116040   0.103   0.745   2.760 -0.7455 -0.0435  0.3234
 1469SOL    HW216041   0.166   0.640   2.684  0.3417  0.6911  1.2015
 1470SOL     OW16042   2.075   1.754   5.405  0.3260  0.1718 -0.1759
 1470SOL    HW116043   2.110   1.841   5.389  0.2491  0.1737 -0.3381
 1470SOL    HW216044   2.126   1.711   5.336 -0.1585 -0.2846 -0.2525
 1471SOL     OW16045   2.732   0.082   1.901 -0.4330 -0.9782 -0.2887
 1471SOL    HW116046   2.683   0.077   1.819 -0.1297 -3.3459 -0.3501
 1471SOL    HW216047   2.686   0.022   1.961  0.9767 -1.8390 -0.0398
 1472SOL     OW16048   0.672   3.040   6.063 -0.4637 -0.9451 -0.1912
 1472SOL    HW116049   0.639   2.964   6.112 -2.6011  1.4723  2.0552
 1472SOL    HW216050   0.595   3.097   6.060 -0.4722 -0.9952 -1.0202
 1473SOL     OW16051   3.682   3.516   1.723  0.3064  0.7241  0.3011
 1473SOL    HW116052   3.710   3.424   1.719  1.3283  1.0581 -0.1334
 1473SOL    HW216053   3.595   3.520   1.684  0.6951 -0.0770 -0.6469
 1474SOL     OW16054   3.125   3.304   0.936  0.1415  0.2500  0.1696
 1474SOL    HW116055   3.097   3.241   1.003 -1.9198  0.5970 -0.3679
 1474SOL    HW216056   3.091   3.385   0.973  0.4955 -0.1518  1.3901
 1475SOL     OW16057   3.789   2.852   0.985  0.3160 -0.6414  0.9387
 1475SOL    HW116058   3.776   2.761   1.012  0.5978 -0.7168  0.8277
 1475SOL    HW216059   3.842   2.844   0.906 -0.6883  0.9332  0.1263
 1476SOL     OW16060   1.268   3.837  14.870  0.2951 -0.1246 -0.6547
 1476SOL    HW116061   1.228   3.811  14.787  0.8176  0.0132 -0.9485
 1476SOL    HW216062   1.243   3.766  14.929  3.0045  0.3160  1.0472
 1477SOL     OW16063   1.301   4.703  15.473  0.0206  0.3584  0.0072
 1477SOL    HW116064   1.223   0.002  15.434 -0.5364 -0.6104  0.1772
 1477SOL    HW216065   1.356   0.042  15.474  3.2167 -1.9020  1.2786
 1478SOL     OW16066   1.045   0.342  13.834 -0.1551  0.0920 -0.1363
 1478SOL    HW116067   1.079   0.332  13.745 -1.5171  0.5920 -0.7087
 1478SOL    HW216068   1.115   0.332  13.899 -0.7596 -0.3720  0.4488
 1479SOL     OW16069   4.271   2.905   3.034 -0.9971  0.2313  0.6772
 1479SOL    HW116070   4.249   2.963   2.960  4.0955 -1.0513 -1.8586
 1479SOL    HW216071   4.203   2.840   3.021  0.3927 -1.2430  0.7852
 1480SOL     OW16072   2.605   0.963   7.456  0.5049 -0.5462 -0.3444
 1480SOL    HW116073   2.545   0.895   7.484 -0.7624  1.6869  2.3485
 1480SOL    HW216074   2.644   0.987   7.540  1.0091 -3.1627  0.1749
 1481SOL     OW16075   4.171   3.071  13.806  0.2908  0.2515 -0.0611
 1481SOL    HW116076   4.115   3.010  13.758  0.7948 -0.1319 -0.1607
 1481SOL    HW216077   4.124   3.153  13.790 -1.6349 -0.6694  1.0064
 1482SOL     OW16078   1.114   3.862  10.405  0.8422  0.7284 -0.5004
 1482SOL    HW116079   1.119   3.794  10.472  0.6611  0.5435 -0.6749
 1482SOL    HW216080   1.163   3.933  10.446  1.5242 -1.0239  1.7322
 1483SOL     OW16081   1.253   1.473   1.244 -0.3604 -0.3622 -0.4126
 1483SOL    HW116082   1.338   1.442   1.213  0.1367  0.3576  0.2535
 1483SOL    HW216083   1.248   1.555   1.196  0.4438  0.4703  0.9322
 1484SOL     OW16084   1.224   4.412   9.117 -0.2163  0.1058 -0.6614
 1484SOL    HW116085   1.254   4.495   9.155  0.0678 -0.1098 -0.4157
 1484SOL    HW216086   1.167   4.445   9.047 -0.2629  2.0169  0.2679
 1485SOL     OW16087   3.944   1.741  12.591  0.2325 -0.0025  0.4721
 1485SOL    HW116088   4.014   1.679  12.611  0.7213 -0.4201 -2.5656
 1485SOL    HW216089   3.898   1.690  12.524 -1.5949  0.0590  1.6891
 1486SOL     OW16090   2.114   0.643   1.067  0.4896  0.4860 -0.4611
 1486SOL    HW116091   2.134   0.706   1.136 -0.8150  0.9002 -0.4511
 1486SOL    HW216092   2.122   0.561   1.116 -1.2960  0.5882  0.0059
 1487SOL     OW16093   0.715   2.703   8.651 -0.2970  0.3775  0.1695
 1487SOL    HW116094   0.631   2.719   8.695 -0.2768  1.2685 -0.1067
 1487SOL    HW216095   0.757   2.658   8.724 -0.5057  1.0781  0.7203
 1488SOL     OW16096   1.649   1.318   8.525  0.3300 -0.4554 -0.0907
 1488SOL    HW116097   1.660   1.342   8.617  0.8600  0.1810 -0.3214
 1488SOL    HW216098   1.712   1.246   8.516  0.9874  0.0754  0.2956
 1489SOL     OW16099   4.385   1.429   2.339 -0.0885 -0.2920 -0.0583
 1489SOL    HW116100   4.434   1.365   2.287  0.8863  1.2540 -1.0551
 1489SOL    HW216101   4.316   1.374   2.377  0.8350 -0.9281  0.6798
 1490SOL     OW16102   4.629   0.095  12.812 -0.0174  0.2397  0.7069
 1490SOL    HW116103   4.634   0.093  12.908 -0.1862 -0.1940  0.7060
 1490SOL    HW216104   4.551   0.151  12.804  0.4489  0.7046 -0.4746
 1491SOL     OW16105   1.938   0.301   2.793  0.0278 -0.0879  0.3861
 1491SOL    HW116106   2.012   0.361   2.808 -0.6082  0.4565  1.3627
 1491SOL    HW216107   1.973   0.222   2.835  1.0828 -0.5802 -1.4045
 1492SOL     OW16108   1.708   0.859   4.468  0.0697 -0.7706 -0.6644
 1492SOL    HW116109   1.715   0.953   4.451  0.9247 -1.1753 -2.5804
 1492SOL    HW216110   1.614   0.841   4.469  0.2056 -1.4320 -0.0663
 1493SOL     OW16111   4.510   2.592   7.092  0.4173  0.4483 -0.2538
 1493SOL    HW116112   4.435   2.631   7.136  0.1602  0.2881 -0.5554
 1493SOL    HW216113   4.580   2.612   7.155  1.4324 -2.1571 -0.5276
 1494SOL     OW16114   4.572   0.326   5.785 -0.1147 -0.3009  0.4754
 1494SOL    HW116115   4.526   0.369   5.858 -0.0400 -3.0003  2.0889
 1494SOL    HW216116   4.661   0.356   5.805 -0.7262  2.4016 -0.9130
 1495SOL     OW16117   1.435   3.011  12.400 -0.2014 -0.8389 -0.2064
 1495SOL    HW116118   1.394   2.960  12.470 -1.7082  0.3585 -0.2239
 1495SOL    HW216119   1.441   3.092  12.450  1.4176  0.7969 -2.9948
 1496SOL     OW16120   2.552   0.283   4.925  0.3179 -0.2529  0.5326
 1496SOL    HW116121   2.468   0.276   4.971  1.3067 -1.6506  2.1452
 1496SOL    HW216122   2.563   0.378   4.934  0.2686 -0.1418 -0.6562
 1497SOL     OW16123   1.865   4.007   3.426  0.5497 -0.1403 -0.5318
 1497SOL    HW116124   1.790   3.947   3.425  0.4225  0.0349 -2.5793
 1497SOL    HW216125   1.909   3.978   3.346  0.5301 -0.6954 -0.3409
 1498SOL     OW16126   3.344   2.460   7.231 -0.3317  0.0120  0.0125
 1498SOL    HW116127   3.350   2.533   7.169  1.0605  1.0006  1.2974
 1498SOL    HW216128   3.433   2.451   7.266  0.0029 -0.0948 -0.8658
 1499SOL     OW16129   3.217   2.279   7.618 -0.0701  0.2374  0.1261
 1499SOL    HW116130   3.296   2.255   7.666  0.8049 -0.0180 -1.4261
 1499SOL    HW216131   3.147   2.270   7.682  0.4676 -0.9455  0.5619
 1500SOL     OW16132   2.113   1.632   6.163  0.2891  0.1818 -0.0758
 1500SOL    HW116133   2.101   1.712   6.213  2.9882  0.4574  0.1303
 1500SOL    HW216134   2.080   1.667   6.080  0.6002  2.3905  0.7409
 1501SOL     OW16135   1.751   4.592   2.735 -1.0519 -0.4319  0.3408
 1501SOL    HW116136   1.745   4.682   2.767 -1.3905 -0.3134 -0.0491
 1501SOL    HW216137   1.798   4.537   2.798  3.2336  0.6850 -1.8241
 1502SOL     OW16138   2.569   0.693   7.680  0.8521 -0.3633  0.0880
 1502SOL    HW116139   2.555   0.601   7.701 -0.1342 -0.1591  0.3257
 1502SOL    HW216140   2.595   0.747   7.755 -2.9330  2.1617 -0.4141
 1503SOL     OW16141   0.693   2.988   6.416 -1.0518  0.2691 -0.6636
 1503SOL    HW116142   0.778   2.954   6.388 -0.3578  1.8127 -0.4770
 1503SOL    HW216143   0.636   2.919   6.383 -1.0003  0.0603 -0.3233
 1504SOL     OW16144   3.346   1.396   1.431 -0.3368  0.1954  0.0303
 1504SOL    HW116145   3.423   1.414   1.378  1.1643  2.5438  2.9396
 1504SOL    HW216146   3.298   1.332   1.379  1.0372 -0.3934 -0.5101
 1505SOL     OW16147   0.467   3.477   6.886  0.0959 -0.4290 -0.4530
 1505SOL    HW116148   0.464   3.396   6.938  1.1505  0.5066  1.0638
 1505SOL    HW216149   0.422   3.443   6.809  0.4325 -1.1755 -0.3201
 1506SOL     OW16150   1.044   4.648   1.775 -0.8116  0.7772 -0.1802
 1506SOL    HW116151   1.067   4.555   1.781 -2.2608  0.6036  2.5678
 1506SOL    HW216152   0.966   4.656   1.830 -0.6041 -1.4207  0.4439
 1507SOL     OW16153   4.305   2.034   2.739 -0.3224  0.3130  0.1959
 1507SOL    HW116154   4.301   2.102   2.806  0.7426  0.2451  0.3349
 1507SOL    HW216155   4.373   1.973   2.767 -1.4050 -1.7408 -1.6269
 1508SOL     OW16156   1.782   0.666   2.578 -0.2097 -0.6977 -0.1897
 1508SOL    HW116157   1.852   0.603   2.564 -1.2847 -2.0157  0.3766
 1508SOL    HW216158   1.820   0.734   2.635 -1.1913  0.0384 -0.4010
 1509SOL     OW16159   0.832   4.116   7.455  0.0618  0.3670 -0.5366
 1509SOL    HW116160   0.921   4.099   7.424 -0.1182 -3.4323  0.9324
 1509SOL    HW216161   0.796   4.065   7.382  2.0076 -0.8676 -0.6225
 1510SOL     OW16162   4.414   1.707   2.615 -0.0355  0.2424  0.4771
 1510SOL    HW116163   4.350   1.680   2.680  1.9275 -0.3597  2.1568
 1510SOL    HW216164   4.350   1.710   2.544 -1.2963 -1.2825  1.5513
 1511SOL     OW16165   2.033   4.733   1.943 -0.4958  0.4839 -0.2874
 1511SOL    HW116166   1.976   0.037   2.006  1.9846  2.7693  0.3102
 1511SOL    HW216167   2.045   0.068   1.884  2.2907 -1.4270 -2.1088
 1512SOL     OW16168   0.340   3.539  13.677  0.3550  0.1751  0.0593
 1512SOL    HW116169   0.337   3.623  13.724  0.4798 -0.4370  1.1631
 1512SOL    HW216170   0.416   3.500  13.720 -0.1049 -1.3182 -0.5093
 1513SOL     OW16171   2.325   0.204   0.685  0.5252 -0.0275 -0.8922
 1513SOL    HW116172   2.377   0.215   0.606  1.5270 -0.2045 -0.2459
 1513SOL    HW216173   2.356   0.117   0.710 -0.1692  0.0791  0.3420
 1514SOL     OW16174   1.994   1.485  17.207  0.7494  0.0581  0.2473
 1514SOL    HW116175   1.919   1.465  17.150  0.9789 -2.6066  0.8962
 1514SOL    HW216176   2.026   1.398  17.231 -0.1569  0.2983  2.3468
 1515SOL     OW16177   2.950   0.826   0.960 -0.5087 -0.2014  0.3906
 1515SOL    HW116178   2.914   0.738   0.969 -1.9803  0.2907 -0.6908
 1515SOL    HW216179   3.044   0.812   0.956 -0.4652  0.4723 -0.8847
 1516SOL     OW16180   4.400   4.227  15.107 -0.1221  0.2864  0.4730
 1516SOL    HW116181   4.422   4.134  15.102 -0.8161  0.1878 -0.6570
 1516SOL    HW216182   4.331   4.238  15.042 -0.0542 -0.5835  0.2575
 1517SOL     OW16183   0.094   2.441   4.642 -0.7564 -0.5396  0.0843
 1517SOL    HW116184   0.015   2.407   4.600 -1.0246  0.5427 -0.2828
 1517SOL    HW216185   0.158   2.370   4.653 -0.1540  0.2452  1.5638
 1518SOL     OW16186   0.791   1.043   6.310  1.1736 -0.3630 -0.1996
 1518SOL    HW116187   0.787   1.093   6.392  1.2399 -1.1509  0.2792
 1518SOL    HW216188   0.845   1.093   6.249  2.0289  0.4790  1.2473
 1519SOL     OW16189   2.998   4.541  17.531  0.4909 -0.9236 -0.1463
 1519SOL    HW116190   2.937   4.595  17.481 -2.0007 -3.2091  0.4608
 1519SOL    HW216191   3.065   4.514  17.468 -2.5601 -1.6756 -3.0463
 1520SOL     OW16192   4.285   1.563   8.893 -0.4891  0.0128 -0.0734
 1520SOL    HW116193   4.211   1.507   8.919 -0.0975 -0.2488  0.4765
 1520SOL    HW216194   4.309   1.525   8.808  0.6770  1.6539 -0.4750
 1521SOL     OW16195   1.433   3.160   4.104 -0.6761  0.0748 -0.0311
 1521SOL    HW116196   1.469   3.175   4.192  1.8562 -1.4102 -0.8075
 1521SOL    HW216197   1.342   3.140   4.123 -0.6188  2.0569  2.4181
 1522SOL     OW16198   2.769   1.252  16.744 -0.0218  0.2686  0.1211
 1522SOL    HW116199   2.855   1.215  16.722  0.1013 -0.4269  1.7396
 1522SOL    HW216200   2.721   1.177  16.709  0.7511 -0.8378  1.4362
 1523SOL     OW16201   1.833   0.091  13.565  0.1099 -0.5068  0.2331
 1523SOL    HW116202   1.808   0.112  13.655 -2.1902 -1.9708 -0.0688
 1523SOL    HW216203   1.919   0.132  13.563 -0.6414  0.9667 -1.5424
 1524SOL     OW16204   4.174   3.348  14.044 -0.0562 -0.1082  0.0503
 1524SOL    HW116205   4.140   3.324  13.957  1.8417 -0.3894 -0.6107
 1524SOL    HW216206   4.131   3.433  14.050 -1.3536 -0.7112 -0.5610
 1525SOL     OW16207   3.315   1.129  14.758 -0.1090  0.0274 -0.1046
 1525SOL    HW116208   3.394   1.182  14.773  0.4018 -0.7139 -0.1799
 1525SOL    HW216209   3.292   1.104  14.847 -0.7891 -1.6177 -0.7505
 1526SOL     OW16210   0.379   3.161  17.350  0.5954 -0.6541 -0.2919
 1526SOL    HW116211   0.295   3.124  17.322 -0.3042  2.3246 -1.5020
 1526SOL    HW216212   0.373   3.127  17.440  2.0074 -0.1637 -0.0263
 1527SOL     OW16213   4.514   3.642   5.615  0.3477  0.3328 -0.4143
 1527SOL    HW116214   4.487   3.612   5.528  0.6409  0.9074 -0.7066
 1527SOL    HW216215   4.517   3.737   5.601 -1.6418  0.1378 -2.1995
 1528SOL     OW16216   0.758   3.582   5.836  0.4012  0.0783  0.2010
 1528SOL    HW116217   0.663   3.569   5.839  0.4298 -0.0291  0.7029
 1528SOL    HW216218   0.754   3.676   5.820  0.1692 -0.3171 -2.1548
 1529SOL     OW16219   3.672   1.786   7.646  0.0777 -0.0257  0.2421
 1529SOL    HW116220   3.734   1.858   7.654 -0.0213  0.1830 -0.8663
 1529SOL    HW216221   3.736   1.717   7.626  0.5606  1.0028 -1.7051
 1530SOL     OW16222   3.332   2.479  11.045 -0.3800  0.1640  0.1279
 1530SOL    HW116223   3.419   2.457  11.079 -1.3610 -0.0165  2.5749
 1530SOL    HW216224   3.335   2.452  10.954 -0.4383  2.2127 -0.4675
 1531SOL     OW16225   4.325   1.873  11.169  0.0546 -0.7860  0.1469
 1531SOL    HW116226   4.400   1.815  11.157 -1.2424 -2.0242 -1.8754
 1531SOL    HW216227   4.256   1.816  11.136  0.0370  1.0435 -2.9910
 1532SOL     OW16228   1.595   3.434   9.041 -0.1086 -0.1502 -1.3383
 1532SOL    HW116229   1.608   3.343   9.015  0.9954 -0.4624  0.3573
 1532SOL    HW216230   1.515   3.471   9.003 -1.1338  0.8425  1.8150
 1533SOL     OW16231   3.934   3.913  10.259 -0.5727  0.3061  0.2809
 1533SOL    HW116232   3.981   3.977  10.314  1.0981 -1.3309  0.7611
 1533SOL    HW216233   3.853   3.962  10.246  1.1485  3.2452  0.5130
 1534SOL     OW16234   1.925   4.537   0.812 -0.1138  0.3559 -0.5384
 1534SOL    HW116235   1.844   4.567   0.851  0.3063  1.6629 -0.6652
 1534SOL    HW216236   1.947   4.616   0.762  1.3078  0.6903  0.6129
 1535SOL     OW16237   2.039   0.985   4.859  0.7023 -0.0796  0.0216
 1535SOL    HW116238   2.086   1.043   4.799  0.5929 -0.1921 -0.1733
 1535SOL    HW216239   1.964   0.949   4.812 -0.8300  1.9023  0.9631
 1536SOL     OW16240   4.367   2.843   6.684 -0.2550  0.0020 -0.4023
 1536SOL    HW116241   4.290   2.861   6.738 -0.8989 -0.1899 -1.2468
 1536SOL    HW216242   4.422   2.919   6.701  2.0512 -1.3066 -2.0599
 1537SOL     OW16243   0.962   4.477   3.757 -0.3439  0.7098 -0.2500
 1537SOL    HW116244   0.942   4.548   3.818 -0.3214 -0.6305  1.3404
 1537SOL    HW216245   0.893   4.489   3.692 -0.7176  0.2007  0.0518
 1538SOL     OW16246   1.266   1.487   7.257  0.5464 -0.1652  0.2425
 1538SOL    HW116247   1.256   1.577   7.224 -0.0505  0.2693  1.5890
 1538SOL    HW216248   1.307   1.451   7.179 -1.0649  0.9240 -1.1193
 1539SOL     OW16249   1.849   0.319  11.952  0.1452  0.1426 -0.6593
 1539SOL    HW116250   1.898   0.251  11.907  1.8501  0.5942  0.4852
 1539SOL    HW216251   1.788   0.351  11.886  0.3687 -1.6489 -1.7210
 1540SOL     OW16252   2.389   3.345   2.696 -0.1047  0.1683 -0.2181
 1540SOL    HW116253   2.465   3.367   2.642  1.1535 -0.5913  1.2263
 1540SOL    HW216254   2.413   3.261   2.734 -2.0356  0.2494  1.1450
 1541SOL     OW16255   2.855   2.268   7.363  0.0500 -0.2050 -0.0528
 1541SOL    HW116256   2.910   2.327   7.312 -0.8876 -0.2397 -1.1254
 1541SOL    HW216257   2.864   2.303   7.451 -1.4204  1.2425 -0.4660
 1542SOL     OW16258   3.651   0.910   8.683  0.3884 -0.0524  0.2135
 1542SOL    HW116259   3.746   0.899   8.681 -0.0405 -3.1654 -1.4934
 1542SOL    HW216260   3.615   0.830   8.647  1.3093  0.1155 -1.0824
 1543SOL     OW16261   4.030   3.717   1.163 -0.0980 -0.0043  0.1222
 1543SOL    HW116262   3.947   3.764   1.173  0.2616  0.6250  0.1444
 1543SOL    HW216263   4.018   3.675   1.078 -2.4333 -1.8428  1.3348
 1544SOL     OW16264   2.518   4.375   8.781 -0.0230 -1.0054 -0.1025
 1544SOL    HW116265   2.511   4.446   8.845 -0.2887 -1.8276  0.7647
 1544SOL    HW216266   2.482   4.298   8.825  0.9972 -0.3435  1.9007
 1545SOL     OW16267   1.454   2.132   5.961 -0.0074  0.0034  0.2210
 1545SOL    HW116268   1.494   2.137   5.874  0.4447  2.1403  0.5349
 1545SOL    HW216269   1.443   2.038   5.965 -1.6546  0.2258  0.6928
 1546SOL     OW16270   1.244   3.709   3.899  0.5037  0.2090  0.8775
 1546SOL    HW116271   1.195   3.761   3.962 -0.0211 -0.3906  0.9654
 1546SOL    HW216272   1.206   3.621   3.903  2.4468 -0.5952  1.3507
 1547SOL     OW16273   0.922   0.118  10.479  0.2577 -0.3039 -0.6516
 1547SOL    HW116274   0.957   0.034  10.451 -0.3279 -0.6829 -0.2610
 1547SOL    HW216275   0.892   0.147  10.393  0.9826  0.8951 -0.5076
 1548SOL     OW16276   3.850   3.960  11.007 -0.2906 -0.1789  0.4431
 1548SOL    HW116277   3.886   3.883  10.963  1.3922  0.8945 -0.0800
 1548SOL    HW216278   3.925   3.980  11.064 -0.2987 -0.0581  0.4115
 1549SOL     OW16279   0.410   3.515   6.341  0.7028 -0.0242  0.0887
 1549SOL    HW116280   0.427   3.607   6.360  0.4697  0.1927 -0.7626
 1549SOL    HW216281   0.458   3.521   6.259 -1.7019 -0.4299 -1.3623
 1550SOL     OW16282   1.610   2.521   5.333 -0.2942 -0.9343  0.3206
 1550SOL    HW116283   1.609   2.609   5.295  0.0170 -0.9520  0.2711
 1550SOL    HW216284   1.588   2.460   5.262  0.8258 -0.8754 -0.0798
 1551SOL     OW16285   2.857   2.228  17.334  0.4096 -0.2392 -0.2642
 1551SOL    HW116286   2.844   2.295  17.267 -0.9190 -0.2556 -0.0246
 1551SOL    HW216287   2.879   2.154  17.278 -0.8841 -0.4499 -0.4924
 1552SOL     OW16288   1.816   2.015   2.546  0.1370  0.0197  0.5335
 1552SOL    HW116289   1.813   2.108   2.568  1.3825  0.3212 -0.5657
 1552SOL    HW216290   1.900   1.990   2.583  1.0756  0.2134 -1.4387
 1553SOL     OW16291   2.883   1.671   0.352 -0.6203  0.2330 -0.2808
 1553SOL    HW116292   2.965   1.621   0.357  0.0388  1.3032 -0.4162
 1553SOL    HW216293   2.905   1.762   0.370 -1.6553  0.0220  2.0422
 1554SOL     OW16294   4.662   3.370  17.133  0.1210 -0.4222  0.4832
 1554SOL    HW116295   4.672   3.456  17.092 -1.6403  0.9066  2.8901
 1554SOL    HW216296   4.737   3.380  17.190  0.2579 -0.1959  0.2633
 1555SOL     OW16297   1.980   3.587   9.875  0.2975 -0.0055 -0.1170
 1555SOL    HW116298   1.904   3.569   9.931  0.8415  1.8055  1.2005
 1555SOL    HW216299   1.966   3.680   9.854  0.4010  0.3089  1.2624
 1556SOL     OW16300   3.893   3.020  16.023 -0.3283 -0.4342  0.3266
 1556SOL    HW116301   3.905   3.095  16.081 -0.2705 -1.3254  1.4575
 1556SOL    HW216302   3.952   2.959  16.067 -0.4192  0.4621  1.6761
 1557SOL     OW16303   1.216   3.090   4.478 -0.5286  0.0048 -0.4452
 1557SOL    HW116304   1.245   3.000   4.465  0.6624 -0.0909  2.7133
 1557SOL    HW216305   1.294   3.128   4.518 -0.9686  0.7687 -0.3125
 1558SOL     OW16306   1.668   4.108   4.748  0.2278 -0.0774  0.0408
 1558SOL    HW116307   1.598   4.131   4.687  0.0537  0.6874  0.5367
 1558SOL    HW216308   1.700   4.197   4.764 -2.9720  0.8555  1.2323
 1559SOL     OW16309   4.644   4.616   7.423  0.3179 -0.2620 -0.0775
 1559SOL    HW116310   4.552   4.641   7.415  0.4219 -0.0318 -0.5485
 1559SOL    HW216311   4.653   4.545   7.359  1.4040  1.1650 -1.5060
 1560SOL     OW16312   0.740   3.779   8.927  0.0929  0.0369  0.1150
 1560SOL    HW116313   0.823   3.820   8.903  0.3224  0.4220  1.5653
 1560SOL    HW216314   0.752   3.759   9.020 -0.1937 -3.5697 -0.6049
 1561SOL     OW16315   4.598   4.443   8.864  0.0283  0.2415  0.2406
 1561SOL    HW116316   4.521   4.457   8.808  1.1765 -0.0733 -1.4218
 1561SOL    HW216317   4.547   4.389   8.923 -0.1792  0.5432  0.3366
 1562SOL     OW16318   3.106   1.122   1.597  0.0692 -0.1628  0.2988
 1562SOL    HW116319   3.104   1.157   1.508 -0.7211 -2.5200 -0.6164
 1562SOL    HW216320   3.173   1.053   1.598 -0.0396 -0.2459  1.1035
 1563SOL     OW16321   3.685   2.659   7.456 -0.1177  0.0330  0.7708
 1563SOL    HW116322   3.591   2.676   7.451 -0.5007 -2.5555 -1.3089
 1563SOL    HW216323   3.708   2.748   7.482 -2.0522  0.6969  0.2483
 1564SOL     OW16324   2.902   2.486  11.817  0.3175 -0.2924 -0.3667
 1564SOL    HW116325   2.826   2.542  11.827  1.1555  0.7112  0.3783
 1564SOL    HW216326   2.885   2.431  11.893  0.0453  0.6869  0.2699
 1565SOL     OW16327   1.399   2.261   0.887 -0.7448  0.1716 -0.1416
 1565SOL    HW116328   1.411   2.345   0.932  5.1028 -1.3241  1.0186
 1565SOL    HW216329   1.394   2.296   0.798 -1.7846 -0.6428 -0.3988
 1566SOL     OW16330   1.136   1.308   1.422 -0.0455  0.0668 -0.1335
 1566SOL    HW116331   1.170   1.351   1.343  1.3562 -1.0435 -0.1527
 1566SOL    HW216332   1.046   1.337   1.411  0.7280  1.4798 -2.9660
 1567SOL     OW16333   2.374   3.950   9.772  0.5740 -0.1184 -0.2139
 1567SOL    HW116334   2.314   4.025   9.768 -0.4528 -1.0887 -2.9141
 1567SOL    HW216335   2.335   3.909   9.850  1.5638 -2.5298 -1.0008
 1568SOL     OW16336   1.390   1.604   2.183 -0.3560  0.0299 -0.0911
 1568SOL    HW116337   1.377   1.516   2.217  0.2765 -0.5056 -1.2722
 1568SOL    HW216338   1.450   1.643   2.247 -0.2854 -2.0566  1.1020
 1569SOL     OW16339   0.650   3.199  13.791 -0.8476 -0.0894 -0.1680
 1569SOL    HW116340   0.689   3.263  13.851 -0.9870  0.6306 -0.8493
 1569SOL    HW216341   0.558   3.205  13.816 -1.2425  0.8302 -1.8681
 1570SOL     OW16342   4.372   2.077   4.430 -0.0419  0.4659  0.1256
 1570SOL    HW116343   4.395   2.117   4.514 -0.6169  1.4358 -0.1834
 1570SOL    HW216344   4.344   1.991   4.461  1.4370  0.9986  2.9632
 1571SOL     OW16345   3.803   3.918   5.460 -0.3214  0.1290 -0.2547
 1571SOL    HW116346   3.802   3.968   5.378 -0.2105 -0.0522 -0.3678
 1571SOL    HW216347   3.813   3.991   5.520  1.1213  0.8937 -1.4380
 1572SOL     OW16348   1.719   2.593   2.698  0.2947 -0.2530  0.3769
 1572SOL    HW116349   1.660   2.564   2.629 -0.4317  1.1302  0.4139
 1572SOL    HW216350   1.685   2.562   2.782 -0.0330 -0.8621  0.0141
 1573SOL     OW16351   2.767   1.296  10.346  0.3197  0.0933  0.1967
 1573SOL    HW116352   2.827   1.364  10.316  1.0629  0.4028  2.3835
 1573SOL    HW216353   2.785   1.315  10.438 -0.8013  3.5165 -0.2952
 1574SOL     OW16354   0.482   3.678   5.737  0.7613 -0.0896  0.7232
 1574SOL    HW116355   0.431   3.721   5.805  0.5687  0.5600  0.1772
 1574SOL    HW216356   0.480   3.749   5.672  0.5304  0.1956  1.0446
 1575SOL     OW16357   1.582   1.315   2.686  0.3473 -0.1035  0.3769
 1575SOL    HW116358   1.666   1.288   2.648 -0.6903 -0.9216 -1.3064
 1575SOL    HW216359   1.598   1.311   2.780  0.8386  0.3819  0.3133
 1576SOL     OW16360   0.284   1.539   0.379  0.6659  0.1158  0.2400
 1576SOL    HW116361   0.212   1.583   0.335  1.0175 -1.3309 -1.7409
 1576SOL    HW216362   0.346   1.612   0.385 -1.1241  1.4450  2.6079
 1577SOL     OW16363   1.463   2.036   9.985  0.0819 -0.0740 -0.0325
 1577SOL    HW116364   1.433   1.946   9.994  0.8444 -0.5349 -1.9740
 1577SOL    HW216365   1.505   2.057  10.069 -0.6163 -2.0548  0.8051
 1578SOL     OW16366   0.616   4.624   8.569  0.9004 -0.0921  0.0209
 1578SOL    HW116367   0.630   4.533   8.597 -0.1562 -0.5145 -0.8124
 1578SOL    HW216368   0.587   4.605   8.480 -0.2055  0.4605  0.2622
 1579SOL     OW16369   0.882   2.957   4.935  0.2717  1.0916  0.8136
 1579SOL    HW116370   0.816   2.910   4.986  0.7548 -0.4382  0.0361
 1579SOL    HW216371   0.833   3.021   4.883  0.8599  0.4913 -0.4897
 1580SOL     OW16372   0.362   3.328  12.733 -0.3776  0.4495  0.3260
 1580SOL    HW116373   0.344   3.422  12.732  0.6030  0.6379  0.1044
 1580SOL    HW216374   0.391   3.312  12.643 -1.2875 -0.2081  0.1486
 1581SOL     OW16375   1.224   4.288   6.136  0.1505 -0.3744  0.1706
 1581SOL    HW116376   1.243   4.377   6.165  1.0898 -1.0543  1.6810
 1581SOL    HW216377   1.285   4.244   6.196  1.2709  0.9987  0.0482
 1582SOL     OW16378   0.952   1.344   0.702  0.1053  0.0281  0.4435
 1582SOL    HW116379   0.903   1.262   0.705  1.0929 -0.6543 -1.4384
 1582SOL    HW216380   0.892   1.382   0.638  1.3338 -0.6173 -1.0988
 1583SOL     OW16381   0.608   1.961   6.919  0.0244  0.1586  0.2992
 1583SOL    HW116382   0.621   2.025   6.849  0.4173  0.0590  0.2821
 1583SOL    HW216383   0.517   1.985   6.937 -0.3987 -0.0229 -1.5381
 1584SOL     OW16384   0.566   1.138  11.395  0.3155  0.2241 -0.1673
 1584SOL    HW116385   0.536   1.085  11.469  0.0102  2.2427  1.1503
 1584SOL    HW216386   0.559   1.224  11.436  0.4560 -0.0695  0.4707
 1585SOL     OW16387   4.443   3.074  14.604  0.8756  0.2615  0.2495
 1585SOL    HW116388   4.410   3.105  14.520 -1.9273 -0.8330  0.9396
 1585SOL    HW216389   4.379   3.094  14.672 -0.5183  1.1215 -1.2919
 1586SOL     OW16390   1.563   0.700  11.093 -0.8510  0.8515 -0.1129
 1586SOL    HW116391   1.534   0.645  11.166 -0.1090 -0.3472 -0.7208
 1586SOL    HW216392   1.535   0.652  11.015 -1.6183  0.3329  0.4768
 1587SOL     OW16393   4.637   1.297   7.240  0.4944  0.6209 -0.2090
 1587SOL    HW116394   4.545   1.321   7.238  0.5690  0.7774 -1.6493
 1587SOL    HW216395   4.663   1.333   7.155 -1.6820  0.3920 -0.9734
 1588SOL     OW16396   3.755   2.925  15.763 -0.2996 -0.1304 -0.4926
 1588SOL    HW116397   3.714   3.003  15.726 -1.8177 -0.2780  0.8975
 1588SOL    HW216398   3.815   2.961  15.828  1.3415  1.3711 -2.8621
 1589SOL     OW16399   4.428   1.379   1.440  0.0287  0.1269  0.0902
 1589SOL    HW116400   4.413   1.427   1.358 -0.1677  0.8558  0.5576
 1589SOL    HW216401   4.436   1.297   1.392 -1.3631 -0.7967  1.4372
 1590SOL     OW16402   1.801   1.353   5.332  0.1924  0.6655 -0.0443
 1590SOL    HW116403   1.750   1.289   5.383  1.5655 -1.3378 -1.1785
 1590SOL    HW216404   1.801   1.314   5.244 -0.9756 -0.4811  0.4589
 1591SOL     OW16405   2.371   2.828   8.134 -0.1289  0.7001 -0.1870
 1591SOL    HW116406   2.464   2.843   8.153 -0.1249  1.7012 -0.9810
 1591SOL    HW216407   2.351   2.750   8.185 -1.0460  2.0309  1.4700
 1592SOL     OW16408   4.399   3.264   5.891  0.4487 -0.2746 -0.2600
 1592SOL    HW116409   4.327   3.233   5.836 -0.5166 -2.0379  2.0012
 1592SOL    HW216410   4.466   3.197   5.876  0.2862 -0.8030  1.3603
 1593SOL     OW16411   4.162   3.855   4.388  0.3572 -0.0005 -0.4221
 1593SOL    HW116412   4.234   3.805   4.350 -0.2543 -0.3765 -1.0870
 1593SOL    HW216413   4.087   3.801   4.364  0.5265 -0.4211 -0.0255
 1594SOL     OW16414   0.913   0.674   1.580  0.6015  0.1253 -0.0466
 1594SOL    HW116415   1.003   0.658   1.608  0.9499 -0.4042 -1.4666
 1594SOL    HW216416   0.886   0.584   1.561 -1.2724  0.6628  0.0758
 1595SOL     OW16417   4.665   1.534   2.978 -0.4687  0.1441 -0.0026
 1595SOL    HW116418   4.660   1.485   2.896  1.4234 -1.4333  0.8405
 1595SOL    HW216419   4.729   1.487   3.031 -0.7712  0.0007  0.2317
 1596SOL     OW16420   3.802   3.050   1.928  0.4295 -0.9020  0.4404
 1596SOL    HW116421   3.871   3.094   1.978  0.0617  0.6345 -0.4170
 1596SOL    HW216422   3.848   2.973   1.894  2.6606 -0.1889  1.7610
 1597SOL     OW16423   3.071   4.610   0.551 -0.9932 -0.0947 -0.1686
 1597SOL    HW116424   3.092   4.518   0.566  2.4294  0.6609 -0.3568
 1597SOL    HW216425   3.130   4.629   0.479  0.9876  0.4098  1.5925
 1598SOL     OW16426   2.002   3.310   3.648  0.1411 -0.1877  0.2614
 1598SOL    HW116427   2.034   3.232   3.693  2.8693  0.3153 -0.7997
 1598SOL    HW216428   1.941   3.269   3.587 -1.6196 -0.7324  2.3867
 1599SOL     OW16429   0.758   3.749  11.959  0.2429  0.3675 -0.2184
 1599SOL    HW116430   0.804   3.808  12.019  0.6924 -2.2953  2.0566
 1599SOL    HW216431   0.788   3.786  11.876  0.7351  1.7030  0.5485
 1600SOL     OW16432   0.504   4.011   8.416  0.0547 -0.0672 -0.7759
 1600SOL    HW116433   0.485   4.105   8.406 -0.8501 -0.2617 -0.8904
 1600SOL    HW216434   0.575   4.004   8.480 -1.3643 -0.6811  0.7254
 1601SOL     OW16435   1.306   4.393  10.922 -0.5826  0.1299 -0.6691
 1601SOL    HW116436   1.361   4.467  10.948  0.5584 -0.5601 -1.1245
 1601SOL    HW216437   1.295   4.340  11.001  1.3572 -1.6484 -1.6346
 1602SOL     OW16438   0.882   4.056   8.156 -0.2928 -0.0718 -0.1222
 1602SOL    HW116439   0.873   3.961   8.153 -2.8267  0.1565 -0.1124
 1602SOL    HW216440   0.928   4.077   8.237 -0.6230  1.0005 -0.2106
 1603SOL     OW16441   2.910   3.801   6.846 -0.5794 -0.7505  0.2511
 1603SOL    HW116442   2.879   3.769   6.931  0.5055 -1.9354  0.2023
 1603SOL    HW216443   2.841   3.864   6.825  0.7624  1.2260  1.8191
 1604SOL     OW16444   2.323   1.684  14.657  0.7086  0.3697 -0.1300
 1604SOL    HW116445   2.260   1.663  14.588  2.0851  2.2667 -1.9658
 1604SOL    HW216446   2.372   1.748  14.606  2.3145 -1.1310 -0.4851
 1605SOL     OW16447   2.941   0.114   8.284  0.3072 -0.1610 -0.1755
 1605SOL    HW116448   2.884   0.137   8.358 -0.2568 -1.3851 -0.2219
 1605SOL    HW216449   2.913   0.022   8.284  1.5788 -0.5449 -0.8964
 1606SOL     OW16450   1.428   0.815   5.034 -0.7163 -0.7800  0.5403
 1606SOL    HW116451   1.505   0.776   5.076 -0.4456  0.9560  1.6729
 1606SOL    HW216452   1.421   0.770   4.950  2.0058  2.5163 -1.4850
 1607SOL     OW16453   1.859   1.785   6.233  0.0617  0.2026 -0.3933
 1607SOL    HW116454   1.794   1.832   6.181  1.1873  1.8877 -0.2725
 1607SOL    HW216455   1.801   1.715   6.264 -0.4577  1.3918  1.3048
 1608SOL     OW16456   3.217   1.386  17.738  0.1464  0.1459  0.1474
 1608SOL    HW116457   3.202   1.379  17.644 -1.9175  0.9395  0.4077
 1608SOL    HW216458   3.292   1.328  17.750 -0.7417 -1.3522 -1.5088
 1609SOL     OW16459   0.971   2.406  16.568 -0.8018 -0.3979  0.2860
 1609SOL    HW116460   1.045   2.389  16.509 -1.0968  1.7144 -0.6789
 1609SOL    HW216461   0.945   2.483  16.518  0.2591 -0.5394 -0.5051
 1610SOL     OW16462   3.937   4.446   6.989 -0.2501  0.2662  0.5378
 1610SOL    HW116463   3.965   4.370   7.040  1.5166  0.4176 -0.2159
 1610SOL    HW216464   4.023   4.459   6.950 -1.1399  0.8005 -1.2639
 1611SOL     OW16465   3.892   1.189   8.936  0.6796 -0.5804 -0.0101
 1611SOL    HW116466   3.834   1.118   8.962 -1.6148  1.0635 -0.6483
 1611SOL    HW216467   3.968   1.172   8.992  0.2173  2.2123  1.4679
 1612SOL     OW16468   2.430   3.855   3.672 -0.5301 -0.7958 -0.5883
 1612SOL    HW116469   2.363   3.828   3.734  0.2512  2.7580  1.7915
 1612SOL    HW216470   2.443   3.772   3.626  1.7487 -1.0095  0.4213
 1613SOL     OW16471   0.526   1.086  11.139 -0.3324 -0.5991  0.5059
 1613SOL    HW116472   0.438   1.113  11.115  0.7520  2.1308 -0.4830
 1613SOL    HW216473   0.526   1.121  11.228 -1.7847 -1.2234  0.7448
 1614SOL     OW16474   1.020   3.369   8.661  0.5863  0.2078  0.0597
 1614SOL    HW116475   0.956   3.303   8.636 -0.6685  1.9567 -1.3944
 1614SOL    HW216476   1.018   3.349   8.755 -2.4586 -1.5687 -0.3649
 1615SOL     OW16477   0.198   3.334   4.660 -0.0076  0.5059 -0.5645
 1615SOL    HW116478   0.189   3.425   4.632  1.2426  1.0871  0.9308
 1615SOL    HW216479   0.114   3.336   4.707  1.1164  3.9935  1.3185
 1616SOL     OW16480   0.112   1.471   8.935  0.0535  0.0534  0.6909
 1616SOL    HW116481   0.079   1.464   8.845  4.8715 -0.4852 -1.0585
 1616SOL    HW216482   0.109   1.381   8.967 -1.5380 -0.4291 -0.8281
 1617SOL     OW16483   0.863   1.340  17.045  0.1284 -0.2346 -0.2945
 1617SOL    HW116484   0.772   1.363  17.065  0.1822  0.0632 -0.3927
 1617SOL    HW216485   0.889   1.417  16.994  0.6884 -0.2978 -0.1045
 1618SOL     OW16486   2.761   1.112   4.962  0.7707  0.5173  0.3265
 1618SOL    HW116487   2.788   1.188   5.014  0.0260  1.3843 -0.5499
 1618SOL    HW216488   2.670   1.110   4.993  0.2049  2.3952 -1.1829
 1619SOL     OW16489   1.271   2.275   4.686 -0.4454 -0.8582  0.3476
 1619SOL    HW116490   1.346   2.225   4.720 -0.1427 -0.1241  0.7580
 1619SOL    HW216491   1.227   2.300   4.768  0.5238  1.1236  0.2639
 1620SOL     OW16492   3.829   1.351   6.237  0.1810  0.6408  0.3100
 1620SOL    HW116493   3.895   1.332   6.171  0.5697 -1.1928  1.2136
 1620SOL    HW216494   3.881   1.321   6.312 -1.7876  0.9148  1.7899
 1621SOL     OW16495   1.758   4.025  10.393  0.2292 -0.2870  0.6996
 1621SOL    HW116496   1.667   3.997  10.400  0.3348 -0.6059  0.7745
 1621SOL    HW216497   1.781   3.976  10.314  1.1320 -1.0162  1.4137
 1622SOL     OW16498   3.551   3.494   2.408 -0.0784 -0.1445 -0.2987
 1622SOL    HW116499   3.528   3.403   2.427 -1.0540 -0.2014 -1.7460
 1622SOL    HW216500   3.614   3.476   2.337 -0.2876 -1.2086 -0.2114
 1623SOL     OW16501   1.580   4.716  13.645 -0.5539 -0.2167  0.7547
 1623SOL    HW116502   1.574   0.023  13.728  1.2107  0.7051  0.3822
 1623SOL    HW216503   1.662   0.018  13.614  0.1280 -1.0716  1.4335
 1624SOL     OW16504   0.720   2.666   3.220  0.0583  0.0327  0.1518
 1624SOL    HW116505   0.690   2.733   3.158  0.2764 -1.5972 -1.6991
 1624SOL    HW216506   0.814   2.680   3.211  0.0121  0.2929  0.0654
 1625SOL     OW16507   2.925   3.802  15.048  0.5143 -0.0377  0.3953
 1625SOL    HW116508   2.861   3.818  15.117  0.7786  1.8583  0.1928
 1625SOL    HW216509   2.883   3.841  14.971 -0.5705 -1.5448  0.2257
 1626SOL     OW16510   2.741   2.533  17.740 -0.2436 -0.4308 -0.1206
 1626SOL    HW116511   2.794   2.469  17.693 -0.8988 -1.6741  0.8365
 1626SOL    HW216512   2.778   2.528   0.073 -2.8570 -0.7924  0.9518
 1627SOL     OW16513   3.373   1.166   0.029 -0.0188  0.5776 -0.4477
 1627SOL    HW116514   3.368   1.079  17.746 -0.2776  0.4487 -0.1153
 1627SOL    HW216515   3.414   1.148   0.113 -2.6062  0.0601  0.7044
 1628SOL     OW16516   2.522   1.881  14.533 -0.3684  0.2123  0.0092
 1628SOL    HW116517   2.600   1.831  14.507 -0.3333 -1.0238  2.4812
 1628SOL    HW216518   2.464   1.863  14.459 -1.6019  0.0305  1.0204
 1629SOL     OW16519   2.075   3.894  10.842  0.0312 -0.6040 -0.7439
 1629SOL    HW116520   2.119   3.979  10.838  0.4461 -0.7254  1.0544
 1629SOL    HW216521   2.014   3.898  10.768 -0.5113  0.2422 -0.2656
 1630SOL     OW16522   3.729   3.173   5.331  0.0881  0.1550  0.1159
 1630SOL    HW116523   3.816   3.146   5.361 -0.1553 -0.5516  0.1902
 1630SOL    HW216524   3.678   3.094   5.349 -0.5347  0.5871  0.2097
 1631SOL     OW16525   1.847   3.765   9.347  0.7500 -0.2259 -0.2421
 1631SOL    HW116526   1.850   3.676   9.314 -1.6616 -0.6982  0.7723
 1631SOL    HW216527   1.800   3.806   9.275 -0.5913 -1.1572  0.1022
 1632SOL     OW16528   2.227   1.044  17.707  0.6614  0.6539 -0.4544
 1632SOL    HW116529   2.304   1.088  17.670  2.3303 -0.9588  1.1408
 1632SOL    HW216530   2.241   1.082   0.039  0.6862  1.9998 -1.0352
 1633SOL     OW16531   4.281   4.573  15.193 -0.8167  0.7031 -0.4542
 1633SOL    HW116532   4.207   4.567  15.253 -0.2453  0.0957  0.1820
 1633SOL    HW216533   4.281   4.496  15.136 -0.5435  0.9879 -0.8432
 1634SOL     OW16534   0.710   2.558   5.775 -0.2651  0.1463  0.1844
 1634SOL    HW116535   0.748   2.561   5.863 -0.1855 -1.8166  0.2235
 1634SOL    HW216536   0.716   2.464   5.760 -1.7327  0.0824  0.0118
 1635SOL     OW16537   2.368   2.176   7.893  0.1424 -0.0815 -0.3379
 1635SOL    HW116538   2.285   2.220   7.874  0.6983  0.5547 -1.3001
 1635SOL    HW216539   2.412   2.186   7.809  2.4735 -3.6873  0.4476
 1636SOL     OW16540   1.043   1.495   3.879  0.6719  0.7363 -0.4112
 1636SOL    HW116541   0.968   1.539   3.840 -0.0021  0.9795  1.1466
 1636SOL    HW216542   1.048   1.531   3.968 -0.7551 -1.2143  0.4638
 1637SOL     OW16543   0.356   3.464   2.429  0.2132  0.1733 -0.5010
 1637SOL    HW116544   0.362   3.555   2.458 -0.7202 -0.0435  0.3760
 1637SOL    HW216545   0.416   3.464   2.355 -0.6060  1.1439 -1.1619
 1638SOL     OW16546   4.580   0.179   8.045  0.1169 -0.3806  0.0578
 1638SOL    HW116547   4.662   0.219   8.072  0.8357 -2.2971  0.6778
 1638SOL    HW216548   4.586   0.202   7.953 -0.3132  1.0830  0.3878
 1639SOL     OW16549   4.353   0.501  11.917  0.0122 -0.4701  0.0263
 1639SOL    HW116550   4.293   0.445  11.966  0.1441 -0.6100  0.0266
 1639SOL    HW216551   4.332   0.582  11.963  0.3650 -0.7208  0.6225
 1640SOL     OW16552   2.165   2.338   7.764 -0.5474 -0.0710 -0.1394
 1640SOL    HW116553   2.161   2.407   7.830  1.5373  1.4264 -1.5863
 1640SOL    HW216554   2.200   2.387   7.690 -0.1853 -1.6469 -1.0093
 1641SOL     OW16555   2.499   4.058  17.298  0.3941  0.0685  0.4938
 1641SOL    HW116556   2.528   4.104  17.377 -0.8129  0.0373  0.9514
 1641SOL    HW216557   2.515   4.122  17.229 -0.1017 -1.3674 -0.9571
 1642SOL     OW16558   3.794   3.726  15.558  0.1083  0.1469  0.0205
 1642SOL    HW116559   3.815   3.699  15.469 -1.3782 -0.9739  0.0038
 1642SOL    HW216560   3.750   3.643  15.577  1.6984 -0.9487 -1.0791
 1643SOL     OW16561   0.862   1.906   8.383 -0.3503 -0.0184 -0.2080
 1643SOL    HW116562   0.800   1.838   8.357 -0.5620 -0.5117  1.6043
 1643SOL    HW216563   0.946   1.861   8.394 -0.7801 -0.9581 -0.8380
 1644SOL     OW16564   1.042   3.735  11.300 -0.0964  0.0913 -0.7059
 1644SOL    HW116565   1.124   3.696  11.270 -0.7598 -4.5074  3.3362
 1644SOL    HW216566   0.978   3.670  11.270 -1.8015  1.8796 -0.9543
 1645SOL     OW16567   3.026   1.168   6.470  0.4182 -0.6326 -0.3331
 1645SOL    HW116568   3.098   1.122   6.514 -1.4775 -3.4486 -0.2123
 1645SOL    HW216569   3.025   1.116   6.389  0.2706 -0.3361 -0.5190
 1646SOL     OW16570   0.696   2.775   9.631 -0.5598 -0.4325 -0.0257
 1646SOL    HW116571   0.656   2.801   9.548  1.2882 -1.3353 -1.1976
 1646SOL    HW216572   0.687   2.680   9.629  0.3498 -0.5129 -0.4859
 1647SOL     OW16573   2.377   2.368   4.981 -0.1587  0.4065  0.1811
 1647SOL    HW116574   2.361   2.280   5.016 -0.7988 -0.0115 -1.1951
 1647SOL    HW216575   2.373   2.345   4.888  2.8053 -2.1872  0.6615
 1648SOL     OW16576   0.607   0.795  14.430  0.2099 -0.0416 -0.0114
 1648SOL    HW116577   0.603   0.701  14.412  0.6221  0.0387 -0.5337
 1648SOL    HW216578   0.696   0.818  14.402  0.2600  0.2476  0.3863
 1649SOL     OW16579   3.547   1.178   4.630 -0.0124 -0.3753  0.0360
 1649SOL    HW116580   3.512   1.128   4.557  1.5693  2.5394 -2.6849
 1649SOL    HW216581   3.475   1.233   4.660 -1.2662 -0.4864 -2.8734
 1650SOL     OW16582   3.895   4.060   7.853 -0.8113 -0.2931  0.7942
 1650SOL    HW116583   3.950   4.028   7.924 -1.7407 -1.4871  0.9733
 1650SOL    HW216584   3.913   4.154   7.863  1.5519 -0.6739  0.1385
 1651SOL     OW16585   2.502   1.011   2.479  0.4072  0.1151  0.0364
 1651SOL    HW116586   2.568   1.012   2.410 -0.0400  0.0808 -0.3888
 1651SOL    HW216587   2.551   1.061   2.545 -0.1291  1.9172 -0.9288
 1652SOL     OW16588   3.101   3.378   6.337  0.5254 -0.5525 -0.1903
 1652SOL    HW116589   3.020   3.417   6.306 -1.1476 -2.1511  2.1360
 1652SOL    HW216590   3.064   3.298   6.375 -2.1368  0.0938 -1.4735
 1653SOL     OW16591   1.106   2.815   9.923  0.1180  0.1002 -0.1333
 1653SOL    HW116592   1.065   2.735   9.954  1.5244 -0.5600  0.0031
 1653SOL    HW216593   1.056   2.839   9.846  2.7189  0.7263 -1.6389
 1654SOL     OW16594   2.812   2.718   4.124 -0.5237  0.0567  0.7270
 1654SOL    HW116595   2.882   2.662   4.091 -1.4030 -0.6919  0.1107
 1654SOL    HW216596   2.866   2.796   4.133  0.8609 -0.8665  0.3112
 1655SOL     OW16597   2.791   2.876   7.553 -0.2076  0.4721 -0.0861
 1655SOL    HW116598   2.859   2.922   7.602  0.3233 -0.2164 -0.1871
 1655SOL    HW216599   2.813   2.901   7.463 -0.9245 -0.2190 -0.4561
 1656SOL     OW16600   1.377   0.923   7.674  0.8018 -0.1854 -0.5954
 1656SOL    HW116601   1.386   0.830   7.694 -0.3852 -0.1251  0.2369
 1656SOL    HW216602   1.312   0.945   7.741  1.1690  1.0808 -0.6672
 1657SOL     OW16603   2.742   3.263   7.750 -0.3367  0.1190  0.2455
 1657SOL    HW116604   2.697   3.201   7.806 -0.8514  2.3013  2.2166
 1657SOL    HW216605   2.799   3.302   7.816  0.3541 -1.4297  0.5778
 1658SOL     OW16606   3.637   3.602   2.728 -0.4595 -0.0515 -0.0879
 1658SOL    HW116607   3.619   3.604   2.634 -1.4576  0.7496  0.1206
 1658SOL    HW216608   3.557   3.555   2.753  1.1241 -2.6855  0.0125
 1659SOL     OW16609   2.531   3.678   6.871  0.2175 -0.0518 -0.0409
 1659SOL    HW116610   2.438   3.698   6.861 -0.4261 -2.9042  0.1541
 1659SOL    HW216611   2.527   3.611   6.939  0.3535  1.2441  1.2467
 1660SOL     OW16612   4.437   1.138   6.982  0.1095 -0.0194  0.5229
 1660SOL    HW116613   4.522   1.141   6.936 -1.0212 -0.4469 -1.6072
 1660SOL    HW216614   4.371   1.131   6.913  0.2932  0.4612  0.2985
 1661SOL     OW16615   2.893   3.496   9.876  0.0408  0.4407  0.2024
 1661SOL    HW116616   2.862   3.533   9.959  1.5975  0.4786  0.7688
 1661SOL    HW216617   2.984   3.525   9.874  0.4351 -0.8097  0.1258
 1662SOL     OW16618   1.228   2.372   3.997  0.1304  0.1969  0.3313
 1662SOL    HW116619   1.302   2.323   4.033  1.7267  0.6333 -2.4082
 1662SOL    HW216620   1.272   2.406   3.920 -0.2893 -0.7326 -0.3251
 1663SOL     OW16621   3.715   1.827  17.511 -0.4873  0.3725  0.9717
 1663SOL    HW116622   3.630   1.785  17.523 -1.1747  1.8533  1.2578
 1663SOL    HW216623   3.769   1.787  17.579  1.7971  1.0695 -0.4227
 1664SOL     OW16624   3.083   1.262   5.822 -0.0669 -0.5488 -0.1133
 1664SOL    HW116625   3.004   1.312   5.803 -0.5409 -1.7902 -1.4043
 1664SOL    HW216626   3.095   1.295   5.911 -2.2349  3.3053 -1.2448
 1665SOL     OW16627   2.145   4.532   9.271  0.1116 -0.0842 -0.6960
 1665SOL    HW116628   2.220   4.503   9.218  0.0192 -2.8132  0.6554
 1665SOL    HW216629   2.191   4.540   9.355  0.2431 -1.9710 -0.5799
 1666SOL     OW16630   1.719   2.086   0.107 -0.7275 -0.2661  0.1152
 1666SOL    HW116631   1.667   2.165   0.093  2.2240  1.2869 -1.8040
 1666SOL    HW216632   1.795   2.127   0.068 -1.1430 -0.6456 -1.0964
 1667SOL     OW16633   3.930   2.002  11.299 -0.3962 -0.2490 -0.2162
 1667SOL    HW116634   3.952   1.939  11.367  1.2810  0.8771  0.2799
 1667SOL    HW216635   3.979   1.969  11.224  0.9223  1.4414 -0.1053
 1668SOL     OW16636   3.967   0.237   4.939  0.0925  0.4778  0.1211
 1668SOL    HW116637   4.057   0.249   4.968  0.1429  1.9862 -0.6573
 1668SOL    HW216638   3.924   0.289   5.007  0.9284 -1.2578  1.9456
 1669SOL     OW16639   4.013   1.074  11.689  0.0085 -0.1774  0.0376
 1669SOL    HW116640   4.035   1.155  11.644 -2.1810  0.4350  0.0542
 1669SOL    HW216641   3.994   1.014  11.616  0.2617 -0.1558 -0.0446
 1670SOL     OW16642   3.509   3.877   8.781  0.4409  0.6956  0.3839
 1670SOL    HW116643   3.419   3.876   8.814  0.1350  0.1699 -0.4746
 1670SOL    HW216644   3.555   3.827   8.848  0.5082 -1.7548 -1.5283
 1671SOL     OW16645   0.391   1.772   4.880  0.5895  0.4881 -0.6405
 1671SOL    HW116646   0.424   1.754   4.791 -0.9896 -1.6583 -0.8069
 1671SOL    HW216647   0.470   1.786   4.931  0.8178  2.5961 -1.5737
 1672SOL     OW16648   0.251   4.245  14.393 -0.4411 -0.0950 -0.6915
 1672SOL    HW116649   0.341   4.275  14.379  0.2999 -2.3049 -0.6241
 1672SOL    HW216650   0.206   4.306  14.452  0.7584 -0.4098  0.5552
 1673SOL     OW16651   1.041   3.062   7.213 -0.0774  0.3198  0.2873
 1673SOL    HW116652   1.097   3.133   7.246  0.4492 -0.2755  0.6676
 1673SOL    HW216653   0.985   3.046   7.288 -1.5367 -2.2950 -1.3666
 1674SOL     OW16654   4.630   0.135   6.635 -0.6920  0.2918  0.2550
 1674SOL    HW116655   4.580   0.197   6.688  1.5239  1.0962  1.3907
 1674SOL    HW216656   4.566   0.094   6.577  1.6086 -1.9288 -0.6954
 1675SOL     OW16657   1.054   3.402  15.872  0.1153 -0.4025 -0.6521
 1675SOL    HW116658   1.054   3.416  15.778 -4.6760 -0.7089 -0.6869
 1675SOL    HW216659   0.987   3.335  15.885  0.1060 -0.3045 -0.1920
 1676SOL     OW16660   1.924   0.632   7.808  0.1067 -0.6050 -0.2103
 1676SOL    HW116661   1.990   0.685   7.853 -1.0411 -0.1760  0.9617
 1676SOL    HW216662   1.856   0.623   7.874 -0.8334 -2.2962 -1.4103
 1677SOL     OW16663   3.661   1.050   6.269  0.1015 -0.2579 -0.2636
 1677SOL    HW116664   3.737   0.996   6.249 -0.6945 -1.6812  0.5222
 1677SOL    HW216665   3.582   0.998   6.288  0.2780 -0.6125 -0.4996
 1678SOL     OW16666   1.947   1.516  15.753  0.1933  0.0908  0.5337
 1678SOL    HW116667   1.942   1.443  15.815 -2.7007  1.2392  1.6242
 1678SOL    HW216668   2.032   1.546  15.785 -0.2730  0.2919  1.5792
 1679SOL     OW16669   1.144   4.118   7.313 -0.2537  0.1757 -0.5158
 1679SOL    HW116670   1.156   4.090   7.403 -0.5766  0.7005 -0.3090
 1679SOL    HW216671   1.187   4.045   7.269 -0.3468  0.0617 -0.4133
 1680SOL     OW16672   1.724   1.489   3.449  0.2447 -0.2293 -0.1218
 1680SOL    HW116673   1.777   1.420   3.410 -1.7477 -0.6524 -2.1440
 1680SOL    HW216674   1.673   1.503   3.368  0.6939 -1.1685 -0.5651
 1681SOL     OW16675   0.389   3.715   2.470  0.0490 -0.2275 -0.3089
 1681SOL    HW116676   0.316   3.772   2.446  1.0983 -0.1649 -3.3538
 1681SOL    HW216677   0.453   3.745   2.405  1.7813 -0.0462  1.4465
 1682SOL     OW16678   0.886   2.902  16.212  0.0235 -0.1341  0.3275
 1682SOL    HW116679   0.821   2.879  16.145  0.1953 -0.6491  0.3405
 1682SOL    HW216680   0.857   2.854  16.289  0.5305 -3.2404 -1.4227
 1683SOL     OW16681   0.913   4.084   9.622 -0.0233  0.0163  0.5025
 1683SOL    HW116682   0.999   4.044   9.609 -1.3596 -3.1064  1.3657
 1683SOL    HW216683   0.853   4.011   9.608  0.5934 -0.6093  1.1301
 1684SOL     OW16684   4.332   1.538   3.381 -0.3572  0.2319  0.3170
 1684SOL    HW116685   4.268   1.586   3.330 -0.9051  0.0181  0.8000
 1684SOL    HW216686   4.267   1.509   3.446  1.1984  3.3251  3.2593
 1685SOL     OW16687   3.561   2.951   8.637  0.2867  0.0485 -0.7618
 1685SOL    HW116688   3.539   2.884   8.572  2.3300 -0.7533 -0.6264
 1685SOL    HW216689   3.528   3.022   8.582  0.2580  0.1066 -0.6692
 1686SOL     OW16690   3.653   2.490   3.251  0.1081 -0.0096  0.5434
 1686SOL    HW116691   3.744   2.460   3.258  0.1215 -0.5198 -1.6090
 1686SOL    HW216692   3.642   2.522   3.340  0.2208  4.1089 -0.9161
 1687SOL     OW16693   0.595   4.736   6.142  0.3450 -0.0811  0.1563
 1687SOL    HW116694   0.500   4.728   6.136  0.3129  0.8587 -0.5633
 1687SOL    HW216695   0.628   4.739   6.053  3.1699  0.1553  1.1888
 1688SOL     OW16696   2.102   1.475  11.035 -0.7884  0.0825  0.1241
 1688SOL    HW116697   2.193   1.456  11.012 -1.7217 -1.7460 -2.0551
 1688SOL    HW216698   2.058   1.485  10.950  0.0106 -1.1780 -0.4328
 1689SOL     OW16699   0.040   1.504  13.298  0.4646  0.3468 -0.2309
 1689SOL    HW116700   0.092   1.551  13.363  0.7070  0.1071 -0.2534
 1689SOL    HW216701   0.105   1.446  13.258  0.3317  1.4724 -2.0814
 1690SOL     OW16702   3.489   4.366   8.884  0.1644  0.3281  0.7634
 1690SOL    HW116703   3.572   4.367   8.838 -0.5282 -0.1175 -0.4926
 1690SOL    HW216704   3.485   4.272   8.903  1.1333 -0.1681 -1.5589
 1691SOL     OW16705   2.146   2.515  14.987 -0.0953 -0.0397  0.3441
 1691SOL    HW116706   2.068   2.501  15.040  0.0257  1.6407  0.9722
 1691SOL    HW216707   2.193   2.438  15.019 -1.0963 -1.1356 -0.8564
 1692SOL     OW16708   4.600   2.594  15.848  0.4163  0.2579  0.3366
 1692SOL    HW116709   4.651   2.664  15.888 -0.4276  0.6221  0.7829
 1692SOL    HW216710   4.661   2.539  15.799  0.3504  1.0097 -0.5842
 1693SOL     OW16711   3.221   2.248   3.039 -0.0898  0.4792 -0.5479
 1693SOL    HW116712   3.289   2.257   3.107 -0.3872  2.4682 -0.5302
 1693SOL    HW216713   3.177   2.333   3.039  1.1374  1.1258  1.3027
 1694SOL     OW16714   0.067   1.838   8.336  0.2507 -0.6692  0.2020
 1694SOL    HW116715   0.119   1.857   8.415  0.6435  0.8302 -0.4239
 1694SOL    HW216716   0.031   1.925   8.320  0.6600 -0.1950  1.8106
 1695SOL     OW16717   1.289   3.484   8.199 -0.1369  0.4139  0.2084
 1695SOL    HW116718   1.207   3.446   8.229  0.4407 -0.8104  0.2107
 1695SOL    HW216719   1.350   3.479   8.273 -0.3003  0.1247  0.3196
 1696SOL     OW16720   1.019   4.122   8.404 -0.0596  0.1932  0.3432
 1696SOL    HW116721   1.100   4.166   8.431  0.1492  0.5341 -0.8530
 1696SOL    HW216722   0.970   4.204   8.405 -2.0503 -0.9888  1.2352
 1697SOL     OW16723   4.183   1.484   7.749  0.1852 -0.1707  0.3413
 1697SOL    HW116724   4.223   1.570   7.739  0.0378 -0.1661 -0.2539
 1697SOL    HW216725   4.168   1.497   7.842 -1.7199  3.9709 -0.5107
 1698SOL     OW16726   2.733   3.544   1.126  0.1727  0.1534  0.3318
 1698SOL    HW116727   2.684   3.615   1.085  2.7801  1.0108 -1.3038
 1698SOL    HW216728   2.796   3.522   1.057  1.3631  3.1304  0.4898
 1699SOL     OW16729   2.937   3.067  12.349  0.5472  0.2897 -0.0259
 1699SOL    HW116730   2.936   2.972  12.361 -0.7909  0.1311 -1.3635
 1699SOL    HW216731   3.023   3.093  12.382  0.0265 -2.1559  3.1959
 1700SOL     OW16732   3.423   2.748  13.564  0.0929 -0.4861 -0.1388
 1700SOL    HW116733   3.458   2.672  13.519  0.8378 -0.2139 -0.0082
 1700SOL    HW216734   3.393   2.712  13.647  1.8113  0.9970  1.1196
 1701SOL     OW16735   4.736   1.845   3.202  0.3815 -0.2202  0.1506
 1701SOL    HW116736   4.654   1.819   3.159  0.6250 -1.9640  0.7519
 1701SOL    HW216737   4.713   1.805   3.286 -0.8038  0.8146  0.3273
 1702SOL     OW16738   2.571   2.157   3.628 -0.0573  0.0695 -0.1643
 1702SOL    HW116739   2.551   2.065   3.645 -0.5012 -0.0033 -1.1062
 1702SOL    HW216740   2.491   2.198   3.596 -0.5162 -0.7664 -0.0678
 1703SOL     OW16741   2.187   3.457   9.770 -0.3705  0.2042 -0.5009
 1703SOL    HW116742   2.125   3.521   9.806 -2.6047 -2.5594  0.4969
 1703SOL    HW216743   2.167   3.479   9.679 -0.7354  2.1775  0.0471
 1704SOL     OW16744   1.865   1.202   8.336  0.4189  0.2013  0.0951
 1704SOL    HW116745   1.914   1.248   8.404  0.2558  0.2578  0.1741
 1704SOL    HW216746   1.880   1.109   8.354  1.6463 -0.1784 -2.9371
 1705SOL     OW16747   2.406   1.657   7.510 -0.0405  0.9264  0.5767
 1705SOL    HW116748   2.362   1.618   7.585 -0.2869  0.0020 -0.0551
 1705SOL    HW216749   2.464   1.585   7.486  1.3670  1.7433  1.4776
 1706SOL     OW16750   4.631   0.007   4.603  0.4028  0.4054  0.0997
 1706SOL    HW116751   4.597   4.672   4.653  1.5294  0.3727  0.8209
 1706SOL    HW216752   4.611   0.080   4.662 -1.3466  0.5474 -0.6831
 1707SOL     OW16753   4.688   0.770  16.093  0.0709  0.7110 -0.6341
 1707SOL    HW116754   4.676   0.836  16.026  0.0899  0.2702 -1.0683
 1707SOL    HW216755   4.622   0.704  16.072 -0.5225  1.1305 -0.1183
 1708SOL     OW16756   0.623   1.902   0.775 -0.3604 -0.1374  0.4687
 1708SOL    HW116757   0.646   1.989   0.807  2.6196 -1.2881  1.4230
 1708SOL    HW216758   0.707   1.860   0.793  0.0517  0.0962 -0.9020
 1709SOL     OW16759   3.815   0.011  15.356 -0.0183 -0.1273 -0.1674
 1709SOL    HW116760   3.757   4.680  15.326 -0.1892  0.0963 -0.3751
 1709SOL    HW216761   3.814   0.016  15.451  0.1865 -1.1511 -0.1130
 1710SOL     OW16762   1.399   2.762   6.964 -0.9565 -0.7269  0.1454
 1710SOL    HW116763   1.396   2.814   7.045 -0.4083  2.4393 -1.8543
 1710SOL    HW216764   1.484   2.793   6.934 -0.6691 -0.5292  1.1849
 1711SOL     OW16765   4.014   1.653   3.776  0.2072  0.1851 -0.2327
 1711SOL    HW116766   4.005   1.590   3.704  0.5714 -0.4493  0.2702
 1711SOL    HW216767   3.932   1.635   3.822 -0.2441  1.3160 -0.5936
 1712SOL     OW16768   1.237   4.561   5.150  0.7091 -0.0577 -0.0825
 1712SOL    HW116769   1.248   4.489   5.089  2.1741 -1.4045  1.7748
 1712SOL    HW216770   1.142   4.554   5.159  0.8311  0.9355  2.2010
 1713SOL     OW16771   3.039   0.377   3.506 -0.0440 -0.0478  0.1950
 1713SOL    HW116772   3.046   0.321   3.428 -0.6674 -0.2593  0.2880
 1713SOL    HW216773   2.984   0.324   3.563  0.6408 -0.5989  0.3403
 1714SOL     OW16774   0.403   2.718  16.834 -0.4633  0.2464 -0.0795
 1714SOL    HW116775   0.459   2.722  16.911 -0.8679  0.0248  0.2270
 1714SOL    HW216776   0.358   2.803  16.837 -0.4251  0.2443  0.7703
 1715SOL     OW16777   0.998   4.684   3.019  0.3735  0.0239  1.2029
 1715SOL    HW116778   0.927   4.730   3.064  0.0835  2.3042 -1.6123
 1715SOL    HW216779   1.030   0.014   2.961  0.5505 -0.4070  0.7966
 1716SOL     OW16780   0.131   3.666   8.641  0.1914  0.0718 -0.0312
 1716SOL    HW116781   0.220   3.660   8.605 -0.4157 -1.4437 -1.2614
 1716SOL    HW216782   0.145   3.628   8.728  2.9215  0.6725 -0.1874
 1717SOL     OW16783   0.071   3.591  17.283  0.4720  0.1209  0.4608
 1717SOL    HW116784   0.019   3.619  17.358 -1.1830 -0.1508 -0.5908
 1717SOL    HW216785   0.153   3.641  17.289  0.1276  1.0050 -1.8020
 1718SOL     OW16786   1.178   3.239   3.652  0.1950  0.2743 -0.0023
 1718SOL    HW116787   1.170   3.154   3.696  0.5215  0.7395  0.9681
 1718SOL    HW216788   1.266   3.231   3.616  0.0530  1.8548 -0.6965
 1719SOL     OW16789   4.243   2.294   8.718 -0.5319  0.5957 -0.2770
 1719SOL    HW116790   4.172   2.353   8.745 -0.6932  0.9881 -1.5317
 1719SOL    HW216791   4.255   2.237   8.794  0.1624  1.2319  0.0845
 1720SOL     OW16792   3.618   4.396   4.122  0.2711  0.5567 -0.3389
 1720SOL    HW116793   3.683   4.405   4.192  0.0645 -1.1038  0.0663
 1720SOL    HW216794   3.559   4.330   4.159 -1.1969  1.4233 -1.1507
 1721SOL     OW16795   0.341   0.399   3.632  0.0875 -0.3316  0.1694
 1721SOL    HW116796   0.255   0.433   3.655 -0.0780 -0.6125 -0.0261
 1721SOL    HW216797   0.396   0.456   3.686 -2.1102 -1.6334  3.7663
 1722SOL     OW16798   4.507   1.553  10.084  0.5088  0.0084 -0.0160
 1722SOL    HW116799   4.412   1.565  10.073 -0.0364 -2.6771  1.5919
 1722SOL    HW216800   4.537   1.556   9.994 -2.1019 -0.6048 -0.9152
 1723SOL     OW16801   1.971   2.379   4.742  0.1056  0.1876  0.4927
 1723SOL    HW116802   1.938   2.326   4.669 -2.5564  2.7036 -0.1517
 1723SOL    HW216803   1.990   2.305   4.799  1.1783  1.2013  1.4325
 1724SOL     OW16804   0.766   4.025  14.448  0.2563  0.4721 -0.2612
 1724SOL    HW116805   0.718   4.015  14.366 -1.4282 -0.6020  0.8664
 1724SOL    HW216806   0.829   4.089  14.416 -0.9280  1.2823 -0.9720
 1725SOL     OW16807   2.577   0.576   4.960  0.0389  0.0954 -0.1424
 1725SOL    HW116808   2.635   0.612   5.027  1.5765 -2.1446 -0.2840
 1725SOL    HW216809   2.495   0.624   4.967 -0.3251 -0.5670  0.1033
 1726SOL     OW16810   1.648   4.175  17.536 -0.1683  0.2848 -0.2966
 1726SOL    HW116811   1.625   4.266  17.554 -2.1353 -0.3172  0.2392
 1726SOL    HW216812   1.722   4.180  17.475  0.1402  0.7821  0.1135
 1727SOL     OW16813   2.961   0.353   1.741  0.3355 -0.1963 -0.1313
 1727SOL    HW116814   2.962   0.283   1.806  3.1811 -1.8293 -1.9478
 1727SOL    HW216815   2.984   0.427   1.799 -1.2668 -2.8720  3.9434
 1728SOL     OW16816   0.902   3.768   2.900  0.3547 -0.4613 -0.1355
 1728SOL    HW116817   0.861   3.807   2.977  0.0741  1.2667 -1.1600
 1728SOL    HW216818   0.977   3.828   2.899  0.5380 -0.6978 -0.4690
 1729SOL     OW16819   4.572   2.979   6.973  0.2770  0.5987 -0.5205
 1729SOL    HW116820   4.537   3.067   6.983 -0.1119  0.1911  1.9112
 1729SOL    HW216821   4.589   2.956   7.064 -0.8377  0.9439 -0.2221
 1730SOL     OW16822   0.202   1.212   2.914 -0.5107 -0.2920  0.5781
 1730SOL    HW116823   0.217   1.306   2.904 -0.7068 -0.1266  1.8459
 1730SOL    HW216824   0.199   1.195   2.820 -1.6867  2.1722  0.1447
 1731SOL     OW16825   0.814   4.574   4.418 -0.2966  0.1193  0.2925
 1731SOL    HW116826   0.738   4.518   4.404 -0.1013  0.6177 -2.7452
 1731SOL    HW216827   0.783   4.659   4.451 -0.2449  0.2989 -0.1305
 1732SOL     OW16828   2.321   4.504   8.260  0.0353 -0.0176  0.3948
 1732SOL    HW116829   2.244   4.472   8.212  0.5696 -0.0006 -0.4675
 1732SOL    HW216830   2.375   4.538   8.190 -1.0734  0.5605 -0.1741
 1733SOL     OW16831   0.174   3.029   3.083  0.3985 -0.3472 -0.5239
 1733SOL    HW116832   0.172   2.961   3.151  1.3147  0.4611  0.3132
 1733SOL    HW216833   0.191   3.104   3.140 -0.5240  0.0310 -0.7532
 1734SOL     OW16834   3.269   0.400   1.537  0.1803  0.0861 -0.1049
 1734SOL    HW116835   3.183   0.358   1.526 -0.2825  0.7332  0.9587
 1734SOL    HW216836   3.281   0.446   1.454 -3.2018  0.3914 -0.4540
 1735SOL     OW16837   0.915   0.675  10.095  0.0598  0.1157  0.1892
 1735SOL    HW116838   0.970   0.644  10.167 -1.4473 -4.3247 -0.5870
 1735SOL    HW216839   0.984   0.706  10.037  0.3468 -1.3459 -0.2522
 1736SOL     OW16840   3.017   3.936   5.439 -0.0229  0.1178  0.2733
 1736SOL    HW116841   3.030   3.929   5.345 -0.7052 -1.1826  0.2616
 1736SOL    HW216842   3.085   3.873   5.464  0.4484  0.0316 -1.2497
 1737SOL     OW16843   0.734   4.441   0.262  0.2084  0.4271  0.3658
 1737SOL    HW116844   0.661   4.469   0.208  2.8669 -0.3146 -3.5966
 1737SOL    HW216845   0.798   4.427   0.193 -1.4640  0.2148 -1.1332
 1738SOL     OW16846   3.176   4.013   8.186 -0.3217 -0.1599 -0.3853
 1738SOL    HW116847   3.141   4.096   8.154  3.4597  1.4532 -0.3835
 1738SOL    HW216848   3.244   3.984   8.125  1.4802  2.2308  0.4785
 1739SOL     OW16849   0.197   3.381  10.756 -0.6091  0.0665 -0.3157
 1739SOL    HW116850   0.283   3.388  10.714  0.3831 -1.3793  1.4772
 1739SOL    HW216851   0.212   3.444  10.827  1.1154 -1.8759  1.0585
 1740SOL     OW16852   0.923   3.091   5.928 -0.0842  0.5518 -0.1029
 1740SOL    HW116853   0.842   3.088   5.978  0.3530  2.1749  0.7096
 1740SOL    HW216854   0.980   3.029   5.974 -0.7872  0.4157  0.5824
 1741SOL     OW16855   4.382   1.380   2.891 -0.2303 -0.0317 -0.2794
 1741SOL    HW116856   4.459   1.342   2.848 -0.2147  0.7117 -0.9291
 1741SOL    HW216857   4.335   1.297   2.901 -1.4133  0.5991 -0.5600
 1742SOL     OW16858   0.037   3.739  17.614 -0.3705  0.2381  0.4356
 1742SOL    HW116859   0.084   3.800  17.671  0.1065 -1.3925  1.8120
 1742SOL    HW216860   0.053   3.785  17.532 -0.7243 -1.0104 -0.3256
 1743SOL     OW16861   1.543   2.188   9.346  0.1122 -0.4221 -0.3056
 1743SOL    HW116862   1.542   2.273   9.390 -0.2394 -1.9389  2.6618
 1743SOL    HW216863   1.634   2.158   9.346  0.2343 -0.0538 -0.2787
 1744SOL     OW16864   1.455   1.124   3.656 -0.2587  0.0325 -0.0864
 1744SOL    HW116865   1.455   1.169   3.740  1.2026 -0.5651  0.2391
 1744SOL    HW216866   1.376   1.147   3.606 -0.6876 -0.7743  0.2246
 1745SOL     OW16867   3.163   0.682   7.110  0.1649 -0.1288  0.0285
 1745SOL    HW116868   3.073   0.690   7.142  0.0043  1.8991 -0.9884
 1745SOL    HW216869   3.190   0.768   7.080 -0.9135  0.4231  0.6350
 1746SOL     OW16870   0.175   0.184   5.679 -0.0208  0.5410 -0.2657
 1746SOL    HW116871   0.233   0.190   5.756 -2.4642  2.3741  1.4291
 1746SOL    HW216872   0.111   0.124   5.717 -0.5072  0.2605 -1.5485
 1747SOL     OW16873   0.631   2.184   3.509  0.6077  0.3996 -0.1061
 1747SOL    HW116874   0.674   2.105   3.542  1.5669  0.8803 -0.2035
 1747SOL    HW216875   0.556   2.141   3.469  1.6461 -2.2066  0.7590
 1748SOL     OW16876   2.047   0.481  10.708 -1.0763 -0.2679 -0.0591
 1748SOL    HW116877   2.094   0.470  10.625  0.0220 -0.5910  0.6134
 1748SOL    HW216878   2.028   0.575  10.709 -0.7937 -0.2300  1.7384
 1749SOL     OW16879   1.860   3.792   1.790 -0.1315  0.1430 -0.4194
 1749SOL    HW116880   1.840   3.719   1.849 -0.0180  0.9219  0.5680
 1749SOL    HW216881   1.910   3.748   1.720 -0.7400 -0.5973 -0.3940
 1750SOL     OW16882   1.972   0.772   8.791  0.4166 -0.3318  0.3806
 1750SOL    HW116883   1.974   0.867   8.805 -1.5815 -0.4454  1.5457
 1750SOL    HW216884   1.880   0.747   8.801  0.5889 -0.8355  0.7347
 1751SOL     OW16885   0.688   3.037   7.872 -0.0393 -0.5341  0.3469
 1751SOL    HW116886   0.661   3.038   7.964 -0.1804  0.2259  0.2982
 1751SOL    HW216887   0.778   3.002   7.873  0.3818  0.5245 -1.4516
 1752SOL     OW16888   2.938   4.490   3.941  0.1731 -0.0961 -0.0651
 1752SOL    HW116889   2.881   4.565   3.930 -0.6108 -0.6322  0.2902
 1752SOL    HW216890   2.890   4.451   4.014 -0.2957  1.4140  0.4176
 1753SOL     OW16891   2.428   4.445  14.726  0.1657  0.0945  0.1503
 1753SOL    HW116892   2.372   4.461  14.802 -0.9198  0.9813 -0.8570
 1753SOL    HW216893   2.372   4.382  14.681  0.1123  1.2890 -1.4457
 1754SOL     OW16894   2.763   4.512   5.455  0.3125  0.4719 -0.6572
 1754SOL    HW116895   2.812   4.535   5.376 -0.3775 -0.6327 -1.4107
 1754SOL    HW216896   2.725   4.598   5.474  0.3225 -0.3197  3.0053
 1755SOL     OW16897   0.576   0.304  13.402 -0.2177  0.5319 -0.4236
 1755SOL    HW116898   0.525   0.322  13.324 -0.2582  3.1480  0.1764
 1755SOL    HW216899   0.511   0.290  13.471 -0.7992 -1.4187 -1.4127
 1756SOL     OW16900   3.275   2.065   3.459  0.0563 -0.4530 -0.6241
 1756SOL    HW116901   3.305   2.002   3.524  0.7511  1.8652  1.3023
 1756SOL    HW216902   3.274   2.013   3.379  0.4362 -0.4897 -0.6037
 1757SOL     OW16903   3.541   1.059   3.615 -0.0480  0.3193 -0.0669
 1757SOL    HW116904   3.471   1.031   3.674  0.3864  0.0493  0.3329
 1757SOL    HW216905   3.500   1.127   3.563 -1.5499  0.4276  1.2486
 1758SOL     OW16906   1.496   3.729  11.855 -0.5953  0.7848 -0.1713
 1758SOL    HW116907   1.469   3.638  11.871 -1.0505  0.8471 -0.6014
 1758SOL    HW216908   1.469   3.765  11.939 -0.7558 -0.9429  0.5285
 1759SOL     OW16909   1.443   0.198  15.463  0.9047  0.8761 -0.3877
 1759SOL    HW116910   1.392   0.278  15.471 -0.7333 -0.2285  0.2480
 1759SOL    HW216911   1.507   0.213  15.533 -0.3076  0.1685  0.8644
 1760SOL     OW16912   3.676   2.286   8.279 -0.2332  0.3717  0.2572
 1760SOL    HW116913   3.752   2.341   8.258  0.3115 -1.1891 -1.7703
 1760SOL    HW216914   3.722   2.225   8.337  2.7580  2.1494 -0.2044
 1761SOL     OW16915   4.130   3.019   2.596  0.0824 -0.2728 -0.0464
 1761SOL    HW116916   4.074   2.947   2.624  1.8950 -1.6227  0.1176
 1761SOL    HW216917   4.172   2.983   2.518  1.1038  0.3833  0.1914
 1762SOL     OW16918   2.474   0.397  14.862 -0.3233  0.6965 -0.0196
 1762SOL    HW116919   2.496   0.347  14.783 -1.7132  0.6648 -0.3996
 1762SOL    HW216920   2.564   0.415  14.889 -0.6324  1.2163  0.6553
 1763SOL     OW16921   2.169   3.575   2.786  0.8380 -0.3838 -0.1406
 1763SOL    HW116922   2.189   3.497   2.734 -2.5188 -1.6723  0.5221
 1763SOL    HW216923   2.159   3.534   2.872  0.5858  0.8735  0.4320
 1764SOL     OW16924   4.223   1.583  14.881  0.2548  0.3051  0.1721
 1764SOL    HW116925   4.155   1.650  14.888  0.9256  1.5389 -4.6879
 1764SOL    HW216926   4.176   1.500  14.885 -0.7247  0.8968  1.1214
 1765SOL     OW16927   2.933   4.108   4.814 -0.0854 -0.2403 -0.5019
 1765SOL    HW116928   2.962   4.141   4.900 -0.5791 -0.4333 -0.2634
 1765SOL    HW216929   2.841   4.089   4.831 -0.0769  0.7217  0.6648
 1766SOL     OW16930   3.349   4.095   8.981  0.0397 -0.4195  0.1491
 1766SOL    HW116931   3.308   4.010   8.966  0.3085 -0.1542 -2.1524
 1766SOL    HW216932   3.270   4.149   8.971 -0.3747 -0.2043  4.7647
 1767SOL     OW16933   2.828   2.409   1.732 -0.6401  0.3767  0.7665
 1767SOL    HW116934   2.762   2.363   1.680  0.9833  0.1970 -1.1340
 1767SOL    HW216935   2.884   2.431   1.658 -1.3692  2.6789  0.9016
 1768SOL     OW16936   2.669   4.115  11.214  0.2047  0.8475 -0.1388
 1768SOL    HW116937   2.761   4.138  11.225  0.4967 -0.2754 -0.1674
 1768SOL    HW216938   2.673   4.030  11.170 -0.6897  1.6355 -1.7707
 1769SOL     OW16939   4.138   1.941   2.546  0.7728 -0.2342  0.1907
 1769SOL    HW116940   4.190   1.985   2.613 -0.5521  0.6793  0.6261
 1769SOL    HW216941   4.115   1.855   2.580  1.1148  0.3445  1.8442
 1770SOL     OW16942   1.708   3.758   9.940 -0.3256  0.1136 -0.5270
 1770SOL    HW116943   1.672   3.673   9.967 -1.8068  0.6416 -0.8411
 1770SOL    HW216944   1.671   3.768   9.852  0.8533  0.7148 -0.9553
 1771SOL     OW16945   2.662   3.817   5.730 -0.8293  0.3897  0.3413
 1771SOL    HW116946   2.711   3.806   5.649 -0.4230 -1.3271  0.8218
 1771SOL    HW216947   2.710   3.890   5.767 -0.2755 -0.1944  0.7651
 1772SOL     OW16948   2.361   0.309  11.864  0.3416 -0.1316 -0.3715
 1772SOL    HW116949   2.287   0.349  11.819  0.8618 -0.0408 -1.1357
 1772SOL    HW216950   2.337   0.329  11.954  0.2693  0.7949 -0.5997
 1773SOL     OW16951   3.663   1.779   2.797 -0.7023  0.2080  0.3561
 1773SOL    HW116952   3.612   1.700   2.812 -1.3882  0.3719 -1.1390
 1773SOL    HW216953   3.711   1.776   2.880  1.4172  1.1299 -0.8227
 1774SOL     OW16954   0.741   0.792   6.286  0.4028  0.0943  0.1194
 1774SOL    HW116955   0.755   0.780   6.192  1.3180  0.2400  0.2374
 1774SOL    HW216956   0.761   0.885   6.289 -1.7504  0.6112 -1.3537
 1775SOL     OW16957   3.149   0.669   2.611  0.7660  0.8727 -0.4694
 1775SOL    HW116958   3.169   0.759   2.638  1.2817  1.4091 -2.6297
 1775SOL    HW216959   3.187   0.660   2.524 -0.1355 -1.7502 -0.5829
 1776SOL     OW16960   1.433   1.038   4.263  0.5547 -0.4293 -0.1770
 1776SOL    HW116961   1.450   1.098   4.336 -0.4430  0.5798 -0.7675
 1776SOL    HW216962   1.361   1.083   4.220  0.6805  2.1626  2.3677
 1777SOL     OW16963   4.518   1.200  15.044  0.5647  0.1089 -0.8201
 1777SOL    HW116964   4.473   1.279  15.073  0.4426  0.8459 -3.0357
 1777SOL    HW216965   4.606   1.224  15.074  1.1124 -0.8007 -1.7007
 1778SOL     OW16966   3.756   2.597  14.561 -0.1419 -0.1645  0.3985
 1778SOL    HW116967   3.818   2.524  14.570 -0.6028 -0.5599  0.3777
 1778SOL    HW216968   3.815   2.669  14.582 -1.5345  1.3159 -0.8264
 1779SOL     OW16969   4.650   1.775  13.340  0.0268 -0.0502  0.6803
 1779SOL    HW116970   4.714   1.838  13.306 -1.6561  1.1652 -0.2383
 1779SOL    HW216971   4.698   1.716  13.397 -0.0720  1.4091  2.2748
 1780SOL     OW16972   1.368   2.475   5.635 -0.3087 -0.0500 -0.1804
 1780SOL    HW116973   1.294   2.525   5.598 -0.4694 -0.7955 -0.8545
 1780SOL    HW216974   1.416   2.450   5.556 -0.0096  1.8682 -0.6158
 1781SOL     OW16975   0.562   1.483   9.390  0.6987 -0.0037  0.1605
 1781SOL    HW116976   0.528   1.394   9.383 -0.0577  0.3054 -0.1210
 1781SOL    HW216977   0.646   1.467   9.347  0.4789 -1.2965  0.2213
 1782SOL     OW16978   4.622   4.669   8.247 -0.8510 -0.5538  0.0416
 1782SOL    HW116979   4.682   4.600   8.219 -0.6871 -0.5818  0.4554
 1782SOL    HW216980   4.622   4.724   8.169  0.7653  0.2289  0.5930
 1783SOL     OW16981   0.919   0.806   0.417  0.2113  0.3020  0.4539
 1783SOL    HW116982   0.919   0.727   0.471  0.7967  0.4269  0.6361
 1783SOL    HW216983   0.885   0.867   0.482  2.0145  3.3232 -1.4096
 1784SOL     OW16984   0.178   2.888   8.725  0.1338 -0.2377 -0.4987
 1784SOL    HW116985   0.131   2.808   8.748 -0.9189 -0.0826 -2.1883
 1784SOL    HW216986   0.195   2.882   8.631 -3.2948 -0.6610 -1.0772
 1785SOL     OW16987   0.639   1.341   1.990  0.4439  0.5965 -0.2202
 1785SOL    HW116988   0.581   1.401   1.943  0.1892  0.2936 -0.2906
 1785SOL    HW216989   0.722   1.386   1.974  0.4146  0.7985  0.1916
 1786SOL     OW16990   0.926   1.599   1.156  0.1877 -0.0166 -0.3902
 1786SOL    HW116991   0.946   1.580   1.064  1.3552 -0.0335 -0.1349
 1786SOL    HW216992   0.887   1.686   1.146  1.4612  0.4470 -1.4227
 1787SOL     OW16993   0.854   4.200   5.091 -0.2236 -0.3423 -0.6590
 1787SOL    HW116994   0.790   4.257   5.133  0.0903 -0.6225  0.1883
 1787SOL    HW216995   0.926   4.194   5.153 -2.1648  1.8242  1.7767
 1788SOL     OW16996   1.254   1.732   9.158  0.4291  0.2799  0.1005
 1788SOL    HW116997   1.211   1.647   9.153 -2.9449  2.0375 -0.8496
 1788SOL    HW216998   1.207   1.758   9.237 -0.8252 -0.9627 -0.2436
 1789SOL     OW16999   1.298   1.269   8.719  0.6665 -0.0341 -0.1159
 1789SOL    HW117000   1.351   1.326   8.775 -0.2029  1.2881 -0.6140
 1789SOL    HW217001   1.340   1.184   8.711 -1.4341 -1.3058  2.1240
 1790SOL     OW17002   0.754   3.193  15.681  0.2619 -0.3749  0.0990
 1790SOL    HW117003   0.727   3.284  15.690  0.7139 -0.1828 -0.4628
 1790SOL    HW217004   0.739   3.155  15.768 -0.5562  1.2130  0.6437
 1791SOL     OW17005   3.537   0.499   3.085 -0.5060 -0.1574 -0.5695
 1791SOL    HW117006   3.446   0.519   3.107  0.0604  0.5964  1.0754
 1791SOL    HW217007   3.578   0.467   3.165  2.6123  1.4297 -1.5715
 1792SOL     OW17008   1.879   1.842   4.045 -0.4172  0.1603 -0.0758
 1792SOL    HW117009   1.948   1.892   4.088 -0.0277 -1.3878  1.1257
 1792SOL    HW217010   1.910   1.841   3.954  0.5507 -0.0907  0.2541
 1793SOL     OW17011   3.296   0.836  14.600 -0.5375 -0.7698  0.1007
 1793SOL    HW117012   3.227   0.898  14.621  1.7994  1.4360  1.3441
 1793SOL    HW217013   3.324   0.811  14.688  0.2016 -3.0718 -0.7728
 1794SOL     OW17014   2.455   0.981   4.511  0.0813  0.1645 -0.0630
 1794SOL    HW117015   2.405   0.982   4.429  1.7995 -0.2332 -1.1293
 1794SOL    HW217016   2.534   0.940   4.475 -1.1650 -0.0656 -2.5217
 1795SOL     OW17017   0.498   3.949   5.710 -0.0088 -0.5910  0.4668
 1795SOL    HW117018   0.565   3.959   5.643 -0.4945 -1.2980 -0.1246
 1795SOL    HW217019   0.466   4.038   5.726 -0.6728 -0.7825  0.1950
 1796SOL     OW17020   1.290   4.664   8.962  0.1147  0.2178  0.7008
 1796SOL    HW117021   1.357   4.614   8.916  0.1154 -0.1243  1.0777
 1796SOL    HW217022   1.321   4.671   9.052 -0.8991  1.2067  0.9844
 1797SOL     OW17023   0.019   3.082   3.566 -0.0768 -0.2577 -0.0403
 1797SOL    HW117024   0.041   3.005   3.513  1.5596 -0.9480  1.6212
 1797SOL    HW217025   4.668   3.056   3.585  0.5562 -0.8636  2.2554
 1798SOL     OW17026   0.517   1.254   5.690 -0.3654 -0.4849  0.5074
 1798SOL    HW117027   0.605   1.231   5.662 -0.2142  0.2807  0.3588
 1798SOL    HW217028   0.473   1.168   5.689 -1.7279  0.2183  0.0269
 1799SOL     OW17029   1.084   2.650   5.844 -0.5608  0.0894  0.9672
 1799SOL    HW117030   1.170   2.609   5.845 -1.5938 -2.0919  1.4730
 1799SOL    HW217031   1.017   2.587   5.871 -0.0726 -0.6987  0.3002
 1800SOL     OW17032   0.790   1.741  15.635  0.2825  0.0144  0.2071
 1800SOL    HW117033   0.722   1.781  15.581  1.5380  1.1750 -0.5248
 1800SOL    HW217034   0.818   1.677  15.570 -0.0324 -0.8035  0.8734
 1801SOL     OW17035   1.906   0.624  11.262 -0.3623 -0.1018  0.0687
 1801SOL    HW117036   1.996   0.654  11.275 -0.1553 -0.4327 -0.6227
 1801SOL    HW217037   1.890   0.624  11.168  1.8493  1.0493 -0.3002
 1802SOL     OW17038   0.004   2.901   7.464  0.5736  0.4406  0.0220
 1802SOL    HW117039   4.704   2.814   7.466 -0.4335  0.8729 -1.0157
 1802SOL    HW217040   4.700   2.938   7.541 -0.7903  0.4551 -0.7496
 1803SOL     OW17041   0.053   2.199   9.265 -0.3080  0.4851 -0.1591
 1803SOL    HW117042   0.069   2.208   9.171  0.0996 -1.9143 -0.3138
 1803SOL    HW217043   0.102   2.119   9.281 -0.3377  0.4861 -0.0623
 1804SOL     OW17044   3.098   0.172   8.075 -0.4228 -0.1624  0.0631
 1804SOL    HW117045   3.027   0.147   8.016  0.7060  0.7706 -1.6936
 1804SOL    HW217046   3.058   0.151   8.160  0.8284 -0.2435  0.6323
 1805SOL     OW17047   2.255   1.691   3.388  0.8705  0.2363  0.6917
 1805SOL    HW117048   2.249   1.690   3.292 -1.9358 -0.4888  0.8741
 1805SOL    HW217049   2.347   1.681   3.411  0.5179 -0.3056  1.8500
 1806SOL     OW17050   3.495   0.556   5.176 -0.0270  0.4526  0.3758
 1806SOL    HW117051   3.506   0.651   5.175 -0.0014  0.4165 -2.3904
 1806SOL    HW217052   3.576   0.530   5.131  0.3913  0.6710  1.0043
 1807SOL     OW17053   0.075   3.247   7.316  0.5015  0.1230  0.0212
 1807SOL    HW117054   0.084   3.219   7.407 -1.7794 -0.2408  0.1252
 1807SOL    HW217055   0.140   3.317   7.322 -1.3518  1.7657  0.9156
 1808SOL     OW17056   3.832   2.428   2.396 -0.0785 -0.2152 -0.2644
 1808SOL    HW117057   3.876   2.513   2.409  2.0193 -1.2118 -0.7509
 1808SOL    HW217058   3.909   2.383   2.360 -0.1716 -1.8079  1.5582
 1809SOL     OW17059   3.819   4.736   7.858  0.7041 -0.0184 -0.0634
 1809SOL    HW117060   3.882   4.682   7.905 -1.7781  0.3047  3.6364
 1809SOL    HW217061   3.746   0.008   7.920  0.5510 -1.5539  0.0364
 1810SOL     OW17062   4.484   3.437   7.574 -0.5888  0.1969  0.6150
 1810SOL    HW117063   4.516   3.495   7.505 -0.8657 -2.4602 -1.7688
 1810SOL    HW217064   4.571   3.408   7.602 -0.5221  1.7451  1.9893
 1811SOL     OW17065   1.834   4.707   7.231 -0.1806  0.5013 -0.2892
 1811SOL    HW117066   1.797   4.678   7.314  0.0770 -1.1124 -0.7423
 1811SOL    HW217067   1.877   0.052   7.249  0.8264 -0.1827  0.5578
 1812SOL     OW17068   4.026   3.881   3.821  0.0672  0.1637  0.3968
 1812SOL    HW117069   3.969   3.805   3.816  2.9911 -1.8018 -2.5409
 1812SOL    HW217070   4.060   3.878   3.731 -0.3898  1.3196  0.1774
 1813SOL     OW17071   0.982   4.017   3.853 -0.2107  0.3901  0.3826
 1813SOL    HW117072   0.992   4.040   3.761 -0.2348  4.5913  1.4177
 1813SOL    HW217073   0.966   3.923   3.849  0.5252  0.2424  0.7622
 1814SOL     OW17074   1.588   2.831   2.564 -0.2491  0.2584  0.2614
 1814SOL    HW117075   1.547   2.770   2.502 -0.8213 -0.3779  1.2744
 1814SOL    HW217076   1.638   2.776   2.625 -0.1542  1.5556  1.3296
 1815SOL     OW17077   1.257   1.651   8.805  0.5630  0.6318 -0.2443
 1815SOL    HW117078   1.194   1.690   8.866 -1.2949  1.6537 -2.8372
 1815SOL    HW217079   1.302   1.729   8.773  0.1865  0.7567 -0.4741
 1816SOL     OW17080   1.366   3.311   2.658  0.4451  0.4394  0.3747
 1816SOL    HW117081   1.290   3.316   2.599  0.9004 -1.1524 -0.3586
 1816SOL    HW217082   1.392   3.220   2.641 -1.3243 -0.2342  1.1936
 1817SOL     OW17083   2.157   0.998   8.119  0.8090 -0.1507 -0.7281
 1817SOL    HW117084   2.173   1.006   8.213  0.0001 -2.1878 -0.4306
 1817SOL    HW217085   2.247   1.001   8.087  1.3248  0.4349  0.7738
 1818SOL     OW17086   3.509   0.943   7.157  0.2133  0.0619 -0.0319
 1818SOL    HW117087   3.558   0.904   7.230  2.0207  2.1576 -0.1321
 1818SOL    HW217088   3.569   0.926   7.085  1.9178  0.6554  1.2220
 1819SOL     OW17089   4.507   2.414   3.685 -0.5755 -0.4615 -0.3095
 1819SOL    HW117090   4.427   2.365   3.706  0.2324 -1.1928  1.0277
 1819SOL    HW217091   4.564   2.384   3.756 -1.1864  0.7912  0.6918
 1820SOL     OW17092   1.454   3.520   5.834  0.3686 -0.0379  0.0410
 1820SOL    HW117093   1.359   3.509   5.826  0.2220  1.4803 -0.3607
 1820SOL    HW217094   1.457   3.567   5.751 -1.5707  3.0427  1.6993
 1821SOL     OW17095   0.258   0.729   8.965  0.2230 -0.0533 -0.2715
 1821SOL    HW117096   0.327   0.675   9.005  0.5878  0.3201 -0.3949
 1821SOL    HW217097   0.233   0.758   9.053 -1.8867 -0.2903 -0.7976
 1822SOL     OW17098   2.612   2.646   6.596 -0.2920 -0.4718 -0.1097
 1822SOL    HW117099   2.588   2.617   6.684 -0.6439  0.0715 -0.0236
 1822SOL    HW217100   2.641   2.568   6.549  2.7009 -1.5408  3.4930
 1823SOL     OW17101   2.882   1.457  12.111 -0.2921 -0.0536  0.5060
 1823SOL    HW117102   2.787   1.448  12.113 -0.0727 -1.7905  2.6490
 1823SOL    HW217103   2.885   1.548  12.082  0.7727 -0.5922 -1.0802
 1824SOL     OW17104   0.051   3.089   7.909 -0.4141 -0.0801 -0.3621
 1824SOL    HW117105   0.085   3.026   7.972 -0.5502 -1.3407 -1.5497
 1824SOL    HW217106   0.058   3.173   7.955  3.1226 -0.2890 -0.5342
 1825SOL     OW17107   0.902   3.739  10.306  0.6311 -0.3188  0.5685
 1825SOL    HW117108   0.996   3.756  10.312  0.6159 -0.2867  0.7123
 1825SOL    HW217109   0.879   3.776  10.391 -1.5321  1.1939 -0.6785
 1826SOL     OW17110   2.498   2.779   4.296  0.0682  0.3013 -0.0165
 1826SOL    HW117111   2.587   2.759   4.326 -0.8510 -0.0066  2.4956
 1826SOL    HW217112   2.495   2.868   4.261 -1.4505 -0.3899 -1.6315
 1827SOL     OW17113   0.235   3.563  17.553 -0.1525 -0.0677  0.3687
 1827SOL    HW117114   0.302   3.626  17.526 -1.3587  0.4364 -1.3780
 1827SOL    HW217115   0.167   3.623  17.582 -1.0178  0.4003 -2.6908
 1828SOL     OW17116   1.828   2.475   8.857  1.5139 -0.1691  0.2575
 1828SOL    HW117117   1.749   2.523   8.880  1.3195  0.3247 -1.4917
 1828SOL    HW217118   1.886   2.486   8.933  2.4602 -0.5671 -0.4125
 1829SOL     OW17119   3.765   3.952   6.210  0.1010  0.5622 -0.3224
 1829SOL    HW117120   3.830   3.975   6.276  1.3385 -1.5647 -0.8014
 1829SOL    HW217121   3.690   3.922   6.261  1.6014 -0.9008  1.0069
 1830SOL     OW17122   2.452   3.756   9.014  0.3158  0.3448 -0.5225
 1830SOL    HW117123   2.380   3.739   8.954  1.2932  0.6570 -1.7815
 1830SOL    HW217124   2.428   3.688   9.077  2.4358  2.3109  2.4081
 1831SOL     OW17125   0.205   0.627   3.331 -0.3706  0.3405 -0.3092
 1831SOL    HW117126   0.122   0.617   3.377 -0.0270  1.7681  0.6152
 1831SOL    HW217127   0.175   0.692   3.269 -0.9969  0.1797 -0.1708
 1832SOL     OW17128   1.490   1.440  11.624  0.3363 -0.2223 -0.4827
 1832SOL    HW117129   1.493   1.352  11.661  0.7568 -0.6362 -1.4917
 1832SOL    HW217130   1.457   1.419  11.537  0.4232  1.7876 -0.9872
 1833SOL     OW17131   1.308   2.990   6.304 -0.1005  0.6098  0.1241
 1833SOL    HW117132   1.292   3.056   6.237 -2.2235 -0.0184  0.0026
 1833SOL    HW217133   1.403   2.996   6.304 -0.0207 -0.6545 -0.2539
 1834SOL     OW17134   0.713   2.706   1.985  0.2932 -0.2149 -0.4995
 1834SOL    HW117135   0.626   2.686   1.950 -0.4975 -0.1472  1.4031
 1834SOL    HW217136   0.717   2.793   1.946  4.3550  0.0372  0.5098
 1835SOL     OW17137   1.165   3.530   7.332 -0.2215  0.0678 -0.0329
 1835SOL    HW117138   1.126   3.615   7.353  0.1336  0.2340 -0.0609
 1835SOL    HW217139   1.218   3.545   7.254 -1.3122 -1.6435 -1.0967
 1836SOL     OW17140   4.577   4.155   8.598  0.4237 -0.4252  0.5072
 1836SOL    HW117141   4.524   4.160   8.678 -0.0584 -1.9113  0.2769
 1836SOL    HW217142   4.644   4.087   8.602 -1.9141 -2.6558  1.0337
 1837SOL     OW17143   3.107   1.382   4.213 -0.6289  0.9666 -0.1841
 1837SOL    HW117144   3.050   1.342   4.279  1.2095 -0.4089  0.5487
 1837SOL    HW217145   3.052   1.453   4.179 -1.0548  0.3098 -0.8822
 1838SOL     OW17146   1.756   2.871   8.961 -0.4383 -0.3404 -0.0364
 1838SOL    HW117147   1.836   2.895   8.914 -0.5964  1.5482  0.6786
 1838SOL    HW217148   1.681   2.874   8.902 -0.7091 -0.0279  0.3256
 1839SOL     OW17149   3.955   3.190   5.104  0.2532 -0.1642 -0.1231
 1839SOL    HW117150   3.907   3.181   5.021  0.5571  0.5414 -0.3797
 1839SOL    HW217151   3.944   3.283   5.125  1.4479 -0.3874  1.4215
 1840SOL     OW17152   4.426   0.037   6.495 -0.3867 -0.8231 -0.5450
 1840SOL    HW117153   4.336   0.008   6.508 -0.1414 -1.7631 -0.9842
 1840SOL    HW217154   4.406   0.117   6.445 -1.3796 -0.2864  0.7146
 1841SOL     OW17155   0.821   0.048  14.489 -0.0119  0.3396  0.2286
 1841SOL    HW117156   0.812   0.121  14.550  0.2437  0.4173  0.1730
 1841SOL    HW217157   0.915   0.040  14.468 -0.6121 -0.3893 -2.1765
 1842SOL     OW17158   2.474   0.181   1.484 -0.3818  0.3840  0.1374
 1842SOL    HW117159   2.474   0.089   1.458  3.7060  0.7962 -1.3793
 1842SOL    HW217160   2.491   0.221   1.398 -0.4165  0.7050  0.2786
 1843SOL     OW17161   1.759   0.254  17.679 -0.5103  0.3468  0.1391
 1843SOL    HW117162   1.812   0.269  17.601  1.9199  0.8533  1.8901
 1843SOL    HW217163   1.709   0.335  17.693 -1.6003 -0.2168 -0.4515
 1844SOL     OW17164   3.213   0.627   1.695  0.2338  0.0759  0.2091
 1844SOL    HW117165   3.184   0.612   1.786  0.6551  1.0112  0.4940
 1844SOL    HW217166   3.245   0.543   1.662  0.3557  0.3036 -0.2532
 1845SOL     OW17167   2.425   4.701   1.792 -0.9499 -0.1666 -0.1145
 1845SOL    HW117168   2.363   0.025   1.827  0.3548  0.2358  1.4440
 1845SOL    HW217169   2.420   4.634   1.860 -0.7527 -0.0446  0.0206
 1846SOL     OW17170   0.385   1.674   6.752 -0.1202  0.4213  0.1570
 1846SOL    HW117171   0.478   1.682   6.775 -0.7373  2.4237  1.9332
 1846SOL    HW217172   0.380   1.737   6.681 -0.4290  0.1359 -0.0710
 1847SOL     OW17173   4.532   2.859   5.687 -0.0111  0.0061 -0.5758
 1847SOL    HW117174   4.557   2.902   5.605 -0.6564 -2.3978 -2.0536
 1847SOL    HW217175   4.552   2.929   5.748  2.3959 -1.7507  0.6372
 1848SOL     OW17176   4.494   0.040  15.243  0.2060 -0.2781  0.0312
 1848SOL    HW117177   4.419   4.732  15.279  1.2507 -1.2085  0.9999
 1848SOL    HW217178   4.446   0.115  15.209 -1.1532 -0.2642  1.9809
 1849SOL     OW17179   4.419   3.653   5.346  0.0123  0.0166  0.0617
 1849SOL    HW117180   4.437   3.746   5.330  1.3811 -0.2172  0.2392
 1849SOL    HW217181   4.335   3.639   5.302 -0.1619  2.1530 -0.3204
 1850SOL     OW17182   4.149   1.531   8.021 -0.2286 -0.0771 -0.6017
 1850SOL    HW117183   4.176   1.620   8.042  0.1356 -0.2845 -0.1863
 1850SOL    HW217184   4.076   1.521   8.082 -0.1787  1.9359 -0.2206
 1851SOL     OW17185   1.144   1.920   7.915 -0.1175 -0.4122  0.3785
 1851SOL    HW117186   1.144   1.923   7.819  2.2512 -1.9832  0.2940
 1851SOL    HW217187   1.228   1.881   7.942  0.5455  0.4140 -0.4928
 1852SOL     OW17188   3.727   3.463   4.607  0.7383  0.3063  0.5196
 1852SOL    HW117189   3.694   3.373   4.605  0.4995  0.4106 -0.1914
 1852SOL    HW217190   3.675   3.500   4.536  0.4984 -0.9156  0.0640
 1853SOL     OW17191   4.484   2.649   8.737  0.1458  0.3257 -0.0667
 1853SOL    HW117192   4.424   2.668   8.810 -0.2215  0.7235 -0.4763
 1853SOL    HW217193   4.453   2.715   8.676 -1.1802  0.2408  0.5160
 1854SOL     OW17194   3.265   3.815   8.906  0.0120  0.3469 -0.3422
 1854SOL    HW117195   3.171   3.807   8.891 -0.5214  2.3019  1.9240
 1854SOL    HW217196   3.275   3.753   8.978 -1.5172 -1.2811 -1.5271
 1855SOL     OW17197   4.098   2.681   7.403 -0.2753  0.0892  0.0432
 1855SOL    HW117198   4.147   2.705   7.482  2.7753  2.7494 -2.6395
 1855SOL    HW217199   4.049   2.760   7.382  0.7698  0.8154  0.3393
 1856SOL     OW17200   4.455   4.444  14.864  0.2051 -0.0507 -0.1589
 1856SOL    HW117201   4.366   4.422  14.889  0.0337  0.8843  0.0785
 1856SOL    HW217202   4.469   4.522  14.919  1.0206  0.4411 -1.0674
 1857SOL     OW17203   2.568   3.202   4.830  0.3100  0.2362  0.6654
 1857SOL    HW117204   2.629   3.234   4.897  0.5490 -0.4190  0.7544
 1857SOL    HW217205   2.557   3.288   4.790 -0.7093  0.5212  1.5312
 1858SOL     OW17206   4.536   1.508   4.581  0.0386 -0.2005  0.0930
 1858SOL    HW117207   4.517   1.545   4.667 -1.0235 -3.2639  1.1840
 1858SOL    HW217208   4.541   1.413   4.595 -0.6093 -0.2264  0.1556
 1859SOL     OW17209   2.440   4.026   5.100  0.0309  0.1261 -0.1989
 1859SOL    HW117210   2.358   4.009   5.053  0.9065  0.0981 -1.7395
 1859SOL    HW217211   2.483   3.941   5.092  2.0339  1.0362  1.0906
 1860SOL     OW17212   2.578   1.399  17.588 -0.3398 -0.7419 -0.0781
 1860SOL    HW117213   2.556   1.415  17.496  1.7205  0.4064 -0.3736
 1860SOL    HW217214   2.668   1.434  17.589 -0.2268 -1.0489  0.6576
 1861SOL     OW17215   2.268   1.230   2.802  0.1652 -0.7893  0.1724
 1861SOL    HW117216   2.331   1.253   2.734 -0.0094  0.2999  0.3833
 1861SOL    HW217217   2.257   1.139   2.774  1.0272 -1.2090  1.1640
 1862SOL     OW17218   1.126   3.479   3.487  0.1684  0.4109  0.2956
 1862SOL    HW117219   1.104   3.417   3.418 -1.9237 -0.1789  1.5032
 1862SOL    HW217220   1.140   3.414   3.555  1.4561  0.2856 -0.0940
 1863SOL     OW17221   1.453   0.570  10.133 -0.1622  0.2110  0.0802
 1863SOL    HW117222   1.388   0.510  10.097 -0.3362  0.3596  0.1485
 1863SOL    HW217223   1.491   0.529  10.210 -1.5492  1.3396  1.3701
 1864SOL     OW17224   3.188   3.768  12.523 -0.0776 -0.0169 -0.0150
 1864SOL    HW117225   3.218   3.797  12.437  0.2309  0.2689  0.1881
 1864SOL    HW217226   3.265   3.722  12.558  0.6326  3.0107  2.3885
 1865SOL     OW17227   2.820   4.608   8.380  0.4783 -0.7342  0.1229
 1865SOL    HW117228   2.896   4.553   8.399 -0.0333 -0.5002  2.7516
 1865SOL    HW217229   2.767   4.596   8.458  2.2191  0.8573  1.5565
 1866SOL     OW17230   2.686   3.285   8.861  0.0178 -0.5435  0.0277
 1866SOL    HW117231   2.663   3.284   8.953 -1.1704 -0.1803 -0.2663
 1866SOL    HW217232   2.774   3.249   8.869  0.1229 -0.3278 -0.1572
 1867SOL     OW17233   1.406   0.725   9.727  0.2842 -0.0420  0.9201
 1867SOL    HW117234   1.447   0.809   9.709 -2.2066  0.7614 -0.9375
 1867SOL    HW217235   1.493   0.686   9.742  1.7423  2.3823 -1.3212
 1868SOL     OW17236   3.356   1.869  16.888 -0.5353 -0.2387  0.2977
 1868SOL    HW117237   3.361   1.784  16.931  0.1658 -1.9265 -3.1369
 1868SOL    HW217238   3.357   1.918  16.971 -0.4827 -0.4774  0.4380
 1869SOL     OW17239   4.134   1.212   2.368  0.5006  0.5264 -0.0795
 1869SOL    HW117240   4.044   1.235   2.348  0.4430  0.7278  0.4026
 1869SOL    HW217241   4.163   1.157   2.296 -0.4466  1.0307 -0.8411
 1870SOL     OW17242   1.188   4.040   4.278 -0.1633  0.3749  0.2522
 1870SOL    HW117243   1.123   4.100   4.315 -0.8918  0.3384 -0.9775
 1870SOL    HW217244   1.205   3.991   4.358  0.5546  1.0452  0.5075
 1871SOL     OW17245   3.987   2.345  16.992 -0.3066 -0.8443 -0.3821
 1871SOL    HW117246   4.003   2.411  16.925  1.2700 -0.1170  0.7137
 1871SOL    HW217247   4.058   2.285  16.967 -0.7107 -0.3798 -2.6375
 1872SOL     OW17248   1.826   4.693  17.269 -0.1075 -0.2266 -0.2495
 1872SOL    HW117249   1.863   4.642  17.341 -1.1051 -1.5906 -0.6987
 1872SOL    HW217250   1.788   0.031  17.311  1.4841 -0.2208  1.1688
 1873SOL     OW17251   3.992   0.109  11.482  0.1939 -0.0976 -0.1206
 1873SOL    HW117252   3.994   0.043  11.551  0.3529  0.4275  0.3754
 1873SOL    HW217253   4.069   0.159  11.508  0.7757 -1.2446  0.3317
 1874SOL     OW17254   0.047   0.925   4.511  0.4090  0.1871  0.4157
 1874SOL    HW117255   0.080   0.999   4.560  0.1662  0.3447  0.3411
 1874SOL    HW217256   0.116   0.859   4.501  0.8699  0.5457  1.2831
 1875SOL     OW17257   3.390   4.092   2.395  0.2976  0.1138 -0.3278
 1875SOL    HW117258   3.366   3.999   2.392  4.3462 -0.9381  0.4065
 1875SOL    HW217259   3.303   4.121   2.365  0.8059  1.5764 -0.3919
 1876SOL     OW17260   2.399   3.258   1.314 -0.0611 -0.7353 -0.1495
 1876SOL    HW117261   2.356   3.217   1.389  1.2371 -1.7267  0.0534
 1876SOL    HW217262   2.368   3.348   1.318 -0.5539 -0.9725  1.7461
 1877SOL     OW17263   1.988   3.479   7.927  0.2297 -0.1958  0.3669
 1877SOL    HW117264   1.976   3.487   7.832  0.5114  0.9362  0.4203
 1877SOL    HW217265   2.083   3.496   7.927  0.1477  0.2540  1.1892
 1878SOL     OW17266   2.046   2.018   5.574  0.4831  0.3698  0.4708
 1878SOL    HW117267   2.021   1.945   5.630 -0.1785 -2.3161 -3.3382
 1878SOL    HW217268   2.064   2.096   5.626 -0.1753  0.0926  1.0950
 1879SOL     OW17269   1.225   2.228   2.541  0.4746  0.4433 -0.0258
 1879SOL    HW117270   1.241   2.135   2.556  0.9186  0.8199  1.7735
 1879SOL    HW217271   1.261   2.264   2.622 -1.1568 -0.1802  0.9806
 1880SOL     OW17272   1.173   1.948   7.272 -0.1101 -0.2591  0.0349
 1880SOL    HW117273   1.217   1.874   7.313  0.3053 -0.7350 -1.2811
 1880SOL    HW217274   1.206   2.008   7.339 -0.2820  0.4112 -0.4742
 1881SOL     OW17275   2.839   4.089   7.366 -0.4790 -0.0964  0.9000
 1881SOL    HW117276   2.839   4.159   7.431  3.8602  2.2847 -1.5905
 1881SOL    HW217277   2.749   4.060   7.381  0.1446 -1.4162  2.0839
 1882SOL     OW17278   2.862   0.353  11.091  0.0763  0.3972 -0.7752
 1882SOL    HW117279   2.882   0.303  11.012  1.0048 -0.2982 -0.0966
 1882SOL    HW217280   2.901   0.311  11.167  1.8474 -0.0393 -1.9548
 1883SOL     OW17281   0.618   3.720   8.002 -0.1649 -0.1326 -0.3169
 1883SOL    HW117282   0.586   3.789   7.944  1.7685 -0.6409 -2.0154
 1883SOL    HW217283   0.706   3.693   7.974 -0.5534 -1.7254 -0.0191
 1884SOL     OW17284   3.056   1.656   8.053  0.1045  0.7529 -0.3615
 1884SOL    HW117285   3.026   1.636   7.964 -1.7945  2.7812 -0.1874
 1884SOL    HW217286   3.104   1.575   8.071  1.3951  1.4412 -0.7034
 1885SOL     OW17287   4.607   4.551   4.809 -0.4020  0.7213  0.2848
 1885SOL    HW117288   4.528   4.578   4.856  0.1975  0.6376  1.3297
 1885SOL    HW217289   4.678   4.533   4.871 -3.0590 -0.4391  3.0016
 1886SOL     OW17290   1.642   3.768   3.211 -0.0747 -0.2392  0.6824
 1886SOL    HW117291   1.657   3.707   3.139  0.9486  1.2502 -0.3624
 1886SOL    HW217292   1.571   3.820   3.173 -0.1019  0.0696  1.1556
 1887SOL     OW17293   2.052   0.234   0.464 -0.2767  0.0987 -0.2883
 1887SOL    HW117294   2.029   0.265   0.377  0.2355 -1.4554 -0.9646
 1887SOL    HW217295   2.095   0.314   0.498  0.5350 -0.2421 -0.5153
 1888SOL     OW17296   2.623   4.451   0.333  0.2141  0.1182 -0.1160
 1888SOL    HW117297   2.705   4.470   0.287  0.1824  0.6396  0.0449
 1888SOL    HW217298   2.565   4.448   0.257  0.2123 -0.2737 -0.0977
 1889SOL     OW17299   4.519   2.064   0.277 -0.2291  0.2474  0.5628
 1889SOL    HW117300   4.430   2.098   0.273 -0.8717 -1.4325  0.6020
 1889SOL    HW217301   4.540   2.065   0.183  0.6166 -0.9574  0.7340
 1890SOL     OW17302   0.190   1.494   5.057  0.8614 -0.0789  0.5708
 1890SOL    HW117303   0.185   1.523   4.966 -0.2356  0.0882  0.6892
 1890SOL    HW217304   0.113   1.441   5.073  0.9846 -0.9834 -1.8302
 1891SOL     OW17305   1.554   3.421   2.813 -0.2895 -0.0485  0.3573
 1891SOL    HW117306   1.528   3.510   2.788  0.3222 -0.1726 -0.6898
 1891SOL    HW217307   1.491   3.366   2.766  0.9500  1.1488 -2.6992
 1892SOL     OW17308   3.958   3.107  11.237  0.1536  0.1557  0.0114
 1892SOL    HW117309   4.019   3.181  11.230  0.2106  0.2335  1.3032
 1892SOL    HW217310   4.011   3.038  11.276  0.2005 -0.1830 -0.6657
 1893SOL     OW17311   2.960   4.289  17.425 -0.3325  0.0077 -0.5920
 1893SOL    HW117312   2.896   4.272  17.355 -1.2251 -0.3531  0.3204
 1893SOL    HW217313   3.017   4.357  17.390  2.0725 -1.2807  0.8715
 1894SOL     OW17314   3.739   1.419   7.974 -0.6880 -0.1371 -0.0899
 1894SOL    HW117315   3.822   1.370   7.966 -0.0457  1.1708 -1.5016
 1894SOL    HW217316   3.706   1.426   7.885 -0.7688 -1.1914 -0.1445
 1895SOL     OW17317   3.661   0.379   6.510  0.2104  0.4492  0.1431
 1895SOL    HW117318   3.739   0.366   6.563 -1.2114  1.8557  2.5959
 1895SOL    HW217319   3.705   0.385   6.425  0.6550  1.4850  0.4523
 1896SOL     OW17320   4.698   2.628   3.286  0.3297  0.1318  0.2463
 1896SOL    HW117321   4.649   2.710   3.291 -1.2308 -0.9248  2.0639
 1896SOL    HW217322   4.675   2.585   3.204 -1.4682  2.0434 -0.2707
 1897SOL     OW17323   3.358   1.197  14.316 -0.1652  0.1837 -0.3403
 1897SOL    HW117324   3.308   1.222  14.394  2.0250 -2.3668  1.8600
 1897SOL    HW217325   3.449   1.195  14.347 -0.3179 -1.2387 -0.0068
 1898SOL     OW17326   4.334   2.300   9.706 -0.3301 -0.5533  0.0213
 1898SOL    HW117327   4.258   2.249   9.734  0.7956 -1.5104  1.3413
 1898SOL    HW217328   4.310   2.387   9.735  1.3825  0.2431 -0.9314
 1899SOL     OW17329   0.429   4.728   1.860  1.0703 -0.0972 -0.0192
 1899SOL    HW117330   0.469   4.648   1.825 -1.1292 -1.6631  0.9785
 1899SOL    HW217331   0.488   0.063   1.854  1.7548 -0.5047  1.8043
 1900SOL     OW17332   3.333   3.498  15.592 -0.6051 -0.5469 -0.2222
 1900SOL    HW117333   3.362   3.494  15.500 -0.9008 -1.7627 -0.2711
 1900SOL    HW217334   3.363   3.585  15.615  1.0764 -0.3000 -3.3757
 1901SOL     OW17335   0.779   1.372   3.359 -0.0910 -0.0110  0.1840
 1901SOL    HW117336   0.800   1.318   3.435 -2.8858  1.0343  1.6835
 1901SOL    HW217337   0.850   1.339   3.304 -0.2762 -0.6523  0.3311
 1902SOL     OW17338   0.624   0.982   4.719  0.6146 -0.2369 -0.0021
 1902SOL    HW117339   0.677   1.061   4.717 -0.1470  0.3274  1.5501
 1902SOL    HW217340   0.538   1.012   4.689  0.1903  0.2742  1.7087
 1903SOL     OW17341   2.784   3.650   3.211 -0.2006  0.2324  0.6435
 1903SOL    HW117342   2.855   3.610   3.260 -0.5051 -0.6095  0.4001
 1903SOL    HW217343   2.816   3.645   3.121  1.3123 -0.4249  1.2174
 1904SOL     OW17344   0.450   0.606   4.771 -0.5454 -0.1563  0.5583
 1904SOL    HW117345   0.445   0.534   4.709 -0.3414  0.2037  0.1289
 1904SOL    HW217346   0.531   0.650   4.745 -0.5458 -0.8733 -0.6472
 1905SOL     OW17347   3.846   4.534   2.771  0.0774 -0.2565 -0.1387
 1905SOL    HW117348   3.800   4.618   2.780 -1.7325 -1.0689 -1.9698
 1905SOL    HW217349   3.839   4.527   2.676  0.6428  0.4463 -0.2367
 1906SOL     OW17350   4.509   1.099   3.141  0.4148 -0.3454  0.2480
 1906SOL    HW117351   4.528   1.023   3.196 -2.5793 -2.3771 -1.5179
 1906SOL    HW217352   4.544   1.067   3.058  1.8486  1.9657 -0.0314
 1907SOL     OW17353   4.234   4.225   9.125 -0.1976  0.2991 -0.0871
 1907SOL    HW117354   4.157   4.255   9.076 -0.8731  0.8561  1.2997
 1907SOL    HW217355   4.280   4.160   9.072  0.0126  0.8299 -0.5567
 1908SOL     OW17356   3.868   1.851   5.778 -0.3780 -0.1242 -0.4288
 1908SOL    HW117357   3.809   1.926   5.774 -2.4811 -1.8515 -1.6708
 1908SOL    HW217358   3.891   1.868   5.869  2.6561 -2.0855 -0.8033
 1909SOL     OW17359   1.142   1.008   0.736  0.0748 -0.3363  0.1076
 1909SOL    HW117360   1.076   1.038   0.673  1.1874  0.9297 -0.4396
 1909SOL    HW217361   1.196   0.960   0.672 -0.0914  0.2155 -0.4500
 1910SOL     OW17362   1.494   1.332   0.079 -0.2574 -0.3313 -0.2653
 1910SOL    HW117363   1.580   1.370   0.094  0.4733 -0.8721 -3.1066
 1910SOL    HW217364   1.498   1.311  17.741 -2.5830  3.6850 -1.2610
 1911SOL     OW17365   0.605   4.212   5.665 -0.3586  0.1498  0.4409
 1911SOL    HW117366   0.592   4.221   5.570 -0.5691  0.2849  0.4823
 1911SOL    HW217367   0.687   4.260   5.678  0.2070 -1.5976  3.4046
 1912SOL     OW17368   2.400   0.575   9.163  0.3099  0.7547  0.1892
 1912SOL    HW117369   2.375   0.499   9.109 -0.3268  0.4624  0.8986
 1912SOL    HW217370   2.365   0.553   9.249 -0.4241 -0.3518 -0.3902
 1913SOL     OW17371   3.120   1.251   2.291  0.0978 -0.2889  0.0490
 1913SOL    HW117372   3.142   1.183   2.355 -0.2012 -0.0513  0.4026
 1913SOL    HW217373   3.204   1.282   2.258 -0.6671  0.0496 -1.5872
 1914SOL     OW17374   4.400   1.422  11.875  0.6886 -0.8138 -0.2930
 1914SOL    HW117375   4.308   1.412  11.854  0.6680 -0.9900 -0.1179
 1914SOL    HW217376   4.417   1.359  11.945  2.5651  0.3320  0.3074
 1915SOL     OW17377   3.543   1.416   1.220 -0.4283 -0.0402  0.0683
 1915SOL    HW117378   3.502   1.451   1.140 -1.3785 -0.3286  0.4302
 1915SOL    HW217379   3.515   1.325   1.207  1.2544 -0.5880  0.4119
 1916SOL     OW17380   1.655   0.119   8.959  0.0568  0.5570 -0.3274
 1916SOL    HW117381   1.568   0.134   8.996  0.2910 -2.4999  1.4482
 1916SOL    HW217382   1.634   0.108   8.866  2.1789  0.2994 -0.7866
 1917SOL     OW17383   0.949   2.253   3.546  0.4444 -0.4024 -0.2233
 1917SOL    HW117384   0.903   2.329   3.581 -0.2447 -0.4971 -0.9280
 1917SOL    HW217385   0.903   2.225   3.467  0.1951 -0.9616  0.1154
 1918SOL     OW17386   0.017   1.473   9.252  0.3395 -0.4287 -0.4189
 1918SOL    HW117387   0.111   1.489   9.266  0.3190  0.0279 -0.7965
 1918SOL    HW217388   0.019   1.415   9.175 -1.0696  0.5519 -1.1823
 1919SOL     OW17389   1.131   1.087   9.149  0.3971  0.2430 -0.1532
 1919SOL    HW117390   1.175   1.172   9.140 -3.4973  2.1127 -1.4615
 1919SOL    HW217391   1.135   1.044   9.063  0.6073 -1.4624  0.7021
 1920SOL     OW17392   2.346   0.620   1.746 -0.0524  0.5176 -0.5144
 1920SOL    HW117393   2.324   0.592   1.657  1.3392 -1.1740 -0.3172
 1920SOL    HW217394   2.418   0.682   1.738  0.4441 -0.4197 -3.3990
 1921SOL     OW17395   1.381   2.679   9.372 -0.0207 -0.5128  0.6213
 1921SOL    HW117396   1.328   2.691   9.293 -1.3467 -3.5843  1.0283
 1921SOL    HW217397   1.307   2.676   9.433  0.5659 -0.0596  1.3351
 1922SOL     OW17398   3.317   1.826   6.914  0.0413  0.4570 -0.3289
 1922SOL    HW117399   3.353   1.900   6.963  2.0676 -0.1107 -0.9675
 1922SOL    HW217400   3.236   1.800   6.958 -0.1926 -1.3918 -1.8486
 1923SOL     OW17401   3.501   1.546  12.574 -0.2821  0.3109  0.2503
 1923SOL    HW117402   3.469   1.517  12.489  0.1067 -1.7495  0.8156
 1923SOL    HW217403   3.485   1.467  12.625  1.0264  0.3777  0.7680
 1924SOL     OW17404   3.296   0.805   6.056  0.4670 -0.1222 -0.5860
 1924SOL    HW117405   3.355   0.749   6.004 -0.5904 -0.3024 -1.5861
 1924SOL    HW217406   3.311   0.879   5.997  0.7454 -0.5629 -1.0670
 1925SOL     OW17407   4.434   4.213   1.488  0.8587  0.7615 -0.0412
 1925SOL    HW117408   4.414   4.275   1.558 -1.0169  0.2581 -0.1499
 1925SOL    HW217409   4.439   4.129   1.532  1.2230 -0.2309 -2.0001
 1926SOL     OW17410   3.897   0.790   3.632 -0.1831  0.1460  0.1607
 1926SOL    HW117411   3.888   0.733   3.556 -0.3465  0.1367  0.1876
 1926SOL    HW217412   3.969   0.850   3.613  0.5891 -0.5686  0.8085
 1927SOL     OW17413   1.816   3.422   4.087 -0.4631 -0.5001 -0.3289
 1927SOL    HW117414   1.748   3.448   4.024  0.6049  2.6756 -0.1417
 1927SOL    HW217415   1.855   3.355   4.030 -0.3371 -1.1600  0.5377
 1928SOL     OW17416   1.364   4.473   1.954  1.2378  0.1962 -0.2528
 1928SOL    HW117417   1.278   4.459   1.913  1.4665  2.0624 -1.3835
 1928SOL    HW217418   1.428   4.464   1.883  1.1911  2.2838 -0.5567
 1929SOL     OW17419   2.202   1.697   3.954  0.7524 -0.5979  0.1156
 1929SOL    HW117420   2.246   1.749   4.021 -0.9602  0.3297  0.5279
 1929SOL    HW217421   2.162   1.759   3.892  2.5787 -0.4216 -0.8868
 1930SOL     OW17422   1.243   3.498   5.433  0.2838  0.2994  0.2260
 1930SOL    HW117423   1.334   3.470   5.439  0.1199  0.0601  1.5375
 1930SOL    HW217424   1.199   3.413   5.434  1.0597 -0.0761  2.3395
 1931SOL     OW17425   0.842   2.744   6.663 -0.6933 -0.4682  0.4119
 1931SOL    HW117426   0.831   2.783   6.750  0.2894  1.1950 -0.2056
 1931SOL    HW217427   0.753   2.763   6.631 -0.1376  0.8204 -0.3984
 1932SOL     OW17428   1.502   4.436   2.841  0.0632 -0.2781 -0.3080
 1932SOL    HW117429   1.544   4.522   2.851 -3.5833  1.4803  0.0144
 1932SOL    HW217430   1.463   4.439   2.754  0.1816  0.0399 -0.3535
 1933SOL     OW17431   2.326   2.345   7.358  0.2512 -0.1769 -0.2645
 1933SOL    HW117432   2.263   2.299   7.301 -2.2053  1.4381  1.1611
 1933SOL    HW217433   2.411   2.307   7.334  0.8264  1.0401 -0.1276
 1934SOL     OW17434   0.923   2.653   4.683  0.3261 -0.4953 -0.4821
 1934SOL    HW117435   0.997   2.702   4.647 -0.6089  1.5193  0.3555
 1934SOL    HW217436   0.978   2.603   4.744 -0.1985  0.4914  0.7864
 1935SOL     OW17437   0.470   1.456   2.979  0.4093 -0.3179  0.7181
 1935SOL    HW117438   0.506   1.493   3.060  2.5483 -0.2391 -0.2594
 1935SOL    HW217439   0.555   1.438   2.938 -1.4706 -1.3150 -2.7205
 1936SOL     OW17440   3.646   3.203  13.363 -0.5026  0.4743 -0.3185
 1936SOL    HW117441   3.635   3.189  13.457 -1.3878  0.2538 -0.4509
 1936SOL    HW217442   3.633   3.110  13.341  0.3505  0.1727  0.4785
 1937SOL     OW17443   2.996   2.402   3.247 -0.2677 -0.0351  0.0142
 1937SOL    HW117444   2.923   2.346   3.220 -1.1878  0.9119  0.5333
 1937SOL    HW217445   3.048   2.349   3.308 -1.3818 -1.1034  0.0327
 1938SOL     OW17446   1.385   1.472   6.483  0.0976  0.1493  0.4658
 1938SOL    HW117447   1.367   1.471   6.577  0.4631 -0.8841  0.5251
 1938SOL    HW217448   1.443   1.549   6.489 -0.4916  0.6293 -0.0546
 1939SOL     OW17449   1.155   1.027  12.627 -0.5111  0.2591  0.1273
 1939SOL    HW117450   1.136   1.084  12.701  1.7185  0.4485  0.5251
 1939SOL    HW217451   1.068   0.993  12.604 -0.3360  1.0731 -1.7308
 1940SOL     OW17452   1.241   0.408  12.877 -0.2867 -0.1678  0.2148
 1940SOL    HW117453   1.146   0.408  12.890 -0.4420  3.6836 -1.0415
 1940SOL    HW217454   1.252   0.451  12.792 -2.4529 -3.6369 -1.7939
 1941SOL     OW17455   3.147   3.311   7.850  0.0437  0.4802  0.2412
 1941SOL    HW117456   3.223   3.357   7.886 -0.0356 -1.2558  2.6417
 1941SOL    HW217457   3.073   3.316   7.911 -0.5233  2.7687 -0.6355
 1942SOL     OW17458   2.301   0.828  15.826  0.2951  0.1101  0.0880
 1942SOL    HW117459   2.392   0.837  15.855  0.5675 -1.4385 -0.2853
 1942SOL    HW217460   2.312   0.869  15.741 -1.6892  1.2440  0.3614
 1943SOL     OW17461   2.809   3.861   3.803  0.1844  0.6692 -0.3562
 1943SOL    HW117462   2.767   3.787   3.848  1.8225 -0.3535 -0.5104
 1943SOL    HW217463   2.841   3.906   3.881 -2.0510  0.2964  0.7694
 1944SOL     OW17464   1.758   0.495   3.344  0.0104 -0.0945 -0.2381
 1944SOL    HW117465   1.739   0.495   3.250  2.8489 -1.9123 -0.7940
 1944SOL    HW217466   1.710   0.419   3.376 -2.5479  0.8715 -1.7828
 1945SOL     OW17467   1.691   3.471   7.159 -0.2043 -0.6284  0.3091
 1945SOL    HW117468   1.735   3.488   7.076  0.3407  0.5139  0.8450
 1945SOL    HW217469   1.616   3.420   7.127 -2.2447  0.2921  3.6647
 1946SOL     OW17470   1.256   3.193   9.849 -0.2831 -0.1240  0.1630
 1946SOL    HW117471   1.285   3.168   9.937 -0.4083  1.6155  0.7076
 1946SOL    HW217472   1.280   3.108   9.813  0.4816 -0.7511  2.1854
 1947SOL     OW17473   2.987   4.590  14.746  0.7695  0.4517  0.1853
 1947SOL    HW117474   2.931   4.513  14.754  0.0837  0.7085 -2.0288
 1947SOL    HW217475   2.954   4.632  14.666  1.3432  0.5686  0.0055
 1948SOL     OW17476   1.929   0.959   8.467  0.1397  0.1325 -0.0226
 1948SOL    HW117477   1.935   0.972   8.561 -0.5000  2.0491 -0.2363
 1948SOL    HW217478   1.894   0.871   8.455 -0.8740  0.6836 -1.1069
 1949SOL     OW17479   3.154   3.177  17.230  0.4302 -0.5065 -0.1168
 1949SOL    HW117480   3.148   3.247  17.295  0.4892 -0.0071 -0.6497
 1949SOL    HW217481   3.081   3.202  17.173  0.9644 -1.6154 -1.2967
 1950SOL     OW17482   0.313   0.060  13.336  0.4516  0.0597  0.2758
 1950SOL    HW117483   0.395   0.034  13.293  1.0504  1.6497  0.4631
 1950SOL    HW217484   0.348   0.073  13.424  0.7234 -2.7088  0.6048
 1951SOL     OW17485   2.452   4.642   4.134 -0.5356  0.2650 -0.7237
 1951SOL    HW117486   2.401   4.703   4.187  2.6254  0.2037  2.3678
 1951SOL    HW217487   2.476   4.703   4.064  1.2059  0.9419  0.4702
 1952SOL     OW17488   2.206   4.163   6.695 -0.3302  0.4348  0.4171
 1952SOL    HW117489   2.262   4.228   6.653 -1.0524 -0.2709 -1.6271
 1952SOL    HW217490   2.222   4.083   6.645 -0.2049  0.0793  1.0291
 1953SOL     OW17491   2.680   3.525   6.692 -0.0487 -0.0734 -0.7879
 1953SOL    HW117492   2.615   3.509   6.624 -0.6381 -1.0623  0.0082
 1953SOL    HW217493   2.633   3.580   6.756 -0.8047 -1.5235 -0.0995
 1954SOL     OW17494   0.487   2.376   9.278 -0.6481  0.0674  0.3409
 1954SOL    HW117495   0.483   2.281   9.275 -0.4375  0.0063  1.7898
 1954SOL    HW217496   0.580   2.393   9.268 -0.6628 -0.3793 -0.5586
 1955SOL     OW17497   1.357   4.646  13.547 -0.2051 -0.2847 -0.1626
 1955SOL    HW117498   1.403   4.667  13.467  1.4528  2.5704  1.5515
 1955SOL    HW217499   1.434   4.652  13.604 -1.6899 -1.1048  1.9769
 1956SOL     OW17500   4.708   3.398   4.788  0.0557 -0.7289 -0.1061
 1956SOL    HW117501   4.646   3.336   4.825  0.2515  0.2728  1.8803
 1956SOL    HW217502   4.714   3.458   4.862 -2.5349 -0.4814 -0.1112
 1957SOL     OW17503   1.606   3.189  13.522 -0.1835 -0.6024  0.5974
 1957SOL    HW117504   1.512   3.200  13.532 -0.0498 -2.4406  3.8096
 1957SOL    HW217505   1.638   3.192  13.612  0.6084  0.6548  0.2826
 1958SOL     OW17506   3.812   0.616  13.747  0.7088  0.2117  0.1625
 1958SOL    HW117507   3.824   0.600  13.841 -1.3435  0.8337  0.5416
 1958SOL    HW217508   3.781   0.707  13.748 -0.8990 -0.3315 -1.6957
 1959SOL     OW17509   3.747   3.260  12.783  0.3540  0.1740  0.5782
 1959SOL    HW117510   3.734   3.250  12.877  2.4366 -0.6889  0.7707
 1959SOL    HW217511   3.839   3.279  12.762  0.3003  1.6656  1.6995
 1960SOL     OW17512   3.968   4.472   5.884 -0.2792  0.2743 -0.2158
 1960SOL    HW117513   3.904   4.430   5.827 -1.4239  0.4025  0.9824
 1960SOL    HW217514   4.040   4.479   5.820  0.8578 -2.4706  0.7883
 1961SOL     OW17515   0.247   1.079   5.530 -0.3922 -0.1967 -0.1252
 1961SOL    HW117516   0.257   1.103   5.438 -2.0516  1.1690  0.0578
 1961SOL    HW217517   0.338   1.080   5.561  0.0541 -0.9188 -1.4208
 1962SOL     OW17518   1.409   3.199   4.842  0.3121  0.3652 -0.2935
 1962SOL    HW117519   1.482   3.200   4.904 -1.9503 -0.7162  2.4073
 1962SOL    HW217520   1.362   3.280   4.861  0.3226  0.1158  0.8430
 1963SOL     OW17521   3.791   0.201   7.264  0.2345  0.0524 -0.0412
 1963SOL    HW117522   3.769   0.108   7.260  1.9927 -0.3041 -1.4335
 1963SOL    HW217523   3.802   0.221   7.357  0.0179  0.5852 -0.1291
 1964SOL     OW17524   4.299   2.870   7.860 -0.3335 -0.4150  0.3677
 1964SOL    HW117525   4.303   2.815   7.939 -0.2168  0.1241  0.7430
 1964SOL    HW217526   4.371   2.821   7.822 -0.1412 -0.7893  1.2051
 1965SOL     OW17527   1.714   3.473   4.774  0.3662  0.1236 -0.1210
 1965SOL    HW117528   1.683   3.403   4.717 -0.9033  0.1793  0.5050
 1965SOL    HW217529   1.796   3.492   4.728  0.5818 -0.7450 -0.0871
 1966SOL     OW17530   2.035   1.389  14.531  0.0420 -0.1380  0.2340
 1966SOL    HW117531   2.107   1.356  14.584 -0.4939 -1.9830 -0.1705
 1966SOL    HW217532   2.071   1.368  14.445 -1.2283 -1.5526  0.0379
 1967SOL     OW17533   2.937   4.148   5.589 -0.5925 -0.1361  0.1924
 1967SOL    HW117534   2.959   4.088   5.518  0.9522 -0.4822  0.9417
 1967SOL    HW217535   2.983   4.227   5.562 -0.1107  0.2247  2.0244
 1968SOL     OW17536   4.282   4.458   2.727  0.2423  0.1394 -0.8147
 1968SOL    HW117537   4.364   4.501   2.704  1.1879 -1.9222 -1.2689
 1968SOL    HW217538   4.294   4.400   2.801  0.2219 -0.3043 -1.1591
 1969SOL     OW17539   2.403   0.689  12.200 -0.6243  0.1280  0.2398
 1969SOL    HW117540   2.377   0.692  12.108 -1.0105 -0.9621  0.3108
 1969SOL    HW217541   2.430   0.778  12.221 -2.7052  0.7843  0.1340
 1970SOL     OW17542   0.120   1.744   2.866 -0.2700 -0.4648 -0.2589
 1970SOL    HW117543   0.119   1.776   2.956  1.6995  1.9085 -1.0683
 1970SOL    HW217544   0.029   1.720   2.849 -0.4630 -1.3436  1.9885
 1971SOL     OW17545   4.211   4.169   2.055 -0.0855  0.1599  0.3604
 1971SOL    HW117546   4.296   4.164   2.100  1.0738  1.0342 -1.7132
 1971SOL    HW217547   4.141   4.136   2.111  0.5772  2.1424  2.4000
 1972SOL     OW17548   0.315   2.210   2.947 -0.1547  0.2242 -0.5381
 1972SOL    HW117549   0.305   2.162   3.029 -0.4347 -0.9151 -1.2311
 1972SOL    HW217550   0.358   2.287   2.982  1.1293  0.4363 -2.5877
 1973SOL     OW17551   3.710   2.908  11.005 -1.0596  0.1964  0.6527
 1973SOL    HW117552   3.712   2.825  10.958  0.6491 -0.1905  1.3984
 1973SOL    HW217553   3.615   2.920  11.010 -1.1464 -0.8028  1.4529
 1974SOL     OW17554   2.173   2.398   6.390 -0.0652 -0.4032  0.1356
 1974SOL    HW117555   2.135   2.465   6.334  0.6257 -0.8589 -0.8914
 1974SOL    HW217556   2.264   2.404   6.361 -0.9226  1.1952 -2.1454
 1975SOL     OW17557   2.627   1.758  10.497  0.0250  0.2111 -0.2941
 1975SOL    HW117558   2.647   1.851  10.496 -0.5142  0.3290 -0.1208
 1975SOL    HW217559   2.620   1.735  10.590 -2.1683  0.7170 -0.3443
 1976SOL     OW17560   1.524   1.937   8.417  0.6559 -0.5467  0.0808
 1976SOL    HW117561   1.488   2.022   8.391  1.9844 -0.6016 -1.9262
 1976SOL    HW217562   1.600   1.970   8.464  1.0865 -1.7666  0.2115
 1977SOL     OW17563   3.032   4.344   2.610  0.1990 -0.2159  0.3680
 1977SOL    HW117564   3.124   4.350   2.582 -0.3198 -0.3984 -1.3494
 1977SOL    HW217565   3.049   4.280   2.680  0.2346  0.2222  0.7597
 1978SOL     OW17566   3.211   1.002   8.548 -0.6327  0.4297  0.0543
 1978SOL    HW117567   3.246   0.962   8.627 -3.1547  0.2873  1.1190
 1978SOL    HW217568   3.150   0.935   8.516  2.1795 -1.3703 -1.5541
 1979SOL     OW17569   3.867   3.660   3.828 -0.0572  0.0977 -0.2152
 1979SOL    HW117570   3.807   3.592   3.796  0.2330 -0.5857  0.7043
 1979SOL    HW217571   3.859   3.662   3.923  2.7350 -1.4535  0.0671
 1980SOL     OW17572   2.122   2.238   4.487  0.3668  0.1583 -0.2714
 1980SOL    HW117573   2.070   2.294   4.429 -3.0038 -1.3337  1.2967
 1980SOL    HW217574   2.162   2.309   4.537 -1.3540  1.6097 -0.9362
 1981SOL     OW17575   2.671   2.418   8.626 -0.0494  0.8047  0.6766
 1981SOL    HW117576   2.597   2.374   8.584 -0.0654  0.7996  0.7102
 1981SOL    HW217577   2.741   2.372   8.580 -1.6193 -1.4864  0.5399
 1982SOL     OW17578   3.626   1.436   2.517 -0.1370  0.5369 -0.0325
 1982SOL    HW117579   3.618   1.518   2.467  0.0400 -0.1031 -1.1145
 1982SOL    HW217580   3.698   1.451   2.577  0.6122 -1.7008 -0.3965
 1983SOL     OW17581   0.435   0.499   6.015  0.3736  0.7751  0.0630
 1983SOL    HW117582   0.453   0.502   6.109  0.3144  0.9197  0.0706
 1983SOL    HW217583   0.425   0.593   6.001  0.5232  0.8470  0.4371
 1984SOL     OW17584   4.248   2.800   6.225 -0.0185  0.1752  0.1742
 1984SOL    HW117585   4.257   2.767   6.314  0.6254 -1.4980 -0.5274
 1984SOL    HW217586   4.166   2.757   6.201 -1.1350  2.3671 -0.0036
 1985SOL     OW17587   4.305   1.615   9.209  0.3893 -0.0637 -0.1052
 1985SOL    HW117588   4.338   1.671   9.139  0.2916  1.4749  1.0877
 1985SOL    HW217589   4.352   1.647   9.286  3.1768  0.7219 -2.1144
 1986SOL     OW17590   3.098   2.740   8.793  0.1359  0.0880 -0.1261
 1986SOL    HW117591   3.013   2.781   8.780 -0.1658 -0.5051 -0.0452
 1986SOL    HW217592   3.103   2.743   8.888 -1.8821 -1.0501  0.0200
 1987SOL     OW17593   2.096   2.212   0.631  0.0750 -0.1847  0.8059
 1987SOL    HW117594   2.180   2.217   0.586 -0.9275 -0.6917 -1.1079
 1987SOL    HW217595   2.044   2.239   0.556  0.1890  0.9182  1.1141
 1988SOL     OW17596   0.284   4.075   8.640  0.2436 -0.1065 -0.1299
 1988SOL    HW117597   0.266   4.081   8.546 -0.7303  2.1735  0.2195
 1988SOL    HW217598   0.315   4.164   8.657 -0.5655 -0.0866  1.2364
 1989SOL     OW17599   2.110   0.916   2.517 -0.4534 -0.1555  0.1409
 1989SOL    HW117600   2.168   0.941   2.445  3.1018 -2.1164  2.3414
 1989SOL    HW217601   2.083   0.830   2.484 -0.0390 -1.3179  2.7938
 1990SOL     OW17602   1.030   0.197   2.019  0.2856 -0.4952  0.3690
 1990SOL    HW117603   0.934   0.198   2.024  0.2226  2.2484 -1.3925
 1990SOL    HW217604   1.045   0.190   2.114  0.2191  0.0996  0.4258
 1991SOL     OW17605   2.331   3.745  13.862 -0.0057  0.9052  0.0952
 1991SOL    HW117606   2.402   3.773  13.920  0.6127  2.0800 -1.2229
 1991SOL    HW217607   2.352   3.654  13.839  1.0803  1.3388 -0.6871
 1992SOL     OW17608   3.856   1.181   6.966 -0.3638 -0.1819 -0.1405
 1992SOL    HW117609   3.761   1.189   6.972 -0.4394 -1.3317  0.3438
 1992SOL    HW217610   3.875   1.165   7.059  1.7951  0.5456 -0.4475
 1993SOL     OW17611   1.140   3.546  16.865  0.4384 -0.2369 -0.1727
 1993SOL    HW117612   1.050   3.512  16.864  0.4316 -0.2424  0.4141
 1993SOL    HW217613   1.186   3.465  16.842 -1.9412 -2.3445  2.4649
 1994SOL     OW17614   1.604   3.047   4.712 -0.6614 -0.7534  0.2762
 1994SOL    HW117615   1.664   3.108   4.669  0.1620 -1.9793 -0.3225
 1994SOL    HW217616   1.525   3.093   4.739  2.1556  2.7217  2.6444
 1995SOL     OW17617   4.713   3.781   6.520  0.0200 -0.3027  0.1754
 1995SOL    HW117618   4.617   3.782   6.527  0.0517  0.2749  0.5610
 1995SOL    HW217619   4.717   3.703   6.466  4.4377 -1.0776  1.6361
 1996SOL     OW17620   1.392   3.996  11.143 -0.2116  0.6419  0.0604
 1996SOL    HW117621   1.400   3.928  11.210 -0.3225  0.7632  0.1954
 1996SOL    HW217622   1.340   4.070  11.176 -2.5016 -0.8324 -0.2908
 1997SOL     OW17623   0.946   2.303   2.756 -0.1376 -0.1884  0.2610
 1997SOL    HW117624   0.940   2.220   2.803 -0.3214  1.2274  2.7660
 1997SOL    HW217625   0.918   2.269   2.671  0.8047 -0.5594  0.1010
 1998SOL     OW17626   3.724   0.479   4.520 -0.0143 -0.2602  0.0547
 1998SOL    HW117627   3.796   0.463   4.582 -0.6295 -0.8120  0.6218
 1998SOL    HW217628   3.733   0.572   4.499  0.8535 -0.0196  1.4904
 1999SOL     OW17629   1.770   3.181   3.299  0.0388  0.3893 -0.5536
 1999SOL    HW117630   1.700   3.189   3.234  1.0260 -0.6726 -1.7475
 1999SOL    HW217631   1.762   3.264   3.345  0.6731  0.7322 -1.0758
 2000SOL     OW17632   3.208   0.279   1.907 -0.2577 -0.3376  0.3794
 2000SOL    HW117633   3.119   0.246   1.919  0.2754 -0.6311  3.4956
 2000SOL    HW217634   3.253   0.229   1.975 -3.3297 -1.8493  1.2856
 2001SOL     OW17635   4.547   3.561   6.957 -0.9111 -0.0677  0.1539
 2001SOL    HW117636   4.641   3.568   6.943 -0.5894 -1.1624  1.8282
 2001SOL    HW217637   4.538   3.560   7.052  0.7311  1.1886  0.3144
 2002SOL     OW17638   1.100   1.522   6.805 -0.6047  0.0623  1.1894
 2002SOL    HW117639   1.047   1.579   6.750  1.2144 -1.3027 -1.9223
 2002SOL    HW217640   1.107   1.578   6.883 -2.0291  0.8182  0.7599
 2003SOL     OW17641   2.062   4.245   2.420 -0.2922  0.3529  0.2213
 2003SOL    HW117642   2.053   4.325   2.473 -0.8740 -0.1376  0.8557
 2003SOL    HW217643   2.107   4.189   2.483  1.3006  2.4133  0.9114
 2004SOL     OW17644   1.810   2.984  13.102 -0.4119 -0.1568 -0.5922
 2004SOL    HW117645   1.792   2.994  13.196  1.1785 -0.7587 -0.2254
 2004SOL    HW217646   1.864   2.906  13.115 -0.5459  0.7847  5.5927
 2005SOL     OW17647   4.367   2.917   4.635 -0.6957  0.3368 -0.0584
 2005SOL    HW117648   4.435   2.850   4.631 -1.1818 -0.1575  0.1375
 2005SOL    HW217649   4.295   2.866   4.671  0.1286 -1.6481 -1.2312
 2006SOL     OW17650   0.519   3.072  11.790  0.6155 -0.0161  0.5200
 2006SOL    HW117651   0.426   3.069  11.767  0.4369  0.5721  1.1450
 2006SOL    HW217652   0.532   2.983  11.822  0.2558  0.1179  1.0317
 2007SOL     OW17653   3.377   2.959   7.816  0.3196 -0.3010 -0.1040
 2007SOL    HW117654   3.390   2.894   7.885 -2.3028  0.2673  0.9118
 2007SOL    HW217655   3.325   3.021   7.867  0.7922 -1.1987  1.4979
 2008SOL     OW17656   0.879   1.495   1.908  0.0919 -0.0997  0.0265
 2008SOL    HW117657   0.944   1.483   1.838 -1.1496 -0.9479 -0.9783
 2008SOL    HW217658   0.878   1.590   1.920  0.7650 -0.2469  1.2244
 2009SOL     OW17659   3.719   2.543  14.200 -0.3234  0.1054  0.0068
 2009SOL    HW117660   3.670   2.625  14.197  0.5817  0.6280 -0.5699
 2009SOL    HW217661   3.673   2.484  14.260 -0.7598  0.9698  0.5196
 2010SOL     OW17662   3.354   0.291  16.123 -0.0578 -0.5874 -0.8352
 2010SOL    HW117663   3.340   0.380  16.158  1.5036 -0.5224 -0.3958
 2010SOL    HW217664   3.375   0.313  16.032  2.7076  0.5327  0.0953
 2011SOL     OW17665   2.561   0.609  10.110  0.0192 -0.0994  0.1047
 2011SOL    HW117666   2.591   0.656  10.188  1.8397  0.5420 -1.0044
 2011SOL    HW217667   2.624   0.538  10.097  2.5479  2.3149 -0.8145
 2012SOL     OW17668   3.062   3.322   1.991 -0.3333 -0.4033  0.7005
 2012SOL    HW117669   3.150   3.316   2.028  0.0050 -0.3228 -0.0901
 2012SOL    HW217670   3.077   3.248   1.933  1.5839 -0.0047  0.6713
 2013SOL     OW17671   2.490   4.597   8.070  0.0572  0.4565  0.0762
 2013SOL    HW117672   2.528   4.626   8.152  2.8216 -0.7064 -0.8148
 2013SOL    HW217673   2.473   4.677   8.019 -0.8935  1.1275  1.4440
 2014SOL     OW17674   1.650   0.501   7.495 -0.9172 -0.5978 -0.1577
 2014SOL    HW117675   1.650   0.591   7.463 -1.7898  0.3290  2.4869
 2014SOL    HW217676   1.614   0.507   7.583  3.1293 -0.6588  1.5194
 2015SOL     OW17677   2.820   3.640   9.622  0.3937  0.3392 -0.0775
 2015SOL    HW117678   2.891   3.703   9.618 -0.4229  1.3266  0.8775
 2015SOL    HW217679   2.841   3.575   9.689  0.7670  0.0896 -0.4433
 2016SOL     OW17680   1.640   4.406   8.680  0.9695  0.7061  0.4203
 2016SOL    HW117681   1.612   4.444   8.597 -1.0093  0.4205  0.9750
 2016SOL    HW217682   1.591   4.324   8.684 -0.8946  1.8444  0.9717
 2017SOL     OW17683   3.135   4.696   6.876  0.1691 -0.3137 -0.1771
 2017SOL    HW117684   3.138   4.656   6.964  2.3958  0.8524  0.2741
 2017SOL    HW217685   3.229   4.705   6.861 -0.0587  1.3257 -0.5706
 2018SOL     OW17686   0.329   1.194  15.919  0.1455  0.1743 -0.6261
 2018SOL    HW117687   0.276   1.268  15.889 -3.2023 -2.2834 -0.7982
 2018SOL    HW217688   0.305   1.136  15.846 -5.2592 -0.7372  1.9044
 2019SOL     OW17689   0.391   2.179   7.837  0.1764  0.2163 -0.3125
 2019SOL    HW117690   0.429   2.164   7.750  0.7699 -1.5290  0.2590
 2019SOL    HW217691   0.444   2.253   7.869  0.5376 -0.2248  0.1002
 2020SOL     OW17692   3.888   2.699   3.117 -0.3645  0.1279 -0.1016
 2020SOL    HW117693   3.954   2.630   3.107 -1.1444 -0.7403  0.6878
 2020SOL    HW217694   3.842   2.691   3.033  0.4074 -4.2959 -0.1116
 2021SOL     OW17695   0.879   2.154   5.417 -0.2043  0.2403  0.8752
 2021SOL    HW117696   0.896   2.118   5.330  0.3007  0.8234  0.7299
 2021SOL    HW217697   0.907   2.240   5.387 -1.8919  0.6187  0.3482
 2022SOL     OW17698   4.432   3.674  15.308 -0.2454 -0.3754  0.1079
 2022SOL    HW117699   4.480   3.694  15.389  1.0359  0.0456 -0.7601
 2022SOL    HW217700   4.393   3.591  15.335 -3.2978  1.6630  1.9936
 2023SOL     OW17701   0.530   4.064   2.343  0.1937  0.1779 -0.0906
 2023SOL    HW117702   0.561   4.103   2.425 -0.8188 -0.0311  0.3914
 2023SOL    HW217703   0.548   4.135   2.281 -0.2333 -0.5119 -0.9970
 2024SOL     OW17704   0.684   0.511   3.907  0.3608  0.2095 -0.5442
 2024SOL    HW117705   0.696   0.602   3.936 -1.2440  0.0956  0.5121
 2024SOL    HW217706   0.622   0.523   3.835  1.7135  1.2340 -1.5219
 2025SOL     OW17707   1.947   3.073   5.256 -0.3825  0.1845  0.0552
 2025SOL    HW117708   2.016   3.034   5.310 -1.5398 -0.9151  0.7515
 2025SOL    HW217709   1.986   3.081   5.169 -1.1052  2.7224 -0.0195
 2026SOL     OW17710   2.677   2.800   8.222 -0.5826 -0.2028 -0.0011
 2026SOL    HW117711   2.744   2.791   8.289 -1.2076  2.1954  0.9550
 2026SOL    HW217712   2.617   2.734   8.256 -0.3127  0.5987  2.0147
 2027SOL     OW17713   2.939   4.010   6.261 -0.4327 -0.0874  0.1647
 2027SOL    HW117714   3.008   3.984   6.322 -0.2173 -1.1663 -0.5360
 2027SOL    HW217715   2.863   4.034   6.314 -1.1464  0.6387 -1.1959
 2028SOL     OW17716   3.582   3.502   7.482 -0.8856 -0.3275  0.2990
 2028SOL    HW117717   3.515   3.454   7.433 -1.7578 -0.2125  1.3801
 2028SOL    HW217718   3.547   3.591   7.480  0.4740  0.2053  0.4860
 2029SOL     OW17719   1.097   3.599  17.652  0.3567  0.0788 -0.4855
 2029SOL    HW117720   1.174   3.625  17.601  1.6152 -0.3143  1.1832
 2029SOL    HW217721   1.071   3.521  17.604 -0.0660  0.6256 -1.1295
 2030SOL     OW17722   0.660   2.377   3.923 -0.2215 -0.3225  0.3108
 2030SOL    HW117723   0.712   2.456   3.912  1.8745 -1.7409  0.0699
 2030SOL    HW217724   0.576   2.421   3.941 -0.0482 -0.0466  0.4367
 2031SOL     OW17725   2.355   3.940   7.945 -0.4823  0.6498  0.6231
 2031SOL    HW117726   2.359   4.035   7.956 -1.8165  0.5566  1.9833
 2031SOL    HW217727   2.308   3.943   7.862 -1.2828  0.9934  1.0951
 2032SOL     OW17728   3.081   0.169  10.621 -0.0643  0.2733  0.1343
 2032SOL    HW117729   3.146   0.172  10.551 -1.7283  1.1230 -1.3960
 2032SOL    HW217730   3.006   0.201  10.570  1.0608  1.1658 -0.9849
 2033SOL     OW17731   0.418   3.466  11.395  0.2175 -0.1396 -0.2547
 2033SOL    HW117732   0.442   3.373  11.399 -0.6786 -0.5491 -4.4805
 2033SOL    HW217733   0.363   3.465  11.473  2.1425 -0.3896  1.1102
 2034SOL     OW17734   4.679   2.656   9.024 -0.0905 -0.0888 -0.4599
 2034SOL    HW117735   4.633   2.735   9.054 -0.7228 -1.0911  1.2463
 2034SOL    HW217736   4.610   2.589   9.019  1.3209 -1.8597  3.3941
 2035SOL     OW17737   2.084   1.390   0.556 -0.5909  0.2966 -0.4919
 2035SOL    HW117738   2.104   1.475   0.515  0.1864  0.9520  1.2749
 2035SOL    HW217739   2.028   1.370   0.481 -5.5068  1.9486  2.8088
 2036SOL     OW17740   2.525   2.747   7.243  0.2562 -0.4214 -0.5880
 2036SOL    HW117741   2.491   2.688   7.176 -2.0869 -0.3395  0.5304
 2036SOL    HW217742   2.569   2.689   7.305 -4.0053 -1.7704  1.1986
 2037SOL     OW17743   2.132   3.089   5.806 -0.3637  0.4226  0.2832
 2037SOL    HW117744   2.109   3.170   5.852  0.0245  1.1716 -0.8288
 2037SOL    HW217745   2.041   3.061   5.801 -0.1654 -0.3174  0.7819
 2038SOL     OW17746   3.479   1.500   5.480 -0.6446 -0.2048 -0.6197
 2038SOL    HW117747   3.429   1.444   5.420  1.9764 -2.6363 -0.5028
 2038SOL    HW217748   3.511   1.438   5.544 -2.9328 -0.6094  0.1286
 2039SOL     OW17749   2.089   3.076   3.762  0.4616  0.0659 -0.4542
 2039SOL    HW117750   2.114   2.999   3.711  2.0455  0.0507  0.3411
 2039SOL    HW217751   2.049   3.033   3.838 -2.9452 -1.6141 -3.1967
 2040SOL     OW17752   1.137   4.197   8.807  0.3818 -0.9644 -0.2954
 2040SOL    HW117753   1.066   4.175   8.868  0.4388 -3.9477 -1.2902
 2040SOL    HW217754   1.103   4.276   8.766  1.8508  0.9234  2.1477
 2041SOL     OW17755   2.949   0.882  17.523  0.5353 -0.3627 -0.3231
 2041SOL    HW117756   3.020   0.945  17.509  0.2778  0.0250  0.1231
 2041SOL    HW217757   2.928   0.863  17.431  1.4751 -1.8594 -0.2396
 2042SOL     OW17758   4.399   3.346   3.879  0.0969  0.4067 -0.4283
 2042SOL    HW117759   4.304   3.338   3.870  0.0302  0.2578  0.4234
 2042SOL    HW217760   4.412   3.410   3.949  1.2922  1.3713 -1.5368
 2043SOL     OW17761   3.162   1.771   1.870  0.2016  0.0379  0.1049
 2043SOL    HW117762   3.183   1.685   1.906  0.3209 -0.1568 -0.4234
 2043SOL    HW217763   3.218   1.774   1.792  2.0885  0.8480  1.5092
 2044SOL     OW17764   4.133   2.077   5.359  0.4189 -0.1881  0.3366
 2044SOL    HW117765   4.144   2.118   5.445  2.5339  0.4279 -0.2227
 2044SOL    HW217766   4.211   2.023   5.354  1.2414  1.0791 -0.5654
 2045SOL     OW17767   1.755   2.492  15.703 -0.1103 -0.0580  0.3616
 2045SOL    HW117768   1.838   2.527  15.671  0.5255 -2.7442 -0.9394
 2045SOL    HW217769   1.749   2.514  15.796 -2.2593  2.8729 -0.4611
 2046SOL     OW17770   0.427   1.223   2.123 -0.0380  0.1931  0.3723
 2046SOL    HW117771   0.488   1.281   2.078  1.0274 -1.5172 -0.3834
 2046SOL    HW217772   0.482   1.212   2.200  0.2594  1.2106  0.3021
 2047SOL     OW17773   3.656   0.996   5.797  0.3872  0.0323 -0.2466
 2047SOL    HW117774   3.746   1.005   5.828 -0.1151  0.1226  1.2007
 2047SOL    HW217775   3.681   0.958   5.712 -3.0754 -2.4803 -0.1344
 2048SOL     OW17776   4.456   4.679  15.004  0.3100 -0.1965 -0.4051
 2048SOL    HW117777   4.365   4.687  15.032  0.6552  1.6485  0.1891
 2048SOL    HW217778   4.500   4.707  15.084  1.2758 -3.6287  0.2919
 2049SOL     OW17779   3.942   0.676  16.839  0.7763  0.1787 -0.5605
 2049SOL    HW117780   3.889   0.732  16.896 -1.7375  0.2077 -2.9253
 2049SOL    HW217781   3.885   0.659  16.765  0.4342  0.7870 -0.4359
 2050SOL     OW17782   0.057   3.056   4.975 -0.1308  0.1212 -0.2052
 2050SOL    HW117783   0.007   3.138   4.969 -0.5502 -0.1346 -0.2036
 2050SOL    HW217784   0.044   3.025   4.885 -2.6975  0.1091  0.1751
 2051SOL     OW17785   4.166   2.552   5.801 -0.0404 -0.4145 -0.4532
 2051SOL    HW117786   4.256   2.523   5.783  0.6397  1.3317  0.0970
 2051SOL    HW217787   4.153   2.626   5.741  1.4482  0.2305  0.0272
 2052SOL     OW17788   2.053   2.195   5.806 -0.1035 -0.9191 -0.2683
 2052SOL    HW117789   2.118   2.254   5.844 -0.8389 -0.4769  0.3023
 2052SOL    HW217790   2.001   2.255   5.752  1.5997 -0.2829 -1.1712
 2053SOL     OW17791   3.096   3.883   4.820  0.9829  0.5554  0.7186
 2053SOL    HW117792   3.021   3.935   4.791  0.7445 -0.1023  0.1531
 2053SOL    HW217793   3.133   3.852   4.738 -0.6610 -0.2431  0.2664
 2054SOL     OW17794   0.359   3.122   9.712  0.4069 -0.3578  0.6659
 2054SOL    HW117795   0.376   3.201   9.763 -0.1281  1.2063 -1.5623
 2054SOL    HW217796   0.447   3.085   9.720  0.5149  0.0879  1.4923
 2055SOL     OW17797   3.451   2.101   6.803 -0.3909 -0.7070  0.2036
 2055SOL    HW117798   3.487   2.019   6.768 -0.0412 -0.6390  0.3992
 2055SOL    HW217799   3.485   2.169   6.745 -1.8181 -1.2242 -1.2411
 2056SOL     OW17800   4.118   3.244   9.717 -0.3143  0.5006  0.1207
 2056SOL    HW117801   4.131   3.153   9.746  0.4473  1.0449  1.5197
 2056SOL    HW217802   4.037   3.238   9.667 -0.7936 -1.9110  1.1772
 2057SOL     OW17803   4.694   3.316   6.466 -0.3729 -0.2135 -0.0713
 2057SOL    HW117804   4.648   3.338   6.547  0.3393  2.5712 -0.4183
 2057SOL    HW217805   0.008   3.395   6.464  1.1554 -1.2924 -1.8642
 2058SOL     OW17806   4.548   0.276   3.818  0.0105 -0.4161 -0.2869
 2058SOL    HW117807   4.584   0.350   3.867  0.4317 -0.6455 -0.2471
 2058SOL    HW217808   4.549   0.211   3.888  1.5525  0.3670  0.4156
 2059SOL     OW17809   1.086   1.701   9.393 -0.2973 -0.8040  0.2628
 2059SOL    HW117810   1.137   1.729   9.469 -0.4685  0.4357 -0.0695
 2059SOL    HW217811   1.003   1.675   9.432 -1.3412  1.3207 -0.5147
 2060SOL     OW17812   2.133   3.303   2.616  0.4744 -0.0278  1.1274
 2060SOL    HW117813   2.121   3.214   2.583  0.4335  0.8747 -1.2609
 2060SOL    HW217814   2.224   3.312   2.643  0.4031 -0.3210  1.4580
 2061SOL     OW17815   4.581   1.998  15.839  0.2841  0.4630  0.0982
 2061SOL    HW117816   4.604   1.940  15.767  0.2757 -0.6450  0.9954
 2061SOL    HW217817   4.655   2.059  15.848  2.0300 -1.6063 -0.2221
 2062SOL     OW17818   3.910   3.701   4.442  0.3479 -0.0820  0.0552
 2062SOL    HW117819   3.932   3.742   4.525  1.7370 -0.5299 -0.0873
 2062SOL    HW217820   3.841   3.760   4.414  0.5732  0.0790 -0.1623
 2063SOL     OW17821   3.194   2.272   8.123 -0.1179  0.0571 -0.4303
 2063SOL    HW117822   3.156   2.185   8.135 -0.6496  0.1240 -1.6397
 2063SOL    HW217823   3.261   2.262   8.191  0.5900 -1.0721 -1.3000
 2064SOL     OW17824   1.950   1.203   1.049  0.2321 -0.2036  0.1423
 2064SOL    HW117825   1.889   1.206   0.975 -0.8043 -0.7291  0.9715
 2064SOL    HW217826   1.954   1.297   1.069 -1.0403 -0.3689  1.2292
 2065SOL     OW17827   4.556   0.141   1.646 -0.8909  0.0157  0.1464
 2065SOL    HW117828   4.600   0.179   1.570 -2.7356  0.0438 -0.9171
 2065SOL    HW217829   4.613   0.068   1.669  1.0552  1.1015 -1.2341
 2066SOL     OW17830   0.920   1.957   5.594 -0.0832  0.2076 -0.5995
 2066SOL    HW117831   0.911   2.029   5.532  1.7338  0.5768 -0.4280
 2066SOL    HW217832   0.915   1.879   5.539  0.7711 -2.3911  2.9539
 2067SOL     OW17833   2.643   3.677   6.357 -0.0808  0.1026 -0.2225
 2067SOL    HW117834   2.643   3.734   6.281 -1.9574 -0.4277 -0.6093
 2067SOL    HW217835   2.623   3.737   6.428  0.0399  1.1221 -1.0617
 2068SOL     OW17836   1.539   1.739  15.837  0.5464 -0.2000 -0.9806
 2068SOL    HW117837   1.460   1.759  15.786  0.7069 -0.7082 -1.4337
 2068SOL    HW217838   1.576   1.672  15.780  0.7834 -2.0164  1.3021
 2069SOL     OW17839   4.726   3.336  14.602  0.3769  0.6305  0.8154
 2069SOL    HW117840   4.673   3.381  14.667 -0.6995 -0.4145  0.6537
 2069SOL    HW217841   4.729   3.247  14.637  0.3522  0.5243  0.5484
 2070SOL     OW17842   1.803   3.431  11.790  0.4878 -0.2495  0.2332
 2070SOL    HW117843   1.860   3.360  11.761 -1.0519 -2.3964  2.5436
 2070SOL    HW217844   1.757   3.394  11.865 -0.6029  1.9654  0.6578
 2071SOL     OW17845   2.953   3.328   2.292  0.5843  0.3034 -0.2439
 2071SOL    HW117846   2.933   3.414   2.254  1.0885  1.4244  2.0233
 2071SOL    HW217847   3.018   3.297   2.229 -1.6086  0.1332 -2.4574
 2072SOL     OW17848   3.597   4.123   6.416 -0.4327 -0.4616 -0.0903
 2072SOL    HW117849   3.618   4.177   6.491  0.0478  0.6604 -1.0391
 2072SOL    HW217850   3.524   4.171   6.376  0.5983 -1.1447 -2.8168
 2073SOL     OW17851   4.370   3.993   9.000 -0.5697  0.0628 -0.3030
 2073SOL    HW117852   4.314   3.951   8.933  1.1042 -2.2726 -0.2473
 2073SOL    HW217853   4.439   3.930   9.020  0.1936  1.0977  0.2653
 2074SOL     OW17854   3.752   2.787   4.285  0.1014  0.2181  0.3038
 2074SOL    HW117855   3.676   2.834   4.251  0.4539 -1.0993 -2.3199
 2074SOL    HW217856   3.787   2.772   4.197  1.1036 -0.0668  0.7564
 2075SOL     OW17857   2.482   0.290   3.111  0.1636 -0.1331  0.0419
 2075SOL    HW117858   2.392   0.265   3.131 -0.0820  0.8898  0.2140
 2075SOL    HW217859   2.517   0.203   3.091 -0.6560 -0.8292  1.6048
 2076SOL     OW17860   0.179   0.840  17.401 -0.6370  0.2248 -0.2243
 2076SOL    HW117861   0.111   0.817  17.337  0.0753 -2.0617 -0.1838
 2076SOL    HW217862   0.146   0.795  17.479  1.9380  2.4680  2.1361
 2077SOL     OW17863   2.520   3.140   8.660 -0.5930  0.3723  0.3031
 2077SOL    HW117864   2.585   3.081   8.622 -0.9738 -0.2445  0.6145
 2077SOL    HW217865   2.586   3.186   8.713 -0.8172  1.9527 -0.7591
 2078SOL     OW17866   3.565   3.410   6.837 -0.1092 -0.1175 -0.1541
 2078SOL    HW117867   3.556   3.414   6.742  0.4927  2.5118 -0.0751
 2078SOL    HW217868   3.511   3.332   6.856 -1.1953  1.1607  2.0364
 2079SOL     OW17869   4.291   1.202   8.489  0.0718  0.0766 -0.4271
 2079SOL    HW117870   4.319   1.209   8.398  2.2992 -1.0893  0.1621
 2079SOL    HW217871   4.230   1.129   8.491 -0.6931  0.6918 -1.3981
 2080SOL     OW17872   1.777   1.567   7.544  0.5246 -0.2401 -0.4260
 2080SOL    HW117873   1.858   1.572   7.595 -0.1494  1.9196  0.4202
 2080SOL    HW217874   1.774   1.473   7.525 -0.6807  0.0174 -1.5152
 2081SOL     OW17875   1.510   0.873   5.919 -0.1748  0.4247 -0.0804
 2081SOL    HW117876   1.534   0.787   5.884  0.4212  0.3252  0.5796
 2081SOL    HW217877   1.453   0.857   5.993 -0.7593  1.9913 -0.2026
 2082SOL     OW17878   1.798   1.646  14.845 -0.0331 -0.6047 -0.0707
 2082SOL    HW117879   1.877   1.699  14.829 -2.0790  2.0678 -1.3198
 2082SOL    HW217880   1.798   1.591  14.766  1.3431  0.0748 -0.5477
 2083SOL     OW17881   1.746   0.175   8.405 -0.2030 -0.0950 -0.0814
 2083SOL    HW117882   1.682   0.243   8.384 -0.4313 -0.0368  0.7880
 2083SOL    HW217883   1.825   0.222   8.377 -0.0614  0.2761  0.9359
 2084SOL     OW17884   2.463   0.116   4.683  0.0776  0.0640  0.4318
 2084SOL    HW117885   2.445   0.181   4.751 -0.4179  1.2819 -0.8655
 2084SOL    HW217886   2.392   0.054   4.695  0.6718 -0.8398 -0.7388
 2085SOL     OW17887   1.045   1.550   5.664 -0.9247  0.0270 -0.4067
 2085SOL    HW117888   1.045   1.643   5.644  0.5451  0.2991  0.8906
 2085SOL    HW217889   1.099   1.550   5.743  0.0458 -0.2075 -1.0663
 2086SOL     OW17890   2.685   0.320   8.020  0.5555 -0.1468 -0.7798
 2086SOL    HW117891   2.632   0.361   8.089  0.9372  0.9996 -1.1772
 2086SOL    HW217892   2.659   0.379   7.949 -2.4749 -0.6501 -0.1064
 2087SOL     OW17893   3.480   4.434   0.239  0.0309  0.3763  0.4549
 2087SOL    HW117894   3.569   4.426   0.205 -0.8779 -2.8243 -1.1391
 2087SOL    HW217895   3.431   4.365   0.195  0.8405 -0.5257  0.9635
 2088SOL     OW17896   0.951   4.161   1.861  0.2272 -0.4942 -0.7366
 2088SOL    HW117897   0.965   4.180   1.954 -0.2964 -1.4826 -0.4490
 2088SOL    HW217898   0.970   4.067   1.856 -1.6081 -0.9915  1.5858
 2089SOL     OW17899   0.509   2.431  15.838  0.0620 -0.2977 -0.0059
 2089SOL    HW117900   0.507   2.526  15.829  1.4948 -0.1915  0.8436
 2089SOL    HW217901   0.599   2.427  15.869  0.8485 -1.4360 -2.4277
 2090SOL     OW17902   1.445   1.914  15.634  0.0532  0.5315  0.2551
 2090SOL    HW117903   1.539   1.905  15.626  0.0798  1.6928 -0.7526
 2090SOL    HW217904   1.429   1.996  15.587  1.6979  0.4472 -0.4383
 2091SOL     OW17905   3.485   1.089  16.780 -0.3069  0.0795  0.0969
 2091SOL    HW117906   3.414   1.025  16.783 -1.1535  1.0902  1.4682
 2091SOL    HW217907   3.518   1.061  16.694 -0.4788  0.9243 -0.2515
 2092SOL     OW17908   1.273   0.666   5.246  0.4499  0.7661  0.5358
 2092SOL    HW117909   1.346   0.723   5.223 -2.1330  3.8914 -0.0251
 2092SOL    HW217910   1.303   0.584   5.207 -1.2834  0.2845  0.1826
 2093SOL     OW17911   4.060   1.998   6.761 -0.5637 -0.1443 -0.1193
 2093SOL    HW117912   4.119   1.951   6.820  0.4817 -0.2024 -1.2310
 2093SOL    HW217913   4.050   1.936   6.689  0.4868 -0.2766 -0.1456
 2094SOL     OW17914   0.163   4.721   3.943  0.1806 -0.8036 -0.0521
 2094SOL    HW117915   0.093   0.032   3.984  0.2114 -1.3829  0.7152
 2094SOL    HW217916   0.107   4.645   3.927 -2.0898  0.7348  0.5695
 2095SOL     OW17917   2.043   4.594   3.505  0.3611 -0.1137  0.7812
 2095SOL    HW117918   2.074   4.599   3.596  2.4332 -0.3372  0.0741
 2095SOL    HW217919   2.054   4.501   3.489  0.6383  0.1618 -0.6131
 2096SOL     OW17920   0.336   4.587   5.836 -0.2065 -0.0148  0.0368
 2096SOL    HW117921   0.317   4.499   5.869 -0.7058 -0.7840 -2.2669
 2096SOL    HW217922   0.330   4.635   5.918 -1.8040  1.6484 -1.0577
 2097SOL     OW17923   1.607   3.091   3.545 -0.4338 -0.4832 -0.4766
 2097SOL    HW117924   1.511   3.093   3.549 -0.4068  0.9154 -0.7057
 2097SOL    HW217925   1.630   3.143   3.468 -0.4787  1.8332  1.0639
 2098SOL     OW17926   2.537   2.020   5.890  0.4951  0.0020 -0.0983
 2098SOL    HW117927   2.619   1.989   5.929  1.6406  1.3562 -1.4552
 2098SOL    HW217928   2.491   2.011   5.974  0.3390 -0.0415 -0.1883
 2099SOL     OW17929   0.535   2.799   8.122 -0.2879  0.3005  0.3156
 2099SOL    HW117930   0.449   2.839   8.134 -0.9505 -1.2050  0.7101
 2099SOL    HW217931   0.528   2.729   8.187  0.6684 -0.0980 -0.0150
 2100SOL     OW17932   3.571   4.341   9.286 -0.3333  0.2039  0.0371
 2100SOL    HW117933   3.523   4.293   9.353  0.8535 -1.2131 -0.1384
 2100SOL    HW217934   3.554   4.434   9.301 -1.6808 -0.1031  0.3942
 2101SOL     OW17935   1.230   1.324   9.053  0.4918 -0.1397 -0.2640
 2101SOL    HW117936   1.181   1.395   9.094 -1.5259 -0.8764 -1.3749
 2101SOL    HW217937   1.198   1.329   8.963  0.8949  0.2410 -0.3898
 2102SOL     OW17938   4.048   1.639   4.649  0.2832  0.0153  0.7984
 2102SOL    HW117939   4.121   1.687   4.687  0.7660  0.1822 -0.3360
 2102SOL    HW217940   3.978   1.664   4.710 -0.8060  0.6160 -0.6938
 2103SOL     OW17941   2.566   3.078   9.775  0.1199  0.4095  0.0312
 2103SOL    HW117942   2.640   3.053   9.720 -1.7887 -1.1477 -1.8372
 2103SOL    HW217943   2.602   3.063   9.863 -3.0366 -0.3012  1.2223
 2104SOL     OW17944   0.049   3.332   9.380 -0.3445 -0.3474 -0.1420
 2104SOL    HW117945   0.130   3.296   9.415 -0.1322  2.0746  1.8506
 2104SOL    HW217946   0.077   3.423   9.392 -1.6746 -0.1280  1.2648
 2105SOL     OW17947   3.012   4.525  15.875 -0.5457 -0.2551  0.0993
 2105SOL    HW117948   2.944   4.472  15.832  0.9221 -2.2560  0.2434
 2105SOL    HW217949   3.092   4.500  15.830 -0.4664  2.4265 -1.2317
 2106SOL     OW17950   0.853   1.568   7.007  0.2963 -0.0149  0.0128
 2106SOL    HW117951   0.809   1.627   7.069  0.7867  0.2480  0.1159
 2106SOL    HW217952   0.941   1.607   7.014 -0.4514  1.9439 -1.4213
 2107SOL     OW17953   2.525   1.335   6.174 -0.2172  0.2663 -0.3107
 2107SOL    HW117954   2.539   1.270   6.105  2.0132 -1.1882  1.5159
 2107SOL    HW217955   2.612   1.330   6.213 -0.4107  0.9214  0.1942
 2108SOL     OW17956   4.260   3.459  13.443  0.2232  0.3612  0.4360
 2108SOL    HW117957   4.351   3.482  13.465  1.2806 -1.8650 -1.6082
 2108SOL    HW217958   4.269   3.369  13.411 -3.0517 -0.0702  0.7488
 2109SOL     OW17959   3.245   2.392   5.414 -0.4357  0.3181  0.6093
 2109SOL    HW117960   3.179   2.330   5.447 -2.1165  1.2507 -1.0429
 2109SOL    HW217961   3.319   2.355   5.463 -0.4190  2.3922  2.1433
 2110SOL     OW17962   1.100   1.611  10.003 -0.4753  0.4499 -0.0870
 2110SOL    HW117963   1.028   1.577  10.056  0.7735 -1.8669  0.1394
 2110SOL    HW217964   1.158   1.635  10.075 -0.7959  0.2405  0.2405
 2111SOL     OW17965   3.427   1.813   4.909 -0.2448  0.4064 -0.1334
 2111SOL    HW117966   3.507   1.821   4.960  0.3574  1.6349 -1.2585
 2111SOL    HW217967   3.440   1.722   4.881  0.4746  0.4618  0.0227
 2112SOL     OW17968   4.719   4.300   8.376 -0.3177 -0.1566 -0.1688
 2112SOL    HW117969   0.073   4.281   8.383 -0.2771  0.5140  0.9793
 2112SOL    HW217970   4.687   4.222   8.331  0.7619 -0.8264  0.2307
 2113SOL     OW17971   1.146   2.827   9.476  0.1354  0.0013 -0.4870
 2113SOL    HW117972   1.088   2.781   9.417  1.5431  0.2618 -2.0781
 2113SOL    HW217973   1.088   2.843   9.551 -0.1561  0.8530 -0.8873
 2114SOL     OW17974   4.513   0.351   7.391 -0.4617 -0.1200  0.2661
 2114SOL    HW117975   4.575   0.279   7.397 -0.4975 -0.0729  1.1462
 2114SOL    HW217976   4.551   0.418   7.447 -0.1374 -0.1285  0.0568
 2115SOL     OW17977   1.770   0.286  17.044 -0.2974 -0.3993 -0.1520
 2115SOL    HW117978   1.721   0.355  16.999 -1.4054 -0.4627  0.9374
 2115SOL    HW217979   1.726   0.251  17.122  0.6119 -0.1301  0.4812
 2116SOL     OW17980   3.870   2.620  13.650 -0.1338 -0.2702  0.1217
 2116SOL    HW117981   3.909   2.544  13.694  1.5939  0.9554  0.7144
 2116SOL    HW217982   3.821   2.661  13.721  0.0196 -0.8041  0.5396
 2117SOL     OW17983   3.971   2.916   7.297  0.2379  0.4609  0.3554
 2117SOL    HW117984   3.965   2.937   7.204  1.8301 -0.6746  0.0052
 2117SOL    HW217985   3.965   3.006   7.327  0.7872  0.3823  0.6886
 2118SOL     OW17986   1.019   3.775   2.203 -0.2176 -0.1350 -0.2027
 2118SOL    HW117987   1.087   3.761   2.268 -1.5554 -0.4727  1.1394
 2118SOL    HW217988   1.059   3.760   2.117 -1.5697 -0.2487 -0.8233
 2119SOL     OW17989   3.019   4.349   1.876 -0.3256 -0.3398 -0.3806
 2119SOL    HW117990   3.046   4.334   1.785  1.4432  1.8784 -0.2307
 2119SOL    HW217991   3.003   4.443   1.871 -0.2302 -0.2551  0.8158
 2120SOL     OW17992   1.664   0.136  17.419  0.3834 -1.2196  0.1684
 2120SOL    HW117993   1.663   0.231  17.433  0.1712 -1.1398 -0.3957
 2120SOL    HW217994   1.618   0.112  17.499  0.8928 -2.2534  0.1464
 2121SOL     OW17995   1.179   3.678   4.356 -0.2478 -0.3169  0.5285
 2121SOL    HW117996   1.171   3.611   4.289 -1.8440 -0.8718  1.2811
 2121SOL    HW217997   1.088   3.693   4.379 -0.1567  1.9179 -0.5171
 2122SOL     OW17998   3.206   3.371   9.480 -0.2177 -0.3074 -0.2292
 2122SOL    HW117999   3.209   3.367   9.576  1.6295  0.6270 -0.2529
 2122SOL    HW218000   3.291   3.411   9.463  0.5871 -2.6983 -1.8817
 2123SOL     OW18001   2.145   2.171   7.235 -0.1959  0.0904  0.3006
 2123SOL    HW118002   2.200   2.104   7.195 -1.1040  0.8671 -2.2028
 2123SOL    HW218003   2.115   2.111   7.304  0.3877 -0.6732 -0.1049
 2124SOL     OW18004   0.001   0.480  16.317 -0.0575 -0.3836 -0.1641
 2124SOL    HW118005   0.029   0.395  16.350  2.4948  1.1661  1.6950
 2124SOL    HW218006   4.671   0.461  16.254 -0.1661 -1.3498  0.2504
 2125SOL     OW18007   2.551   1.052  16.615 -0.6916 -0.1307 -0.2660
 2125SOL    HW118008   2.562   1.025  16.707  0.9259  1.1210 -0.1117
 2125SOL    HW218009   2.579   0.978  16.561  1.1571  0.2936  0.1125
 2126SOL     OW18010   1.863   0.100  11.029 -0.2305 -0.1502 -0.5140
 2126SOL    HW118011   1.912   0.180  11.010 -1.6785  0.6940 -0.6708
 2126SOL    HW218012   1.929   0.041  11.065 -0.1779  0.0832 -0.2190
 2127SOL     OW18013   4.647   2.646  17.700  0.4629  0.1160  0.2989
 2127SOL    HW118014   4.609   2.699  17.629 -0.6191 -0.1254  0.7066
 2127SOL    HW218015   4.615   2.560  17.673  3.3211 -0.8231 -0.1123
 2128SOL     OW18016   1.685   3.908   9.149 -0.7567 -0.2013  0.1089
 2128SOL    HW118017   1.770   3.948   9.129  0.0973 -0.5902  3.0348
 2128SOL    HW218018   1.643   3.910   9.063 -2.8548 -0.3647  1.1316
 2129SOL     OW18019   2.594   0.235  12.146 -0.1096 -0.3109 -0.5737
 2129SOL    HW118020   2.552   0.182  12.214  2.2899  0.6619  1.6446
 2129SOL    HW218021   2.640   0.170  12.092  0.7287 -0.1979  0.0030
 2130SOL     OW18022   4.190   1.621   7.282 -0.0911  0.5241  0.7834
 2130SOL    HW118023   4.116   1.611   7.341  0.6655  1.1762  1.8420
 2130SOL    HW218024   4.186   1.536   7.238 -1.0892 -0.0326  1.9423
 2131SOL     OW18025   3.879   1.496   1.536 -0.3425 -0.5120 -0.4799
 2131SOL    HW118026   3.867   1.515   1.443 -2.1472 -2.9957 -0.7421
 2131SOL    HW218027   3.939   1.422   1.531 -1.1430 -1.4158  3.4666
 2132SOL     OW18028   1.717   0.100   9.693  0.6383  0.5770  0.0630
 2132SOL    HW118029   1.797   0.143   9.663 -0.3408  1.5766 -1.1209
 2132SOL    HW218030   1.749   0.009   9.700 -1.8875 -0.1413  1.9790
 2133SOL     OW18031   4.523   3.590   7.224 -0.4520  0.3119  0.0705
 2133SOL    HW118032   4.616   3.578   7.242 -0.7469  1.3015  2.2391
 2133SOL    HW218033   4.512   3.658   7.290  2.1208 -1.0592  1.9308
 2134SOL     OW18034   3.547   2.458  14.641  0.1180  0.2835  0.3163
 2134SOL    HW118035   3.600   2.536  14.625 -0.4225  0.2192 -1.8359
 2134SOL    HW218036   3.592   2.406  14.574  1.0791  1.5173  0.0158
 2135SOL     OW18037   4.291   1.318   5.171  0.1362 -0.0341 -0.3632
 2135SOL    HW118038   4.365   1.321   5.110 -0.8875  0.8918 -1.5556
 2135SOL    HW218039   4.292   1.407   5.206 -0.9303 -0.7733  1.5392
 2136SOL     OW18040   1.340   3.123   8.217 -0.1727  0.3105 -0.1594
 2136SOL    HW118041   1.355   3.107   8.123 -2.4661 -0.4559 -0.4062
 2136SOL    HW218042   1.256   3.168   8.205 -0.0196  0.0320 -2.3238
 2137SOL     OW18043   2.273   0.320  12.129  0.1336  0.6996 -0.2599
 2137SOL    HW118044   2.239   0.235  12.159  2.5563 -0.4369 -0.7245
 2137SOL    HW218045   2.247   0.370  12.207  0.1402  1.5213 -0.7884
 2138SOL     OW18046   2.884   4.182   7.897  0.5250 -0.6607  0.3956
 2138SOL    HW118047   2.950   4.240   7.932  1.6550 -2.1152  0.6643
 2138SOL    HW218048   2.936   4.111   7.859  2.3939  0.0272  1.7202
 2139SOL     OW18049   4.507   0.893   4.041  0.1658 -0.1429 -0.4696
 2139SOL    HW118050   4.529   0.936   4.124  1.2659  0.0394 -0.8455
 2139SOL    HW218051   4.505   0.966   3.979  1.8889  0.1146 -0.2293
 2140SOL     OW18052   2.649   1.691   7.764  0.0611 -0.3503 -0.9487
 2140SOL    HW118053   2.647   1.611   7.711 -0.1281 -1.4969  0.7934
 2140SOL    HW218054   2.721   1.728   7.713  1.3755  1.6984  2.3620
 2141SOL     OW18055   3.844   2.234  10.808 -0.2213 -0.5418 -0.4765
 2141SOL    HW118056   3.927   2.230  10.856 -0.8403  1.5527  0.8105
 2141SOL    HW218057   3.857   2.319  10.766 -0.5670  0.9175  2.3648
 2142SOL     OW18058   0.154   3.208   4.296 -0.1493  0.0671 -0.0493
 2142SOL    HW118059   0.192   3.139   4.351 -0.6700  0.1496  0.4122
 2142SOL    HW218060   0.060   3.190   4.285 -0.1161  0.9049 -1.7494
 2143SOL     OW18061   0.711   3.311   7.799 -0.2976  0.7035 -0.2699
 2143SOL    HW118062   0.726   3.344   7.888  0.3604  0.3623 -0.2597
 2143SOL    HW218063   0.711   3.216   7.809 -1.2493  0.4861 -2.4761
 2144SOL     OW18064   3.786   1.935   1.956 -0.6345 -0.3657 -0.1844
 2144SOL    HW118065   3.790   1.841   1.973 -1.0547  0.3376  3.7459
 2144SOL    HW218066   3.879   1.956   1.956 -0.7207  0.0183 -0.0761
 2145SOL     OW18067   3.906   0.451   7.811 -0.8155  0.2198 -0.0925
 2145SOL    HW118068   3.949   0.395   7.746  1.1420  0.5862  0.8980
 2145SOL    HW218069   3.971   0.449   7.881 -0.5871  0.0576 -0.3065
 2146SOL     OW18070   3.098   4.280   8.145 -0.3338 -0.4175 -0.0866
 2146SOL    HW118071   3.066   4.361   8.106 -0.9084 -0.3750  0.4768
 2146SOL    HW218072   3.082   4.285   8.239 -0.5378 -1.1881 -0.0821
 2147SOL     OW18073   3.742   3.622   3.421 -0.1407  0.3158 -0.1225
 2147SOL    HW118074   3.695   3.539   3.413 -1.4956  0.9247  1.8165
 2147SOL    HW218075   3.717   3.673   3.344 -1.5702  0.7287  0.6225
 2148SOL     OW18076   4.329   3.592  10.185  0.4362 -0.4020 -0.4751
 2148SOL    HW118077   4.388   3.645  10.131 -1.5425  1.4596 -0.7955
 2148SOL    HW218078   4.350   3.500  10.164 -0.9955 -0.6096 -0.9934
 2149SOL     OW18079   2.651   1.725  10.231 -0.8998  0.4056 -0.8316
 2149SOL    HW118080   2.643   1.715  10.326  0.0681  2.3957 -0.5435
 2149SOL    HW218081   2.710   1.800  10.237 -0.4899  0.0507 -0.3280
 2150SOL     OW18082   2.557   2.355   9.250 -0.3004  0.4397  0.2113
 2150SOL    HW118083   2.506   2.411   9.309 -0.5174 -0.3793  0.8054
 2150SOL    HW218084   2.615   2.313   9.313 -0.7877  3.0176  2.3804
 2151SOL     OW18085   4.461   2.263   5.334 -0.0753  0.1376  0.0757
 2151SOL    HW118086   4.464   2.350   5.375 -0.0303  0.0871  0.1804
 2151SOL    HW218087   4.436   2.213   5.412  1.1519 -1.2747 -0.4275
 2152SOL     OW18088   1.522   0.077   7.120 -0.7456  0.1937  0.9396
 2152SOL    HW118089   1.533   0.150   7.181  2.0258 -0.1749  0.8796
 2152SOL    HW218090   1.596   0.084   7.060 -1.8572  0.2282 -0.4226
 2153SOL     OW18091   2.894   1.996   7.402 -0.1845  0.0895  0.0825
 2153SOL    HW118092   2.808   1.964   7.373  1.0048 -2.3565 -0.7679
 2153SOL    HW218093   2.883   2.087   7.375 -1.1346 -0.0293  0.0750
 2154SOL     OW18094   2.718   0.921   1.963 -0.3919  0.0395  0.0607
 2154SOL    HW118095   2.667   0.979   1.906 -1.5725 -1.7641 -0.7025
 2154SOL    HW218096   2.789   0.983   1.982  1.1882 -0.9628 -2.6238
 2155SOL     OW18097   1.485   2.749  10.608  0.0529  0.4804 -0.2487
 2155SOL    HW118098   1.515   2.839  10.604 -1.5390  1.0512  0.7001
 2155SOL    HW218099   1.564   2.709  10.644 -2.8362 -4.1399  1.0093
 2156SOL     OW18100   1.907   4.718   2.507 -0.7820  0.4581 -0.2411
 2156SOL    HW118101   1.869   4.666   2.578  3.0950  0.9745  2.1963
 2156SOL    HW218102   1.828   0.006   2.460 -0.1408 -0.0532 -1.6085
 2157SOL     OW18103   3.638   4.658  15.135  0.4315 -0.1188  0.1222
 2157SOL    HW118104   3.568   4.598  15.162  0.1828 -0.1011 -0.4827
 2157SOL    HW218105   3.587   4.723  15.087  0.8965  2.2533  2.8044
 2158SOL     OW18106   2.770   3.365   3.165  0.2146  0.2928  0.3311
 2158SOL    HW118107   2.778   3.429   3.094  1.7605 -0.7360 -0.4396
 2158SOL    HW218108   2.829   3.399   3.233  0.5323  1.9737 -0.7997
 2159SOL     OW18109   4.644   2.364   4.874  0.3144 -0.6589 -0.4409
 2159SOL    HW118110   4.595   2.329   4.948 -0.5681  1.5591  0.0415
 2159SOL    HW218111   4.731   2.324   4.882  0.7736  0.6072  0.8560
 2160SOL     OW18112   2.678   3.044   8.091 -0.3081 -0.1456 -0.6772
 2160SOL    HW118113   2.698   3.096   8.169 -0.8792  1.6788 -1.7313
 2160SOL    HW218114   2.662   2.962   8.136 -0.6644  0.9989  1.2615
 2161SOL     OW18115   1.000   3.547   2.777 -0.1868 -0.4362 -0.2370
 2161SOL    HW118116   1.066   3.613   2.755 -0.5883 -0.1077 -0.4649
 2161SOL    HW218117   0.940   3.594   2.835 -0.0189  0.3167 -0.6734
 2162SOL     OW18118   3.950   4.221   5.044 -0.2094  0.1461 -0.2152
 2162SOL    HW118119   3.999   4.192   4.967  1.3916  1.4137  0.3391
 2162SOL    HW218120   3.987   4.306   5.064 -0.2248 -0.1460  1.0757
 2163SOL     OW18121   2.605   3.519   8.044 -0.4676 -0.5990 -0.3166
 2163SOL    HW118122   2.586   3.613   8.051  0.7935 -0.4392  0.8883
 2163SOL    HW218123   2.625   3.498   8.135 -1.2967  3.4112  0.7980
 2164SOL     OW18124   4.686   3.684   2.600 -0.2191 -0.4677 -0.9643
 2164SOL    HW118125   4.638   3.764   2.577 -2.3079 -1.9778 -1.8793
 2164SOL    HW218126   0.010   3.682   2.528 -0.2097  2.2658 -1.0429
 2165SOL     OW18127   4.054   3.025   6.805  0.9785  0.2088 -0.1549
 2165SOL    HW118128   4.062   2.930   6.804 -1.5155  0.0138 -0.8506
 2165SOL    HW218129   4.028   3.047   6.894  2.7773 -0.4287  0.5191
 2166SOL     OW18130   2.555   3.452   2.494  0.2614 -0.1110 -0.5853
 2166SOL    HW118131   2.603   3.372   2.473  2.1613  0.4366  1.7074
 2166SOL    HW218132   2.501   3.465   2.416 -0.0163  2.2064  0.0143
 2167SOL     OW18133   1.495   0.040   2.704  0.0539 -0.8744 -0.2539
 2167SOL    HW118134   1.550   0.107   2.744 -1.1272  0.8530 -1.5307
 2167SOL    HW218135   1.516   0.040   2.610 -2.5956  2.2483 -0.8416
 2168SOL     OW18136   0.999   4.214   2.853  0.1079 -0.2182  0.2786
 2168SOL    HW118137   0.926   4.171   2.807  1.2569 -1.9780  0.1043
 2168SOL    HW218138   0.981   4.308   2.853  1.0337 -0.0404  1.7492
 2169SOL     OW18139   2.255   2.793   2.206  0.2035 -0.6503 -0.2998
 2169SOL    HW118140   2.350   2.793   2.205  0.1896 -1.2782 -1.8543
 2169SOL    HW218141   2.243   2.872   2.259 -4.1452 -1.6493  0.2661
 2170SOL     OW18142   4.385   1.889   8.315 -0.4823 -0.2824 -0.4333
 2170SOL    HW118143   4.447   1.961   8.306 -0.1448 -0.3866  0.9472
 2170SOL    HW218144   4.442   1.814   8.300  1.3401  1.4645 -2.1855
 2171SOL     OW18145   1.548   3.610  10.192 -0.6422 -0.2548 -0.0472
 2171SOL    HW118146   1.523   3.530  10.145 -1.5014  0.5769 -1.0131
 2171SOL    HW218147   1.643   3.611  10.178 -0.7438  1.4278 -0.5789
 2172SOL     OW18148   3.494   1.178  17.103 -0.3130 -0.0049  0.0798
 2172SOL    HW118149   3.576   1.205  17.062 -0.7695  1.9378  0.4585
 2172SOL    HW218150   3.458   1.111  17.045  0.1427  0.2126 -0.4472
 2173SOL     OW18151   3.684   1.427   3.681 -0.2289 -0.0165  0.1667
 2173SOL    HW118152   3.682   1.513   3.639 -3.3620 -0.4116 -0.4459
 2173SOL    HW218153   3.721   1.448   3.767  0.8762 -0.8541 -0.1057
 2174SOL     OW18154   2.733   2.731  17.189 -0.7580 -1.1607  0.4626
 2174SOL    HW118155   2.670   2.740  17.260  1.2139  0.5636  2.0379
 2174SOL    HW218156   2.750   2.821  17.160 -0.0944 -0.2731  3.5722
 2175SOL     OW18157   0.145   0.339   4.047 -1.0546  0.1565 -0.2313
 2175SOL    HW118158   0.110   0.251   4.031 -0.2703  0.2176 -2.2433
 2175SOL    HW218159   0.080   0.404   4.020 -1.1419  1.1271  2.3373
 2176SOL     OW18160   0.348   0.991   7.397 -0.2226  0.2464  0.5270
 2176SOL    HW118161   0.319   1.075   7.432  1.5083 -0.0491  2.7346
 2176SOL    HW218162   0.377   0.951   7.479 -0.6201 -0.1843  0.4525
 2177SOL     OW18163   1.090   1.514   7.748  0.1326  0.3846 -0.0312
 2177SOL    HW118164   1.161   1.533   7.810 -0.0537 -0.9511  0.5882
 2177SOL    HW218165   1.143   1.503   7.669  1.9411  0.6997  1.1327
 2178SOL     OW18166   0.897   4.487   7.318 -0.2538  0.3098 -0.4041
 2178SOL    HW118167   0.904   4.535   7.235  1.2715  0.7836  0.0139
 2178SOL    HW218168   0.969   4.428   7.300 -2.2169 -2.2991  0.2164
 2179SOL     OW18169   3.795   0.250   4.186 -0.6468  0.2732 -0.6106
 2179SOL    HW118170   3.790   0.155   4.183  0.6351  0.2138 -0.7869
 2179SOL    HW218171   3.705   0.282   4.176 -0.8620 -0.3656 -0.7344
 2180SOL     OW18172   0.903   3.955   8.769 -0.0082  0.3872 -0.2119
 2180SOL    HW118173   0.997   3.950   8.753  0.2280  1.4875  0.8549
 2180SOL    HW218174   0.889   4.025   8.833 -1.9772 -0.6026  0.4393
 2181SOL     OW18175   0.845   3.492   7.099 -0.0004  0.5224 -0.0922
 2181SOL    HW118176   0.935   3.519   7.078  0.7266 -1.9637 -0.1377
 2181SOL    HW218177   0.799   3.570   7.069 -0.3429  1.0278  1.7315
 2182SOL     OW18178   3.001   0.881   4.339  0.2173 -0.1839 -0.3499
 2182SOL    HW118179   3.052   0.936   4.280  0.2941 -2.1560 -2.1136
 2182SOL    HW218180   3.044   0.904   4.422 -1.0044 -0.5530  0.3798
 2183SOL     OW18181   3.401   3.465   8.809  0.2158 -0.0448 -0.4675
 2183SOL    HW118182   3.416   3.542   8.863 -0.2807  0.6921 -1.3726
 2183SOL    HW218183   3.485   3.427   8.833  0.2031 -0.8698 -1.7012
 2184SOL     OW18184   3.615   1.764   3.355  0.3189  0.3608  0.1861
 2184SOL    HW118185   3.619   1.846   3.404  2.3027 -0.3131  1.1264
 2184SOL    HW218186   3.629   1.707   3.430  1.5096  1.1098  0.5468
 2185SOL     OW18187   4.491   1.847   3.095 -0.1020  0.3425  0.3158
 2185SOL    HW118188   4.422   1.879   3.152  0.6330  2.1942  0.1709
 2185SOL    HW218189   4.445   1.788   3.035 -0.3793  0.8909 -0.0117
 2186SOL     OW18190   3.646   2.208  17.702  0.4400 -0.4534 -0.3007
 2186SOL    HW118191   3.627   2.203  17.609 -1.5955  1.1645  0.0321
 2186SOL    HW218192   3.738   2.227  17.683  0.3521  0.0770 -0.2074
 2187SOL     OW18193   2.441   0.742   5.356  0.3068 -0.5136  0.5285
 2187SOL    HW118194   2.392   0.780   5.428 -1.7184 -0.3196 -0.9481
 2187SOL    HW218195   2.525   0.729   5.400  0.5199  0.9306  0.5416
 2188SOL     OW18196   0.861   0.615   4.872  0.1872 -1.0810  0.4976
 2188SOL    HW118197   0.865   0.529   4.914 -1.9277 -1.7038 -0.5590
 2188SOL    HW218198   0.800   0.601   4.800  3.0926  0.8309 -2.2796
 2189SOL     OW18199   0.778   1.697   5.878  0.4566 -0.1239 -0.3903
 2189SOL    HW118200   0.862   1.740   5.865 -0.7217  2.3494  0.2148
 2189SOL    HW218201   0.722   1.754   5.826 -0.9730  0.1108  1.3902
 2190SOL     OW18202   1.692   2.324   8.671  0.9558 -0.1428  0.3939
 2190SOL    HW118203   1.611   2.327   8.722 -0.6526 -0.8973 -2.0909
 2190SOL    HW218204   1.757   2.356   8.733 -1.5466  3.3844  1.1609
 2191SOL     OW18205   3.861   2.005  14.809  0.3101 -0.5097 -0.3623
 2191SOL    HW118206   3.927   2.038  14.869  0.7698 -2.2134  0.0818
 2191SOL    HW218207   3.815   1.953  14.875  0.4013 -1.8841 -1.3660
 2192SOL     OW18208   0.303   1.576   3.264  0.6935  0.0117 -0.1004
 2192SOL    HW118209   0.333   1.489   3.292 -0.0090 -0.1491  0.1414
 2192SOL    HW218210   0.266   1.599   3.349  2.5318 -0.5689  0.8480
 2193SOL     OW18211   4.302   2.142   4.182  0.5879  0.5247 -0.5872
 2193SOL    HW118212   4.207   2.140   4.197  0.1477  1.4291 -3.2683
 2193SOL    HW218213   4.329   2.121   4.271  0.0148  2.2278 -0.0158
 2194SOL     OW18214   3.956   3.840   8.064  0.7219 -0.0292 -0.2209
 2194SOL    HW118215   4.033   3.894   8.048 -0.9788  2.5585  0.1921
 2194SOL    HW218216   3.959   3.768   8.001  1.1292  0.2650 -0.5392
 2195SOL     OW18217   0.308   2.534  12.067 -0.4051 -0.4269  0.0373
 2195SOL    HW118218   0.375   2.602  12.077 -0.7671 -0.1687  0.7115
 2195SOL    HW218219   0.255   2.572  11.997  0.4569  3.1074  1.2940
 2196SOL     OW18220   1.170   3.393  17.128 -0.0301 -0.3203  0.0273
 2196SOL    HW118221   1.119   3.456  17.179  0.9569  1.2106 -0.8585
 2196SOL    HW218222   1.160   3.432  17.041  0.0939 -1.8967 -0.6991
 2197SOL     OW18223   3.429   1.854   7.206  0.2145 -0.6326 -0.2093
 2197SOL    HW118224   3.508   1.901   7.179  1.6068 -2.3946  0.7776
 2197SOL    HW218225   3.414   1.906   7.284  3.8320  0.6756 -0.3654
 2198SOL     OW18226   0.070   3.793   3.567  0.9887 -0.4263  0.6563
 2198SOL    HW118227   0.065   3.864   3.503  1.2121 -1.3898 -0.4391
 2198SOL    HW218228   0.003   3.731   3.538  0.8223  0.1622 -0.2404
 2199SOL     OW18229   3.239   2.891   5.736 -0.0866 -0.4761 -0.2167
 2199SOL    HW118230   3.289   2.831   5.680  3.3312  0.3978  1.8487
 2199SOL    HW218231   3.234   2.958   5.669  2.2845  1.7528  1.8308
 2200SOL     OW18232   0.988   2.177  10.281  0.4851 -0.0258  0.1014
 2200SOL    HW118233   1.035   2.132  10.351 -0.9747 -0.6924  0.6604
 2200SOL    HW218234   1.042   2.146  10.209  0.1669 -0.1189 -0.0990
 2201SOL     OW18235   3.630   2.378  11.160  0.6782  0.0143  0.2130
 2201SOL    HW118236   3.674   2.374  11.245  0.0984 -1.4027  0.4449
 2201SOL    HW218237   3.647   2.290  11.126  0.6014 -0.6780  1.9434
 2202SOL     OW18238   0.483   0.026   5.675  0.5111  0.4662  0.6667
 2202SOL    HW118239   0.433   4.701   5.724 -0.3110 -0.2361 -1.1043
 2202SOL    HW218240   0.485   0.108   5.724  2.5794 -0.3660  2.0064
 2203SOL     OW18241   4.269   1.495   2.013 -0.0362  0.5224 -0.3792
 2203SOL    HW118242   4.221   1.496   2.096 -0.2270  1.0503 -0.4941
 2203SOL    HW218243   4.352   1.540   2.031 -1.3316  2.2625  1.1494
 2204SOL     OW18244   3.449   1.497  17.375 -0.1775  0.0687  0.1252
 2204SOL    HW118245   3.540   1.505  17.347 -0.4050 -0.4088 -0.7470
 2204SOL    HW218246   3.420   1.583  17.344 -1.4463 -0.5150 -0.3008
 2205SOL     OW18247   3.924   4.159   2.680 -0.9965  0.2834 -0.3661
 2205SOL    HW118248   3.831   4.136   2.674 -1.1238  0.3637  1.1352
 2205SOL    HW218249   3.926   4.236   2.738 -1.5559 -0.0706  0.1195
 2206SOL     OW18250   0.151   1.212   6.833  0.5456 -0.5422 -0.3078
 2206SOL    HW118251   0.208   1.164   6.892 -1.2968  0.7104  2.4882
 2206SOL    HW218252   0.179   1.299   6.861 -0.2884  0.1438 -1.5875
 2207SOL     OW18253   3.774   3.259   6.677  0.0491 -0.5456 -0.4831
 2207SOL    HW118254   3.850   3.224   6.631  0.0634  0.3749 -1.1617
 2207SOL    HW218255   3.778   3.352   6.655 -1.4774 -0.2029  0.6785
 2208SOL     OW18256   1.846   1.494  13.183  0.2830  0.2616  0.0273
 2208SOL    HW118257   1.779   1.457  13.241 -1.9158  1.1430 -1.9824
 2208SOL    HW218258   1.920   1.435  13.196  1.0937  0.5890 -3.3213
 2209SOL     OW18259   1.618   3.062  10.049 -0.1156  0.0980 -0.5048
 2209SOL    HW118260   1.574   2.978  10.064  3.5285 -1.5132  1.3278
 2209SOL    HW218261   1.712   3.045  10.043  0.0696  0.6869  0.8561
 2210SOL     OW18262   1.453   4.035   9.561  0.6632 -0.1023  0.0600
 2210SOL    HW118263   1.466   4.091   9.485 -1.4803  2.3954  1.5119
 2210SOL    HW218264   1.495   4.098   9.620 -1.7033  1.9777 -0.4588
 2211SOL     OW18265   3.035   4.698   1.073 -0.5551 -0.4592  0.0766
 2211SOL    HW118266   3.059   4.607   1.058 -1.4264 -0.2897 -2.3287
 2211SOL    HW218267   3.018   4.727   0.983  1.2883 -0.1388 -0.1551
 2212SOL     OW18268   3.146   2.630   4.966  0.2526 -0.1011  0.1663
 2212SOL    HW118269   3.146   2.714   5.012 -0.7980 -0.3618  0.6388
 2212SOL    HW218270   3.106   2.577   5.035  1.2722  0.0636  0.8840
 2213SOL     OW18271   4.599   0.417   3.023  0.8114 -0.1645 -0.3467
 2213SOL    HW118272   4.519   0.365   3.032  0.3829  0.5684  0.0116
 2213SOL    HW218273   4.640   0.399   3.108 -1.5251  0.1865  0.8716
 2214SOL     OW18274   3.545   3.337   5.238 -0.3190 -0.2397  0.2672
 2214SOL    HW118275   3.542   3.314   5.145 -1.1642  0.4693  0.1163
 2214SOL    HW218276   3.618   3.282   5.266  1.2753  1.2241 -0.9907
 2215SOL     OW18277   2.550   1.871   2.301 -0.4327  0.1857  0.9170
 2215SOL    HW118278   2.570   1.939   2.237  0.7669 -0.4265  0.6371
 2215SOL    HW218279   2.603   1.900   2.375  2.2197 -2.1794 -0.0741
 2216SOL     OW18280   2.748   1.676   4.851 -0.4996 -0.1658  0.8284
 2216SOL    HW118281   2.727   1.615   4.781  0.9063  0.5795 -0.2350
 2216SOL    HW218282   2.661   1.712   4.868 -1.4526 -2.6042  1.2118
 2217SOL     OW18283   4.083   4.577   4.280  0.3501 -0.3738 -0.1013
 2217SOL    HW118284   4.107   4.668   4.298 -0.4580 -0.6102  2.2124
 2217SOL    HW218285   4.119   4.525   4.352 -3.9680 -0.8370  1.7733
 2218SOL     OW18286   2.066   3.155   4.337 -0.9884  0.1168  0.2706
 2218SOL    HW118287   2.096   3.222   4.398 -0.0906  0.0651 -0.1233
 2218SOL    HW218288   1.994   3.113   4.386  0.4416  0.3236  2.5332
 2219SOL     OW18289   0.587   1.071   1.462 -0.3232  0.0159  0.1373
 2219SOL    HW118290   0.667   1.028   1.433 -0.1809  0.2609  0.1662
 2219SOL    HW218291   0.600   1.094   1.554  3.8330 -1.8780  0.0044
 2220SOL     OW18292   4.523   1.339   5.012 -0.0841 -0.1841  0.7940
 2220SOL    HW118293   4.573   1.326   4.931 -1.8631  2.0516 -0.6651
 2220SOL    HW218294   4.506   1.433   5.017 -0.5948 -0.1559 -1.6034
 2221SOL     OW18295   4.011   3.684  16.960  0.0042  0.1587  0.0516
 2221SOL    HW118296   4.085   3.626  16.982 -0.1029 -0.8773 -2.3342
 2221SOL    HW218297   4.017   3.747  17.032  0.8129  0.3740 -0.1969
 2222SOL     OW18298   2.141   1.055   4.110  0.2265  0.2196  0.4289
 2222SOL    HW118299   2.138   1.148   4.131  0.2123  0.0853  1.0320
 2222SOL    HW218300   2.054   1.038   4.074 -0.7340  0.2571  2.7267
 2223SOL     OW18301   0.720   2.849   0.835 -0.3702  0.2153  0.8997
 2223SOL    HW118302   0.718   2.848   0.739 -1.0629  1.1099  0.9120
 2223SOL    HW218303   0.812   2.872   0.849 -0.5386  1.3814  0.0892
 2224SOL     OW18304   0.155   2.970   4.433  0.3225 -0.0903  0.2347
 2224SOL    HW118305   0.250   2.980   4.424  0.3166  0.9174  1.4105
 2224SOL    HW218306   0.141   2.880   4.403  1.1950 -0.0374 -0.3603
 2225SOL     OW18307   3.359   2.566  15.276 -0.2190 -0.0439  0.3436
 2225SOL    HW118308   3.383   2.619  15.200 -2.0483  0.9185  0.4364
 2225SOL    HW218309   3.266   2.545  15.274 -0.1761 -0.1064 -0.6623
 2226SOL     OW18310   3.228   0.659   5.714 -0.1010  0.4761 -0.4488
 2226SOL    HW118311   3.252   0.587   5.773  1.2344  0.4479 -1.0155
 2226SOL    HW218312   3.193   0.606   5.643 -0.3050  1.4920 -1.0963
 2227SOL     OW18313   0.077   1.578   8.212 -1.0067 -0.5377 -0.7025
 2227SOL    HW118314   0.086   1.665   8.252  1.5274 -0.5640 -1.1823
 2227SOL    HW218315   0.087   1.611   8.123  3.1848 -2.3820 -0.9143
 2228SOL     OW18316   4.517   3.858  12.954  0.1301 -0.3183  0.4595
 2228SOL    HW118317   4.606   3.823  12.950  0.6585  1.0540  0.1679
 2228SOL    HW218318   4.531   3.933  13.011 -2.0721  1.0238 -0.7661
 2229SOL     OW18319   1.097   1.156   5.335  0.1516 -0.0904  0.0587
 2229SOL    HW118320   1.095   1.120   5.246  1.0572 -0.3348  0.1381
 2229SOL    HW218321   1.025   1.115   5.383 -0.8966  3.1678  1.2245
 2230SOL     OW18322   0.327   4.037   6.200  0.1698  0.2385  0.3484
 2230SOL    HW118323   0.257   4.057   6.138 -2.2517 -2.3977  2.2104
 2230SOL    HW218324   0.281   4.051   6.283 -0.4371 -0.1453  0.0677
 2231SOL     OW18325   3.607   3.577   6.374 -0.2935  0.7499 -0.2438
 2231SOL    HW118326   3.608   3.673   6.369  1.1628  0.7641  0.4434
 2231SOL    HW218327   3.565   3.550   6.292 -2.6103 -3.1911  2.2065
 2232SOL     OW18328   0.292   4.514  13.384 -0.0841  0.4257  0.1288
 2232SOL    HW118329   0.256   4.596  13.418  0.9618  0.5367  0.9752
 2232SOL    HW218330   0.375   4.506  13.432 -0.5197  1.3689  1.0204
 2233SOL     OW18331   2.012   4.177  11.817  0.1934 -0.3373  0.3402
 2233SOL    HW118332   2.049   4.108  11.873  0.5633  0.6385  1.2842
 2233SOL    HW218333   1.949   4.126  11.766  0.0972 -1.9439  2.0808
 2234SOL     OW18334   3.327   4.417   6.187  0.1407  0.8397  0.1503
 2234SOL    HW118335   3.360   4.499   6.224  0.9667 -0.1972  1.7044
 2234SOL    HW218336   3.406   4.385   6.143 -0.2758  0.1925 -0.1209
 2235SOL     OW18337   3.380   4.415   6.659  0.4689 -0.0134  0.3413
 2235SOL    HW118338   3.305   4.474   6.656  1.3553  1.1400  1.1553
 2235SOL    HW218339   3.329   4.346   6.702  1.5271  0.0699  1.7275
 2236SOL     OW18340   0.697   3.607   2.915  0.1392  0.2936  0.0631
 2236SOL    HW118341   0.758   3.674   2.883  0.3535  0.3999  0.6925
 2236SOL    HW218342   0.615   3.651   2.935 -0.6727 -0.2363 -2.1148
 2237SOL     OW18343   3.709   1.399   7.233  0.5588 -0.0014 -0.5032
 2237SOL    HW118344   3.623   1.374   7.200  0.5442  0.5185 -0.8626
 2237SOL    HW218345   3.688   1.491   7.248 -1.2157 -0.1177 -2.3112
 2238SOL     OW18346   1.487   3.925  10.409 -0.1653  0.3957 -1.0908
 2238SOL    HW118347   1.403   3.943  10.367  0.1745  2.1722 -1.0065
 2238SOL    HW218348   1.482   3.953  10.501  1.2569 -1.4211 -0.4604
 2239SOL     OW18349   3.179   1.414   0.671 -0.4171  0.3343 -0.1764
 2239SOL    HW118350   3.204   1.429   0.763 -0.2035 -1.1837  0.0170
 2239SOL    HW218351   3.262   1.394   0.628 -0.2027  0.3877  0.2097
 2240SOL     OW18352   0.309   1.110   7.024  0.1313  1.0085  0.0502
 2240SOL    HW118353   0.293   1.042   7.089  0.4934  1.7194  0.8919
 2240SOL    HW218354   0.405   1.114   7.029 -0.0395  2.1829  2.5463
 2241SOL     OW18355   0.891   1.736  12.658 -0.3735 -0.0581  0.0838
 2241SOL    HW118356   0.842   1.806  12.701  0.5351  0.6336 -0.0307
 2241SOL    HW218357   0.945   1.781  12.593  0.4489 -3.4635 -1.5868
 2242SOL     OW18358   3.553   0.735   4.050 -0.0911 -0.2806  0.5166
 2242SOL    HW118359   3.502   0.688   3.984  1.0199 -1.1655  0.2834
 2242SOL    HW218360   3.619   0.778   3.996 -0.7087 -2.3996 -1.9497
 2243SOL     OW18361   0.757   2.190  10.410  0.2693 -0.1331  0.2579
 2243SOL    HW118362   0.820   2.187  10.338 -2.0802  0.1404 -1.7913
 2243SOL    HW218363   0.812   2.170  10.486  1.2101  1.5369  0.0102
 2244SOL     OW18364   3.834   3.532   6.579  0.2709  0.1212 -0.0491
 2244SOL    HW118365   3.835   3.551   6.485  0.8980 -0.1875 -0.1056
 2244SOL    HW218366   3.804   3.620   6.603  1.2002  0.7013 -1.0079
 2245SOL     OW18367   2.481   4.283   8.325 -0.2842  0.0241  0.3033
 2245SOL    HW118368   2.407   4.336   8.297  1.4094  1.3936 -1.6155
 2245SOL    HW218369   2.535   4.274   8.247 -0.3848 -1.8510  0.4423
 2246SOL     OW18370   2.815   1.377   8.082 -0.5838 -0.2882  0.0930
 2246SOL    HW118371   2.854   1.464   8.089  2.7655 -1.7994 -0.0106
 2246SOL    HW218372   2.881   1.314   8.112  0.5963  0.4260 -1.0636
 2247SOL     OW18373   3.770   3.021   3.770  0.5405 -0.2953 -0.1494
 2247SOL    HW118374   3.848   3.016   3.825 -0.4970  2.2224  1.5630
 2247SOL    HW218375   3.738   3.111   3.775 -1.1113 -1.0501  2.9024
 2248SOL     OW18376   4.587   2.669   9.558  0.1781 -0.1532  0.2566
 2248SOL    HW118377   4.676   2.675   9.523  0.4659 -0.5277  0.9277
 2248SOL    HW218378   4.535   2.730   9.506  0.6501 -0.4597 -0.5674
 2249SOL     OW18379   0.012   3.279  11.021  0.4337 -0.5993  0.3960
 2249SOL    HW118380   0.068   3.283  11.098 -1.4472  0.3405  1.7105
 2249SOL    HW218381   0.063   3.226  10.959  2.1312  1.1884  0.2751
 2250SOL     OW18382   0.788   0.241   3.828  0.1795  0.3996 -0.9848
 2250SOL    HW118383   0.843   0.301   3.878  0.4467  0.0029 -0.8064
 2250SOL    HW218384   0.748   0.303   3.767  0.4527  0.2349 -1.3274
 2251SOL     OW18385   3.582   2.944   5.440  0.0473  0.2240 -0.7130
 2251SOL    HW118386   3.540   2.904   5.516  1.1614 -2.2078 -1.3700
 2251SOL    HW218387   3.513   2.937   5.374 -1.0017 -1.4580  0.5831
 2252SOL     OW18388   2.534   0.219   0.508 -0.4751 -0.7055  0.0011
 2252SOL    HW118389   2.542   0.305   0.467  2.4198 -0.0660  1.8776
 2252SOL    HW218390   2.624   0.187   0.503 -0.5342 -1.0339  0.9704
 2253SOL     OW18391   1.750   2.852   7.055  0.4626 -0.3395  0.4102
 2253SOL    HW118392   1.722   2.814   7.139  2.2086 -1.6702  0.4020
 2253SOL    HW218393   1.704   2.794   6.994 -0.7363 -0.0100  1.0114
 2254SOL     OW18394   3.734   2.100   4.004 -0.2499 -1.0358 -0.2507
 2254SOL    HW118395   3.765   2.137   4.087 -3.0942  0.1288  0.3066
 2254SOL    HW218396   3.708   2.179   3.957 -0.5001 -1.7746 -1.3503
 2255SOL     OW18397   4.155   0.408   3.718 -0.1125 -0.4700  0.1932
 2255SOL    HW118398   4.168   0.501   3.734  0.1394 -0.4573 -0.0895
 2255SOL    HW218399   4.090   0.388   3.785 -2.9907 -0.8735 -2.7001
 2256SOL     OW18400   2.217   0.202   3.082 -0.3196 -0.3396 -0.4685
 2256SOL    HW118401   2.247   0.112   3.091  0.3875 -0.2362 -1.8328
 2256SOL    HW218402   2.136   0.189   3.032  0.5996 -0.2058 -1.9846
 2257SOL     OW18403   2.072   1.945   4.186 -0.2100  0.1330  0.0080
 2257SOL    HW118404   2.113   2.028   4.210  0.8940 -0.7818  1.2796
 2257SOL    HW218405   2.150   1.900   4.151 -1.2049 -1.4701 -0.1633
 2258SOL     OW18406   3.208   2.422   5.983  0.5775  0.0633 -0.3395
 2258SOL    HW118407   3.241   2.505   6.018  1.4789  0.5072 -2.2383
 2258SOL    HW218408   3.282   2.396   5.928  0.1851 -3.4211  0.7540
 2259SOL     OW18409   2.839   2.011   9.290  0.4210 -0.3832  0.4575
 2259SOL    HW118410   2.779   2.084   9.277 -0.4916 -1.0712  0.8257
 2259SOL    HW218411   2.829   1.965   9.207 -1.5805 -0.0733  0.5450
 2260SOL     OW18412   4.685   2.581   6.685 -0.4441 -0.6426  0.4119
 2260SOL    HW118413   4.660   2.575   6.593 -1.5456  2.0701  0.5384
 2260SOL    HW218414   4.714   2.672   6.694 -1.1629 -0.2006 -1.7904
 2261SOL     OW18415   1.779   0.591   4.516  0.3647  0.2954 -0.8632
 2261SOL    HW118416   1.820   0.550   4.440 -0.2928 -0.7633 -0.6588
 2261SOL    HW218417   1.812   0.678   4.496 -1.0954  1.2347  0.8442
 2262SOL     OW18418   0.641   3.172   0.187  0.1551 -0.1810 -0.4784
 2262SOL    HW118419   0.626   3.264   0.208  1.8240  0.0180 -0.1786
 2262SOL    HW218420   0.717   3.175   0.129 -0.4499 -1.3527 -1.3358
 2263SOL     OW18421   0.771   0.306   3.369  0.1476  0.0960  0.0757
 2263SOL    HW118422   0.827   0.382   3.381  0.6306 -0.1586 -0.6033
 2263SOL    HW218423   0.721   0.328   3.448 -1.2694 -0.7741 -0.5677
 2264SOL     OW18424   3.856   3.639   6.150  0.0889 -0.1986  0.6785
 2264SOL    HW118425   3.803   3.567   6.115 -1.5934  0.9606  0.8331
 2264SOL    HW218426   3.808   3.714   6.115 -0.9357  0.0024  2.4786
 2265SOL     OW18427   4.523   1.397   6.825 -0.1344  0.0415  0.1977
 2265SOL    HW118428   4.459   1.338   6.785  1.2186 -2.0003  1.0163
 2265SOL    HW218429   4.485   1.478   6.792  0.6755  1.0581  1.8230
 2266SOL     OW18430   2.259   2.197   4.232  0.1743  0.3204 -0.0888
 2266SOL    HW118431   2.238   2.177   4.323 -1.7034  1.5729 -0.2428
 2266SOL    HW218432   2.190   2.260   4.210  1.0401  0.9204 -1.0670
 2267SOL     OW18433   1.671   1.901   8.015  0.3606  0.2354 -0.3327
 2267SOL    HW118434   1.620   1.954   7.954  2.9072  1.1924 -1.6555
 2267SOL    HW218435   1.735   1.864   7.955 -0.6628  0.2682 -1.4249
 2268SOL     OW18436   0.075   0.061   6.816 -0.0994 -0.5614 -0.6362
 2268SOL    HW118437   0.013   0.109   6.761 -0.0342 -1.1405 -1.2013
 2268SOL    HW218438   0.112   0.004   6.750 -0.0898 -1.5162  0.1917
 2269SOL     OW18439   1.781   3.319   5.881 -0.3025  0.2688 -0.4173
 2269SOL    HW118440   1.850   3.360   5.829 -0.5893  0.9175 -0.2857
 2269SOL    HW218441   1.800   3.370   5.961 -0.2636  0.3909 -0.5038
 2270SOL     OW18442   2.204   2.015   3.128  0.0608 -0.4248 -0.1778
 2270SOL    HW118443   2.134   1.958   3.096 -1.8014  0.8888  1.5718
 2270SOL    HW218444   2.160   2.099   3.142 -0.7722 -0.7745 -0.7389
 2271SOL     OW18445   3.874   2.687  13.158 -0.0795 -0.3201  0.0571
 2271SOL    HW118446   3.937   2.744  13.202 -0.6940 -0.2914  0.9130
 2271SOL    HW218447   3.840   2.737  13.084  0.6513 -0.8343 -0.6199
 2272SOL     OW18448   2.412   3.626   3.066  0.2338 -0.4925 -0.0217
 2272SOL    HW118449   2.377   3.558   3.008  1.5986 -0.5355 -0.7865
 2272SOL    HW218450   2.437   3.569   3.138 -0.5913  2.3489  2.4735
 2273SOL     OW18451   1.793   1.719   1.941  0.1770 -0.0835 -0.4544
 2273SOL    HW118452   1.799   1.654   2.011 -0.9310 -1.1264 -1.3268
 2273SOL    HW218453   1.704   1.705   1.908  0.1712  2.2427 -1.4096
 2274SOL     OW18454   1.670   3.235   6.719 -0.7810 -0.0095  0.2367
 2274SOL    HW118455   1.640   3.317   6.681 -2.0286 -1.2255 -1.3725
 2274SOL    HW218456   1.733   3.198   6.657 -0.6556 -2.2574  1.6844
 2275SOL     OW18457   0.369   3.319  13.003 -0.2941  0.6575 -0.1467
 2275SOL    HW118458   0.368   3.413  13.022 -1.9110  0.6979 -0.4644
 2275SOL    HW218459   0.406   3.325  12.914  2.3879 -0.5237  0.8830
 2276SOL     OW18460   3.968   0.720   7.776 -0.3015 -0.0262  0.2261
 2276SOL    HW118461   3.949   0.631   7.807  3.3003 -1.3436 -1.4263
 2276SOL    HW218462   3.972   0.763   7.861 -1.3620  1.4684 -0.4870
 2277SOL     OW18463   2.492   1.490   4.638  0.4255  0.3255 -0.3614
 2277SOL    HW118464   2.541   1.436   4.700 -1.1401 -0.8426 -0.1415
 2277SOL    HW218465   2.407   1.447   4.648  0.1634  1.0248  0.4308
 2278SOL     OW18466   0.430   3.282   4.473  0.6895  0.1436 -0.0037
 2278SOL    HW118467   0.380   3.358   4.503  0.0324 -0.5345  0.6302
 2278SOL    HW218468   0.503   3.302   4.532  1.1134 -2.5728  0.4116
 2279SOL     OW18469   3.422   3.563  15.276  0.3820  0.1955 -0.1664
 2279SOL    HW118470   3.456   3.641  15.232  2.2712 -0.6992 -0.3052
 2279SOL    HW218471   3.483   3.548  15.348  1.2231  2.0656 -0.4766
 2280SOL     OW18472   2.141   0.039  11.503 -0.7578 -0.2387 -0.0002
 2280SOL    HW118473   2.231   0.004  11.498 -1.0462 -1.3714  2.6250
 2280SOL    HW218474   2.156   0.102  11.433 -0.6864 -0.1536  0.0909
 2281SOL     OW18475   1.224   0.594   9.444 -0.0517 -0.6149 -0.0606
 2281SOL    HW118476   1.189   0.571   9.530  0.5130  0.4733  0.4542
 2281SOL    HW218477   1.288   0.523   9.430 -1.2944 -1.8153  0.3338
 2282SOL     OW18478   1.178   0.311   7.210 -0.3587  0.1038 -0.5581
 2282SOL    HW118479   1.206   0.398   7.182  3.4945 -0.5673  1.2734
 2282SOL    HW218480   1.209   0.317   7.300 -0.9339  0.9331 -0.4125
 2283SOL     OW18481   4.081   2.929  11.386  0.0039 -0.1237 -0.5302
 2283SOL    HW118482   4.010   2.892  11.438  0.7895 -0.0789  0.5804
 2283SOL    HW218483   4.150   2.883  11.433 -0.7589 -1.7708 -1.0496
 2284SOL     OW18484   3.437   1.036   1.383 -0.3301 -0.4586 -0.8642
 2284SOL    HW118485   3.404   0.947   1.372  1.0911 -0.8836 -1.7397
 2284SOL    HW218486   3.452   1.042   1.477  0.0602 -1.2625 -0.8770
 2285SOL     OW18487   3.846   2.057   2.660 -0.1663  0.0406 -0.3522
 2285SOL    HW118488   3.864   2.058   2.754  0.8648  0.6936 -0.5595
 2285SOL    HW218489   3.821   1.966   2.643 -0.8831  0.2154 -0.2326
 2286SOL     OW18490   2.020   3.784   2.039  0.9086  0.0310  0.5910
 2286SOL    HW118491   2.069   3.724   2.095 -1.6910 -1.3246  1.4136
 2286SOL    HW218492   1.927   3.764   2.055  0.3371 -0.6068 -3.4820
 2287SOL     OW18493   4.532   1.348  12.539  0.8654  0.6141 -0.4925
 2287SOL    HW118494   4.552   1.349  12.445  1.8918  1.4324 -0.2652
 2287SOL    HW218495   4.622   1.333  12.569  1.7251  2.5985 -2.0104
 2288SOL     OW18496   0.136   2.024   5.481 -0.0047 -0.1301 -0.0773
 2288SOL    HW118497   0.089   1.971   5.545  2.1155 -1.1869  0.6209
 2288SOL    HW218498   0.222   1.983   5.494  0.2092  0.8741  1.6864
 2289SOL     OW18499   1.214   3.307  12.772 -0.6578  0.3563  0.2882
 2289SOL    HW118500   1.135   3.287  12.721 -0.1002 -0.1065 -0.3973
 2289SOL    HW218501   1.195   3.401  12.770 -0.6318  0.3622  0.3242
 2290SOL     OW18502   2.064   0.545  12.818 -0.5484  0.1928 -0.5936
 2290SOL    HW118503   2.025   0.468  12.859  0.7116 -0.1468 -0.0283
 2290SOL    HW218504   2.006   0.616  12.845  1.4393  0.8908  1.8040
 2291SOL     OW18505   3.641   0.810  11.778  0.2739 -0.0374 -0.4325
 2291SOL    HW118506   3.629   0.887  11.722 -0.6555  0.1988  0.0913
 2291SOL    HW218507   3.733   0.786  11.775 -0.0492 -0.8650 -3.0856
 2292SOL     OW18508   1.704   4.644   8.067 -0.7913 -0.3186  0.4000
 2292SOL    HW118509   1.652   4.674   7.993  1.4050 -3.2870 -2.3867
 2292SOL    HW218510   1.698   4.552   8.042  2.3293 -0.8327  1.4508
 2293SOL     OW18511   4.562   3.456  13.515 -0.6341  0.1652  0.2310
 2293SOL    HW118512   4.613   3.520  13.466 -1.6700 -0.4188 -1.6293
 2293SOL    HW218513   4.585   3.372  13.475 -1.6235 -1.7075  3.5822
 2294SOL     OW18514   0.482   3.090   6.551 -0.3145 -0.0659  0.3621
 2294SOL    HW118515   0.556   3.057   6.500 -0.5667  1.1394 -0.7970
 2294SOL    HW218516   0.432   3.135   6.483 -1.3261  1.2746  1.9899
 2295SOL     OW18517   1.121   4.060   2.307 -0.1456  0.0481 -0.4836
 2295SOL    HW118518   1.081   4.076   2.221 -1.4944 -1.9184 -0.2291
 2295SOL    HW218519   1.146   4.147   2.337  1.7801 -0.2414 -1.2468
 2296SOL     OW18520   3.827   1.239  16.587 -0.1725  0.2680 -0.5707
 2296SOL    HW118521   3.737   1.207  16.598  0.2246  0.0657  2.0766
 2296SOL    HW218522   3.866   1.159  16.553  0.3151  0.2460  0.0346
 2297SOL     OW18523   4.670   3.085   5.283  0.2851 -0.4506 -0.6425
 2297SOL    HW118524   4.646   3.144   5.212  0.9522  0.5984  0.0096
 2297SOL    HW218525   4.702   3.142   5.352  0.9296 -2.1842  0.4628
 2298SOL     OW18526   1.374   4.735   8.292  0.1756  0.0393 -0.0109
 2298SOL    HW118527   1.462   4.704   8.311 -0.4374 -0.8362  1.4382
 2298SOL    HW218528   1.400   0.088   8.293 -0.3342  0.1835 -0.2180
 2299SOL     OW18529   0.549   1.867  11.978  0.3280  0.5887 -0.2807
 2299SOL    HW118530   0.525   1.959  11.988  1.3741  0.7668  0.5599
 2299SOL    HW218531   0.462   1.835  11.954  0.0708  0.9275  0.1978
 2300SOL     OW18532   3.063   1.420  14.968 -0.3903 -0.5036  0.0344
 2300SOL    HW118533   3.026   1.507  14.954  2.1084  0.5123 -0.2451
 2300SOL    HW218534   3.024   1.383  15.048 -0.7762  1.1176  0.6117
 2301SOL     OW18535   1.315   3.181   2.930  0.4642 -0.4689  0.3985
 2301SOL    HW118536   1.334   3.159   2.838  0.5345 -1.4223  0.6493
 2301SOL    HW218537   1.221   3.159   2.927  0.7062 -1.4897  0.2146
 2302SOL     OW18538   4.661   2.850  14.888 -0.0228  0.2477 -0.7566
 2302SOL    HW118539   4.694   2.938  14.869 -0.7803  0.5241 -0.8123
 2302SOL    HW218540   4.669   2.856  14.983 -2.4156  3.2106 -0.7301
 2303SOL     OW18541   3.900   1.909   6.044 -0.2955  0.1160 -0.0784
 2303SOL    HW118542   3.946   1.857   6.110 -0.7011  1.6058  1.3692
 2303SOL    HW218543   3.820   1.928   6.092  0.1976 -1.2787  1.2846
 2304SOL     OW18544   2.016   4.173   5.759  0.8657  0.0063 -0.5704
 2304SOL    HW118545   1.957   4.220   5.700  0.7535  1.9320  1.0779
 2304SOL    HW218546   2.052   4.246   5.809 -1.1100  0.0028  0.8534
 2305SOL     OW18547   3.146   4.722   8.985  0.1054  0.0651 -0.2428
 2305SOL    HW118548   3.211   4.657   9.013  1.2127  1.3870  0.2527
 2305SOL    HW218549   3.161   0.052   9.049 -2.2326  0.6200 -0.2867
 2306SOL     OW18550   0.864   4.317   5.807  0.5666 -0.9256 -0.9762
 2306SOL    HW118551   0.897   4.235   5.842  1.2029 -0.1053  0.3456
 2306SOL    HW218552   0.844   4.360   5.890 -0.5163 -0.3574 -1.5251
 2307SOL     OW18553   2.098   0.797   4.547  0.0836  0.0961  0.0554
 2307SOL    HW118554   2.142   0.739   4.609  0.3730 -2.6283 -2.7169
 2307SOL    HW218555   2.181   0.827   4.511  0.5265  0.6317  1.5041
 2308SOL     OW18556   3.268   4.058  17.593  0.4171 -0.3149  0.1528
 2308SOL    HW118557   3.173   4.062  17.603  0.5227  1.3851  0.5076
 2308SOL    HW218558   3.289   3.965  17.586  2.6060 -0.0150  2.6217
 2309SOL     OW18559   0.477   2.637   4.577  0.1596 -0.1967  0.0390
 2309SOL    HW118560   0.426   2.708   4.617  2.8708  0.8606  1.6135
 2309SOL    HW218561   0.447   2.655   4.488  0.3994  1.3137  0.2693
 2310SOL     OW18562   3.857   4.251  16.523  0.1644  0.2911 -0.0233
 2310SOL    HW118563   3.892   4.321  16.578  1.1009 -1.7080  1.9021
 2310SOL    HW218564   3.887   4.280  16.436  2.4184  1.0354  0.9927
 2311SOL     OW18565   0.288   2.184  17.365 -0.0709 -0.3866 -0.3557
 2311SOL    HW118566   0.342   2.193  17.286 -0.1996 -2.9830 -0.7516
 2311SOL    HW218567   0.239   2.266  17.366  0.5476  0.0068 -1.8278
 2312SOL     OW18568   3.849   1.556   7.582  0.6174  0.5150  0.3463
 2312SOL    HW118569   3.838   1.497   7.656  1.6859 -1.3603 -0.9850
 2312SOL    HW218570   3.877   1.498   7.511  2.2669  0.0314  1.4008
 2313SOL     OW18571   1.721   2.826  16.768  0.1336 -0.0364  0.2707
 2313SOL    HW118572   1.684   2.810  16.855  0.0365 -0.3924  0.1650
 2313SOL    HW218573   1.694   2.743  16.730 -0.0398 -1.0889  2.6457
 2314SOL     OW18574   2.093   3.928   5.695 -0.1852  0.4688 -0.2212
 2314SOL    HW118575   2.092   3.877   5.776 -0.1183  0.5709 -0.1559
 2314SOL    HW218576   2.023   3.991   5.712 -0.8814 -0.9189  2.0477
 2315SOL     OW18577   2.658   0.076   3.430 -0.1516 -0.2377 -0.0501
 2315SOL    HW118578   2.684   0.050   3.518  0.8623 -2.3354 -0.9506
 2315SOL    HW218579   2.658   4.729   3.388 -0.9311 -0.1559 -0.2100
 2316SOL     OW18580   2.751   2.712   2.548 -0.3039  0.4651 -0.1492
 2316SOL    HW118581   2.790   2.684   2.631 -2.6414 -2.1791  0.0566
 2316SOL    HW218582   2.809   2.687   2.477 -0.4539 -0.3955  0.0315
 2317SOL     OW18583   1.779   3.783  10.907  0.5678  0.0231 -0.2885
 2317SOL    HW118584   1.818   3.834  10.836  0.1378  0.7400  0.0010
 2317SOL    HW218585   1.771   3.845  10.979 -1.0199 -0.7284  0.1748
 2318SOL     OW18586   1.809   0.986  10.146 -0.0857 -0.3197  0.7465
 2318SOL    HW118587   1.835   1.035  10.224  0.1765 -1.6981  1.5166
 2318SOL    HW218588   1.806   0.895  10.177 -1.3773 -0.9488 -1.2369
 2319SOL     OW18589   3.674   0.037   9.779  0.2733 -0.3952  0.2950
 2319SOL    HW118590   3.642   0.078   9.860 -1.8949 -1.2166 -0.1316
 2319SOL    HW218591   3.718   0.118   9.752 -0.2419  0.3401  1.6287
 2320SOL     OW18592   1.445   3.219   3.845  0.1004 -0.1894 -0.5507
 2320SOL    HW118593   1.443   3.178   3.931  2.0764  0.2498 -0.2946
 2320SOL    HW218594   1.356   3.196   3.816  0.0644 -1.9672  0.9615
 2321SOL     OW18595   3.464   2.609   5.197  0.0548  0.0318  0.2642
 2321SOL    HW118596   3.545   2.559   5.188  0.0121  0.1540 -0.8241
 2321SOL    HW218597   3.395   2.545   5.182  1.9474 -1.8428 -0.5133
 2322SOL     OW18598   4.308   1.857   5.937 -0.2504 -0.0257 -0.3992
 2322SOL    HW118599   4.324   1.786   5.999 -0.7303 -1.2506 -1.6961
 2322SOL    HW218600   4.386   1.913   5.931  0.9003 -1.5904  0.1011
 2323SOL     OW18601   4.574   2.602   8.259 -0.3714 -0.4464 -0.1969
 2323SOL    HW118602   4.644   2.615   8.323 -1.1471 -2.3426  1.0375
 2323SOL    HW218603   4.509   2.649   8.312  0.2458 -1.4044  1.3982
 2324SOL     OW18604   3.897   0.384   6.627 -0.2987  0.4120 -0.1839
 2324SOL    HW118605   3.967   0.321   6.610  1.0787  1.8556  0.1278
 2324SOL    HW218606   3.891   0.383   6.722 -0.6853 -2.9049 -0.2312
 2325SOL     OW18607   1.113   3.574  13.321 -0.2357 -0.1372  0.1393
 2325SOL    HW118608   1.161   3.523  13.386 -0.0786  0.7781  0.7474
 2325SOL    HW218609   1.154   3.551  13.238  1.0793 -0.9894  1.0336
 2326SOL     OW18610   3.176   0.941   2.255  0.6358 -0.2282 -0.3354
 2326SOL    HW118611   3.212   0.989   2.329 -1.0808  2.1013 -1.0135
 2326SOL    HW218612   3.150   1.001   2.185 -2.1425  0.5295  1.3451
 2327SOL     OW18613   1.682   1.801   4.248 -0.0097 -0.1051  0.2853
 2327SOL    HW118614   1.614   1.736   4.233 -1.3123  1.5063 -0.8338
 2327SOL    HW218615   1.711   1.816   4.157  0.1584  0.4117  0.4235
 2328SOL     OW18616   1.362   3.379   5.184  0.2354 -0.7077 -0.6833
 2328SOL    HW118617   1.413   3.298   5.190  1.2021 -0.1145 -0.8199
 2328SOL    HW218618   1.417   3.437   5.236 -2.9968 -0.5661  2.5554
 2329SOL     OW18619   2.545   1.708   3.881  0.0504  0.0565  0.3549
 2329SOL    HW118620   2.574   1.641   3.943 -3.7112 -0.7397  1.2994
 2329SOL    HW218621   2.478   1.661   3.831 -0.2778  3.4094 -2.3578
 2330SOL     OW18622   3.447   2.673   2.151  0.7722  0.6365  0.1323
 2330SOL    HW118623   3.367   2.716   2.119 -1.1306 -4.6592 -2.1805
 2330SOL    HW218624   3.418   2.625   2.228 -3.6542 -0.1709 -2.0248
 2331SOL     OW18625   1.732   0.473   3.069  0.5167  0.3390 -0.1818
 2331SOL    HW118626   1.737   0.554   3.019 -2.1485  1.2553  1.0865
 2331SOL    HW218627   1.801   0.428   3.020  0.7601  1.5585 -0.9517
 2332SOL     OW18628   1.905   0.303  13.971 -0.2305 -0.3931 -0.5584
 2332SOL    HW118629   1.938   0.223  14.012  1.1675  0.3678 -0.2022
 2332SOL    HW218630   1.962   0.368  14.013  2.8047 -2.6591 -1.1481
 2333SOL     OW18631   3.033   0.753  14.813 -0.1570  0.6233 -0.5712
 2333SOL    HW118632   2.993   0.702  14.743 -1.6537  2.5396 -1.1102
 2333SOL    HW218633   3.031   0.841  14.776 -1.4155  0.3477 -1.1676
 2334SOL     OW18634   3.698   2.512  13.447 -0.6901  0.2328  0.1511
 2334SOL    HW118635   3.754   2.560  13.507  1.0171 -1.4527 -0.0672
 2334SOL    HW218636   3.755   2.435  13.450 -1.4208 -0.3538 -0.8749
 2335SOL     OW18637   1.363   3.576   7.131 -0.6934  0.4594 -0.4402
 2335SOL    HW118638   1.355   3.663   7.092  1.7249  0.5984 -0.6343
 2335SOL    HW218639   1.372   3.521   7.054  1.4134  0.9087 -0.5226
 2336SOL     OW18640   2.273   4.156   0.936  0.5654  0.0496 -0.2553
 2336SOL    HW118641   2.282   4.171   1.030  0.4692  0.7743 -0.3621
 2336SOL    HW218642   2.198   4.215   0.932  0.2386 -0.2087  1.7248
 2337SOL     OW18643   1.403   2.553  10.083 -0.2311  0.0343 -0.1824
 2337SOL    HW118644   1.313   2.523  10.071 -0.6114  1.3136 -0.4374
 2337SOL    HW218645   1.431   2.512  10.165  0.0136  3.3671  1.3731
 2338SOL     OW18646   0.171   0.670   1.887  0.1037  0.2276 -0.3826
 2338SOL    HW118647   0.214   0.733   1.946 -2.1871  2.8077 -1.4825
 2338SOL    HW218648   0.226   0.593   1.902 -0.8539 -0.4248 -0.2769
 2339SOL     OW18649   3.248   0.129   8.397  0.2835  0.2880  0.1255
 2339SOL    HW118650   3.198   0.087   8.466  1.7747 -2.9520 -0.7326
 2339SOL    HW218651   3.169   0.177   8.372 -1.0553 -1.6619  0.6271
 2340SOL     OW18652   1.764   3.009  17.168 -0.7753 -0.4112  0.1085
 2340SOL    HW118653   1.799   3.095  17.144  0.5007 -1.2490 -1.0917
 2340SOL    HW218654   1.844   2.956  17.178  0.1335  1.6654  3.9840
 2341SOL     OW18655   3.074   2.372  11.151 -0.3514 -0.1591  0.0656
 2341SOL    HW118656   3.102   2.422  11.228  2.2405 -2.4793  0.6621
 2341SOL    HW218657   3.111   2.424  11.080 -0.7517 -0.8545 -0.6459
 2342SOL     OW18658   3.137   0.856  15.082  0.0823  0.1513  0.0923
 2342SOL    HW118659   3.180   0.778  15.116 -0.4833 -0.8132 -1.4158
 2342SOL    HW218660   3.132   0.821  14.993 -1.7926 -2.0461  1.0646
 2343SOL     OW18661   1.959   3.837   8.520 -0.1855 -0.5038  0.2380
 2343SOL    HW118662   2.034   3.786   8.491  0.2052  0.1043  0.1764
 2343SOL    HW218663   1.897   3.823   8.449 -1.3155  0.0441  1.1024
 2344SOL     OW18664   3.245   3.175   5.557 -0.2378  0.2218  0.3278
 2344SOL    HW118665   3.194   3.146   5.481  0.6651  0.4034 -0.3443
 2344SOL    HW218666   3.208   3.259   5.585 -1.0351  0.7680 -2.3309
 2345SOL     OW18667   3.126   2.967  11.966 -0.7359  0.4773  0.2655
 2345SOL    HW118668   3.176   2.989  12.044 -2.0842 -0.1246  1.2950
 2345SOL    HW218669   3.086   2.887  11.998 -2.1113  0.7713 -0.6806
 2346SOL     OW18670   1.288   2.816   1.718 -0.6475  0.5283  0.1092
 2346SOL    HW118671   1.255   2.729   1.739 -2.2613  1.6517  2.2720
 2346SOL    HW218672   1.347   2.804   1.644 -0.9993  1.3057 -0.2935
 2347SOL     OW18673   4.280   1.057   4.465 -0.0029 -0.3300  0.1471
 2347SOL    HW118674   4.205   1.059   4.406  0.3806  0.6352 -0.3068
 2347SOL    HW218675   4.325   0.988   4.416  2.7169  1.1471  0.5551
 2348SOL     OW18676   4.103   2.809  15.566  0.3899  0.4853 -0.2248
 2348SOL    HW118677   4.125   2.877  15.503 -0.5904  0.5573 -0.4947
 2348SOL    HW218678   4.140   2.726  15.537  2.1335  0.2628  2.5803
 2349SOL     OW18679   1.581   2.291   4.757 -0.7072 -0.1762  0.0153
 2349SOL    HW118680   1.605   2.380   4.780  1.8071 -1.3632  1.9916
 2349SOL    HW218681   1.637   2.270   4.682  0.4310  0.1083  0.7881
 2350SOL     OW18682   2.615   0.480  12.631 -0.1090 -0.0627  0.0308
 2350SOL    HW118683   2.615   0.514  12.721 -0.8703  2.6244 -0.9594
 2350SOL    HW218684   2.584   0.558  12.583 -1.2929 -1.4903 -1.5185
 2351SOL     OW18685   3.641   2.988   9.345  0.2012 -0.1513  0.6578
 2351SOL    HW118686   3.689   2.907   9.359  0.0927  0.1980  3.0770
 2351SOL    HW218687   3.588   2.966   9.268  1.7468 -0.3910 -0.3307
 2352SOL     OW18688   2.592   4.556   0.570  0.1908  0.6290  0.0547
 2352SOL    HW118689   2.668   4.611   0.590 -0.5165  1.8474 -0.5652
 2352SOL    HW218690   2.612   4.530   0.481 -2.2758 -3.1905  0.6225
 2353SOL     OW18691   3.471   1.784   2.350  0.6547 -0.5131 -0.1692
 2353SOL    HW118692   3.529   1.729   2.296 -0.1963 -1.3545 -0.2162
 2353SOL    HW218693   3.541   1.846   2.372  0.7366 -0.8114  0.3935
 2354SOL     OW18694   4.479   2.960  16.853 -0.3174 -0.1096  0.6275
 2354SOL    HW118695   4.473   2.978  16.759 -0.3504  0.8820  0.8151
 2354SOL    HW218696   4.531   3.037  16.877 -0.1217  0.2917 -1.0644
 2355SOL     OW18697   1.551   1.537   7.909 -0.3768 -0.2339  0.2202
 2355SOL    HW118698   1.521   1.505   7.824 -2.1702  0.3640  0.6171
 2355SOL    HW218699   1.548   1.454   7.957 -2.1134 -0.2369  0.1086
 2356SOL     OW18700   4.413   1.981   2.426 -0.3172  0.5602  0.4942
 2356SOL    HW118701   4.455   1.917   2.484 -1.8181 -0.0043  0.9515
 2356SOL    HW218702   4.362   1.932   2.362 -0.2922  0.2473  0.7135
 2357SOL     OW18703   0.642   1.970   7.638  0.5847  0.6844 -0.1805
 2357SOL    HW118704   0.581   2.029   7.592  1.8064  0.9996 -1.4004
 2357SOL    HW218705   0.710   1.970   7.571  1.1389  1.2506  0.3857
 2358SOL     OW18706   2.437   0.675  12.530  0.1241 -0.3844  0.6759
 2358SOL    HW118707   2.395   0.686  12.615 -0.0084 -0.7164  0.6501
 2358SOL    HW218708   2.485   0.756  12.514  0.1017 -0.4659  0.2012
 2359SOL     OW18709   4.210   2.915   1.913 -0.1814 -0.1579  0.0767
 2359SOL    HW118710   4.213   3.006   1.942 -1.1086  0.0139 -0.3801
 2359SOL    HW218711   4.127   2.886   1.949  1.2312 -1.3650  2.3484
 2360SOL     OW18712   3.978   3.930   6.872  0.7534 -0.1029 -0.4196
 2360SOL    HW118713   3.923   3.968   6.803  0.6716 -0.1434 -0.3767
 2360SOL    HW218714   3.981   3.838   6.848  0.2737 -0.4078  0.7316
 2361SOL     OW18715   0.786   2.025   8.628 -0.1540 -0.1809  0.4720
 2361SOL    HW118716   0.835   2.010   8.548  0.7420 -0.0876  1.0049
 2361SOL    HW218717   0.858   2.042   8.688 -0.8120  0.8636  0.9833
 2362SOL     OW18718   1.852   4.060   1.703 -0.0919  0.0285  0.0954
 2362SOL    HW118719   1.854   4.084   1.796  1.2881 -0.4708  0.1929
 2362SOL    HW218720   1.824   3.970   1.715  2.6670 -1.2472 -3.2226
 2363SOL     OW18721   2.887   2.975  17.117  0.8859  0.7614 -0.4968
 2363SOL    HW118722   2.950   3.044  17.095 -0.9209  1.7542 -2.5221
 2363SOL    HW218723   2.896   2.919  17.040 -1.8457 -0.8266  0.3327
 2364SOL     OW18724   1.267   1.015   1.616 -0.1727 -0.1111 -0.1375
 2364SOL    HW118725   1.267   0.922   1.594  0.4975 -0.0310 -0.4661
 2364SOL    HW218726   1.223   1.014   1.701 -0.4986  1.4820 -0.2857
 2365SOL     OW18727   2.206   2.074   8.437 -0.4437 -0.7633  0.2042
 2365SOL    HW118728   2.225   2.091   8.345 -0.6445 -2.3716 -0.1344
 2365SOL    HW218729   2.148   2.149   8.448  3.7021  2.5146 -0.3222
 2366SOL     OW18730   3.828   4.610   9.181 -0.2238 -0.2966 -0.0369
 2366SOL    HW118731   3.866   4.541   9.236 -0.3185 -1.1342 -1.0289
 2366SOL    HW218732   3.736   4.619   9.207 -0.0531 -0.3748  0.6037
 2367SOL     OW18733   3.643   3.483  13.071 -0.0356  0.3475  0.0911
 2367SOL    HW118734   3.592   3.405  13.093  0.2714  0.5474  1.5223
 2367SOL    HW218735   3.666   3.524  13.155 -0.6861  1.1898 -0.1401
 2368SOL     OW18736   4.003   0.520   7.239 -0.5077 -0.4673  0.3921
 2368SOL    HW118737   3.912   0.519   7.268 -1.2330 -2.8921 -2.0105
 2368SOL    HW218738   4.050   0.461   7.297 -0.5689 -1.3068 -0.4128
 2369SOL     OW18739   4.699   0.573  12.883  0.2817  0.3213  0.3445
 2369SOL    HW118740   4.618   0.624  12.896  0.1848  0.6543 -1.4859
 2369SOL    HW218741   4.682   0.495  12.934 -1.0756 -0.0768 -0.6996
 2370SOL     OW18742   0.537   0.642  17.364  0.0176  0.0265  0.5076
 2370SOL    HW118743   0.611   0.650  17.305 -0.0401 -1.7104  0.2161
 2370SOL    HW218744   0.529   0.548  17.350 -1.8018  0.4251 -1.1868
 2371SOL     OW18745   3.659   0.637   4.907  0.4831  0.3911  0.4385
 2371SOL    HW118746   3.746   0.669   4.887  0.7444 -1.6991 -1.7864
 2371SOL    HW218747   3.612   0.647   4.824  0.8572  1.3891  0.3544
 2372SOL     OW18748   0.702   0.717   2.723 -0.0956 -0.6011 -0.8492
 2372SOL    HW118749   0.753   0.724   2.804 -0.1378  1.9388 -1.0485
 2372SOL    HW218750   0.771   0.681   2.666  0.7225  2.0786 -1.5406
 2373SOL     OW18751   1.812   1.236   5.012  0.2876 -0.4732 -0.0241
 2373SOL    HW118752   1.887   1.247   4.954 -0.9525 -0.3254 -1.6075
 2373SOL    HW218753   1.758   1.171   4.965 -0.4550  0.8774 -1.0572
 2374SOL     OW18754   4.594   1.993   2.668 -0.0045 -0.0095  0.4877
 2374SOL    HW118755   4.681   2.030   2.680 -1.0321  1.9119  2.0490
 2374SOL    HW218756   4.542   2.071   2.688  0.6356  0.9690 -1.6441
 2375SOL     OW18757   0.842   4.043   6.179 -0.2747 -0.1839 -0.4263
 2375SOL    HW118758   0.866   4.022   6.269 -0.0354  0.7773 -0.2626
 2375SOL    HW218759   0.754   4.081   6.188  0.9377  2.1913  1.4314
 2376SOL     OW18760   1.487   3.379   5.488  0.0478 -1.1489  0.0430
 2376SOL    HW118761   1.567   3.424   5.460  0.1318 -0.3265  1.5939
 2376SOL    HW218762   1.514   3.296   5.528  0.2712 -0.4224  1.3972
 2377SOL     OW18763   1.067   0.531   7.580 -0.2346  0.2977  0.4426
 2377SOL    HW118764   1.113   0.592   7.521 -0.6275 -0.6204 -0.8130
 2377SOL    HW218765   1.008   0.483   7.522  1.1647 -1.4166  0.4253
 2378SOL     OW18766   4.054   2.524   6.559  0.6609 -0.2890 -0.3982
 2378SOL    HW118767   4.146   2.549   6.552  0.7830 -0.9010 -0.9847
 2378SOL    HW218768   4.053   2.447   6.616 -1.8367 -0.0551 -0.0973
 2379SOL     OW18769   3.888   2.898   5.141  0.2570  0.0077 -0.1025
 2379SOL    HW118770   3.795   2.887   5.121  0.1903 -1.2004  0.8299
 2379SOL    HW218771   3.904   2.990   5.122  0.8550  0.5191  2.8426
 2380SOL     OW18772   3.750   2.745   2.873  0.1250  0.6955 -0.5850
 2380SOL    HW118773   3.690   2.678   2.839 -1.3028  0.6321  2.1036
 2380SOL    HW218774   3.740   2.807   2.800  1.8838 -1.2201 -2.4818
 2381SOL     OW18775   2.483   0.054   2.881  0.1693  0.1236 -0.5694
 2381SOL    HW118776   2.455   0.040   2.791 -3.2961  0.6702  0.4255
 2381SOL    HW218777   2.412   0.022   2.938 -1.9443 -0.6004 -3.6059
 2382SOL     OW18778   3.777   2.328   2.655 -0.3028  0.3519  0.3309
 2382SOL    HW118779   3.801   2.235   2.654  1.4409  0.7881  1.5903
 2382SOL    HW218780   3.812   2.359   2.572  1.5571 -0.7378  0.7037
 2383SOL     OW18781   2.585   0.899   3.612 -0.1822  0.5863 -0.2141
 2383SOL    HW118782   2.581   0.838   3.538 -1.2388 -0.4095  0.6876
 2383SOL    HW218783   2.506   0.949   3.592 -0.2944 -0.3514 -2.1533
 2384SOL     OW18784   4.163   1.367   6.942  0.2879  0.1251 -0.4948
 2384SOL    HW118785   4.246   1.379   6.988  1.4182  0.2266 -2.5479
 2384SOL    HW218786   4.100   1.429   6.979  0.6647  0.1313  0.1414
 2385SOL     OW18787   2.812   0.728   2.666 -0.4284 -0.1245 -0.3227
 2385SOL    HW118788   2.817   0.743   2.572  0.2098  0.9315 -0.1178
 2385SOL    HW218789   2.746   0.659   2.656 -0.5790 -0.0029 -0.1791
 2386SOL     OW18790   3.279   0.152   2.124  0.6107  0.3160 -0.1449
 2386SOL    HW118791   3.230   0.097   2.184  0.2415  3.3638  2.3256
 2386SOL    HW218792   3.253   0.237   2.160 -1.7120 -1.5066  2.4576
 2387SOL     OW18793   0.094   2.540  15.666  0.3401 -0.0345  0.1126
 2387SOL    HW118794   0.188   2.532  15.650 -0.1502 -1.3583 -2.0923
 2387SOL    HW218795   0.069   2.448  15.658 -0.3700 -0.0127  1.8664
 2388SOL     OW18796   3.944   0.326   1.927  0.4848  0.6032  0.2842
 2388SOL    HW118797   3.862   0.370   1.948  0.1799 -0.9487  2.4419
 2388SOL    HW218798   3.911   0.236   1.920  0.2677  0.6995  0.0782
 2389SOL     OW18799   0.967   2.396  17.324  0.7551 -0.1499 -0.2188
 2389SOL    HW118800   0.940   2.311  17.289  2.8879 -2.4131  3.5618
 2389SOL    HW218801   1.028   2.354  17.384  1.1979  1.8559  0.7411
 2390SOL     OW18802   3.476   2.004  13.403  0.1748  0.2195 -0.3725
 2390SOL    HW118803   3.497   2.013  13.310  2.0642  0.2352  0.0458
 2390SOL    HW218804   3.464   1.911  13.421 -0.3661  0.2527 -0.5964
 2391SOL     OW18805   3.187   1.213   1.312  0.2826  0.4491 -0.0830
 2391SOL    HW118806   3.122   1.278   1.285 -1.3824  0.0034  2.9654
 2391SOL    HW218807   3.196   1.160   1.233  0.8257 -0.5164  0.6299
 2392SOL     OW18808   0.874   1.596   2.306 -0.3347  0.5944  0.2595
 2392SOL    HW118809   0.831   1.595   2.392 -0.4359 -0.5815  0.1968
 2392SOL    HW218810   0.886   1.502   2.296 -0.8041  0.6633 -0.8858
 2393SOL     OW18811   0.321   2.457   9.736  0.1348  0.0458 -0.5426
 2393SOL    HW118812   0.260   2.530   9.732 -0.7732 -0.7571 -1.4025
 2393SOL    HW218813   0.386   2.488   9.674 -1.6212 -1.4668 -3.1285
 2394SOL     OW18814   0.260   0.388  12.765 -0.5146  0.7574  0.8343
 2394SOL    HW118815   0.317   0.342  12.703  0.9026  0.0509  2.6797
 2394SOL    HW218816   0.321   0.435  12.822  0.5075 -0.6471  0.9169
 2395SOL     OW18817   1.268   3.341   9.521 -0.2770 -0.2133  0.2545
 2395SOL    HW118818   1.334   3.371   9.584  0.2665 -1.1910  0.1525
 2395SOL    HW218819   1.224   3.277   9.577 -1.9144  0.3763 -0.3904
 2396SOL     OW18820   0.891   1.779   0.728  0.2868 -0.2813 -0.3550
 2396SOL    HW118821   0.986   1.764   0.728  0.7570  2.5749  0.9128
 2396SOL    HW218822   0.896   1.859   0.781 -1.6095 -1.4722  1.6321
 2397SOL     OW18823   3.984   0.743   1.642  0.1994 -0.6176 -0.8391
 2397SOL    HW118824   4.065   0.730   1.691  2.4433  1.3719 -4.0315
 2397SOL    HW218825   3.960   0.651   1.632  0.4248 -0.7282 -0.3834
 2398SOL     OW18826   0.117   0.438   8.286 -0.1996 -0.1070  0.3033
 2398SOL    HW118827   0.191   0.496   8.305  1.3889 -1.5402 -1.5887
 2398SOL    HW218828   0.147   0.419   8.198  1.5708  0.6086  0.7416
 2399SOL     OW18829   3.952   4.371   7.805 -0.6108 -0.0829  0.7837
 2399SOL    HW118830   3.983   4.453   7.843  0.1458 -0.0303  0.0403
 2399SOL    HW218831   3.938   4.400   7.715 -1.8913  0.1271  1.0543
 2400SOL     OW18832   3.042   4.142  14.904  0.0519 -0.1041 -0.2316
 2400SOL    HW118833   3.124   4.096  14.922 -0.2003 -0.3546  0.2799
 2400SOL    HW218834   2.988   4.064  14.892  0.1346 -0.2762  0.5113
 2401SOL     OW18835   2.847   0.138   2.319 -0.4048 -0.3203 -0.0571
 2401SOL    HW118836   2.807   0.051   2.314 -0.2290 -0.4227  0.3645
 2401SOL    HW218837   2.827   0.169   2.230  0.5741 -0.2199 -0.2383
 2402SOL     OW18838   1.381   2.457  15.570  0.8047  0.1581  0.0063
 2402SOL    HW118839   1.382   2.422  15.481 -0.8534  1.6766 -0.5938
 2402SOL    HW218840   1.467   2.425  15.600  0.7259 -0.7954 -0.7746
 2403SOL     OW18841   1.597   2.461   8.211  0.5362 -0.5054  0.3788
 2403SOL    HW118842   1.591   2.380   8.262  0.9344 -0.8805 -0.1832
 2403SOL    HW218843   1.690   2.470   8.190  0.4163  0.5440  0.2824
 2404SOL     OW18844   3.406   1.850   2.960  0.2410 -0.3405 -0.2879
 2404SOL    HW118845   3.329   1.821   2.911 -0.6369 -1.4554  1.7280
 2404SOL    HW218846   3.468   1.868   2.889  1.8475  2.3677  1.7890
 2405SOL     OW18847   1.763   2.985  16.044  0.6296  0.0764  0.1599
 2405SOL    HW118848   1.795   2.967  15.955  0.3091 -0.9392  0.2440
 2405SOL    HW218849   1.820   3.060  16.061 -1.7644  1.6029  1.3270
 2406SOL     OW18850   1.780   3.881   2.166  0.3063  1.4281 -1.4882
 2406SOL    HW118851   1.824   3.942   2.226  0.8705 -0.1382 -0.2863
 2406SOL    HW218852   1.738   3.948   2.113 -1.6379  0.4509 -1.1911
 2407SOL     OW18853   1.478   4.198   5.148  0.2477  0.1431 -0.2065
 2407SOL    HW118854   1.567   4.176   5.121  0.4684  2.0493 -0.9832
 2407SOL    HW218855   1.439   4.114   5.174  0.7996 -0.5274 -1.5590
 2408SOL     OW18856   4.167   4.691   3.610  0.0627  0.4592  0.4180
 2408SOL    HW118857   4.195   0.037   3.643  0.4453  0.7609 -0.7189
 2408SOL    HW218858   4.103   4.664   3.676 -0.1395 -0.3729 -0.1120
 2409SOL     OW18859   3.513   3.137  13.610 -0.7948  1.0756 -0.3339
 2409SOL    HW118860   3.446   3.128  13.678 -2.3531  2.0462 -1.7148
 2409SOL    HW218861   3.456   3.176  13.543 -1.1985  0.3702 -0.3955
 2410SOL     OW18862   3.496   0.165   9.338 -0.3828  0.1577  0.5709
 2410SOL    HW118863   3.493   0.249   9.385 -1.2546  0.8099 -0.6278
 2410SOL    HW218864   3.404   0.155   9.313 -0.4933  2.1890  0.1092
 2411SOL     OW18865   1.999   1.291  12.417 -1.0466 -0.1798  0.1278
 2411SOL    HW118866   2.080   1.339  12.432 -0.1167 -1.9499  0.7549
 2411SOL    HW218867   1.966   1.270  12.504  1.5945  0.2849  1.2490
 2412SOL     OW18868   2.136   0.343  11.722  0.4940  0.1658  0.3203
 2412SOL    HW118869   2.142   0.366  11.629 -1.8223  0.4311  0.2520
 2412SOL    HW218870   2.055   0.297  11.742  1.1246 -1.2688 -0.4181
 2413SOL     OW18871   3.434   0.115   4.506 -0.0889  0.2366 -0.2769
 2413SOL    HW118872   3.472   0.046   4.451  0.1933  0.2924 -0.1486
 2413SOL    HW218873   3.380   0.055   4.558 -0.6865  0.2305 -0.8949
 2414SOL     OW18874   1.726   3.278   2.168  0.0956 -0.0665 -0.3585
 2414SOL    HW118875   1.670   3.320   2.104 -0.1565 -1.8335 -1.2934
 2414SOL    HW218876   1.684   3.193   2.182 -0.2776  0.2874  0.6806
 2415SOL     OW18877   2.880   3.236   7.992 -0.3842 -0.3548  0.1749
 2415SOL    HW118878   2.795   3.203   8.024 -0.8767 -1.1201 -1.9530
 2415SOL    HW218879   2.898   3.286   8.072 -0.6499 -1.3047  0.8328
 2416SOL     OW18880   2.378   1.677   6.070  0.1802  0.0597  0.2180
 2416SOL    HW118881   2.428   1.652   6.148 -1.8182 -0.9373  1.1631
 2416SOL    HW218882   2.290   1.655   6.101  1.2394 -3.0589  0.9742
 2417SOL     OW18883   0.987   3.287   7.924 -0.1439  0.0641 -0.1607
 2417SOL    HW118884   0.954   3.374   7.901 -0.5301  0.1831  0.8501
 2417SOL    HW218885   1.037   3.269   7.844 -0.7319  1.0659 -0.7509
 2418SOL     OW18886   1.506   4.466  12.869 -0.0543 -0.1749 -0.1483
 2418SOL    HW118887   1.442   4.500  12.932 -0.0075 -1.2624  0.4942
 2418SOL    HW218888   1.528   4.382  12.911  0.3123 -0.5337 -1.0620
 2419SOL     OW18889   1.992   3.880   2.955  0.3749 -0.1425 -0.6149
 2419SOL    HW118890   2.010   3.959   2.905  2.0752 -1.1518 -1.6253
 2419SOL    HW218891   2.080   3.848   2.977 -1.0977 -2.2685  2.2685
 2420SOL     OW18892   4.238   1.472   4.913  0.3450 -0.5446 -0.4267
 2420SOL    HW118893   4.215   1.386   4.879  1.2463 -0.0855 -2.1982
 2420SOL    HW218894   4.224   1.460   5.007 -0.1024  1.5872 -0.2356
 2421SOL     OW18895   2.971   4.598  15.129  0.5963  0.0242  0.3110
 2421SOL    HW118896   3.016   4.522  15.091 -1.3487 -1.9968  2.0443
 2421SOL    HW218897   2.887   4.585  15.083 -0.0817  3.2960  0.6613
 2422SOL     OW18898   3.680   3.357   8.644 -0.1532  0.1767 -0.4590
 2422SOL    HW118899   3.618   3.410   8.694 -0.4065 -0.8515  0.3024
 2422SOL    HW218900   3.742   3.319   8.707 -1.3225 -0.5886  0.2260
 2423SOL     OW18901   2.544   0.911  12.413  0.8499  0.1938  0.2146
 2423SOL    HW118902   2.616   0.890  12.354 -0.3608 -2.5984 -0.2892
 2423SOL    HW218903   2.511   0.991  12.373  0.1096 -0.2902 -0.1319
 2424SOL     OW18904   3.722   2.948   6.330  0.3882  0.2718  0.3298
 2424SOL    HW118905   3.674   2.924   6.409 -2.1993  1.1435 -0.9642
 2424SOL    HW218906   3.701   3.040   6.316 -1.5117 -0.5877 -2.6593
 2425SOL     OW18907   3.584   1.970   5.579 -0.3384  0.6810  0.0026
 2425SOL    HW118908   3.601   1.877   5.592 -0.3282  0.5146 -1.1713
 2425SOL    HW218909   3.571   1.963   5.485 -0.3642  0.7703 -0.0000
 2426SOL     OW18910   0.843   1.147   1.797  0.0239 -0.0551 -0.0209
 2426SOL    HW118911   0.868   1.077   1.736  1.3976  1.9067 -1.7210
 2426SOL    HW218912   0.869   1.104   1.878  0.4672 -0.8630 -0.5862
 2427SOL     OW18913   0.167   4.211   7.639  0.5835  0.0367 -0.0525
 2427SOL    HW118914   0.151   4.243   7.550  0.1064  1.3431  0.4944
 2427SOL    HW218915   0.100   4.257   7.691  0.9062 -0.2081  0.5819
 2428SOL     OW18916   0.598   3.754   0.311  0.1988 -0.2232 -0.2968
 2428SOL    HW118917   0.545   3.783   0.385  0.8421  1.7977 -0.6323
 2428SOL    HW218918   0.532   3.746   0.242  0.5096 -0.0544 -0.6175
 2429SOL     OW18919   1.893   0.890  10.464  0.3308 -0.2319 -0.2829
 2429SOL    HW118920   1.805   0.890  10.500  0.7335 -0.2365  0.7058
 2429SOL    HW218921   1.897   0.983  10.439  2.0049 -0.3699 -0.5160
 2430SOL     OW18922   0.130   1.190   2.654 -0.2459  0.5593  0.0202
 2430SOL    HW118923   0.089   1.258   2.600  2.2696  1.6928 -0.4403
 2430SOL    HW218924   0.162   1.120   2.598  0.6045  0.2553  0.8877
 2431SOL     OW18925   4.432   2.220   6.522 -0.6764 -0.1786 -0.0210
 2431SOL    HW118926   4.527   2.234   6.521 -0.7416  0.2523 -0.1055
 2431SOL    HW218927   4.419   2.150   6.586  3.3296  0.9524  2.0496
 2432SOL     OW18928   3.861   4.424   4.254  0.1481 -0.0584 -0.3098
 2432SOL    HW118929   3.932   4.485   4.275 -0.3126  1.0329 -1.9853
 2432SOL    HW218930   3.922   4.353   4.236 -0.6241 -0.3715 -1.6817
 2433SOL     OW18931   4.347   3.741   5.924  0.2299  0.3044 -0.1226
 2433SOL    HW118932   4.374   3.658   5.963  1.2570  0.2347 -0.9577
 2433SOL    HW218933   4.393   3.736   5.839  0.8103 -2.0073  0.3210
 2434SOL     OW18934   0.793   3.785   5.269  0.0508 -0.2145 -0.2195
 2434SOL    HW118935   0.844   3.845   5.323 -0.4695  0.4443 -0.4526
 2434SOL    HW218936   0.818   3.701   5.308  2.8906  0.7833  0.1206
 2435SOL     OW18937   4.134   3.934   5.033 -1.2398 -0.0332  0.7472
 2435SOL    HW118938   4.181   3.854   5.011 -0.8076  0.7643 -1.1602
 2435SOL    HW218939   4.044   3.917   5.007 -0.7224 -1.1674 -0.2732
 2436SOL     OW18940   0.996   4.014   1.531  0.4411 -0.1900  0.4086
 2436SOL    HW118941   0.988   3.991   1.624 -0.4311  0.6778  0.5482
 2436SOL    HW218942   1.039   4.099   1.537  1.0565 -0.4362 -0.6270
 2437SOL     OW18943   1.040   3.802   7.283  0.0847  0.1778 -0.1766
 2437SOL    HW118944   0.948   3.826   7.283 -0.1209 -0.5975 -0.1473
 2437SOL    HW218945   1.051   3.821   7.190  0.8713  1.5837  0.2123
 2438SOL     OW18946   0.721   4.718  12.189 -0.7172 -0.6582 -0.4084
 2438SOL    HW118947   0.689   4.653  12.127 -0.5902 -0.0969 -1.0685
 2438SOL    HW218948   0.638   0.014  12.219  0.8539  0.9661  2.0301
 2439SOL     OW18949   3.926   0.441   5.932 -0.1892  0.1677 -0.1798
 2439SOL    HW118950   3.843   0.413   5.892  0.1642 -0.8685 -0.1838
 2439SOL    HW218951   3.983   0.382   5.882 -0.4188  0.9749 -1.3964
 2440SOL     OW18952   4.613   4.247   9.311  0.3219 -0.2534  0.3463
 2440SOL    HW118953   4.636   4.161   9.276  1.5163  1.0454 -2.0565
 2440SOL    HW218954   4.676   4.310   9.275 -0.6697  0.9664  0.7336
 2441SOL     OW18955   2.265   3.859   7.253  0.4491  0.1857  0.1523
 2441SOL    HW118956   2.359   3.842   7.255  0.3158 -0.6444 -0.5407
 2441SOL    HW218957   2.226   3.801   7.319 -0.2570  0.5448  0.0473
 2442SOL     OW18958   3.123   4.644   5.295  0.3838  0.5126  0.6865
 2442SOL    HW118959   3.053   4.709   5.284  0.4026  0.3679 -0.2903
 2442SOL    HW218960   3.196   4.681   5.245  1.1290  0.5525  1.8131
 2443SOL     OW18961   4.381   3.725  13.691 -0.1754  0.1555  0.2967
 2443SOL    HW118962   4.440   3.679  13.631 -0.1671 -1.2115  1.3586
 2443SOL    HW218963   4.442   3.730  13.764  1.2013 -2.4834 -0.6536
 2444SOL     OW18964   1.891   4.376   1.803 -0.5152  0.5667  0.2773
 2444SOL    HW118965   1.886   4.283   1.783 -0.4905  0.8493 -1.0748
 2444SOL    HW218966   1.932   4.418   1.727 -1.2757  1.5662  0.4058
 2445SOL     OW18967   1.331   2.262   3.152 -0.0641  0.0598  0.3305
 2445SOL    HW118968   1.315   2.201   3.080 -0.3391 -0.3324  0.7245
 2445SOL    HW218969   1.262   2.226   3.208  1.2574 -0.3825  1.6719
 2446SOL     OW18970   0.443   1.316  10.603  0.2853 -0.5051  0.2080
 2446SOL    HW118971   0.521   1.362  10.635 -1.1561  0.9481  1.5835
 2446SOL    HW218972   0.408   1.286  10.687 -0.1385  0.6933  0.4574
 2447SOL     OW18973   2.505   0.817   0.614  0.2594 -0.1540 -0.1936
 2447SOL    HW118974   2.418   0.827   0.652  0.8017  2.5597  0.3213
 2447SOL    HW218975   2.492   0.883   0.546  0.9906  1.2943  1.0776
 2448SOL     OW18976   4.149   0.771  12.300 -0.2901 -0.2929  0.0236
 2448SOL    HW118977   4.149   0.862  12.269  0.5998  0.4669  2.2937
 2448SOL    HW218978   4.068   0.772  12.351  1.0473  0.8710  2.1022
 2449SOL     OW18979   1.468   0.425   5.985 -0.2794 -0.1798 -0.7067
 2449SOL    HW118980   1.403   0.375   5.935  0.5613 -0.8756 -1.0889
 2449SOL    HW218981   1.418   0.502   6.011 -0.4953 -0.4133 -0.4177
 2450SOL     OW18982   4.098   2.780   7.701 -0.0831 -0.7116 -0.0834
 2450SOL    HW118983   4.164   2.813   7.763  2.3027 -0.3734 -2.7800
 2450SOL    HW218984   4.108   2.846   7.632 -0.5024 -0.0562  0.4844
 2451SOL     OW18985   0.966   2.992   3.432 -0.0073 -0.0850 -0.5423
 2451SOL    HW118986   0.983   3.072   3.383 -1.2263  0.6455  0.2508
 2451SOL    HW218987   1.056   2.960   3.424 -0.7329 -2.0584 -0.7896
 2452SOL     OW18988   1.223   1.339   5.481  0.0226 -0.0079 -0.3181
 2452SOL    HW118989   1.198   1.280   5.410  1.3013  2.5595 -2.8760
 2452SOL    HW218990   1.138   1.380   5.496 -0.7011 -1.2069 -1.1272
 2453SOL     OW18991   0.320   4.708   7.565 -0.1039  0.4024 -0.5350
 2453SOL    HW118992   0.317   0.044   7.624 -1.4064  0.2135 -0.3505
 2453SOL    HW218993   0.235   4.673   7.594 -0.3655  0.7483 -0.8810
 2454SOL     OW18994   2.439   1.995   2.921 -0.2474 -0.6250  0.1044
 2454SOL    HW118995   2.392   2.061   2.871 -0.5491 -0.2313  0.9007
 2454SOL    HW218996   2.381   1.992   2.997  0.0702 -1.4617  0.3085
 2455SOL     OW18997   3.222   3.987   3.154  0.0668  0.1301 -0.1085
 2455SOL    HW118998   3.267   3.996   3.237 -2.4639 -1.3787  1.4148
 2455SOL    HW218999   3.302   4.005   3.104 -0.6965  1.2650 -0.9207
 2456SOL     OW19000   3.776   1.174  11.758  0.4428  0.6296  0.7902
 2456SOL    HW119001   3.863   1.135  11.750  0.0837 -0.3282  1.4273
 2456SOL    HW219002   3.759   1.183  11.665 -0.6794 -0.1365  0.9265
 2457SOL     OW19003   2.890   2.191   6.561 -0.3389  0.4073  0.0741
 2457SOL    HW119004   2.856   2.102   6.552  0.6516  0.1006 -0.7147
 2457SOL    HW219005   2.890   2.231   6.474 -1.7200 -1.7199 -0.9119
 2458SOL     OW19006   0.684   1.564   3.607  0.4713  0.0991  0.7455
 2458SOL    HW119007   0.742   1.573   3.531 -0.0226 -0.3696  0.3179
 2458SOL    HW219008   0.738   1.610   3.672 -0.5310  0.8707  1.0276
 2459SOL     OW19009   0.125   3.567   6.403  0.0806  0.0978  0.4454
 2459SOL    HW119010   0.172   3.613   6.473  0.8158 -0.3260  0.2308
 2459SOL    HW219011   0.203   3.537   6.356 -0.0167 -1.5833  1.3258
 2460SOL     OW19012   4.273   2.118   8.985 -0.2628 -0.1641  0.0591
 2460SOL    HW119013   4.346   2.074   8.943 -0.7550  0.3968 -1.3887
 2460SOL    HW219014   4.242   2.063   9.057 -0.0575 -0.7890 -0.3284
 2461SOL     OW19015   2.253   2.578   5.084  0.1465  0.1166 -0.2164
 2461SOL    HW119016   2.292   2.493   5.065  3.4931  1.6365  0.0009
 2461SOL    HW219017   2.278   2.593   5.175 -0.9948 -1.2401  0.3237
 2462SOL     OW19018   2.765   2.241   3.208 -0.3172  0.0873  0.9380
 2462SOL    HW119019   2.700   2.188   3.163  0.7656 -0.1531 -0.3581
 2462SOL    HW219020   2.796   2.172   3.266  0.5079  1.8382  2.5965
 2463SOL     OW19021   0.956   4.638   7.895 -0.1715 -0.2271 -0.1953
 2463SOL    HW119022   0.942   4.707   7.830  1.1986  0.0477 -0.1877
 2463SOL    HW219023   0.885   4.577   7.874  0.5578 -1.1449  0.0273
 2464SOL     OW19024   2.652   3.777   4.611  0.2084 -0.7437  0.0430
 2464SOL    HW119025   2.729   3.737   4.650  1.4560 -0.2673 -1.9495
 2464SOL    HW219026   2.669   3.748   4.521 -1.0087 -2.6735  0.4255
 2465SOL     OW19027   3.055   2.328   0.241 -0.3588  0.7843  0.3342
 2465SOL    HW119028   3.048   2.293   0.153  1.4018  1.3863 -0.0530
 2465SOL    HW219029   3.150   2.320   0.247 -0.2110  2.6550  0.5537
 2466SOL     OW19030   2.129   3.402  10.910 -0.3522 -0.1630  0.2261
 2466SOL    HW119031   2.140   3.307  10.912  0.8625 -0.0362 -0.4456
 2466SOL    HW219032   2.100   3.437  10.995 -3.2488 -0.0034 -0.8339
 2467SOL     OW19033   3.906   0.057   3.358 -0.2724  0.0680  0.3898
 2467SOL    HW119034   3.860   0.034   3.439  0.7497  1.7182  1.4080
 2467SOL    HW219035   3.951   0.135   3.388 -1.2664 -0.1874  2.5126
 2468SOL     OW19036   1.966   2.664  15.599 -0.1612 -0.1219 -0.1585
 2468SOL    HW119037   1.988   2.718  15.523  0.5099 -0.3254 -0.1036
 2468SOL    HW219038   1.985   2.723  15.672  0.2041  0.7252 -0.9348
 2469SOL     OW19039   2.010   2.467   6.100  0.1256 -0.1434 -0.8084
 2469SOL    HW119040   2.045   2.474   6.011  1.2408  1.0378 -0.2785
 2469SOL    HW219041   2.053   2.389   6.134  1.1079 -0.3290 -2.4570
 2470SOL     OW19042   4.494   3.823   8.604 -0.8587  0.1711  0.0055
 2470SOL    HW119043   4.524   3.742   8.645 -0.0389  0.3144 -0.3243
 2470SOL    HW219044   4.432   3.853   8.670  0.3087  1.0049  0.7278
 2471SOL     OW19045   1.175   0.767   7.468 -0.1706 -0.6868 -0.4300
 2471SOL    HW119046   1.212   0.837   7.522  0.0551 -0.7085 -0.5529
 2471SOL    HW219047   1.089   0.807   7.457  0.1802  0.3765  0.6985
 2472SOL     OW19048   3.727   0.888   5.554 -0.2382 -0.4913  0.5952
 2472SOL    HW119049   3.779   0.959   5.517 -1.5641  0.8672  1.3980
 2472SOL    HW219050   3.754   0.814   5.498 -0.3216 -1.6038  2.0297
 2473SOL     OW19051   1.372   0.791   2.641  0.4155 -0.4034  0.0387
 2473SOL    HW119052   1.360   0.868   2.695  0.6765  0.7308 -1.5182
 2473SOL    HW219053   1.316   0.725   2.683  0.8397 -0.3487  0.6791
 2474SOL     OW19054   2.260   2.848   8.734 -0.1898  0.1267 -0.5478
 2474SOL    HW119055   2.278   2.941   8.744  1.1766 -0.2181  0.0653
 2474SOL    HW219056   2.313   2.811   8.804 -3.2204 -0.9388  1.1867
 2475SOL     OW19057   1.692   4.395   4.656 -0.7510  0.1209 -0.2000
 2475SOL    HW119058   1.602   4.418   4.636 -1.6314 -2.6734  0.4556
 2475SOL    HW219059   1.734   4.479   4.677  0.3207 -0.4724  0.0681
 2476SOL     OW19060   4.030   2.148   3.731 -0.3069  0.3012 -0.0763
 2476SOL    HW119061   4.017   2.170   3.823 -0.1501 -1.6506  0.4070
 2476SOL    HW219062   3.981   2.221   3.693  0.6295  2.2746  2.4816
 2477SOL     OW19063   2.838   0.441   6.095 -0.2826 -0.6473 -0.3171
 2477SOL    HW119064   2.765   0.428   6.155  0.6937  2.1234  1.4709
 2477SOL    HW219065   2.902   0.373   6.115  2.0724  2.0375  1.3198
 2478SOL     OW19066   1.206   1.427   7.506 -0.5705 -0.6128  0.2607
 2478SOL    HW119067   1.163   1.341   7.499 -1.4741 -0.1870  0.5780
 2478SOL    HW219068   1.226   1.437   7.413 -1.0390  1.8168  0.4247
 2479SOL     OW19069   0.364   0.199   4.419 -0.2481 -0.2694  0.2286
 2479SOL    HW119070   0.422   0.206   4.343  0.3004  1.2630  0.7801
 2479SOL    HW219071   0.364   0.106   4.444 -0.8527 -0.1488  0.6800
 2480SOL     OW19072   0.692   4.169  17.486  0.0857  0.0798  0.2966
 2480SOL    HW119073   0.756   4.209  17.545 -0.0854 -0.6629  0.9802
 2480SOL    HW219074   0.724   4.080  17.478 -3.6411 -1.4849  2.9563
 2481SOL     OW19075   2.867   1.018   0.227 -0.3382 -0.2794 -0.3673
 2481SOL    HW119076   2.889   0.956   0.296  0.4206 -0.9569 -1.2191
 2481SOL    HW219077   2.906   0.977   0.149  1.5468  0.6891  0.0813
 2482SOL     OW19078   4.698   2.535   9.884  0.1923  0.0235  0.2950
 2482SOL    HW119079   4.657   2.608   9.931  1.3117  0.7749  0.0953
 2482SOL    HW219080   0.034   2.581   9.847  0.3912 -0.1681  0.4652
 2483SOL     OW19081   1.909   1.147  10.357  0.4662 -0.2136  0.2248
 2483SOL    HW119082   2.002   1.129  10.347  0.5135 -1.0935  2.1417
 2483SOL    HW219083   1.912   1.236  10.323 -1.1485  0.0046  0.6140
 2484SOL     OW19084   1.540   2.179   5.283 -0.0832 -0.1920 -0.5257
 2484SOL    HW119085   1.463   2.158   5.336  0.0121  0.1262 -0.2648
 2484SOL    HW219086   1.507   2.182   5.194  0.8396  0.2881 -0.8527
 2485SOL     OW19087   2.053   3.496   1.938  0.3778  0.5108  0.4827
 2485SOL    HW119088   1.959   3.499   1.952  0.5107 -0.1806  1.5218
 2485SOL    HW219089   2.065   3.407   1.969 -2.3743 -0.5362 -1.5166
 2486SOL     OW19090   3.663   1.151   1.985  0.2976  0.6962  0.2728
 2486SOL    HW119091   3.570   1.172   1.971  0.2923 -1.1377 -2.4109
 2486SOL    HW219092   3.687   1.152   1.893  0.7816  2.6012  0.4240
 2487SOL     OW19093   3.810   1.832   5.372  0.3190  0.4928  0.1449
 2487SOL    HW119094   3.754   1.788   5.436 -0.7532 -0.8927 -1.7658
 2487SOL    HW219095   3.753   1.906   5.351 -0.3762 -0.5848 -1.7219
 2488SOL     OW19096   3.974   1.759   7.471 -0.0170 -0.4517  0.0505
 2488SOL    HW119097   4.054   1.786   7.515 -0.5500  2.1444 -0.5851
 2488SOL    HW219098   3.928   1.701   7.532  0.9474 -0.9283  0.3246
 2489SOL     OW19099   1.515   4.459   5.214  0.5037  0.5090 -0.2431
 2489SOL    HW119100   1.483   4.369   5.220  0.7007  0.4201 -0.5790
 2489SOL    HW219101   1.436   4.506   5.186  0.4673 -0.1491 -1.2125
 2490SOL     OW19102   3.304   4.652   4.670 -0.0741  0.1227 -0.4865
 2490SOL    HW119103   3.218   4.668   4.709 -0.0199  1.4248 -0.9310
 2490SOL    HW219104   3.363   4.654   4.746  1.8047  1.9358 -1.9855
 2491SOL     OW19105   1.381   2.392   0.644  0.4804  0.5384  0.1723
 2491SOL    HW119106   1.328   2.470   0.657  0.4937  0.3418  1.3384
 2491SOL    HW219107   1.365   2.381   0.550 -1.3249 -2.4251  0.8113
 2492SOL     OW19108   3.351   3.960   7.546  0.2183  0.0790 -0.3789
 2492SOL    HW119109   3.379   3.969   7.637 -1.4262  2.3624 -0.1103
 2492SOL    HW219110   3.291   4.033   7.532 -1.3408 -0.9273  1.0437
 2493SOL     OW19111   2.025   3.763   6.728 -0.1181  0.5760  0.3080
 2493SOL    HW119112   1.930   3.753   6.716 -0.5937  1.7313  3.1867
 2493SOL    HW219113   2.054   3.780   6.638 -0.0857 -1.8750 -0.1466
 2494SOL     OW19114   1.997   2.615   2.787 -0.4551  0.4487 -0.6351
 2494SOL    HW119115   1.906   2.602   2.759  0.0720 -1.0993 -1.6578
 2494SOL    HW219116   2.002   2.710   2.784 -2.4898  0.6535  2.4589
 2495SOL     OW19117   3.598   3.625   9.627  0.5031 -0.3823  0.8005
 2495SOL    HW119118   3.656   3.701   9.624 -0.2347  0.1366 -0.4579
 2495SOL    HW219119   3.655   3.563   9.673  2.1375  1.2168  0.8995
 2496SOL     OW19120   1.450   0.294   3.124 -0.2004 -0.3891 -0.2912
 2496SOL    HW119121   1.461   0.296   3.029  0.1019 -1.3114 -0.2680
 2496SOL    HW219122   1.422   0.385   3.135  1.1931 -0.0588  0.5940
 2497SOL     OW19123   0.874   3.756   6.555  0.1976 -1.1550  0.1546
 2497SOL    HW119124   0.795   3.719   6.516  0.3104  0.0962 -1.2733
 2497SOL    HW219125   0.912   3.793   6.475 -3.1070  0.6360 -0.5657
 2498SOL     OW19126   1.115   1.616  13.813  0.1549  0.2804  0.4251
 2498SOL    HW119127   1.180   1.636  13.746  0.2517 -1.8071 -0.1131
 2498SOL    HW219128   1.176   1.605  13.887  0.1431 -2.0525  0.0900
 2499SOL     OW19129   1.710   3.232   5.618 -0.2003 -0.1295  0.5862
 2499SOL    HW119130   1.805   3.237   5.608 -0.6891  0.2305 -3.7246
 2499SOL    HW219131   1.701   3.252   5.712 -0.9160  0.3600  0.4198
 2500SOL     OW19132   2.080   3.033   2.501  0.4907 -0.0637  0.1416
 2500SOL    HW119133   2.098   2.987   2.583  1.7297  0.0388 -0.0672
 2500SOL    HW219134   1.992   3.000   2.486  0.4884 -0.1229  0.2863
 2501SOL     OW19135   3.357   2.730   7.133  0.0629 -0.7688 -0.0508
 2501SOL    HW119136   3.430   2.792   7.141  0.8142 -1.8058  0.9867
 2501SOL    HW219137   3.338   2.718   7.226  0.1544 -1.3365 -0.1083
 2502SOL     OW19138   1.020   2.278   8.263 -0.1355  0.1877  0.2457
 2502SOL    HW119139   0.932   2.247   8.284 -1.1513  0.8327 -3.0777
 2502SOL    HW219140   1.018   2.249   8.172 -0.2783 -0.8084  0.5697
 2503SOL     OW19141   3.104   0.339  13.353 -0.5100  0.1449 -0.2510
 2503SOL    HW119142   3.114   0.391  13.433  1.5907 -2.6129  1.2504
 2503SOL    HW219143   3.126   0.255  13.392  0.3345  0.4289 -0.1123
 2504SOL     OW19144   0.539   3.346  17.072  0.1006 -0.1352  0.5159
 2504SOL    HW119145   0.445   3.351  17.088  0.5110 -0.1404  2.9192
 2504SOL    HW219146   0.546   3.254  17.098 -0.2877 -0.4708 -0.5803
 2505SOL     OW19147   2.957   2.464   6.312 -0.6126 -0.0574 -0.0248
 2505SOL    HW119148   2.986   2.411   6.238 -0.0256 -1.8770  1.5281
 2505SOL    HW219149   3.045   2.478   6.350  0.8274 -0.6637 -3.1603
 2506SOL     OW19150   2.711   1.424   1.883  0.0188  0.4437  0.1115
 2506SOL    HW119151   2.732   1.510   1.921 -2.1227  0.9384  0.1875
 2506SOL    HW219152   2.652   1.444   1.810  0.9003  0.8580 -0.4938
 2507SOL     OW19153   0.577   2.384   4.518 -0.7374 -0.1354 -0.3333
 2507SOL    HW119154   0.541   2.468   4.546  0.7264 -0.6070  3.0283
 2507SOL    HW219155   0.666   2.390   4.553 -2.0863  2.2360  2.6859
 2508SOL     OW19156   2.396   0.786   8.620  0.5185  0.2433 -0.4098
 2508SOL    HW119157   2.454   0.722   8.661  0.1236 -0.5851 -1.1574
 2508SOL    HW219158   2.330   0.784   8.689 -0.0762  1.7673 -0.9372
 2509SOL     OW19159   2.837   1.233   5.321 -0.3747  0.1264  0.0865
 2509SOL    HW119160   2.794   1.293   5.382  1.1764 -0.1911  1.4763
 2509SOL    HW219161   2.811   1.267   5.235  0.5857 -2.0196 -1.0510
 2510SOL     OW19162   2.644   0.973   1.076 -0.3950 -0.2486  0.4498
 2510SOL    HW119163   2.638   1.051   1.131 -2.2132  0.6140 -1.0037
 2510SOL    HW219164   2.740   0.971   1.070 -0.3460  1.8813  0.5913
 2511SOL     OW19165   0.622   3.036   9.706  0.3186  0.0979 -0.0304
 2511SOL    HW119166   0.695   3.090   9.676 -0.1026  0.7258  0.0564
 2511SOL    HW219167   0.658   2.948   9.699  0.3860  0.2507 -1.5237
 2512SOL     OW19168   1.364   3.918   2.547  0.4456  0.4089  0.1921
 2512SOL    HW119169   1.335   4.008   2.561 -0.1808  0.1089  0.8156
 2512SOL    HW219170   1.459   3.922   2.562  0.3949  1.9994  0.0666
 2513SOL     OW19171   0.515   0.141   8.623 -0.2181 -0.0604 -0.5041
 2513SOL    HW119172   0.470   0.152   8.707  0.5737 -2.3967  0.2099
 2513SOL    HW219173   0.523   0.046   8.621  2.5530  0.1972 -1.5563
 2514SOL     OW19174   4.043   0.413   1.250  0.0146  0.5870  0.1513
 2514SOL    HW119175   4.084   0.329   1.275  0.8345  1.2232  0.9449
 2514SOL    HW219176   4.121   0.467   1.238  0.0640  0.2313 -1.1458
 2515SOL     OW19177   1.990   0.463   2.527 -0.9778  0.1535 -0.0932
 2515SOL    HW119178   1.930   0.390   2.544 -1.9211  1.7116  3.1820
 2515SOL    HW219179   2.073   0.428   2.558 -0.1952  2.0003 -0.1369
 2516SOL     OW19180   4.181   4.612   6.171  0.4402 -0.0692 -0.1374
 2516SOL    HW119181   4.263   4.563   6.163  0.0093 -0.3932 -2.5543
 2516SOL    HW219182   4.108   4.550   6.173 -0.6453  1.2268  0.6761
 2517SOL     OW19183   1.097   0.982   1.847 -0.2048 -0.5672 -0.2940
 2517SOL    HW119184   1.175   0.943   1.887  1.5877 -0.3257 -3.5876
 2517SOL    HW219185   1.024   0.922   1.863 -1.1603  0.6166 -0.2812
 2518SOL     OW19186   2.171   1.655  12.252  0.1064 -0.1152  0.0995
 2518SOL    HW119187   2.156   1.567  12.217  2.8375  0.4711 -2.4875
 2518SOL    HW219188   2.260   1.668  12.221 -1.0769  0.3789 -3.0818
 2519SOL     OW19189   3.514   2.095   1.633 -0.5004 -0.3790  0.2214
 2519SOL    HW119190   3.549   2.124   1.717  0.3348 -0.4391 -0.1014
 2519SOL    HW219191   3.570   2.141   1.570 -1.4912  1.0552  0.3781
 2520SOL     OW19192   2.356   4.167   7.357 -0.0314 -0.3439  0.4241
 2520SOL    HW119193   2.328   4.199   7.271 -1.5363 -0.9172  0.7095
 2520SOL    HW219194   2.289   4.100   7.369  2.1612 -1.9286  3.8131
 2521SOL     OW19195   4.544   0.115  16.042  0.6989 -0.3684 -0.2958
 2521SOL    HW119196   4.478   0.048  16.028  2.2483 -1.6406 -1.4729
 2521SOL    HW219197   4.558   0.143  15.951  0.6406  0.9453  0.0954
 2522SOL     OW19198   4.679   0.494   3.975 -0.5736 -0.1081  0.2616
 2522SOL    HW119199   4.685   0.555   3.901  0.2821 -0.1373  0.3087
 2522SOL    HW219200   4.627   0.538   4.042 -0.0444  1.0238 -0.0617
 2523SOL     OW19201   1.706   1.343   8.822  0.2918  0.5364  0.1958
 2523SOL    HW119202   1.631   1.402   8.813  0.3099  0.4456 -0.5596
 2523SOL    HW219203   1.680   1.307   8.907  1.8735  2.2383  1.4012
 2524SOL     OW19204   3.001   2.049   6.090 -0.2139  0.1926 -0.8147
 2524SOL    HW119205   3.029   2.051   6.182  2.0726  0.3443 -1.5185
 2524SOL    HW219206   2.931   1.984   6.089 -0.8328  0.8330  0.3796
 2525SOL     OW19207   3.855   0.384   5.356  0.3790  0.1090 -0.7441
 2525SOL    HW119208   3.948   0.363   5.371 -0.0857 -1.1334  0.3678
 2525SOL    HW219209   3.840   0.364   5.264  1.3188  0.0517 -0.8905
 2526SOL     OW19210   2.092   0.069   6.124  0.3193 -0.3791 -0.0748
 2526SOL    HW119211   2.158   0.057   6.192 -0.7913  0.6622  1.1863
 2526SOL    HW219212   2.143   0.106   6.052 -0.6893 -0.2914 -0.7464
 2527SOL     OW19213   3.669   0.133   8.307 -0.0660  0.1759  0.2319
 2527SOL    HW119214   3.638   0.223   8.307  2.9150  1.2317  1.8354
 2527SOL    HW219215   3.660   0.109   8.400 -3.6101 -0.2406 -0.2132
 2528SOL     OW19216   0.887   3.935  15.253 -0.1158 -0.4511 -0.3232
 2528SOL    HW119217   0.957   3.913  15.314 -1.7066  2.5801  2.6501
 2528SOL    HW219218   0.867   4.021  15.292 -0.3766 -0.2342 -0.9321
 2529SOL     OW19219   0.328   3.106   3.649 -0.0602 -0.3607 -0.0082
 2529SOL    HW119220   0.265   3.174   3.625  0.5351 -0.2599 -1.3155
 2529SOL    HW219221   0.404   3.130   3.596  0.5294  1.8364  1.8267
 2530SOL     OW19222   3.839   4.098   8.802 -0.9616 -0.1475 -0.1252
 2530SOL    HW119223   3.743   4.101   8.799 -1.0044  0.5699  2.0467
 2530SOL    HW219224   3.874   4.128   8.719  0.8302 -1.3362  0.2058
 2531SOL     OW19225   4.055   4.051  16.814  0.5453  0.0800 -0.2003
 2531SOL    HW119226   3.960   4.052  16.804  0.4684  2.2712  0.8387
 2531SOL    HW219227   4.071   4.138  16.778  0.7734  0.3790  0.6159
 2532SOL     OW19228   2.009   0.332   4.663  0.0171 -0.0594 -0.2761
 2532SOL    HW119229   1.933   0.275   4.665 -0.1618  0.2380  1.6062
 2532SOL    HW219230   2.000   0.361   4.572  0.8528  2.1865  0.3354
 2533SOL     OW19231   2.945   0.381   2.016  0.5321  0.2835  0.4763
 2533SOL    HW119232   3.037   0.373   2.044  0.3575  0.3982  1.0854
 2533SOL    HW219233   2.931   0.471   2.045  0.9065  0.7753 -0.8850
 2534SOL     OW19234   3.771   1.309   5.371 -0.1774 -0.3449 -0.0860
 2534SOL    HW119235   3.813   1.389   5.403  1.5898 -0.5574 -1.8805
 2534SOL    HW219236   3.786   1.324   5.278 -1.2607  1.3390  0.0019
 2535SOL     OW19237   2.836   3.301   9.708  0.0341 -0.0787  0.1794
 2535SOL    HW119238   2.880   3.221   9.736  1.4780  0.6845  0.0892
 2535SOL    HW219239   2.832   3.346   9.793  2.4045 -2.2042  1.4114
 2536SOL     OW19240   2.689   4.218  15.571  0.1762  0.1192  0.0087
 2536SOL    HW119241   2.630   4.157  15.615  1.3039 -0.0274  1.3287
 2536SOL    HW219242   2.669   4.304  15.608  0.0205  0.1164 -0.0720
 2537SOL     OW19243   3.254   4.255  15.232  0.1271 -0.1527 -0.1545
 2537SOL    HW119244   3.290   4.201  15.162 -0.8486  0.1979 -0.9348
 2537SOL    HW219245   3.250   4.183  15.294  1.0547  0.0235  0.1003
 2538SOL     OW19246   1.422   4.157   1.487 -0.1436 -0.3031  0.3180
 2538SOL    HW119247   1.494   4.167   1.550  0.1134  0.0976 -0.0404
 2538SOL    HW219248   1.468   4.189   1.410  2.4969 -1.6466  1.3502
 2539SOL     OW19249   1.023   3.820   8.129 -0.1647 -0.4713  0.0150
 2539SOL    HW119250   1.048   3.807   8.038 -0.3129 -0.4957 -0.0218
 2539SOL    HW219251   0.962   3.746   8.134  0.3364 -0.9414 -0.6873
 2540SOL     OW19252   0.965   2.907   9.673 -0.2891  0.4837 -0.0361
 2540SOL    HW119253   0.935   2.997   9.662  0.2217  0.2450 -3.4899
 2540SOL    HW219254   0.890   2.849   9.680 -0.9192  1.3049  0.0053
 2541SOL     OW19255   1.435   4.604   4.379  0.0339  0.0643  0.5502
 2541SOL    HW119256   1.412   4.608   4.472 -0.3431  1.4351  0.3999
 2541SOL    HW219257   1.520   4.649   4.383  0.2235 -0.3410  1.0420
 2542SOL     OW19258   1.737   2.764  16.343  0.0879  0.0573 -0.1135
 2542SOL    HW119259   1.745   2.855  16.372  1.1480 -0.2332  0.4895
 2542SOL    HW219260   1.706   2.725  16.424  0.6821 -2.6426 -1.1831
 2543SOL     OW19261   0.033   4.711   5.768 -0.4227 -0.1284  0.4513
 2543SOL    HW119262   0.036   4.617   5.780  1.3152  0.1750  2.3612
 2543SOL    HW219263   4.701   4.738   5.825 -0.4786 -1.8783  1.1992
 2544SOL     OW19264   0.856   3.729   8.599 -0.0250  0.1632  0.3101
 2544SOL    HW119265   0.932   3.764   8.552 -0.2805 -0.8555 -0.8517
 2544SOL    HW219266   0.871   3.769   8.685 -0.9634  0.3801  0.3717
 2545SOL     OW19267   2.093   2.440   4.274 -0.2152 -0.1274 -0.5087
 2545SOL    HW119268   2.184   2.468   4.282  0.7195 -3.5889  1.1721
 2545SOL    HW219269   2.047   2.524   4.273  1.1852  0.6847  2.3395
 2546SOL     OW19270   3.860   4.000   5.889  0.0400  0.4325  0.2192
 2546SOL    HW119271   3.848   3.997   5.984  0.6789  1.6245  0.3322
 2546SOL    HW219272   3.926   3.933   5.869 -0.9644 -0.5577  0.1875
 2547SOL     OW19273   1.005   2.102   1.166 -0.9391 -0.3693 -0.5346
 2547SOL    HW119274   1.071   2.079   1.232 -1.9693 -1.0012  0.2945
 2547SOL    HW219275   1.035   2.184   1.127  0.6371  0.0208  1.5022
 2548SOL     OW19276   0.210   1.943   3.524  0.1587 -0.1894 -0.1143
 2548SOL    HW119277   0.239   1.964   3.613 -2.3481  1.8924  0.1911
 2548SOL    HW219278   0.256   2.014   3.478 -2.0021  0.4376 -1.3074
 2549SOL     OW19279   2.724   2.426   9.072  0.2917  0.3041 -0.5831
 2549SOL    HW119280   2.783   2.432   9.146 -1.5487 -0.0710  0.9162
 2549SOL    HW219281   2.645   2.395   9.116 -0.4034  3.4222  0.3434
 2550SOL     OW19282   3.437   2.612   4.857 -0.0807  0.0911  1.0378
 2550SOL    HW119283   3.372   2.616   4.787 -0.8536  0.1876  1.7614
 2550SOL    HW219284   3.383   2.559   4.915 -0.1121 -2.0678 -0.9546
 2551SOL     OW19285   3.363   3.572  13.235  0.1193 -0.6480  0.1828
 2551SOL    HW119286   3.327   3.591  13.149  1.3703  1.1258  0.0534
 2551SOL    HW219287   3.412   3.493  13.213  2.3281  0.6657  0.4070
 2552SOL     OW19288   4.481   2.975   2.305 -0.2973  0.2807 -0.0894
 2552SOL    HW119289   4.519   3.002   2.388 -0.4903  3.4041 -1.0413
 2552SOL    HW219290   4.551   2.922   2.266 -1.6831 -2.0875  0.5882
 2553SOL     OW19291   2.786   3.558   2.609  0.3717 -0.0546 -0.1086
 2553SOL    HW119292   2.698   3.544   2.575  0.7889 -0.9901 -0.7876
 2553SOL    HW219293   2.752   3.583   2.695 -1.0979 -0.6866 -0.5094
 2554SOL     OW19294   2.478   2.146  12.891 -0.1825  0.2835  0.0084
 2554SOL    HW119295   2.571   2.141  12.909 -0.1882 -1.8234 -0.5164
 2554SOL    HW219296   2.438   2.165  12.976 -0.7827 -1.9509  0.2353
 2555SOL     OW19297   3.735   4.704  12.651  0.0112  0.1057 -0.1626
 2555SOL    HW119298   3.645   4.724  12.676 -0.3623  0.3470 -1.6771
 2555SOL    HW219299   3.774   0.046  12.620 -0.2085 -0.1742 -1.1825
 2556SOL     OW19300   4.184   2.964   9.456 -0.5192  0.6293 -0.9483
 2556SOL    HW119301   4.162   2.926   9.541 -1.4488  2.4453 -0.3649
 2556SOL    HW219302   4.128   2.917   9.396  1.0150 -1.6245 -0.6058
 2557SOL     OW19303   2.790   4.615   2.679 -0.0616 -0.0645 -0.1286
 2557SOL    HW119304   2.801   4.549   2.610 -0.7609  1.9416 -2.1455
 2557SOL    HW219305   2.699   4.641   2.666 -0.7910 -1.4634  2.0555
 2558SOL     OW19306   2.389   3.315   8.480 -0.0061  0.3221  0.3086
 2558SOL    HW119307   2.437   3.279   8.555 -0.3724 -1.1607 -0.1534
 2558SOL    HW219308   2.397   3.409   8.496 -1.1069  0.5729 -0.6613
 2559SOL     OW19309   3.943   1.173  14.990  0.0040 -0.6073 -0.2632
 2559SOL    HW119310   3.981   1.089  14.962 -1.4188 -0.9626 -1.1414
 2559SOL    HW219311   3.854   1.144  15.009  0.8853 -2.6955  0.7563
 2560SOL     OW19312   3.685   0.388   7.120  0.3363 -0.0938  0.0685
 2560SOL    HW119313   3.739   0.352   7.050 -1.7939 -1.3152 -0.9452
 2560SOL    HW219314   3.727   0.342   7.193 -0.7411  1.3104  1.5674
 2561SOL     OW19315   3.616   4.399  15.876  0.6322  0.2434 -0.2360
 2561SOL    HW119316   3.662   4.472  15.835 -0.2331  0.2801 -1.1513
 2561SOL    HW219317   3.618   4.349  15.794 -1.0139  0.3112 -0.3344
 2562SOL     OW19318   0.682   0.810   8.817 -0.2919  0.2457 -0.2608
 2562SOL    HW119319   0.730   0.885   8.783 -0.0394  1.1372  2.0820
 2562SOL    HW219320   0.668   0.843   8.906  2.9332  1.7572 -0.3361
 2563SOL     OW19321   1.768   3.696   8.927  0.6467  0.1654  0.0418
 2563SOL    HW119322   1.705   3.678   8.997  0.5542 -3.3943 -0.9272
 2563SOL    HW219323   1.716   3.730   8.854 -0.2734  1.3995  1.2660
 2564SOL     OW19324   1.427   0.445   3.625  0.3878  0.1759 -0.5856
 2564SOL    HW119325   1.442   0.372   3.685  1.9948 -0.7027 -2.0443
 2564SOL    HW219326   1.515   0.481   3.633 -0.5772  2.8441 -1.9346
 2565SOL     OW19327   2.789   1.260   6.310  0.1293 -0.5519 -0.2514
 2565SOL    HW119328   2.790   1.167   6.286  0.4244 -0.7971  0.6946
 2565SOL    HW219329   2.762   1.248   6.401  0.9462 -1.4672 -0.1259
 2566SOL     OW19330   1.234   3.106  10.661  0.4301  0.5012 -0.4435
 2566SOL    HW119331   1.274   3.120  10.748  0.1624  1.3513 -0.4514
 2566SOL    HW219332   1.269   3.172  10.601 -0.6697  2.3368  0.8967
 2567SOL     OW19333   3.015   0.100  15.634  0.1516  0.3041  0.0045
 2567SOL    HW119334   3.025   0.116  15.540  1.2523  1.1437  0.2602
 2567SOL    HW219335   2.955   0.026  15.633 -0.3641  0.6654  2.7221
 2568SOL     OW19336   4.612   2.083   3.019 -0.1205 -0.1383 -0.0573
 2568SOL    HW119337   4.528   2.117   3.049 -0.0466  0.6019 -0.7083
 2568SOL    HW219338   4.589   1.990   3.031  0.9161 -0.2440  1.1985
 2569SOL     OW19339   3.183   3.430  10.386  0.3551 -0.3945 -0.0243
 2569SOL    HW119340   3.101   3.417  10.433  1.1668 -0.1874  1.4367
 2569SOL    HW219341   3.235   3.399  10.460 -0.7311 -0.9255  0.5089
 2570SOL     OW19342   2.220   1.152   0.617 -0.7343 -0.5190 -0.4850
 2570SOL    HW119343   2.194   1.096   0.690 -0.0751  0.2791  0.3706
 2570SOL    HW219344   2.156   1.222   0.622 -0.2345 -0.1624  0.8803
 2571SOL     OW19345   2.303   2.829   5.705  0.5563 -0.0274 -0.5289
 2571SOL    HW119346   2.388   2.868   5.726 -0.0358 -0.1311  2.0349
 2571SOL    HW219347   2.246   2.906   5.710  2.0057  1.0521 -0.5283
 2572SOL     OW19348   2.161   1.943   2.302 -0.3121  0.0604 -0.4940
 2572SOL    HW119349   2.082   1.903   2.267 -0.1964 -0.7597  0.1800
 2572SOL    HW219350   2.177   1.992   2.222 -0.9820  0.5643 -0.3209
 2573SOL     OW19351   2.606   3.481  11.611  0.3853  0.1474 -0.1965
 2573SOL    HW119352   2.610   3.573  11.638  1.1093 -0.0598  0.4185
 2573SOL    HW219353   2.600   3.495  11.517 -2.7831 -2.5598 -0.3825
 2574SOL     OW19354   2.149   3.211   4.074  0.0258 -0.2241  0.0307
 2574SOL    HW119355   2.132   3.176   4.162  2.1889 -0.4687  0.3410
 2574SOL    HW219356   2.066   3.188   4.031  0.1633  0.5059 -0.6203
 2575SOL     OW19357   1.998   2.886   2.759  0.0276 -0.7831 -0.2179
 2575SOL    HW119358   2.052   2.897   2.837 -0.8792 -0.7033  0.3876
 2575SOL    HW219359   1.910   2.918   2.779  0.2131 -0.8802  0.7459
 2576SOL     OW19360   2.764   0.998   0.645  0.6575  0.0772  0.0848
 2576SOL    HW119361   2.729   0.994   0.734  4.2397  0.5166  1.4887
 2576SOL    HW219362   2.693   0.958   0.595  3.2039 -0.4573 -3.0558
 2577SOL     OW19363   4.202   4.330  14.421  0.2303 -0.1786 -0.1643
 2577SOL    HW119364   4.171   4.419  14.405  0.4337  0.0235  0.5616
 2577SOL    HW219365   4.275   4.353  14.479  0.2088 -1.9998  0.5895
 2578SOL     OW19366   3.679   3.745  11.859 -0.0941  0.3249  0.7036
 2578SOL    HW119367   3.732   3.696  11.797  0.5821  0.5929  1.0662
 2578SOL    HW219368   3.654   3.679  11.923 -1.1689 -0.0294 -0.0814
 2579SOL     OW19369   4.611   4.159  13.724 -0.7415  0.3717 -0.5185
 2579SOL    HW119370   4.531   4.205  13.701 -0.4736  0.3688 -1.4802
 2579SOL    HW219371   4.649   4.209  13.796  1.3168 -0.2987 -1.1291
 2580SOL     OW19372   1.426   0.450   5.145  0.9639  0.0061 -0.0485
 2580SOL    HW119373   1.502   0.479   5.095  0.7661 -0.1314 -0.4292
 2580SOL    HW219374   1.362   0.436   5.075  1.2858 -1.0278 -0.1404
 2581SOL     OW19375   1.142   0.015   7.303  0.4028  0.5478  0.2093
 2581SOL    HW119376   1.124   0.103   7.271  0.8096  0.5255 -0.0762
 2581SOL    HW219377   1.076   4.705   7.254 -0.2437  0.3893  1.2347
 2582SOL     OW19378   0.694   3.245   9.333 -0.3039 -0.5632 -1.1582
 2582SOL    HW119379   0.623   3.292   9.377  1.2024 -0.9354  1.6970
 2582SOL    HW219380   0.642   3.186   9.279 -1.8048  1.5190 -1.9819
 2583SOL     OW19381   0.814   2.005   6.707 -0.2634 -0.2510 -0.4582
 2583SOL    HW119382   0.747   2.057   6.663 -0.3558  0.8655  1.0291
 2583SOL    HW219383   0.891   2.059   6.691  1.3355 -2.5497 -0.6529
 2584SOL     OW19384   3.377   4.466  14.957  0.5310 -0.8226 -0.5381
 2584SOL    HW119385   3.340   4.548  14.990 -0.8798 -1.6769 -0.0208
 2584SOL    HW219386   3.453   4.464  15.016  0.1372  2.0586  0.0601
 2585SOL     OW19387   0.289   3.833  13.001 -0.5448 -0.0528  0.1550
 2585SOL    HW119388   0.276   3.911  13.055 -1.2852 -0.8430  1.1164
 2585SOL    HW219389   0.382   3.843  12.983 -0.6421  1.0353  0.2881
 2586SOL     OW19390   2.140   1.244   2.502 -0.2411 -0.3727 -0.5214
 2586SOL    HW119391   2.206   1.233   2.571  0.2474  0.0050 -0.9326
 2586SOL    HW219392   2.149   1.158   2.460  2.9521  0.6603 -1.9052
 2587SOL     OW19393   1.609   4.737  12.080 -0.4921  0.2218  0.7231
 2587SOL    HW119394   1.617   0.017  12.174 -0.4512 -1.0472  0.9750
 2587SOL    HW219395   1.595   0.087  12.047 -2.2793 -0.1100  0.5841
 2588SOL     OW19396   2.306   2.977   6.014 -0.2691  0.4316  0.0949
 2588SOL    HW119397   2.383   2.927   5.988  0.2599  2.6399 -2.5984
 2588SOL    HW219398   2.263   3.000   5.931 -2.6996  0.2630  1.2997
 2589SOL     OW19399   3.240   1.443  14.218  0.1857 -0.2641  0.2192
 2589SOL    HW119400   3.324   1.471  14.181  0.0926 -0.9416 -0.5050
 2589SOL    HW219401   3.262   1.399  14.300  0.4542  1.7007  1.1964
 2590SOL     OW19402   0.992   0.700   2.873 -0.5294  0.1149 -0.1264
 2590SOL    HW119403   0.972   0.675   2.963 -0.8861  0.7192 -0.0380
 2590SOL    HW219404   1.084   0.681   2.856 -0.2710  0.6240  0.7103
 2591SOL     OW19405   0.004   0.144   4.812  0.2042 -0.2389  0.1138
 2591SOL    HW119406   4.700   0.200   4.747  1.0514 -1.2856 -1.3641
 2591SOL    HW219407   4.714   0.193   4.888  3.1187  2.0665 -0.2296
 2592SOL     OW19408   2.757   2.924  11.115 -0.0285 -0.1525  0.1793
 2592SOL    HW119409   2.667   2.949  11.091 -0.2226  1.2187  2.3452
 2592SOL    HW219410   2.759   2.835  11.079  3.9394  0.5768 -1.3716
 2593SOL     OW19411   3.298   3.841  16.994  0.7944 -0.1849  1.0050
 2593SOL    HW119412   3.237   3.770  17.013  0.9549 -0.7287 -0.5489
 2593SOL    HW219413   3.328   3.818  16.906 -2.5430 -0.6083 -0.0178
 2594SOL     OW19414   2.598   2.273   5.864  1.1789  1.2664 -0.0349
 2594SOL    HW119415   2.562   2.184   5.854  1.7584  1.3522 -2.8942
 2594SOL    HW219416   2.579   2.299   5.954 -1.6701  0.0835 -0.2695
 2595SOL     OW19417   2.718   0.257   2.095 -0.3431  0.2368  0.6123
 2595SOL    HW119418   2.790   0.304   2.054  0.0949  1.0735  2.3493
 2595SOL    HW219419   2.698   0.186   2.034 -1.4460  1.0102  0.0682
 2596SOL     OW19420   2.781   2.182   6.279  0.0941  0.4107 -0.0100
 2596SOL    HW119421   2.728   2.108   6.308  0.2959  0.8886  1.6258
 2596SOL    HW219422   2.790   2.165   6.186 -0.7130  0.3674 -0.0767
 2597SOL     OW19423   2.173   2.334   2.383 -0.2382  0.1344  0.0086
 2597SOL    HW119424   2.223   2.268   2.432  0.9833 -0.9387 -2.6693
 2597SOL    HW219425   2.238   2.405   2.389 -0.1880  0.1855 -1.0870
 2598SOL     OW19426   2.407   0.926   5.575 -0.1951  0.3444 -0.0869
 2598SOL    HW119427   2.390   0.866   5.647  1.8510  2.2364  1.9262
 2598SOL    HW219428   2.463   0.992   5.613  1.1803 -0.0857 -1.3427
 2599SOL     OW19429   1.615   1.307  16.693  1.0087 -0.3331 -0.4543
 2599SOL    HW119430   1.575   1.384  16.653  2.7565  0.0949 -1.3795
 2599SOL    HW219431   1.639   1.352  16.774  1.9140 -1.8336  0.1077
 2600SOL     OW19432   2.634   4.361   4.615  0.0237 -0.5089  0.5229
 2600SOL    HW119433   2.723   4.393   4.632  0.0772 -0.8411  0.8830
 2600SOL    HW219434   2.648   4.267   4.632  0.3924 -0.2056  1.8680
 2601SOL     OW19435   3.739   0.052  14.321  0.4818  0.2920 -0.0055
 2601SOL    HW119436   3.776   0.139  14.308 -0.1600  0.8078  1.6539
 2601SOL    HW219437   3.733   0.015  14.232 -1.6641  1.2866 -0.2849
 2602SOL     OW19438   2.021   1.741   2.102  0.4791  0.1035  0.2630
 2602SOL    HW119439   1.970   1.694   2.169 -1.7400  0.7621 -0.9595
 2602SOL    HW219440   1.956   1.742   2.032 -0.0591  1.9714  0.7828
 2603SOL     OW19441   1.534   4.332   3.555 -0.2143 -0.9462 -0.5558
 2603SOL    HW119442   1.606   4.291   3.506 -0.5056 -4.5322  1.9957
 2603SOL    HW219443   1.541   4.295   3.643  0.3909  1.0878  0.2531
 2604SOL     OW19444   1.935   0.699  16.804  0.8214  0.1331 -0.5937
 2604SOL    HW119445   2.006   0.721  16.743 -1.2996  0.2399 -3.0188
 2604SOL    HW219446   1.911   0.617  16.762  1.6819 -0.0289 -0.7689
 2605SOL     OW19447   1.081   1.671   5.179  0.3363  0.0270  0.6196
 2605SOL    HW119448   1.163   1.722   5.180 -0.6830  1.6589  0.5636
 2605SOL    HW219449   1.110   1.582   5.159  1.4705  0.3633  0.7277
 2606SOL     OW19450   0.551   1.184   9.369  0.1700  0.1782  0.4162
 2606SOL    HW119451   0.644   1.187   9.347 -0.3670  1.0988 -1.7015
 2606SOL    HW219452   0.545   1.188   9.464 -1.2124 -1.5301  0.4187
 2607SOL     OW19453   3.072   2.657   2.443  1.3271 -0.0734  0.2367
 2607SOL    HW119454   3.129   2.707   2.502  3.3451  0.0937 -1.8981
 2607SOL    HW219455   3.041   2.589   2.503  1.4950 -0.7842 -0.4898
 2608SOL     OW19456   0.311   0.341  14.276  0.3249 -0.0114 -0.1901
 2608SOL    HW119457   0.333   0.417  14.224  0.1452 -0.1667 -0.4939
 2608SOL    HW219458   0.217   0.353  14.292  0.2664 -0.3362 -0.2762
 2609SOL     OW19459   2.378   0.196   7.696 -0.5802  0.1058 -0.6391
 2609SOL    HW119460   2.305   0.145   7.661 -1.3229 -1.0807  2.6489
 2609SOL    HW219461   2.386   0.152   7.780 -0.2942  0.9789 -0.2165
 2610SOL     OW19462   2.505   0.812   9.064  0.2420 -0.2775  0.0777
 2610SOL    HW119463   2.592   0.801   9.102  0.6482  0.6843 -0.5931
 2610SOL    HW219464   2.453   0.741   9.102  0.2757 -0.5238 -0.3369
 2611SOL     OW19465   0.808   0.747   3.269  0.1678  0.5080 -0.2238
 2611SOL    HW119466   0.847   0.667   3.233  0.5472  0.9147 -0.7060
 2611SOL    HW219467   0.717   0.723   3.287 -0.4893  3.7509  0.7474
 2612SOL     OW19468   2.804   2.930   2.747  0.3575 -0.0816  0.5615
 2612SOL    HW119469   2.823   2.836   2.749 -0.4492 -0.2388  0.9688
 2612SOL    HW219470   2.715   2.935   2.784  0.7003 -0.9366  1.4957
 2613SOL     OW19471   4.324   4.700   4.909 -0.0186 -0.0566 -0.7146
 2613SOL    HW119472   4.276   4.654   4.840  1.4358 -2.6462 -0.0135
 2613SOL    HW219473   4.374   0.026   4.859 -0.9548  1.8704  0.8744
 2614SOL     OW19474   0.784   4.224   2.210 -0.2604  0.5138 -0.0945
 2614SOL    HW119475   0.826   4.267   2.136 -1.1298 -1.3086 -1.6520
 2614SOL    HW219476   0.798   4.132   2.186 -3.3239  0.4890 -1.8191
 2615SOL     OW19477   0.778   1.636   4.683  0.7800 -0.2306  0.6820
 2615SOL    HW119478   0.813   1.584   4.611  1.6064 -0.6618  1.3894
 2615SOL    HW219479   0.746   1.569   4.743 -1.6434  1.1346  0.8982
 2616SOL     OW19480   1.537   3.965   8.225 -0.3670  0.0123  0.0840
 2616SOL    HW119481   1.578   3.907   8.290  0.5765  2.4362  1.6342
 2616SOL    HW219482   1.478   3.901   8.186 -0.1622 -0.3618  0.3784
 2617SOL     OW19483   0.366   3.584  13.077  0.3810  0.4107  0.1524
 2617SOL    HW119484   0.354   3.679  13.068  1.7174  0.6625  0.9600
 2617SOL    HW219485   0.296   3.559  13.138  0.8399 -0.7617  0.1975
 2618SOL     OW19486   4.244   2.040   0.257  0.3310 -0.2606  0.1044
 2618SOL    HW119487   4.174   2.093   0.219 -1.4491 -2.2322  0.6534
 2618SOL    HW219488   4.224   1.956   0.215 -0.0262 -0.9628  1.7047
 2619SOL     OW19489   0.471   0.354  14.493 -0.0471 -0.1334 -0.4044
 2619SOL    HW119490   0.401   0.332  14.431 -0.4835  0.6890 -0.2152
 2619SOL    HW219491   0.419   0.410  14.551  0.3169 -1.6736  1.3835
 2620SOL     OW19492   4.611   3.490   0.291  0.1733 -0.0136  0.3012
 2620SOL    HW119493   4.645   3.400   0.290  1.8225  0.6221  0.8542
 2620SOL    HW219494   4.662   3.530   0.221  0.7688 -2.0806 -0.4577
 2621SOL     OW19495   0.590   3.717  15.136 -0.5576 -0.0370 -0.7727
 2621SOL    HW119496   0.531   3.709  15.061  0.7417  1.1111 -1.9024
 2621SOL    HW219497   0.598   3.626  15.164  0.8156  0.4676  0.4466
 2622SOL     OW19498   2.804   4.428  11.369 -0.9620 -0.3453 -0.2097
 2622SOL    HW119499   2.836   4.356  11.314  0.4360 -0.9421  1.3988
 2622SOL    HW219500   2.862   4.413  11.443 -1.3601 -0.5689  0.0595
 2623SOL     OW19501   0.519   3.014  16.343  0.0797 -0.4826  0.0023
 2623SOL    HW119502   0.525   3.081  16.411  1.2257  1.1273 -1.6781
 2623SOL    HW219503   0.436   2.969  16.358  0.1661 -1.3583 -2.2021
 2624SOL     OW19504   2.082   0.030   4.548  0.7217  0.7024 -0.3383
 2624SOL    HW119505   2.148   4.721   4.497 -0.0359 -1.1516  0.4306
 2624SOL    HW219506   2.112   0.119   4.533 -0.6539  0.6665 -3.4235
 2625SOL     OW19507   0.510   1.651   2.177 -0.0682  0.5456  0.6295
 2625SOL    HW119508   0.561   1.700   2.112  0.3389  0.1366  0.6442
 2625SOL    HW219509   0.576   1.632   2.244 -0.3848  1.1427  1.1065
 2626SOL     OW19510   3.973   4.049  13.645 -0.2520 -0.2208  0.0503
 2626SOL    HW119511   4.011   3.962  13.631 -2.7468 -1.5849  1.8231
 2626SOL    HW219512   3.949   4.072  13.556 -1.6136  0.2066  0.5329
 2627SOL     OW19513   3.719   2.869   4.550 -0.1724 -0.3130 -0.3613
 2627SOL    HW119514   3.681   2.810   4.485 -1.6014  1.4715 -1.1256
 2627SOL    HW219515   3.647   2.918   4.590  0.1245  1.0030 -1.4730
 2628SOL     OW19516   1.062   1.356   5.920 -0.0852 -0.2347 -0.0615
 2628SOL    HW119517   1.111   1.309   5.853  0.6923  2.5835 -1.4994
 2628SOL    HW219518   1.113   1.437   5.929  2.4463 -1.6642 -1.6850
 2629SOL     OW19519   4.459   4.412  17.340  0.3984  0.0224  0.1976
 2629SOL    HW119520   4.550   4.444  17.343 -0.5884  2.6477  1.8805
 2629SOL    HW219521   4.454   4.459  17.257  2.2336  0.8728  0.5488
 2630SOL     OW19522   2.202   0.401   6.223  0.4112  0.4842 -0.3697
 2630SOL    HW119523   2.154   0.380   6.143 -0.2256  1.7323 -0.3150
 2630SOL    HW219524   2.189   0.494   6.240  0.5734  0.3696  0.3685
 2631SOL     OW19525   0.822   1.208   4.635 -0.1822 -0.4672  0.3675
 2631SOL    HW119526   0.831   1.184   4.543  2.0598 -0.0380  0.4691
 2631SOL    HW219527   0.891   1.272   4.651  1.6562 -2.5022  0.6205
 2632SOL     OW19528   1.798   2.233   6.641 -0.0866 -0.2161  0.0907
 2632SOL    HW119529   1.712   2.264   6.669 -0.0737  1.6158 -1.9511
 2632SOL    HW219530   1.828   2.193   6.723 -1.9159  1.0847  1.3992
 2633SOL     OW19531   4.548   1.429   8.911  0.1744 -0.5229  0.2011
 2633SOL    HW119532   4.456   1.450   8.930  0.1489 -0.4881  0.0372
 2633SOL    HW219533   4.575   1.503   8.857 -1.3166 -0.3659 -0.3450
 2634SOL     OW19534   4.531   1.624   2.070 -0.9590 -1.1066 -0.0511
 2634SOL    HW119535   4.624   1.628   2.046 -0.9415 -1.4468 -0.0305
 2634SOL    HW219536   4.495   1.710   2.048  1.3389  0.0745  0.8348
 2635SOL     OW19537   1.837   3.660   4.965  1.6213  0.2114  0.0947
 2635SOL    HW119538   1.895   3.590   4.936  0.2924  0.0031 -2.0943
 2635SOL    HW219539   1.854   3.723   4.894  0.2133  0.1727 -0.2824
 2636SOL     OW19540   3.660   1.926   3.778 -0.3029  0.5121  0.3628
 2636SOL    HW119541   3.699   2.000   3.823 -1.4063  0.7578  0.9075
 2636SOL    HW219542   3.625   1.878   3.854 -1.8643 -0.0702 -0.7103
 2637SOL     OW19543   0.308   1.284   4.441 -0.2270 -0.5385  0.0691
 2637SOL    HW119544   0.302   1.378   4.425 -1.4083 -0.3459  1.6783
 2637SOL    HW219545   0.263   1.251   4.363 -1.9881  0.6410  0.5832
 2638SOL     OW19546   0.523   2.237   9.635 -0.0470  0.0073 -0.0757
 2638SOL    HW119547   0.532   2.165   9.697  0.8000  2.1217  2.2700
 2638SOL    HW219548   0.437   2.214   9.601  0.2197 -0.2780 -0.5713
 2639SOL     OW19549   3.228   2.920   3.087  0.3364  0.0175 -0.1573
 2639SOL    HW119550   3.286   2.959   3.153 -0.9339 -0.3657  1.2036
 2639SOL    HW219551   3.179   2.860   3.144 -0.3652  1.2932  0.5862
 2640SOL     OW19552   0.541   3.324  14.354  0.4169  0.0031 -0.1392
 2640SOL    HW119553   0.496   3.316  14.270 -0.8921 -2.9898  0.8276
 2640SOL    HW219554   0.626   3.284  14.335  0.4266 -0.3956  0.7139
 2641SOL     OW19555   1.698   1.141  12.663 -0.2272  0.2068 -0.0128
 2641SOL    HW119556   1.671   1.231  12.644  0.3164  0.4134  0.2199
 2641SOL    HW219557   1.624   1.094  12.623  0.5014 -0.1500 -0.9394
 2642SOL     OW19558   0.359   2.111   3.354  0.1087  0.0515  0.0870
 2642SOL    HW119559   0.374   2.200   3.321 -3.2003  0.0561 -1.4581
 2642SOL    HW219560   0.314   2.061   3.286 -0.3295 -1.9597  1.8591
 2643SOL     OW19561   0.538   3.980   0.523 -0.1610 -0.7810  0.3057
 2643SOL    HW119562   0.576   4.027   0.449 -1.8585 -1.1866 -0.8171
 2643SOL    HW219563   0.448   4.011   0.530  0.4522  0.7285  1.4920
 2644SOL     OW19564   3.156   1.889  15.551  0.5864  0.1752 -0.0068
 2644SOL    HW119565   3.123   1.965  15.503 -2.1639 -0.7572  0.4237
 2644SOL    HW219566   3.250   1.897  15.532  0.6994 -1.3824 -0.1189
 2645SOL     OW19567   3.413   2.678   2.877  0.2423  0.0482 -0.3056
 2645SOL    HW119568   3.468   2.690   2.954  0.1344 -2.1565  0.0994
 2645SOL    HW219569   3.469   2.622   2.823 -2.7723 -2.2238 -1.0277
 2646SOL     OW19570   3.909   4.107   3.436 -0.5720  0.3466 -0.2363
 2646SOL    HW119571   3.991   4.063   3.411  0.3269  0.8081  1.9442
 2646SOL    HW219572   3.941   4.151   3.515 -2.5687 -0.1608  0.8517
 2647SOL     OW19573   4.687   3.014   7.222 -0.1190 -0.0180 -0.2558
 2647SOL    HW119574   4.718   2.952   7.289 -0.6697 -0.6669 -0.5935
 2647SOL    HW219575   4.723   3.093   7.262  1.8027 -1.8988  1.7954
 2648SOL     OW19576   4.586   1.863   7.500  0.1000  0.7975  0.0436
 2648SOL    HW119577   4.556   1.804   7.431  0.6947  2.6306 -1.7792
 2648SOL    HW219578   4.540   1.941   7.468 -0.3246  0.9094  0.9289
 2649SOL     OW19579   2.944   4.125   0.112  0.0465  0.2753 -0.0914
 2649SOL    HW119580   2.918   4.097   0.024  1.9769  1.6893 -1.1119
 2649SOL    HW219581   3.026   4.086   0.141 -0.7618 -1.0235  0.4554
 2650SOL     OW19582   3.491   3.138  15.927  0.0434 -0.3493  0.0419
 2650SOL    HW119583   3.491   3.127  16.022  1.3689  2.8833  0.4396
 2650SOL    HW219584   3.438   3.218  15.927  0.2394 -0.2158  3.1283
 2651SOL     OW19585   1.972   2.999   8.236 -0.0189  0.4207  0.6510
 2651SOL    HW119586   1.893   3.032   8.279  0.0755  0.2433  0.9601
 2651SOL    HW219587   1.994   3.073   8.178 -1.9530 -1.4303 -2.4489
 2652SOL     OW19588   2.874   0.996   8.028 -0.2881  0.3146 -0.1890
 2652SOL    HW119589   2.925   0.917   8.049  1.3706  0.8882 -2.0614
 2652SOL    HW219590   2.933   1.055   8.075 -0.8706 -0.4197  1.4888
 2653SOL     OW19591   1.550   2.513  13.621  0.0275  0.0365  0.2512
 2653SOL    HW119592   1.522   2.601  13.644 -1.6935 -0.6223  0.6470
 2653SOL    HW219593   1.613   2.482  13.687  0.3713 -0.4505 -0.3036
 2654SOL     OW19594   2.518   0.601   7.148  0.5234 -0.0168  0.2050
 2654SOL    HW119595   2.444   0.613   7.208  0.2429  1.0184 -0.3388
 2654SOL    HW219596   2.508   0.677   7.090  0.6466 -0.7895 -0.8184
 2655SOL     OW19597   1.097   1.130  14.814 -0.5982  0.0405 -0.0114
 2655SOL    HW119598   1.161   1.197  14.788 -0.7485 -0.1300 -0.8278
 2655SOL    HW219599   1.044   1.119  14.735 -0.6897  2.0548 -0.2474
 2656SOL     OW19600   1.757   4.249   3.351 -0.0152  0.4191  0.6419
 2656SOL    HW119601   1.784   4.159   3.371  1.8068  1.0373  0.9526
 2656SOL    HW219602   1.738   4.250   3.258  0.3281 -1.5097  0.5527
 2657SOL     OW19603   2.733   0.494   6.894  0.2413 -0.9357 -0.2584
 2657SOL    HW119604   2.778   0.495   6.978 -0.3313  1.5548  0.0178
 2657SOL    HW219605   2.696   0.583   6.896  1.1338 -0.6487  2.4755
 2658SOL     OW19606   2.099   0.528   2.844 -0.3984 -1.0600  0.4237
 2658SOL    HW119607   2.094   0.617   2.879 -0.5271 -0.0018 -2.2562
 2658SOL    HW219608   2.183   0.531   2.798 -0.2537 -1.4520  0.6594
 2659SOL     OW19609   0.269   3.523  16.981  0.4795 -0.0549 -0.2456
 2659SOL    HW119610   0.247   3.582  16.908 -2.0850 -0.1009  0.4743
 2659SOL    HW219611   0.184   3.534  17.023 -0.5106 -2.0724 -1.7324
 2660SOL     OW19612   1.894   0.666   3.512  0.1853  0.2814 -0.2634
 2660SOL    HW119613   1.936   0.745   3.479 -0.1155  0.8705  0.7797
 2660SOL    HW219614   1.846   0.644   3.432 -0.0500  1.9109 -0.5549
 2661SOL     OW19615   1.384   3.428  13.446 -0.0086  0.6086 -0.0986
 2661SOL    HW119616   1.425   3.424  13.360 -0.5923  1.2311 -0.4056
 2661SOL    HW219617   1.369   3.334  13.455  1.4742  0.2920 -0.7702
 2662SOL     OW19618   3.366   1.610   0.078 -0.2762 -0.1053 -0.1929
 2662SOL    HW119619   3.411   1.582   0.158 -1.6930  2.4796  1.5193
 2662SOL    HW219620   3.309   1.537   0.053 -0.9132  0.5790 -0.7501
 2663SOL     OW19621   1.062   0.710   6.155 -0.5508  0.6284 -0.4948
 2663SOL    HW119622   0.983   0.657   6.156 -0.2128  0.1839  2.6849
 2663SOL    HW219623   1.035   0.780   6.096 -0.0372 -1.3727 -3.0989
 2664SOL     OW19624   0.107   1.429  17.494  0.1898  0.2382 -0.5033
 2664SOL    HW119625   0.158   1.365  17.444 -1.8409  0.7993 -3.2897
 2664SOL    HW219626   0.042   1.369  17.528  0.9675  0.1779  0.8716
 2665SOL     OW19627   0.459   2.594   3.950  0.4478  0.3852 -0.4433
 2665SOL    HW119628   0.487   2.663   3.889  0.3973  1.7164  1.0331
 2665SOL    HW219629   0.368   2.591   3.923  0.5327 -1.0573 -0.5530
 2666SOL     OW19630   1.506   1.704   9.058 -0.0709 -0.5843 -0.8852
 2666SOL    HW119631   1.416   1.712   9.090  0.1832  0.1573 -0.3548
 2666SOL    HW219632   1.544   1.769   9.116  1.0851 -0.9144 -1.2841
 2667SOL     OW19633   0.305   2.092   4.291  0.2726 -0.1042  0.5065
 2667SOL    HW119634   0.330   2.000   4.303 -1.7702 -0.6825  0.3598
 2667SOL    HW219635   0.354   2.110   4.211  0.4879 -2.2154  0.1656
 2668SOL     OW19636   4.646   1.433   5.983 -0.1541  0.4742  0.1571
 2668SOL    HW119637   4.691   1.418   5.899  0.2269 -0.2636  0.4931
 2668SOL    HW219638   4.647   1.529   5.979  2.9812  0.4848  2.2288
 2669SOL     OW19639   2.690   2.761   7.796 -0.0680 -0.6450  0.2770
 2669SOL    HW119640   2.748   2.685   7.800 -2.3082 -2.3554  0.2999
 2669SOL    HW219641   2.716   2.802   7.713 -0.5488  0.8311  0.8657
 2670SOL     OW19642   3.991   4.328   8.436 -0.5000 -0.0796  0.4442
 2670SOL    HW119643   3.962   4.415   8.410 -1.7266 -0.3973  0.7467
 2670SOL    HW219644   3.988   4.325   8.532  1.0850 -1.6338  0.4495
 2671SOL     OW19645   2.740   0.391   5.247  0.2928  0.7373  0.1939
 2671SOL    HW119646   2.774   0.477   5.224  0.0946  0.7347 -0.1102
 2671SOL    HW219647   2.783   0.337   5.181 -0.4172  0.9071 -0.4079
 2672SOL     OW19648   1.723   1.145   4.308  0.7916  0.6632 -0.7063
 2672SOL    HW119649   1.762   1.228   4.279 -2.5488  2.1918 -0.8671
 2672SOL    HW219650   1.631   1.167   4.325  0.7716  0.0048 -0.0012
 2673SOL     OW19651   2.480   0.883   1.283  0.4643  0.2260  0.1091
 2673SOL    HW119652   2.470   0.973   1.312  2.8429 -0.4826  3.1407
 2673SOL    HW219653   2.521   0.886   1.196 -0.8204 -0.7283 -0.5276
 2674SOL     OW19654   3.868   0.923   7.387  0.1080  0.5810 -0.0284
 2674SOL    HW119655   3.789   0.869   7.378  0.9853 -0.3883 -1.8267
 2674SOL    HW219656   3.932   0.873   7.336  0.3274  0.3459  0.4754
 2675SOL     OW19657   1.599   0.433  17.437  0.1356  0.2038 -0.6221
 2675SOL    HW119658   1.596   0.452  17.344 -1.2652  0.2000 -0.5769
 2675SOL    HW219659   1.522   0.461  17.486  0.9645 -0.6157  1.1484
 2676SOL     OW19660   0.117   2.728  12.584  0.1711 -0.3592 -0.5355
 2676SOL    HW119661   0.104   2.659  12.649 -0.4478 -0.1358 -0.4248
 2676SOL    HW219662   0.031   2.765  12.602 -0.2212 -1.7565  0.4660
 2677SOL     OW19663   3.514   4.062  13.049 -0.1520  0.4309  0.2742
 2677SOL    HW119664   3.520   3.972  13.080  0.4797  0.2505 -0.3540
 2677SOL    HW219665   3.437   4.093  13.095  0.5055  0.5098  1.3316
 2678SOL     OW19666   3.307   1.374   8.706  0.1170 -0.1471 -0.1670
 2678SOL    HW119667   3.391   1.342   8.671  0.0518 -3.8022  3.0121
 2678SOL    HW219668   3.274   1.308   8.766 -0.1290  0.9735  0.9149
 2679SOL     OW19669   0.132   4.587  15.734  0.8252 -0.1915  0.2926
 2679SOL    HW119670   0.162   4.512  15.784 -0.6475 -1.6344 -0.9839
 2679SOL    HW219671   0.140   4.561  15.642  0.2575 -1.2562  0.5426
 2680SOL     OW19672   3.619   4.438   5.077  0.3262  0.2613 -0.3571
 2680SOL    HW119673   3.633   4.464   4.986  0.2566 -1.2544 -0.8026
 2680SOL    HW219674   3.626   4.343   5.068  1.3682  0.1452  1.8196
 2681SOL     OW19675   2.016   0.841   2.146  0.4539  0.3621 -0.0192
 2681SOL    HW119676   2.057   0.790   2.076 -1.7654 -2.5808  0.8803
 2681SOL    HW219677   2.071   0.920   2.154 -1.3403  1.5509  0.6410
 2682SOL     OW19678   1.449   3.545  14.256 -0.3209  0.1053  0.5462
 2682SOL    HW119679   1.370   3.538  14.309 -1.0659  1.4481 -0.4023
 2682SOL    HW219680   1.510   3.588  14.316 -0.2169  1.5771 -0.6130
 2683SOL     OW19681   3.953   1.830   6.550 -0.8125  0.2198  0.0608
 2683SOL    HW119682   4.010   1.801   6.478  1.8804 -0.6503  2.5592
 2683SOL    HW219683   3.948   1.748   6.599 -0.7726  0.1600 -0.0343
 2684SOL     OW19684   4.253   0.266   2.049 -0.2783 -0.6650  0.0652
 2684SOL    HW119685   4.234   0.179   2.014 -0.0876 -0.4212 -0.6500
 2684SOL    HW219686   4.341   0.279   2.013 -0.6371 -0.2516 -0.6708
 2685SOL     OW19687   0.952   0.151   9.572  0.2715 -0.2002 -0.0546
 2685SOL    HW119688   1.044   0.136   9.597  0.2342  0.2928  0.3786
 2685SOL    HW219689   0.928   0.230   9.621 -2.2597  0.7227 -2.7913
 2686SOL     OW19690   2.837   4.233   2.918  0.0873 -0.1532 -0.1887
 2686SOL    HW119691   2.861   4.326   2.913  0.8840 -0.4383 -1.5435
 2686SOL    HW219692   2.916   4.184   2.943  0.6824  0.7455 -0.2968
 2687SOL     OW19693   2.092   1.382  10.559 -0.1043  0.2320 -0.1960
 2687SOL    HW119694   2.136   1.300  10.583  0.7737 -0.0675 -2.9058
 2687SOL    HW219695   2.048   1.361  10.478  1.8416  0.4452 -1.3174
 2688SOL     OW19696   2.581   1.332  11.841 -0.0869 -0.5325  0.3224
 2688SOL    HW119697   2.572   1.373  11.927  0.4577 -0.6825  0.4532
 2688SOL    HW219698   2.676   1.339  11.838 -0.2507 -0.2672 -4.2255
 2689SOL     OW19699   0.304   1.724   7.753 -0.0422  0.3643  0.4721
 2689SOL    HW119700   0.259   1.646   7.784 -1.3368  1.6308  1.7700
 2689SOL    HW219701   0.375   1.690   7.699 -2.1176  0.4765 -2.3787
 2690SOL     OW19702   0.518   2.445  17.619  0.1182 -0.1656 -0.3280
 2690SOL    HW119703   0.566   2.362  17.613  2.2700  0.9203  1.4526
 2690SOL    HW219704   0.514   2.476  17.529  0.6626  1.6534  0.2725
 2691SOL     OW19705   4.660   1.087   6.834 -0.4256  0.0782  0.0597
 2691SOL    HW119706   0.000   1.132   6.863  1.3370 -2.1799 -1.2149
 2691SOL    HW219707   4.633   1.133   6.755  0.1087  0.7157  0.2453
 2692SOL     OW19708   1.293   4.206   7.866 -0.1263  0.2864 -0.1336
 2692SOL    HW119709   1.273   4.291   7.905 -0.4514 -0.8557  2.2280
 2692SOL    HW219710   1.244   4.209   7.784 -0.0776 -1.3387 -0.2114
 2693SOL     OW19711   2.632   3.470   2.077 -0.1008 -0.4661  0.4537
 2693SOL    HW119712   2.564   3.489   2.013  2.4982  2.8826 -1.2992
 2693SOL    HW219713   2.576   3.475   2.155 -0.4796 -1.3121  0.2369
 2694SOL     OW19714   4.249   3.338   3.526  0.0092 -0.5988 -0.7047
 2694SOL    HW119715   4.237   3.248   3.495 -0.5014 -0.5350 -0.6858
 2694SOL    HW219716   4.161   3.373   3.511  0.7282  0.3013 -2.8118
 2695SOL     OW19717   1.239   3.652   7.910 -0.0764 -0.8333  0.6171
 2695SOL    HW119718   1.291   3.698   7.975 -0.0744 -1.5053  1.1004
 2695SOL    HW219719   1.289   3.660   7.829 -2.4108  2.4614 -0.4977
 2696SOL     OW19720   1.310   3.894   4.480 -0.3317 -0.1679  0.1443
 2696SOL    HW119721   1.285   3.910   4.571  0.5300 -0.9702  0.5173
 2696SOL    HW219722   1.319   3.799   4.475  2.2761  0.1278 -0.7282
 2697SOL     OW19723   0.427   2.737  15.119  0.7549 -0.1851 -0.0067
 2697SOL    HW119724   0.502   2.680  15.102  0.9750  0.0561  0.1512
 2697SOL    HW219725   0.441   2.781  15.203 -0.7420 -0.5635  0.4402
 2698SOL     OW19726   0.182   4.189   6.404  0.4334 -0.0333  0.5722
 2698SOL    HW119727   0.144   4.152   6.484  2.3450 -0.5004  1.2603
 2698SOL    HW219728   0.107   4.245   6.386  0.2427  0.0355  1.5478
 2699SOL     OW19729   0.288   4.272  17.750 -0.5484  0.1149  0.4682
 2699SOL    HW119730   0.267   4.235   0.081  0.1534 -1.3916 -0.0151
 2699SOL    HW219731   0.274   4.367   0.003  0.9690  0.2017  2.0067
 2700SOL     OW19732   2.622   1.478   4.365  0.0620 -0.3735 -0.2938
 2700SOL    HW119733   2.652   1.469   4.455 -0.6414 -3.0068 -0.3430
 2700SOL    HW219734   2.529   1.460   4.374  0.1495 -0.0213  1.3667
 2701SOL     OW19735   0.352   3.032   2.372  0.0207 -0.4995  0.0566
 2701SOL    HW119736   0.276   3.091   2.367 -0.0999 -0.6971 -0.3891
 2701SOL    HW219737   0.380   3.053   2.462  1.6148 -0.8526 -0.3689
 2702SOL     OW19738   4.326   4.036   3.833 -0.7850 -0.1151  0.4534
 2702SOL    HW119739   4.287   3.998   3.912 -0.7623  1.3538  1.1760
 2702SOL    HW219740   4.383   3.966   3.800  0.8138 -0.4524  3.9211
 2703SOL     OW19741   3.309   4.186   6.842  0.1833 -0.0372 -0.0757
 2703SOL    HW119742   3.242   4.252   6.862  0.3951 -0.5059  2.1453
 2703SOL    HW219743   3.253   4.110   6.831 -0.1961  0.5033 -1.8783
 2704SOL     OW19744   1.888   4.287   4.420  0.0821  0.0001 -0.1818
 2704SOL    HW119745   1.834   4.249   4.351 -0.9955  1.1218  0.0444
 2704SOL    HW219746   1.825   4.303   4.490 -0.1389 -0.3059 -0.3103
 2705SOL     OW19747   2.759   3.825   5.472  0.0826  0.0429 -0.1742
 2705SOL    HW119748   2.849   3.855   5.462  0.0144  0.4956  0.6111
 2705SOL    HW219749   2.723   3.893   5.415 -0.3677 -2.0010 -2.3428
 2706SOL     OW19750   0.867   2.024  10.624  0.6442  0.0296  0.0445
 2706SOL    HW119751   0.921   1.959  10.579 -2.2489 -2.0751 -0.4193
 2706SOL    HW219752   0.880   1.991  10.713  1.2770  1.7257  0.5793
 2707SOL     OW19753   3.225   3.475   2.556 -0.2948 -0.3007  0.2595
 2707SOL    HW119754   3.230   3.415   2.631  2.9614  0.3087  0.5243
 2707SOL    HW219755   3.132   3.465   2.533  0.6298 -0.1540 -3.5170
 2708SOL     OW19756   1.085   0.064   1.520  0.4800  0.0323 -0.1594
 2708SOL    HW119757   1.109   0.031   1.607  0.9766  2.0573  0.4849
 2708SOL    HW219758   1.095   4.720   1.474 -1.4434  0.5766 -1.5869
 2709SOL     OW19759   3.748   0.067   8.896 -0.3809 -0.5734  0.2839
 2709SOL    HW119760   3.826   0.100   8.853 -1.3396  0.3173 -0.7733
 2709SOL    HW219761   3.754   0.107   8.983 -0.0966  0.5374 -0.2469
 2710SOL     OW19762   2.430   1.025   7.771 -0.1753 -0.1476 -0.7321
 2710SOL    HW119763   2.526   1.027   7.772 -0.1446 -2.9501  1.7847
 2710SOL    HW219764   2.430   1.040   7.866 -0.0205 -3.1617 -0.2589
 2711SOL     OW19765   4.252   0.966   7.425  0.3489 -0.8561 -0.0145
 2711SOL    HW119766   4.207   0.914   7.359 -0.9169 -0.0215  0.1928
 2711SOL    HW219767   4.329   0.990   7.373 -0.3108  0.1834 -0.5101
 2712SOL     OW19768   2.678   1.896   7.950  0.4262  0.4524  0.4028
 2712SOL    HW119769   2.660   1.815   7.902  0.2651  0.8557 -0.2259
 2712SOL    HW219770   2.754   1.933   7.905  0.1654 -1.7362 -1.8866
 2713SOL     OW19771   2.809   1.264   0.935  0.3317 -0.2416  0.4885
 2713SOL    HW119772   2.827   1.357   0.948 -2.4948  0.0557  2.2748
 2713SOL    HW219773   2.725   1.269   0.889  0.6386 -2.5787 -0.2946
 2714SOL     OW19774   3.749   4.721  17.003  0.3192  0.3854 -0.0916
 2714SOL    HW119775   3.731   4.636  16.961 -0.1711 -0.9888  2.8604
 2714SOL    HW219776   3.785   0.020  16.924 -0.1132  0.6763 -0.1475
 2715SOL     OW19777   0.604   3.822  16.258  0.1033  0.1609 -0.2836
 2715SOL    HW119778   0.649   3.857  16.335 -1.3272  0.8315  0.2429
 2715SOL    HW219779   0.537   3.888  16.245  0.6358  0.3852 -1.8121
 2716SOL     OW19780   3.593   2.022   5.313 -0.2484 -0.2152  0.0690
 2716SOL    HW119781   3.668   2.076   5.337  0.8336 -1.7626  0.1514
 2716SOL    HW219782   3.615   2.014   5.220  1.5368 -2.0683  0.6544
 2717SOL     OW19783   3.838   1.477   9.372 -0.0410  0.4641 -0.4272
 2717SOL    HW119784   3.882   1.555   9.341  1.0552 -0.1617 -0.4518
 2717SOL    HW219785   3.917   1.426   9.393 -1.3308 -1.8915 -1.2406
 2718SOL     OW19786   1.527   1.192   7.662 -0.6282  0.3248  0.3462
 2718SOL    HW119787   1.467   1.118   7.662  0.0706 -0.2648 -1.8049
 2718SOL    HW219788   1.580   1.179   7.741 -1.3682  1.0713  0.9628
 2719SOL     OW19789   3.387   0.962   3.885  0.0429 -0.3767  0.3401
 2719SOL    HW119790   3.318   1.006   3.933 -0.0510 -1.6466  1.3643
 2719SOL    HW219791   3.401   0.882   3.936 -2.8886 -2.0407 -1.4617
 2720SOL     OW19792   0.766   1.959   2.533 -0.1433 -0.4562  0.2897
 2720SOL    HW119793   0.683   1.994   2.567  0.5982  0.6173  1.0216
 2720SOL    HW219794   0.820   2.037   2.550  1.2100 -1.4885  0.6906
 2721SOL     OW19795   0.300   1.141   8.645  0.5514 -0.1934 -0.4472
 2721SOL    HW119796   0.285   1.134   8.551  2.0292  0.3185 -0.7202
 2721SOL    HW219797   0.371   1.205   8.654  0.7616 -0.6712  1.2697
 2722SOL     OW19798   0.075   0.178   2.990 -0.1138 -0.0721 -0.4537
 2722SOL    HW119799   0.004   0.118   2.967 -0.2601 -0.7649  1.7398
 2722SOL    HW219800   0.075   0.169   3.086 -0.9503 -1.9385 -0.6257
 2723SOL     OW19801   3.198   3.825   4.228 -0.0791  0.8450  0.3890
 2723SOL    HW119802   3.192   3.731   4.216  0.4725  0.8447  0.0741
 2723SOL    HW219803   3.130   3.867   4.175 -0.6128 -1.5175 -0.8049
 2724SOL     OW19804   3.692   3.485  15.756 -0.0799 -0.1073 -0.2167
 2724SOL    HW119805   3.641   3.522  15.827 -0.0320  0.3186 -0.4025
 2724SOL    HW219806   3.777   3.518  15.785 -0.7078  0.7976  0.5631
 2725SOL     OW19807   2.461   2.343   5.303 -0.2041  0.2737 -0.1314
 2725SOL    HW119808   2.430   2.432   5.321  0.2709  0.0639  1.8261
 2725SOL    HW219809   2.388   2.296   5.343  1.2901 -0.7218  1.4804
 2726SOL     OW19810   0.390   2.254   4.709  0.4937  0.0515  0.0778
 2726SOL    HW119811   0.440   2.173   4.714  0.0722 -0.1752  0.7377
 2726SOL    HW219812   0.440   2.309   4.649  2.1220 -0.0301  1.3558
 2727SOL     OW19813   1.680   1.182   6.889 -0.1851 -0.3951 -0.1850
 2727SOL    HW119814   1.757   1.129   6.911 -1.2338 -1.4070  1.0684
 2727SOL    HW219815   1.634   1.123   6.829  0.1809  1.2300 -2.0734
 2728SOL     OW19816   2.332   1.884  14.014  0.5423  0.0190 -0.1200
 2728SOL    HW119817   2.364   1.816  13.955  0.4682 -0.5414  0.4803
 2728SOL    HW219818   2.325   1.954  13.949  0.3681 -1.1786 -1.3771
 2729SOL     OW19819   0.184   2.358   7.455 -0.3185 -0.3543  0.2510
 2729SOL    HW119820   0.169   2.336   7.547 -3.5754 -2.3792 -0.7715
 2729SOL    HW219821   0.129   2.294   7.410 -1.5076  1.6997 -1.2149
 2730SOL     OW19822   2.871   1.645   1.165 -0.2276  0.4886 -0.2156
 2730SOL    HW119823   2.881   1.596   1.083  1.0785  3.6797 -1.9324
 2730SOL    HW219824   2.793   1.603   1.203  1.8045 -1.5039  1.8124
 2731SOL     OW19825   3.517   2.833   9.563  0.3455 -0.0446 -0.4282
 2731SOL    HW119826   3.551   2.868   9.481  1.1132 -1.9540 -0.9335
 2731SOL    HW219827   3.592   2.780   9.591 -0.0055 -0.2962  0.0232
 2732SOL     OW19828   1.544   3.512   8.113  0.2883 -0.1941 -0.1036
 2732SOL    HW119829   1.559   3.573   8.041 -1.6815 -0.3140 -0.6416
 2732SOL    HW219830   1.449   3.517   8.126 -0.0072 -2.6726 -1.1974
 2733SOL     OW19831   2.839   3.740  16.177 -0.5128  0.1040 -0.1692
 2733SOL    HW119832   2.749   3.707  16.183 -0.1591 -1.0773 -1.3031
 2733SOL    HW219833   2.823   3.827  16.139 -2.0371 -1.3006 -2.7242
 2734SOL     OW19834   4.215   0.103   5.905 -0.0579 -0.1485 -0.3328
 2734SOL    HW119835   4.142   0.087   5.964 -0.1369  0.3530 -0.2900
 2734SOL    HW219836   4.281   0.053   5.952 -0.7309 -1.2298 -0.5368
 2735SOL     OW19837   0.619   0.323   2.355 -0.0180  0.6287  0.0584
 2735SOL    HW119838   0.706   0.310   2.391 -0.3972  0.4856  0.9231
 2735SOL    HW219839   0.577   0.361   2.432 -0.2921 -1.0469  0.7451
 2736SOL     OW19840   1.383   3.279  14.651 -0.5048  0.0294 -0.1623
 2736SOL    HW119841   1.418   3.203  14.698  0.5992 -0.2506 -1.4043
 2736SOL    HW219842   1.374   3.248  14.560  0.7115 -1.9805  0.3975
 2737SOL     OW19843   2.191   3.697   8.917  0.2485  0.1473 -0.7261
 2737SOL    HW119844   2.122   3.692   8.984  1.6225 -0.2666  0.6750
 2737SOL    HW219845   2.136   3.666   8.845  2.2849  0.1145 -2.2668
 2738SOL     OW19846   3.434   0.842   2.063 -1.0653 -1.0009 -0.1559
 2738SOL    HW119847   3.467   0.838   2.153 -1.9087  0.2774  0.2122
 2738SOL    HW219848   3.437   0.935   2.041 -3.2158 -0.6486  1.0048
 2739SOL     OW19849   0.169   1.544   4.479  0.0655  0.0135  0.1926
 2739SOL    HW119850   0.263   1.560   4.488  0.0640 -0.4814  1.1770
 2739SOL    HW219851   0.122   1.624   4.502  0.2217 -0.5018  2.3931
 2740SOL     OW19852   0.417   3.440   5.619 -0.5044 -0.0546  0.0157
 2740SOL    HW119853   0.470   3.364   5.641 -1.8357 -1.9715 -3.5636
 2740SOL    HW219854   0.458   3.506   5.676 -1.7918  0.3849  0.4544
 2741SOL     OW19855   3.893   0.698   5.147 -0.3100  0.2268  0.0515
 2741SOL    HW119856   3.940   0.775   5.180 -1.3393  0.8460  0.0868
 2741SOL    HW219857   3.922   0.685   5.057  1.6530  0.6182  0.6370
 2742SOL     OW19858   3.148   0.915  12.262 -0.0958  0.2060  0.1832
 2742SOL    HW119859   3.120   0.839  12.211  3.4602 -0.5789 -0.5784
 2742SOL    HW219860   3.062   0.944  12.293 -1.5807 -1.0538 -2.8230
 2743SOL     OW19861   3.207   3.582   7.090  0.2464 -0.2691  0.2760
 2743SOL    HW119862   3.300   3.584   7.066  0.4276  1.7543  1.1968
 2743SOL    HW219863   3.209   3.636   7.169 -0.0836  1.6953 -1.0689
 2744SOL     OW19864   0.190   3.618   4.004  0.7107  0.5674  0.2598
 2744SOL    HW119865   0.183   3.696   3.949  1.9264  0.9365  0.6306
 2744SOL    HW219866   0.187   3.546   3.941  0.3468 -0.7291  1.7667
 2745SOL     OW19867   4.367   3.112  14.048  0.4032  0.0077 -0.0243
 2745SOL    HW119868   4.387   3.123  13.955  0.1631 -1.9166 -0.3140
 2745SOL    HW219869   4.303   3.182  14.053 -0.7467 -1.1225  1.0930
 2746SOL     OW19870   3.310   3.371  10.605 -0.3479  0.2931 -0.1440
 2746SOL    HW119871   3.370   3.441  10.628 -0.5933  0.1692  0.8787
 2746SOL    HW219872   3.274   3.357  10.692 -1.1708 -0.0405 -0.5324
 2747SOL     OW19873   1.649   1.650   2.989  0.6328  0.1168 -0.4724
 2747SOL    HW119874   1.683   1.623   2.903  1.1505 -1.9198  0.3508
 2747SOL    HW219875   1.720   1.646   3.053  0.4276 -0.9789 -0.3029
 2748SOL     OW19876   4.561   1.996   5.941  0.4450  0.0605  0.5598
 2748SOL    HW119877   4.632   1.957   5.890 -2.1931 -2.0706 -1.4662
 2748SOL    HW219878   4.595   1.979   6.029  0.0519  0.4063  0.7804
 2749SOL     OW19879   4.359   4.586   5.800 -0.1663  0.8157  0.2787
 2749SOL    HW119880   4.444   4.627   5.784  0.5668 -0.4453  0.9464
 2749SOL    HW219881   4.384   4.494   5.789 -1.1141  0.8419 -2.1622
 2750SOL     OW19882   3.057   2.608   8.548 -0.1820  0.4759  0.0511
 2750SOL    HW119883   3.077   2.688   8.596  1.8623 -1.9534  3.1954
 2750SOL    HW219884   3.060   2.632   8.455  2.0742 -0.8072 -0.1921
 2751SOL     OW19885   0.553   1.639   2.677 -0.2518  0.3464  0.2532
 2751SOL    HW119886   0.473   1.677   2.712 -0.6766  1.2054 -1.6760
 2751SOL    HW219887   0.618   1.647   2.748 -2.1831 -0.7883  2.1529
 2752SOL     OW19888   0.521   2.426   7.576 -0.3926  0.6745 -0.4544
 2752SOL    HW119889   0.607   2.444   7.538 -0.5505  3.0286  0.3356
 2752SOL    HW219890   0.485   2.513   7.593 -0.3798  0.6702 -0.4031
 2753SOL     OW19891   4.666   0.357   2.766 -0.6719 -0.1296 -0.3063
 2753SOL    HW119892   4.626   0.368   2.852 -1.8342 -2.2824 -0.5891
 2753SOL    HW219893   0.015   0.326   2.785 -0.9019 -0.8391 -0.4110
 2754SOL     OW19894   2.665   4.123   3.363  0.0823 -0.1972  0.3044
 2754SOL    HW119895   2.683   4.091   3.451 -1.9363 -1.8405  0.1029
 2754SOL    HW219896   2.738   4.185   3.352  1.0426 -1.6421 -1.4481
 2755SOL     OW19897   2.203   0.257   1.438 -0.8963  0.3562 -0.1138
 2755SOL    HW119898   2.274   0.226   1.495 -1.4158 -0.4237  0.1134
 2755SOL    HW219899   2.124   0.232   1.486  0.6421 -0.9741  1.7445
 2756SOL     OW19900   3.601   2.133   1.878  0.6078 -0.4018 -0.3610
 2756SOL    HW119901   3.653   2.055   1.895 -0.2236 -0.4480  2.0252
 2756SOL    HW219902   3.552   2.118   1.959  2.6310 -0.2964  0.8692
 2757SOL     OW19903   1.758   3.314   1.229  0.2386 -0.4389 -0.2841
 2757SOL    HW119904   1.779   3.390   1.175  1.4740 -2.3186 -2.4367
 2757SOL    HW219905   1.812   3.339   1.304 -1.7593  1.7897  0.3937
 2758SOL     OW19906   0.302   3.874   4.400 -0.0372  0.0441 -0.0562
 2758SOL    HW119907   0.372   3.847   4.459 -0.7119 -0.3191  0.5672
 2758SOL    HW219908   0.356   3.889   4.322  0.6738  2.0744  0.8195
 2759SOL     OW19909   3.767   4.166   7.250 -0.1587  0.4395  0.3854
 2759SOL    HW119910   3.746   4.076   7.274  0.2980  0.2653  0.1399
 2759SOL    HW219911   3.822   4.157   7.172 -0.7112  0.5088 -0.0067
 2760SOL     OW19912   1.503   2.137  17.111  0.0114 -0.7572  0.0396
 2760SOL    HW119913   1.438   2.195  17.072 -0.9303 -0.7061  1.6956
 2760SOL    HW219914   1.547   2.093  17.038  1.5708 -0.2180  0.6449
 2761SOL     OW19915   1.334   0.263   7.959  0.5347 -0.0061 -0.0568
 2761SOL    HW119916   1.280   0.325   8.008 -0.5738 -0.5296 -0.6197
 2761SOL    HW219917   1.419   0.254   8.004  0.1922  2.6524  1.1014
 2762SOL     OW19918   2.377   3.816  17.245  0.0761  0.4035  0.0035
 2762SOL    HW119919   2.422   3.901  17.240  1.8976 -0.4943  0.9128
 2762SOL    HW219920   2.439   3.789  17.313 -0.2253 -2.3277 -0.8338
 2763SOL     OW19921   3.881   4.639  15.030  0.0547 -0.1872  0.2510
 2763SOL    HW119922   3.799   4.663  15.073 -0.8642 -1.5013 -0.7780
 2763SOL    HW219923   3.840   4.581  14.967 -0.0193  0.5341 -0.3636
 2764SOL     OW19924   2.133   1.155   9.376  0.2152 -0.1102  0.1642
 2764SOL    HW119925   2.188   1.107   9.313  2.3486  0.3308  1.6781
 2764SOL    HW219926   2.181   1.137   9.457 -1.9442  0.5204  1.5727
 2765SOL     OW19927   0.408   0.895  16.314  0.2211 -0.2774 -0.1264
 2765SOL    HW119928   0.314   0.876  16.316  0.3451 -0.9682 -0.6105
 2765SOL    HW219929   0.420   0.947  16.234  0.5177  0.8802  0.6733
 2766SOL     OW19930   4.347   1.827   8.951 -0.0198  0.2926  0.4043
 2766SOL    HW119931   4.288   1.859   9.019 -0.3168  0.7062 -0.0367
 2766SOL    HW219932   4.310   1.741   8.934  2.4956 -0.5573 -0.7702
 2767SOL     OW19933   1.512   2.803   4.667 -0.0091 -0.6411  0.3779
 2767SOL    HW119934   1.455   2.820   4.593  0.3660  1.3497  0.5629
 2767SOL    HW219935   1.538   2.893   4.687  0.2402 -0.7891  0.7300
 2768SOL     OW19936   1.321   3.680  11.281  0.0213 -0.1021  0.0761
 2768SOL    HW119937   1.326   3.769  11.314 -2.7221  1.0722 -2.5902
 2768SOL    HW219938   1.394   3.635  11.323  0.5822  0.4208 -0.3381
 2769SOL     OW19939   2.330   2.899   4.040  0.2168  0.3806  0.3754
 2769SOL    HW119940   2.361   2.959   4.108  0.2446  1.2573 -0.4077
 2769SOL    HW219941   2.364   2.949   3.966 -0.3575 -1.1947 -0.9603
 2770SOL     OW19942   2.638   1.523   2.399 -0.1153 -0.6083  0.3004
 2770SOL    HW119943   2.718   1.476   2.421  0.8794  1.8354  1.8944
 2770SOL    HW219944   2.662   1.609   2.433 -1.5661  0.7350 -2.0816
 2771SOL     OW19945   3.498   1.038  14.524  0.2382  0.0887 -0.8516
 2771SOL    HW119946   3.417   0.988  14.518  1.2415 -1.6479  0.0632
 2771SOL    HW219947   3.557   0.986  14.578 -0.7701 -1.2955 -1.0808
 2772SOL     OW19948   3.254   3.651   8.040  0.2168 -0.1691 -0.0823
 2772SOL    HW119949   3.247   3.626   7.948 -0.8217 -1.9443  0.4669
 2772SOL    HW219950   3.284   3.741   8.029  0.6152 -0.3049 -0.1212
 2773SOL     OW19951   1.403   0.134   6.746  0.4083  0.0514 -0.0240
 2773SOL    HW119952   1.457   0.169   6.817  1.0329 -1.2514  0.1367
 2773SOL    HW219953   1.366   0.214   6.710  1.8545  1.9174  2.6472
 2774SOL     OW19954   3.490   4.402  15.226  0.0272 -0.6726 -0.0915
 2774SOL    HW119955   3.515   4.409  15.318  0.7686  0.7040 -0.3987
 2774SOL    HW219956   3.407   4.354  15.227 -1.4538  1.8496 -0.4917
 2775SOL     OW19957   2.250   4.686   5.738  0.2915 -0.2891  0.1015
 2775SOL    HW119958   2.299   4.641   5.669 -4.1136 -2.6320 -1.5622
 2775SOL    HW219959   2.198   4.738   5.677 -1.4621 -0.6675  1.2729
 2776SOL     OW19960   0.007   2.137   8.961  0.0540  0.3233 -0.3597
 2776SOL    HW119961   4.665   2.117   8.914 -1.9326  0.4635  2.9759
 2776SOL    HW219962   0.001   2.232   8.969 -0.0872  0.1941  1.2625
 2777SOL     OW19963   0.943   2.987   8.255 -0.3235  0.2406 -0.3856
 2777SOL    HW119964   0.964   2.990   8.349  1.8079  0.1203 -0.8394
 2777SOL    HW219965   0.913   2.897   8.247 -0.2937  0.3692 -1.8736
 2778SOL     OW19966   4.453   2.350   2.288 -0.0053  0.0069  0.1587
 2778SOL    HW119967   4.414   2.411   2.226 -1.9946 -0.4688  0.9333
 2778SOL    HW219968   4.431   2.270   2.240  0.6221  0.7977 -1.4458
 2779SOL     OW19969   3.135   2.673  16.975  0.5412  0.2621  0.3135
 2779SOL    HW119970   3.201   2.605  16.964  0.5502 -0.0898  2.6383
 2779SOL    HW219971   3.159   2.710  17.059 -0.2699 -0.6097  0.9235
 2780SOL     OW19972   3.506   1.705   3.892 -0.2814  0.5668 -0.4369
 2780SOL    HW119973   3.462   1.633   3.848 -0.2667 -0.8188  1.8044
 2780SOL    HW219974   3.438   1.738   3.952  0.0466  0.3586  0.0504
 2781SOL     OW19975   0.536   2.673  12.088 -0.7093  0.6111  0.3863
 2781SOL    HW119976   0.542   2.757  12.133  0.4782 -0.1619  1.7111
 2781SOL    HW219977   0.544   2.702  11.998  2.4377 -0.0064  0.4805
 2782SOL     OW19978   0.698   0.931  13.873  0.1093  0.2606 -0.9517
 2782SOL    HW119979   0.780   0.883  13.884 -0.0068  0.4473  0.7103
 2782SOL    HW219980   0.735   1.018  13.860 -1.8269  1.2623  0.2409
 2783SOL     OW19981   3.080   3.723   7.576 -0.0303  0.6476  0.2023
 2783SOL    HW119982   3.144   3.655   7.595 -1.6784 -0.3470  2.3428
 2783SOL    HW219983   3.113   3.805   7.611 -0.2241  1.5585 -1.7820
 2784SOL     OW19984   1.900   1.419  10.342 -0.6036 -0.6275 -0.4583
 2784SOL    HW119985   1.902   1.511  10.316 -1.1345  0.2200  2.5580
 2784SOL    HW219986   1.827   1.420  10.404 -0.6054 -0.9612 -0.4517
 2785SOL     OW19987   1.848   3.156   8.758  0.6166  0.4105  0.2299
 2785SOL    HW119988   1.915   3.101   8.718 -0.8589  0.1173 -1.8187
 2785SOL    HW219989   1.821   3.208   8.682 -0.6559 -1.9410 -0.9107
 2786SOL     OW19990   3.096   2.801  13.115  0.0915  0.6287 -0.0081
 2786SOL    HW119991   3.189   2.783  13.134  1.0615  2.5408 -3.0341
 2786SOL    HW219992   3.059   2.788  13.202  0.0242 -0.5810 -0.2129
 2787SOL     OW19993   0.149   1.126   1.847  0.3931 -0.2173  0.1403
 2787SOL    HW119994   0.165   1.208   1.801 -1.1249  0.9882  1.7723
 2787SOL    HW219995   0.230   1.075   1.851  0.1724 -0.7037 -1.6592
 2788SOL     OW19996   0.085   3.793   1.697  0.9774 -0.2897  0.7251
 2788SOL    HW119997   0.046   3.758   1.617  0.8998  0.4807  0.4274
 2788SOL    HW219998   0.177   3.810   1.675  0.8534 -0.5870  0.0033
 2789SOL     OW19999   4.071   1.373   2.686 -0.1925 -0.0309  0.2999
 2789SOL    HW120000   4.101   1.306   2.749  2.5660  1.5250  0.6332
 2789SOL    HW220001   4.135   1.362   2.616 -0.1513 -0.4575  0.4028
 2790SOL     OW20002   2.772   4.366   4.195 -0.1006 -0.3416 -0.3914
 2790SOL    HW120003   2.795   4.458   4.211  2.7740 -0.7621 -2.2293
 2790SOL    HW220004   2.853   4.319   4.214  0.1979  0.1451 -0.4546
 2791SOL     OW20005   0.354   4.555   8.704 -0.4161 -0.4825  0.1766
 2791SOL    HW120006   0.339   4.596   8.619 -2.2287 -0.7469  0.3579
 2791SOL    HW220007   0.274   4.507   8.727 -0.2921  0.0178  1.6770
 2792SOL     OW20008   3.624   0.137  13.191 -0.3070 -0.0702  0.4870
 2792SOL    HW120009   3.638   0.137  13.285 -2.3869 -0.0236  0.7797
 2792SOL    HW220010   3.694   0.074  13.170  1.0054  0.8902  1.9980
 2793SOL     OW20011   1.228   3.470   4.593 -0.4111 -0.1352 -0.4972
 2793SOL    HW120012   1.212   3.433   4.680 -0.8849 -0.4857 -0.7367
 2793SOL    HW220013   1.204   3.562   4.608  2.0065  0.7286 -1.9660
 2794SOL     OW20014   3.570   1.400   6.666 -0.3348  0.4808 -0.2986
 2794SOL    HW120015   3.600   1.313   6.640  2.7549  0.9612  1.6032
 2794SOL    HW220016   3.566   1.394   6.762  1.3352 -0.7693 -0.3030
 2795SOL     OW20017   3.804   2.799   6.806 -0.5732 -0.1164 -0.1182
 2795SOL    HW120018   3.712   2.826   6.797 -0.6247 -0.0166  0.6896
 2795SOL    HW220019   3.825   2.740   6.733  0.0409 -2.3386  1.8814
 2796SOL     OW20020   0.879   1.181   7.055  0.7012 -0.5276 -0.0950
 2796SOL    HW120021   0.944   1.148   7.117  0.2943 -2.2860 -0.5978
 2796SOL    HW220022   0.941   1.206   6.986  0.7943 -1.7592 -0.4522
 2797SOL     OW20023   3.008   2.476  12.227  0.1931  0.4877  0.6812
 2797SOL    HW120024   2.949   2.481  12.302 -0.7477 -0.1039 -0.0238
 2797SOL    HW220025   2.950   2.433  12.164 -0.3052  1.8748  0.1859
 2798SOL     OW20026   1.676   3.452   5.263  0.1849  0.1093  0.5639
 2798SOL    HW120027   1.722   3.391   5.206  0.4219  0.7773  0.0414
 2798SOL    HW220028   1.733   3.529   5.266  1.1805 -0.7574  3.7336
 2799SOL     OW20029   0.057   1.668  16.735  0.7124 -0.2905  0.0910
 2799SOL    HW120030   0.030   1.632  16.651  2.4166  1.2615 -1.1084
 2799SOL    HW220031   0.011   1.612  16.798  2.3087  1.5026  2.8737
 2800SOL     OW20032   4.164   1.668   2.726  0.4706 -0.1082  0.6716
 2800SOL    HW120033   4.143   1.576   2.740 -2.5520 -0.0329 -3.2020
 2800SOL    HW220034   4.162   1.709   2.812 -1.1586  1.2899 -0.0092
 2801SOL     OW20035   0.828   2.039   7.857 -0.4839  0.4682 -0.5495
 2801SOL    HW120036   0.757   2.002   7.805 -1.2683  1.0751  0.0913
 2801SOL    HW220037   0.856   1.962   7.907 -1.8377  1.3785  1.6255
 2802SOL     OW20038   4.562   1.701   8.295  0.1178 -0.0639  0.3979
 2802SOL    HW120039   4.653   1.727   8.296  0.6340 -1.8206  0.0120
 2802SOL    HW220040   4.572   1.606   8.287  0.1366  0.1925 -2.5209
 2803SOL     OW20041   3.338   3.669   3.349  0.0012  1.0504  0.1558
 2803SOL    HW120042   3.430   3.689   3.329 -0.4722  0.9845 -2.1482
 2803SOL    HW220043   3.329   3.693   3.441  1.4085 -1.1586  0.8750
 2804SOL     OW20044   3.070   0.004   8.549  0.4748  0.4919  0.3701
 2804SOL    HW120045   3.004   4.690   8.592  2.5190 -1.2560  1.2923
 2804SOL    HW220046   3.134   0.009   8.620  1.2792 -2.1140 -0.1732
 2805SOL     OW20047   1.206   4.549   8.477 -0.6697  0.3628 -0.3310
 2805SOL    HW120048   1.290   4.594   8.469  0.7580 -2.3887 -0.8396
 2805SOL    HW220049   1.155   4.598   8.413  1.5957  1.3155 -1.3857
 2806SOL     OW20050   0.718   2.699   2.729  0.0310  0.6087  0.4592
 2806SOL    HW120051   0.734   2.661   2.816 -0.1392  1.7796  1.0035
 2806SOL    HW220052   0.649   2.649   2.686  0.0072 -0.0532  1.2607
 2807SOL     OW20053   2.381   1.222   6.550  0.0346 -0.3266  0.4382
 2807SOL    HW120054   2.458   1.278   6.556  0.1276 -0.6935  2.9594
 2807SOL    HW220055   2.345   1.230   6.462 -1.1145  1.7178  1.1058
 2808SOL     OW20056   2.486   0.289   8.519  0.0304 -0.8341  0.3519
 2808SOL    HW120057   2.408   0.272   8.466  1.3073 -2.4328 -1.0052
 2808SOL    HW220058   2.494   0.384   8.520  1.9691 -1.0318  2.7139
 2809SOL     OW20059   0.333   3.792   1.639  0.5403 -0.0163 -0.0293
 2809SOL    HW120060   0.405   3.849   1.613  1.1223 -0.9331 -0.4387
 2809SOL    HW220061   0.349   3.709   1.595  1.7814  1.4316 -2.2899
 2810SOL     OW20062   1.995   0.810   0.183 -0.4270 -0.1136 -0.6243
 2810SOL    HW120063   1.952   0.731   0.152 -0.9832  0.0120 -0.1677
 2810SOL    HW220064   2.019   0.791   0.274 -1.9798  0.7552 -0.0461
 2811SOL     OW20065   3.573   2.040   1.197  0.5118  0.2249  0.3801
 2811SOL    HW120066   3.490   2.059   1.154  0.2678 -1.1738  0.2103
 2811SOL    HW220067   3.559   1.950   1.228  4.1861 -0.8467 -0.9516
 2812SOL     OW20068   0.730   0.880   5.237  0.4022 -0.0132 -0.0947
 2812SOL    HW120069   0.818   0.851   5.259 -0.0728 -2.0731 -0.9070
 2812SOL    HW220070   0.727   0.871   5.142  0.8787 -0.1519 -0.0983
 2813SOL     OW20071   3.370   0.271   6.409 -0.3251  0.6785  0.3126
 2813SOL    HW120072   3.293   0.326   6.395 -1.4438 -1.2830 -1.3261
 2813SOL    HW220073   3.413   0.330   6.470 -0.5517  0.8204  0.3353
 2814SOL     OW20074   2.955   1.214  14.774 -0.3586  0.4262 -0.1191
 2814SOL    HW120075   2.974   1.294  14.824 -2.1757 -0.6346  2.2783
 2814SOL    HW220076   2.869   1.228  14.734 -0.1216 -1.8451 -1.3654
 2815SOL     OW20077   0.092   2.741  16.320  0.5560 -0.1593  0.2184
 2815SOL    HW120078   0.072   2.657  16.280 -0.1515 -0.3394  0.9634
 2815SOL    HW220079   0.010   2.788  16.309  0.8470 -0.2830 -2.5471
 2816SOL     OW20080   3.283   2.836   3.718  0.8779  0.4296  0.0508
 2816SOL    HW120081   3.376   2.831   3.698  0.3807 -0.9102 -1.9756
 2816SOL    HW220082   3.244   2.749   3.708  1.1726  0.1022  1.8709
 2817SOL     OW20083   4.717   1.020   6.498  0.3978 -0.0006 -0.5753
 2817SOL    HW120084   4.642   1.075   6.520  1.9798  2.3395 -1.0116
 2817SOL    HW220085   4.686   0.962   6.429  2.4424  0.6325 -2.0172
 2818SOL     OW20086   1.434   0.316   2.848  0.7357 -0.0181  0.6311
 2818SOL    HW120087   1.373   0.321   2.774 -1.3437  3.2644  2.5591
 2818SOL    HW220088   1.505   0.366   2.808 -1.8096  0.0830 -3.7388
 2819SOL     OW20089   2.862   0.575   3.138 -0.4121  0.0404  0.7341
 2819SOL    HW120090   2.902   0.490   3.123  0.0295 -0.0337  2.3528
 2819SOL    HW220091   2.779   0.548   3.099 -0.3790  0.6988  0.1909
 2820SOL     OW20092   2.949   1.520   6.805  0.0224  0.0402 -0.0067
 2820SOL    HW120093   2.888   1.491   6.874  1.0138 -0.3237  0.7160
 2820SOL    HW220094   2.970   1.610   6.830  1.4776 -0.6415  1.2346
 2821SOL     OW20095   0.740   3.626   4.907  0.0249  0.1517  0.0141
 2821SOL    HW120096   0.782   3.711   4.905  0.3927 -0.0339 -0.0458
 2821SOL    HW220097   0.818   3.576   4.930  1.7096  1.9650 -1.7425
 2822SOL     OW20098   2.995   0.630   5.979 -0.2505  0.1764  0.0655
 2822SOL    HW120099   3.010   0.595   5.891  1.7745  0.5694  0.2565
 2822SOL    HW220100   2.945   0.557   6.015 -0.6571  0.9395  1.0367
 2823SOL     OW20101   0.161   1.790   5.902  0.1358 -0.1020 -0.0781
 2823SOL    HW120102   0.183   1.817   5.991 -0.0150  1.7890 -0.6202
 2823SOL    HW220103   0.204   1.705   5.900 -1.2508 -0.8064  0.3907
 2824SOL     OW20104   1.385   1.243   1.508  0.1162 -0.4214  0.2713
 2824SOL    HW120105   1.345   1.159   1.532 -1.2712  0.3805  0.7616
 2824SOL    HW220106   1.311   1.290   1.470 -0.5655 -0.2367  1.8174
 2825SOL     OW20107   1.138   3.946  17.365 -0.2271  0.1412 -0.1459
 2825SOL    HW120108   1.141   3.971  17.458 -0.5308 -1.2619  0.2436
 2825SOL    HW220109   1.196   3.870  17.364  1.1134  1.1476  0.0217
 2826SOL     OW20110   2.643   0.597   5.459 -0.2280 -0.1618 -0.0833
 2826SOL    HW120111   2.725   0.634   5.491  0.6762 -1.9302 -0.3180
 2826SOL    HW220112   2.673   0.539   5.389  1.7085  0.5289  0.1812
 2827SOL     OW20113   0.803   1.581   7.713  0.3267 -0.2412  0.1826
 2827SOL    HW120114   0.896   1.570   7.736  0.8036  0.9823 -1.1624
 2827SOL    HW220115   0.808   1.554   7.621 -0.3578  0.9313 -0.1960
 2828SOL     OW20116   0.643   1.849   5.705  0.2311 -0.1598 -0.2063
 2828SOL    HW120117   0.674   1.892   5.626 -2.3519  0.0665 -1.0984
 2828SOL    HW220118   0.579   1.790   5.664 -0.0130  1.0952 -1.6444
 2829SOL     OW20119   3.145   3.117   4.978 -0.2272 -0.1948  0.2194
 2829SOL    HW120120   3.213   3.178   4.949 -0.1622  0.8198  2.4234
 2829SOL    HW220121   3.070   3.177   4.976 -0.1551 -0.0746  1.0810
 2830SOL     OW20122   3.283   1.542   2.638  0.1540 -0.2862 -0.0459
 2830SOL    HW120123   3.355   1.493   2.599  0.6874  2.1895 -2.1682
 2830SOL    HW220124   3.215   1.474   2.642  1.5304 -1.5746  1.9551
 2831SOL     OW20125   3.405   3.634  12.598  0.0271 -0.1002 -0.2383
 2831SOL    HW120126   3.476   3.669  12.651 -2.6931  2.2658  1.8650
 2831SOL    HW220127   3.406   3.543  12.628  1.3454 -0.3231 -0.9626
 2832SOL     OW20128   4.267   2.993   4.928  0.5085  0.5875  0.5039
 2832SOL    HW120129   4.356   2.969   4.905  0.7509  1.7963  0.1715
 2832SOL    HW220130   4.221   2.918   4.890  2.6882  0.5040 -1.8985
 2833SOL     OW20131   2.049   1.192   1.991  0.2674  0.0051  0.5594
 2833SOL    HW120132   2.118   1.126   1.992 -0.5037 -0.7971  1.9556
 2833SOL    HW220133   1.988   1.154   2.055 -0.5988  0.2725 -0.1062
 2834SOL     OW20134   3.736   4.238   9.108 -0.3126 -0.4057  0.1781
 2834SOL    HW120135   3.692   4.156   9.085  0.9100 -1.3828  1.3445
 2834SOL    HW220136   3.676   4.254   9.180 -1.9341  2.4389 -1.8066
 2835SOL     OW20137   2.425   1.178  12.412  0.1749  0.1112  0.2391
 2835SOL    HW120138   2.507   1.227  12.412  0.0005  0.3917  1.1219
 2835SOL    HW220139   2.385   1.233  12.345  1.4375 -1.4454 -1.8070
 2836SOL     OW20140   0.456   3.543   8.578 -0.0400  0.5006  0.1471
 2836SOL    HW120141   0.534   3.501   8.542 -0.2969  0.7320 -0.6998
 2836SOL    HW220142   0.498   3.579   8.656  0.7200  1.1227 -0.5461
 2837SOL     OW20143   0.354   4.408   3.626 -0.3084  0.2703 -0.4052
 2837SOL    HW120144   0.387   4.474   3.686  0.0053  0.3815 -0.6992
 2837SOL    HW220145   0.439   4.372   3.601 -0.9551  0.0523 -2.2854
 2838SOL     OW20146   1.165   0.049   3.443  0.3400 -0.1306  0.2406
 2838SOL    HW120147   1.165   4.739   3.525  0.0311 -1.6104 -0.6621
 2838SOL    HW220148   1.253   0.086   3.447  0.0139  0.8211 -1.5301
 2839SOL     OW20149   0.885   0.358   4.960 -0.1842 -0.4731  0.3161
 2839SOL    HW120150   0.830   0.280   4.967  0.4652 -0.9984 -0.4962
 2839SOL    HW220151   0.957   0.336   5.019 -1.4839 -2.0794  1.3030
 2840SOL     OW20152   1.696   4.523  13.114  0.1233  0.3351 -0.3161
 2840SOL    HW120153   1.618   4.468  13.118  0.0611  0.4101 -0.5327
 2840SOL    HW220154   1.704   4.550  13.023  2.1558 -0.9819 -0.5338
 2841SOL     OW20155   3.409   4.162  11.435 -0.1882 -0.4682 -0.8056
 2841SOL    HW120156   3.468   4.138  11.364 -0.7292 -0.4618 -1.2621
 2841SOL    HW220157   3.381   4.083  11.482  0.7506 -0.3958 -0.1253
 2842SOL     OW20158   3.901   3.526   4.786 -0.1441 -0.2049  0.6724
 2842SOL    HW120159   3.874   3.615   4.764  1.1585  0.3701  1.3699
 2842SOL    HW220160   3.841   3.485   4.724  0.0346  1.4465 -0.5939
 2843SOL     OW20161   2.466   0.025   2.110 -0.8465  0.5661 -0.4001
 2843SOL    HW120162   2.443   4.693   2.051  1.0762 -0.4979  0.1566
 2843SOL    HW220163   2.400   0.086   2.077 -0.3324  1.4644  0.2149
 2844SOL     OW20164   3.077   3.899   5.167  0.0177 -0.0026 -0.8243
 2844SOL    HW120165   3.047   3.986   5.139 -1.6679 -0.5535 -0.6673
 2844SOL    HW220166   3.060   3.838   5.095 -0.5123 -2.3432  1.3088
 2845SOL     OW20167   0.069   0.721   2.264 -0.1300 -1.1181 -0.4738
 2845SOL    HW120168   4.713   0.713   2.252 -0.0888 -1.3614 -0.6508
 2845SOL    HW220169   0.082   0.806   2.305  2.3263 -0.6557 -2.1925
 2846SOL     OW20170   2.764   1.627   7.301 -0.6640  0.1141  0.7385
 2846SOL    HW120171   2.715   1.545   7.309 -2.1877  0.7283 -2.3712
 2846SOL    HW220172   2.831   1.617   7.369  0.9077  1.1498 -0.6547
 2847SOL     OW20173   0.846   0.017   8.647  0.1469 -0.3134 -0.4592
 2847SOL    HW120174   0.901   4.730   8.574  2.0929 -1.2909  1.3842
 2847SOL    HW220175   0.769   4.702   8.626 -0.3010  1.5720 -3.7227
 2848SOL     OW20176   1.502   3.243   2.000  0.2432 -0.3213 -0.5734
 2848SOL    HW120177   1.474   3.152   1.991 -0.8160  0.0105 -0.6736
 2848SOL    HW220178   1.442   3.271   2.069  0.5287  1.6861 -1.1241
 2849SOL     OW20179   2.394   0.673   2.868  0.3592  0.4878  0.2276
 2849SOL    HW120180   2.426   0.680   2.778  0.9945 -2.7760  0.1900
 2849SOL    HW220181   2.379   0.579   2.876 -2.2034  0.7328 -1.7564
 2850SOL     OW20182   0.292   1.753   2.365  0.2802 -0.1527  0.1187
 2850SOL    HW120183   0.264   1.683   2.424  1.1669  0.5637  1.3780
 2850SOL    HW220184   0.383   1.736   2.341  0.5546  2.9003 -1.0689
 2851SOL     OW20185   3.994   2.596   5.085 -0.8805 -0.3578  0.1478
 2851SOL    HW120186   3.989   2.567   4.993  1.7983 -1.3483  0.3000
 2851SOL    HW220187   3.995   2.691   5.082 -0.6364 -0.4057 -1.4107
 2852SOL     OW20188   0.877   1.367   4.125 -0.1328  0.3766 -0.4037
 2852SOL    HW120189   0.949   1.418   4.164  0.5533 -0.4786 -0.5571
 2852SOL    HW220190   0.919   1.288   4.092 -0.7634 -0.2849  0.3700
 2853SOL     OW20191   0.691   2.994   1.100 -0.1062 -0.0898  0.0542
 2853SOL    HW120192   0.610   2.967   1.144  0.3070 -0.5101  0.5554
 2853SOL    HW220193   0.679   2.957   1.013  0.1096 -0.4184  0.1615
 2854SOL     OW20194   2.148   4.716   3.284 -0.1911  0.0682 -0.1379
 2854SOL    HW120195   2.108   4.664   3.353  0.5800 -2.7919 -1.8376
 2854SOL    HW220196   2.230   0.002   3.327  1.0184 -1.7176 -1.4161
 2855SOL     OW20197   3.565   0.683   7.819 -0.8066  0.4927 -0.4493
 2855SOL    HW120198   3.491   0.742   7.801 -0.3936  0.8848 -0.8640
 2855SOL    HW220199   3.605   0.727   7.894  0.9069  1.6830 -2.0466
 2856SOL     OW20200   0.977   4.083   6.416  0.1985 -0.8024  0.1306
 2856SOL    HW120201   1.038   4.018   6.449  2.2897  0.8557 -0.5040
 2856SOL    HW220202   0.953   4.115   6.502  2.2622  0.4586  0.2278
 2857SOL     OW20203   3.756   2.609  10.966  0.1808  0.0150  0.6035
 2857SOL    HW120204   3.819   2.560  10.914 -0.9066 -2.8553  1.9987
 2857SOL    HW220205   3.724   2.546  11.031  1.1256  0.8250  1.8618
 2858SOL     OW20206   2.587   4.169   1.520 -0.3738 -0.0814  0.0901
 2858SOL    HW120207   2.640   4.161   1.599 -0.8112 -2.2206  0.1820
 2858SOL    HW220208   2.505   4.135   1.554 -2.1631  2.2584 -1.9493
 2859SOL     OW20209   3.531   3.588   5.316  0.4239  0.2694 -0.4728
 2859SOL    HW120210   3.520   3.585   5.411 -0.0750  1.5227 -0.4917
 2859SOL    HW220211   3.539   3.496   5.291 -0.7797  0.2969 -0.9515
 2860SOL     OW20212   0.441   2.741  16.105 -1.0117 -0.3004 -0.1375
 2860SOL    HW120213   0.530   2.777  16.101 -1.0146 -0.3655 -0.8568
 2860SOL    HW220214   0.430   2.704  16.017 -2.5765  2.3127 -1.0291
 2861SOL     OW20215   0.758   1.728   3.349  0.0482  0.8623 -0.3919
 2861SOL    HW120216   0.673   1.772   3.346  0.1581  0.8931 -3.3770
 2861SOL    HW220217   0.801   1.773   3.421  0.0489  0.7319 -0.3109
 2862SOL     OW20218   2.836   2.640   3.365  0.2093  0.4396 -0.7008
 2862SOL    HW120219   2.881   2.574   3.313 -0.6710  0.2347 -1.2086
 2862SOL    HW220220   2.755   2.650   3.315 -0.3018  2.0022  0.4328
 2863SOL     OW20221   2.958   3.610   4.213 -0.7091 -1.1138 -0.2430
 2863SOL    HW120222   2.996   3.549   4.277 -2.2768 -0.8605  0.9309
 2863SOL    HW220223   2.954   3.543   4.145  1.5008 -2.8425  1.3368
 2864SOL     OW20224   0.776   2.406   3.658  0.5598 -0.5567 -0.7481
 2864SOL    HW120225   0.728   2.452   3.590 -0.7013  0.5075  0.8600
 2864SOL    HW220226   0.770   2.472   3.727  0.8932 -2.2980  0.9496
 2865SOL     OW20227   2.243   2.013   4.601  0.0096 -0.4917  0.3041
 2865SOL    HW120228   2.193   2.092   4.581  2.9106  0.9273 -1.3890
 2865SOL    HW220229   2.172   1.952   4.619 -0.9988 -0.0024 -2.0422
 2866SOL     OW20230   1.756   1.308   1.505 -0.3073  0.6996  0.0378
 2866SOL    HW120231   1.766   1.389   1.554  1.3113 -0.2103  1.2102
 2866SOL    HW220232   1.830   1.305   1.444  0.6289 -1.5178  1.2886
 2867SOL     OW20233   4.246   0.346  12.358  0.7552 -0.2253  0.4247
 2867SOL    HW120234   4.262   0.436  12.385 -0.5927 -0.2334  1.2772
 2867SOL    HW220235   4.158   0.328  12.390  0.6071  1.0813  0.7415
 2868SOL     OW20236   4.511   3.156   8.486 -0.4556  0.5711 -0.3186
 2868SOL    HW120237   4.565   3.214   8.433  0.2177  1.0970  0.9812
 2868SOL    HW220238   4.429   3.204   8.499 -0.5276  0.2670  0.3285
 2869SOL     OW20239   1.961   3.742   1.527  0.2401 -0.0814 -0.1156
 2869SOL    HW120240   1.898   3.671   1.513 -0.9280  0.6459  1.4040
 2869SOL    HW220241   2.043   3.692   1.527  0.0812 -0.3496  1.4728
 2870SOL     OW20242   3.153   0.513   5.501  0.1391  0.6197 -0.4328
 2870SOL    HW120243   3.197   0.530   5.418  1.9838  0.0602  0.4333
 2870SOL    HW220244   3.087   0.446   5.482 -0.8681  1.1407  1.2488
 2871SOL     OW20245   4.598   0.122  13.079 -0.2568 -0.0284 -0.4215
 2871SOL    HW120246   4.507   0.142  13.101 -0.1058  0.4274 -0.2314
 2871SOL    HW220247   4.635   0.087  13.160  0.1342  0.5254 -0.3676
 2872SOL     OW20248   4.610   0.392   8.368 -0.0372  0.4711 -0.1876
 2872SOL    HW120249   4.701   0.397   8.339  0.0462 -1.3228 -0.1906
 2872SOL    HW220250   4.585   0.484   8.362 -2.3723 -0.2306 -1.0553
 2873SOL     OW20251   0.711   1.106  15.901 -0.5063  0.4461 -0.1147
 2873SOL    HW120252   0.747   1.186  15.937 -1.2226 -0.2737  2.2291
 2873SOL    HW220253   0.756   1.105  15.817 -0.4566  0.2580 -0.0864
 2874SOL     OW20254   1.335   4.641   9.240  0.1733  0.2594  0.2088
 2874SOL    HW120255   1.307   4.716   9.292  2.1754  1.6034 -0.6829
 2874SOL    HW220256   1.414   4.619   9.289  0.6798  3.4698  0.7805
 2875SOL     OW20257   0.091   2.155  12.417 -0.2834 -0.2042 -0.0542
 2875SOL    HW120258   0.139   2.237  12.406 -0.9874 -0.2660 -3.8264
 2875SOL    HW220259   0.015   2.181  12.365 -0.7842  1.3994  1.4745
 2876SOL     OW20260   3.426   1.914   4.653 -0.3644 -0.2797 -0.0413
 2876SOL    HW120261   3.439   1.894   4.746 -1.4440 -4.0633 -0.6813
 2876SOL    HW220262   3.348   1.968   4.640  0.4377  0.2730 -2.5127
 2877SOL     OW20263   1.268   2.045  13.756 -0.3590  0.3125 -0.0062
 2877SOL    HW120264   1.259   1.997  13.674 -0.7620 -2.0836  1.4074
 2877SOL    HW220265   1.181   2.086  13.762 -0.9195 -1.2124  2.4777
 2878SOL     OW20266   2.685   1.404  10.986  0.5776  0.6942 -0.1383
 2878SOL    HW120267   2.672   1.410  10.892 -0.5203 -0.5655 -0.0624
 2878SOL    HW220268   2.749   1.333  10.985 -0.2888 -0.1117  0.7333
 2879SOL     OW20269   3.723   2.742   4.884 -0.4331  0.0025  0.1794
 2879SOL    HW120270   3.700   2.780   4.969  0.6180  1.9028 -0.4007
 2879SOL    HW220271   3.633   2.726   4.856  0.1761 -1.1817 -1.0898
 2880SOL     OW20272   3.841   1.402   2.908 -0.0525  0.4962 -0.7306
 2880SOL    HW120273   3.893   1.332   2.948 -0.4820  0.5234 -0.1191
 2880SOL    HW220274   3.834   1.457   2.986 -0.5319  0.9795 -1.1148
 2881SOL     OW20275   2.641   0.831   0.012 -0.0008 -0.0666 -0.0191
 2881SOL    HW120276   2.591   0.815  17.688  1.6357  1.0148 -1.2721
 2881SOL    HW220277   2.612   0.921   0.026  0.1227  0.2362 -1.7553
 2882SOL     OW20278   0.322   2.621  13.651  0.6145 -0.1212  0.4296
 2882SOL    HW120279   0.389   2.558  13.623 -0.2297 -1.0745  0.5339
 2882SOL    HW220280   0.358   2.634  13.739 -1.0767 -0.1264  1.1225
 2883SOL     OW20281   0.112   1.508   8.657  0.5707 -0.0809  0.0655
 2883SOL    HW120282   0.065   1.592   8.658 -0.0748 -0.4395 -0.1214
 2883SOL    HW220283   0.202   1.528   8.631  1.3897 -1.8700  1.5946
 2884SOL     OW20284   1.970   1.139  14.192  0.9486  0.1625 -0.1400
 2884SOL    HW120285   2.012   1.225  14.194  0.3754  0.4543 -0.3618
 2884SOL    HW220286   1.880   1.170  14.203  1.2272  0.7425  0.5262
 2885SOL     OW20287   0.816   4.288   4.817  0.2266  0.1025  0.5806
 2885SOL    HW120288   0.821   4.261   4.909  0.4753  2.8304  1.3878
 2885SOL    HW220289   0.746   4.353   4.824  1.7647  1.7183  0.9709
 2886SOL     OW20290   1.520   3.303   8.353 -0.4664 -0.0998  0.6684
 2886SOL    HW120291   1.485   3.226   8.306 -0.4905  0.3566 -0.0673
 2886SOL    HW220292   1.450   3.325   8.414  1.8011  3.4038  1.9846
 2887SOL     OW20293   3.084   1.029  13.044 -0.6219  0.0353  0.0924
 2887SOL    HW120294   3.106   1.030  13.137 -1.9399 -1.3252  0.4125
 2887SOL    HW220295   3.107   1.120  13.028  1.2969 -0.1116  1.9737
 2888SOL     OW20296   2.377   0.141   6.983 -0.5983 -0.0360  0.2786
 2888SOL    HW120297   2.388   0.235   6.965  3.3469 -0.3463  0.9882
 2888SOL    HW220298   2.456   0.127   7.035 -0.8320  2.0742  1.2214
 2889SOL     OW20299   1.058   1.330   8.608  1.0053  0.3356 -0.0418
 2889SOL    HW120300   1.145   1.297   8.630 -0.1211 -1.2102  2.0921
 2889SOL    HW220301   1.078   1.422   8.593 -2.3669  1.1931  0.8831
 2890SOL     OW20302   3.520   2.004   2.756  0.6017  0.1185 -0.2765
 2890SOL    HW120303   3.507   2.022   2.663  1.2932  0.9835 -0.2014
 2890SOL    HW220304   3.589   1.938   2.761  1.4191  1.1721  2.3024
 2891SOL     OW20305   4.251   2.401   7.244 -0.5291  0.1159 -0.4752
 2891SOL    HW120306   4.277   2.470   7.304  0.8615 -1.3308  0.5992
 2891SOL    HW220307   4.254   2.445   7.159 -1.7134 -2.0919 -1.6531
 2892SOL     OW20308   2.171   3.357   7.073  0.1360 -0.0250  0.3046
 2892SOL    HW120309   2.161   3.448   7.102  0.9966 -0.3106  1.5082
 2892SOL    HW220310   2.170   3.364   6.978 -0.7341 -0.9058  0.2467
 2893SOL     OW20311   2.164   3.129  10.914  0.2592  0.0358  0.2161
 2893SOL    HW120312   2.190   3.096  10.828 -2.5667  0.5590 -0.8072
 2893SOL    HW220313   2.220   3.073  10.969 -2.6827 -0.7652  2.3691
 2894SOL     OW20314   2.926   4.305   0.760  0.4155  0.2444  0.4216
 2894SOL    HW120315   2.936   4.244   0.833  0.6471 -0.9788 -0.6425
 2894SOL    HW220316   2.835   4.334   0.766  0.0661 -0.1863 -2.8672
 2895SOL     OW20317   3.109   1.152   5.274  0.0093  0.3550  0.1174
 2895SOL    HW120318   3.107   1.057   5.263 -0.6728  0.6390 -2.3276
 2895SOL    HW220319   3.028   1.173   5.320  0.7944 -0.5667  1.9282
 2896SOL     OW20320   2.986   3.203   4.590  0.3637 -0.2858 -0.4922
 2896SOL    HW120321   2.899   3.200   4.549 -0.0006  1.1017  0.1907
 2896SOL    HW220322   2.994   3.119   4.636  1.9620 -0.1729 -0.5607
 2897SOL     OW20323   1.247   0.584   2.858  0.2005 -0.4867  0.5088
 2897SOL    HW120324   1.232   0.499   2.900 -0.7334 -0.4783  0.1944
 2897SOL    HW220325   1.317   0.617   2.915 -0.9432  2.2807  0.2785
 2898SOL     OW20326   3.220   2.534  14.238 -0.6665  0.2151 -0.0209
 2898SOL    HW120327   3.248   2.496  14.155  2.3548  0.2635  0.9927
 2898SOL    HW220328   3.308   2.556  14.268  0.1745 -1.2499 -1.4457
 2899SOL     OW20329   0.290   0.288   6.109  0.0486  0.0700 -0.6117
 2899SOL    HW120330   0.338   0.360   6.067 -0.8807  0.2481 -1.3719
 2899SOL    HW220331   0.230   0.320   6.176  2.2934 -2.4824  2.6056
 2900SOL     OW20332   2.686   0.117  15.967 -0.0388 -0.1529  0.4141
 2900SOL    HW120333   2.652   0.078  15.887  0.7785 -0.0909  0.0422
 2900SOL    HW220334   2.606   0.157  16.002  0.5820  1.4866 -0.0141
 2901SOL     OW20335   1.304   4.504  15.276  0.0592 -0.5183  0.0002
 2901SOL    HW120336   1.286   4.591  15.240 -0.5825 -0.1815  1.1143
 2901SOL    HW220337   1.317   4.523  15.369  1.3488  2.3628 -0.7921
 2902SOL     OW20338   1.399   3.585   3.487 -0.0527 -0.8429  0.9194
 2902SOL    HW120339   1.408   3.652   3.419  0.5801 -1.7300  0.1326
 2902SOL    HW220340   1.304   3.573   3.490 -0.1520 -0.3455 -0.1023
 2903SOL     OW20341   4.421   3.604  12.804 -0.0607 -0.5432  0.3751
 2903SOL    HW120342   4.327   3.616  12.793 -0.3950 -3.0359  0.4168
 2903SOL    HW220343   4.450   3.651  12.725  2.3607 -3.3379 -0.4136
 2904SOL     OW20344   2.418   3.687   6.134  0.1268 -0.3471  0.5704
 2904SOL    HW120345   2.481   3.727   6.074  0.0023  1.4408  1.6326
 2904SOL    HW220346   2.341   3.669   6.081 -0.4027  0.2990  1.1197
 2905SOL     OW20347   4.304   0.493   1.691  0.1651 -0.0210 -0.5271
 2905SOL    HW120348   4.224   0.545   1.696 -0.9546 -1.7144 -0.8232
 2905SOL    HW220349   4.363   0.541   1.749 -0.6947 -3.0624  2.9032
 2906SOL     OW20350   4.540   2.410  17.551  0.4168 -0.5920  0.7092
 2906SOL    HW120351   4.532   2.339  17.488  0.3146  0.5037 -0.5147
 2906SOL    HW220352   4.469   2.378  17.607 -1.9704  1.8086 -0.9440
 2907SOL     OW20353   0.675   1.218   8.037  0.8285 -0.1623  0.2095
 2907SOL    HW120354   0.610   1.280   8.005  0.2942 -2.4006 -3.0819
 2907SOL    HW220355   0.710   1.267   8.111 -1.7586  2.3066 -0.2088
 2908SOL     OW20356   0.229   3.894   3.083  0.5676  0.3498  0.2143
 2908SOL    HW120357   0.282   3.972   3.099 -0.3990  0.8093  1.2468
 2908SOL    HW220358   0.213   3.906   2.989 -0.2200  1.6956  0.5062
 2909SOL     OW20359   2.420   1.956  16.189  0.1472  0.4816  0.1209
 2909SOL    HW120360   2.444   2.014  16.117 -2.2784  0.5690 -0.5885
 2909SOL    HW220361   2.372   1.885  16.147 -0.0552  0.7875 -0.1590
 2910SOL     OW20362   0.238   0.585  16.318 -0.4148 -0.6020 -0.0470
 2910SOL    HW120363   0.154   0.541  16.336 -1.2809  1.7479  1.6582
 2910SOL    HW220364   0.282   0.563  16.400 -2.3690 -2.7900  0.4367
 2911SOL     OW20365   3.086   4.372  15.051  0.0222  0.1099  0.5044
 2911SOL    HW120366   3.064   4.279  15.046 -1.0435  0.5101 -2.2643
 2911SOL    HW220367   3.147   4.357  15.123  3.4679 -0.1676 -2.5029
 2912SOL     OW20368   0.223   3.048   7.088  0.7332  0.4303 -0.6389
 2912SOL    HW120369   0.149   2.995   7.116  0.5500  0.6778 -0.6577
 2912SOL    HW220370   0.262   2.998   7.017  2.1163 -1.3536  1.3786
 2913SOL     OW20371   2.496   1.171  11.615  0.1181 -0.2938 -0.1077
 2913SOL    HW120372   2.517   1.240  11.679  0.4721  0.3150 -0.8895
 2913SOL    HW220373   2.521   1.207  11.530  0.0114 -1.4850 -0.6386
 2914SOL     OW20374   3.665   2.376   5.969 -0.3567  0.1800 -0.0395
 2914SOL    HW120375   3.699   2.439   6.033 -1.8358  0.3000  0.6378
 2914SOL    HW220376   3.710   2.304   6.014 -1.1706 -0.4078 -0.1597
 2915SOL     OW20377   1.093   2.871   4.635  0.3902 -0.1756 -0.0874
 2915SOL    HW120378   1.131   2.894   4.720  0.6827  1.3151 -0.6207
 2915SOL    HW220379   1.114   2.953   4.590  2.2780 -0.1295  0.8698
 2916SOL     OW20380   1.338   4.544  16.172  0.0890  0.0301  0.3200
 2916SOL    HW120381   1.337   4.599  16.094 -0.7035  0.8850  0.9292
 2916SOL    HW220382   1.245   4.525  16.185  0.1598 -0.4709  0.0996
 2917SOL     OW20383   2.635   3.284   6.342 -0.1796 -0.1898  0.1869
 2917SOL    HW120384   2.630   3.222   6.415 -1.6338  0.2751  0.4739
 2917SOL    HW220385   2.721   3.327   6.343 -0.9548  1.3174  1.0123
 2918SOL     OW20386   0.636   3.020  16.900 -0.2468 -0.0249  0.0005
 2918SOL    HW120387   0.601   3.035  16.988  0.6520  0.2135  0.3189
 2918SOL    HW220388   0.555   3.018  16.850  0.0223  1.0007 -0.4796
 2919SOL     OW20389   0.851   1.327   4.980 -0.0068  0.4976 -0.1716
 2919SOL    HW120390   0.822   1.341   4.890 -1.9688  0.6326  0.4738
 2919SOL    HW220391   0.822   1.406   5.025  1.7128  0.9042  0.2276
 2920SOL     OW20392   2.096   2.513   0.792  0.0138  0.3458  0.1398
 2920SOL    HW120393   2.120   2.468   0.873 -1.8576  0.4207  0.7324
 2920SOL    HW220394   2.146   2.463   0.727 -1.6307  0.6679 -1.3633
 2921SOL     OW20395   0.340   1.772   3.956  0.5385 -0.3984  0.0182
 2921SOL    HW120396   0.274   1.841   3.966 -0.0570 -0.6287 -2.3313
 2921SOL    HW220397   0.285   1.696   3.936 -1.3190  0.7649  0.6297
 2922SOL     OW20398   1.270   2.912   5.920 -0.3717  0.1790 -0.2908
 2922SOL    HW120399   1.249   2.900   5.828 -0.1009 -0.1648 -0.3057
 2922SOL    HW220400   1.287   3.006   5.924 -1.3068  0.3465 -0.2898
 2923SOL     OW20401   4.344   3.912   4.681  0.3924 -0.0040  0.1177
 2923SOL    HW120402   4.393   3.833   4.704  2.8101  0.9032 -1.9570
 2923SOL    HW220403   4.361   3.964   4.760 -4.4562 -0.0064  1.1862
 2924SOL     OW20404   4.667   3.369   6.790  0.1957 -0.1182 -0.3744
 2924SOL    HW120405   4.696   3.292   6.740 -0.2111 -0.4835 -0.0473
 2924SOL    HW220406   4.714   3.363   6.874 -2.0310  2.4757  1.0438
 2925SOL     OW20407   4.218   1.987   7.861  0.1504 -0.2707 -0.6447
 2925SOL    HW120408   4.190   2.078   7.853  3.6572  0.7818 -0.8640
 2925SOL    HW220409   4.306   1.999   7.825  0.2176 -1.2293 -0.8051
 2926SOL     OW20410   1.320   2.270  11.534  0.0275  0.1489 -0.0357
 2926SOL    HW120411   1.285   2.221  11.608  2.3180 -1.1130  0.2212
 2926SOL    HW220412   1.258   2.342  11.536 -1.1550 -0.9123  1.2741
 2927SOL     OW20413   3.417   4.086   2.052 -0.3534  0.7983  0.4893
 2927SOL    HW120414   3.400   4.143   1.977  1.7617  0.1837 -0.4570
 2927SOL    HW220415   3.494   4.122   2.096 -1.3132  1.2171  1.8309
 2928SOL     OW20416   1.644   1.262  12.194 -0.1132 -0.0259 -0.1583
 2928SOL    HW120417   1.618   1.295  12.108  1.9183  0.0320 -0.7633
 2928SOL    HW220418   1.734   1.295  12.200 -0.7836  1.2723  2.5857
 2929SOL     OW20419   0.889   2.399   2.057 -0.0018 -0.7408 -0.2837
 2929SOL    HW120420   0.827   2.327   2.072  0.2620 -0.7043  0.9710
 2929SOL    HW220421   0.928   2.383   1.971  1.1296 -4.6644  0.9554
 2930SOL     OW20422   4.360   1.028  12.820 -0.0339  0.4340  0.3001
 2930SOL    HW120423   4.413   1.031  12.741  0.2609 -0.7920  0.4621
 2930SOL    HW220424   4.334   1.119  12.834  1.8437  0.8612  0.9842
 2931SOL     OW20425   1.678   4.365   4.989  0.6131 -0.3700  0.0753
 2931SOL    HW120426   1.772   4.384   4.991  0.9398 -1.8901 -0.7527
 2931SOL    HW220427   1.650   4.383   5.079 -1.2793 -1.3446 -0.3150
 2932SOL     OW20428   2.666   3.599   9.392  0.6826  0.2567  0.1169
 2932SOL    HW120429   2.574   3.616   9.413  0.5272 -0.9450  0.3836
 2932SOL    HW220430   2.718   3.630   9.466  1.1718 -0.0063 -0.1177
 2933SOL     OW20431   1.789   0.319  12.619  0.4225  0.4377  0.6257
 2933SOL    HW120432   1.812   0.402  12.577  0.6240  0.2898  0.4457
 2933SOL    HW220433   1.785   0.350  12.709  1.4940  0.1307  0.7743
 2934SOL     OW20434   4.159   0.450   4.534 -0.8282 -0.3801 -0.1063
 2934SOL    HW120435   4.095   0.471   4.467 -1.0788  2.6509  1.0868
 2934SOL    HW220436   4.216   0.527   4.531 -2.6284  1.0096  1.2633
 2935SOL     OW20437   2.093   0.824  13.072  0.1805  0.4149  0.1317
 2935SOL    HW120438   2.023   0.790  13.016  0.5925  2.0532 -1.3710
 2935SOL    HW220439   2.171   0.795  13.025 -0.3901 -0.1536 -0.4497
 2936SOL     OW20440   3.846   0.466  15.498 -0.6282  0.2164 -0.4469
 2936SOL    HW120441   3.786   0.426  15.435  0.3939  1.4406 -2.1622
 2936SOL    HW220442   3.828   0.418  15.579 -1.3211  0.2055 -0.6087
 2937SOL     OW20443   4.512   4.273   4.876 -0.0003  0.2537 -0.0214
 2937SOL    HW120444   4.477   4.184   4.876  0.3684  0.1129  0.4297
 2937SOL    HW220445   4.445   4.318   4.824  1.1785 -0.7056 -2.3625
 2938SOL     OW20446   2.993   3.157  15.495 -0.0424 -0.1698  0.0857
 2938SOL    HW120447   2.935   3.132  15.423  1.7272 -1.1142 -1.0303
 2938SOL    HW220448   3.083   3.149  15.465  0.1963  2.3160  0.1272
 2939SOL     OW20449   4.300   4.396   4.687  0.2580 -0.0731  0.3092
 2939SOL    HW120450   4.290   4.490   4.699  1.8881  0.0291  0.7817
 2939SOL    HW220451   4.326   4.384   4.595  0.5194  0.0925  0.3632
 2940SOL     OW20452   3.301   4.677  15.133  0.1213  0.3245  0.4719
 2940SOL    HW120453   3.260   4.620  15.198 -1.4657  0.7981 -0.1107
 2940SOL    HW220454   3.352   4.737  15.187 -0.5180  1.2148  0.0889
 2941SOL     OW20455   4.652   1.200   6.139 -0.6985 -0.2016 -0.3117
 2941SOL    HW120456   4.624   1.281   6.096  0.9950  0.2540 -0.5605
 2941SOL    HW220457   0.006   1.216   6.122 -0.9523  2.4352  0.8352
 2942SOL     OW20458   3.040   3.619  12.767 -0.2664 -0.1300 -0.1480
 2942SOL    HW120459   3.019   3.677  12.694 -2.2082  2.4578  2.4984
 2942SOL    HW220460   3.098   3.556  12.722 -0.0023 -0.1587  0.2350
 2943SOL     OW20461   3.033   0.931  15.790 -0.6683  0.5834 -0.0361
 2943SOL    HW120462   3.118   0.905  15.756  0.4205  1.2774  2.1615
 2943SOL    HW220463   3.060   0.952  15.880  0.9955  0.5688 -0.5370
 2944SOL     OW20464   4.420   3.795   3.709 -0.2579 -0.2436  0.1882
 2944SOL    HW120465   4.349   3.731   3.706  0.0764 -0.6127  0.1694
 2944SOL    HW220466   4.490   3.733   3.729 -1.5789 -1.0339  2.4163
 2945SOL     OW20467   1.133   0.991   8.829  0.5133 -0.4563  0.0064
 2945SOL    HW120468   1.169   1.079   8.819 -1.3860  0.0272 -2.6723
 2945SOL    HW220469   1.038   1.003   8.839  0.3939 -2.1391  0.8391
 2946SOL     OW20470   2.009   4.334   3.480 -0.3218 -0.5364 -0.3111
 2946SOL    HW120471   2.062   4.270   3.432 -0.4650 -0.9269  0.0563
 2946SOL    HW220472   1.922   4.305   3.454 -0.0616 -1.6406  0.0519
 2947SOL     OW20473   2.944   3.752   9.330  0.1575 -0.7214  0.1524
 2947SOL    HW120474   2.903   3.671   9.299 -1.0041  0.3434 -1.0742
 2947SOL    HW220475   3.025   3.720   9.369  1.4698 -1.0656 -2.8374
 2948SOL     OW20476   0.906   1.694   6.724  0.8117 -0.2839  0.3188
 2948SOL    HW120477   0.924   1.785   6.746 -0.8978 -0.2221  1.4069
 2948SOL    HW220478   0.811   1.691   6.727  0.7573  0.9689 -0.0576
 2949SOL     OW20479   1.616   4.662  12.697 -0.4577  0.0818  0.3254
 2949SOL    HW120480   1.697   4.638  12.741 -0.4663 -0.3201  0.1161
 2949SOL    HW220481   1.567   4.583  12.721  0.4591 -0.5339  0.1323
 2950SOL     OW20482   3.860   0.514   1.408 -0.0281  0.0744  0.1673
 2950SOL    HW120483   3.921   0.473   1.347  1.1903 -1.2482  2.3084
 2950SOL    HW220484   3.914   0.507   1.486 -3.2959 -0.1292  2.4149
 2951SOL     OW20485   1.205   3.116   8.684 -0.2325 -0.1678  0.0474
 2951SOL    HW120486   1.168   3.093   8.599  1.5350  1.6757 -1.2372
 2951SOL    HW220487   1.139   3.083   8.745  0.6016 -1.0089  0.4962
 2952SOL     OW20488   4.249   3.337   9.934 -0.1702 -0.0515 -0.1321
 2952SOL    HW120489   4.220   3.313   9.846 -0.8407 -0.5339  0.2245
 2952SOL    HW220490   4.317   3.273   9.956 -0.8774 -1.1822 -1.2611
 2953SOL     OW20491   2.029   2.748   4.555  0.6260 -0.0061  0.1337
 2953SOL    HW120492   2.039   2.792   4.470  0.6231  1.6783  1.0022
 2953SOL    HW220493   2.118   2.716   4.568  0.3819 -0.6828  0.1164
 2954SOL     OW20494   0.662   2.198  11.177  0.4527 -0.5243 -0.0055
 2954SOL    HW120495   0.663   2.115  11.224 -1.2053  0.6746  2.1800
 2954SOL    HW220496   0.593   2.195  11.112  0.3480 -1.5091  0.1644
 2955SOL     OW20497   1.119   0.948   2.753  0.2307  0.7300 -0.8121
 2955SOL    HW120498   1.156   0.951   2.665  0.2173  1.0163 -0.8061
 2955SOL    HW220499   1.050   0.882   2.751  2.4852 -1.5867 -2.0701
 2956SOL     OW20500   3.884   1.957   7.663 -0.3229  0.2610  0.2914
 2956SOL    HW120501   3.926   1.929   7.583  3.5282 -1.7635  3.0686
 2956SOL    HW220502   3.940   2.025   7.700  0.1695  0.1660 -0.3012
 2957SOL     OW20503   2.177   4.492   6.235  0.7026  0.0357 -0.3521
 2957SOL    HW120504   2.107   4.556   6.249  0.0348 -0.3290 -2.0075
 2957SOL    HW220505   2.219   4.512   6.151 -0.4256 -1.5272 -1.3142
 2958SOL     OW20506   1.568   1.925   3.705 -0.4359  0.4658  0.5792
 2958SOL    HW120507   1.644   1.973   3.737 -0.0713 -0.3445  0.9269
 2958SOL    HW220508   1.525   1.904   3.788 -1.3287  1.2604  0.3212
 2959SOL     OW20509   2.022   4.457   6.818  0.2142  0.1233  0.6340
 2959SOL    HW120510   2.003   4.409   6.899 -0.1487 -0.6523  0.0819
 2959SOL    HW220511   2.086   4.522   6.846 -0.9385  2.2419 -1.6072
 2960SOL     OW20512   0.084   2.778  10.921  0.0971 -0.0326 -0.8955
 2960SOL    HW120513   0.084   2.806  10.829 -3.0480  0.6035 -0.7117
 2960SOL    HW220514   4.736   2.802  10.951  0.8313 -1.0648  2.0630
 2961SOL     OW20515   2.060   2.886   4.796 -0.0511 -0.5524 -0.3090
 2961SOL    HW120516   2.063   2.822   4.725 -4.3612 -1.0141 -0.1074
 2961SOL    HW220517   2.136   2.936   4.768  0.6929 -0.0430  2.6138
 2962SOL     OW20518   0.459   3.585  12.457  0.0279  0.0216 -0.0829
 2962SOL    HW120519   0.411   3.622  12.383  0.3380  1.8344  0.6298
 2962SOL    HW220520   0.405   3.611  12.532  1.5885  0.2331  0.9767
 2963SOL     OW20521   2.626   3.728  15.840 -0.6895  0.0341  0.3281
 2963SOL    HW120522   2.553   3.788  15.851 -1.9187 -0.9616 -2.1886
 2963SOL    HW220523   2.700   3.787  15.831 -0.5562 -0.0863  0.6774
 2964SOL     OW20524   1.537   1.961   5.535  0.5358  0.3844 -0.2405
 2964SOL    HW120525   1.611   1.908   5.503  1.6167 -0.0031  2.8988
 2964SOL    HW220526   1.465   1.904   5.509 -1.7833  2.3499  1.8796
 2965SOL     OW20527   4.359   3.072   9.162  0.5053  0.1975  0.0179
 2965SOL    HW120528   4.280   3.055   9.212 -0.2039  1.9737 -0.4858
 2965SOL    HW220529   4.324   3.058   9.074 -2.7331  3.0478  0.8326
 2966SOL     OW20530   1.317   0.721   6.621  0.6939  0.8796  0.0810
 2966SOL    HW120531   1.262   0.644   6.614  0.4981  0.8831  1.5325
 2966SOL    HW220532   1.277   0.761   6.543  1.1815  1.9602  0.3873
 2967SOL     OW20533   4.308   3.866   7.285  0.5521 -0.1833 -0.0300
 2967SOL    HW120534   4.252   3.907   7.220  1.0999 -2.7344 -2.1315
 2967SOL    HW220535   4.392   3.897   7.252  0.7573 -0.5949  0.1089
 2968SOL     OW20536   3.704   0.032   5.226  0.5040 -0.8123 -0.3018
 2968SOL    HW120537   3.694   4.676   5.230  1.0115 -0.9370 -1.9740
 2968SOL    HW220538   3.775   0.050   5.287 -0.7774  2.7118  0.1505
 2969SOL     OW20539   1.246   3.862   3.520 -0.4293  0.4169 -0.5982
 2969SOL    HW120540   1.301   3.866   3.598 -1.8846 -0.2585  0.4618
 2969SOL    HW220541   1.292   3.803   3.460  0.6800  0.5010  0.1671
 2970SOL     OW20542   4.595   1.195   9.072  0.0587 -0.0758 -0.1255
 2970SOL    HW120543   4.689   1.192   9.086 -0.5757  2.9903  4.6878
 2970SOL    HW220544   4.583   1.275   9.022  0.6898 -0.0615 -0.2490
 2971SOL     OW20545   1.761   0.468   6.709 -0.3126  0.1695 -0.0210
 2971SOL    HW120546   1.823   0.534   6.741  0.3091 -0.1863 -0.4860
 2971SOL    HW220547   1.814   0.393   6.736  1.0505  1.3936  0.7142
 2972SOL     OW20548   1.798   0.439   5.570  0.3151  0.2290  0.3055
 2972SOL    HW120549   1.850   0.361   5.553 -0.9915 -0.7004  0.5248
 2972SOL    HW220550   1.743   0.462   5.494  1.4618  1.0205 -0.2783
 2973SOL     OW20551   0.622   2.901   6.894  0.5240  0.0441  0.8987
 2973SOL    HW120552   0.683   2.830   6.912 -1.6246 -1.3677  2.6673
 2973SOL    HW220553   0.665   2.980   6.928 -0.3844  0.2505  1.5894
 2974SOL     OW20554   3.111   3.054   7.970 -0.1688 -0.0205 -0.1107
 2974SOL    HW120555   3.063   2.974   7.991 -1.3158  0.0495 -2.5038
 2974SOL    HW220556   3.035   3.111   7.966 -0.6383 -0.6809 -0.5307
 2975SOL     OW20557   3.558   1.278   2.210  0.2832  0.3937 -0.1370
 2975SOL    HW120558   3.602   1.226   2.143 -0.4401  0.2326 -0.4907
 2975SOL    HW220559   3.633   1.280   2.270 -0.3191  3.2766  0.4866
 2976SOL     OW20560   1.199   4.566  11.808  0.0331 -0.3938  0.0611
 2976SOL    HW120561   1.226   4.652  11.776  2.5031 -0.8608  0.8328
 2976SOL    HW220562   1.277   4.543  11.861  0.5127 -0.7725 -0.8123
 2977SOL     OW20563   1.975   0.349  10.975  0.2507 -0.4213 -0.1505
 2977SOL    HW120564   2.071   0.353  10.977  0.2206  1.1854 -2.4558
 2977SOL    HW220565   1.952   0.441  10.980 -2.1865 -0.9622 -1.5177
 2978SOL     OW20566   1.189   0.134   4.416 -0.3791  0.2824  0.3194
 2978SOL    HW120567   1.239   0.188   4.477 -0.1545  0.4530 -0.0122
 2978SOL    HW220568   1.100   0.166   4.430 -0.6178 -0.7015  1.0840
 2979SOL     OW20569   4.226   1.914   9.172 -0.0608  0.2438 -0.6185
 2979SOL    HW120570   4.307   1.906   9.222  1.9751  0.2440 -3.8583
 2979SOL    HW220571   4.173   1.973   9.226 -1.2008 -0.4848 -0.9461
 2980SOL     OW20572   1.714   2.990   4.133 -0.2597 -0.2563 -0.2993
 2980SOL    HW120573   1.648   2.958   4.071  0.4104 -1.0787 -0.5881
 2980SOL    HW220574   1.756   2.915   4.175 -2.3840 -1.2780  0.0141
 2981SOL     OW20575   4.429   0.785  15.142  0.3498 -0.5152 -0.0201
 2981SOL    HW120576   4.373   0.849  15.185 -0.9273 -1.5649 -0.1071
 2981SOL    HW220577   4.468   0.850  15.085  0.5250  1.5162  2.4081
 2982SOL     OW20578   3.070   4.016  11.835  0.3330 -0.2336 -0.0285
 2982SOL    HW120579   3.040   3.999  11.924  2.4396 -1.9352  0.3844
 2982SOL    HW220580   3.051   3.929  11.799  0.1978  0.5811 -1.9006
 2983SOL     OW20581   3.476   1.185  13.809  0.5818 -0.3516 -0.2954
 2983SOL    HW120582   3.540   1.192  13.879 -0.9480  1.9518  0.8522
 2983SOL    HW220583   3.517   1.225  13.732  0.2056  0.0472 -0.2874
 2984SOL     OW20584   2.615   4.048   5.319  0.1121  0.5996  0.0078
 2984SOL    HW120585   2.546   4.036   5.254 -0.1012 -0.7678  0.5092
 2984SOL    HW220586   2.636   4.140   5.300 -1.3108  1.2145  1.4688
 2985SOL     OW20587   1.526   3.398   7.745 -0.0806 -0.3003 -0.4401
 2985SOL    HW120588   1.557   3.333   7.808  1.5513 -1.2597 -2.2469
 2985SOL    HW220589   1.431   3.395   7.762  0.1601 -1.9199  0.6032
 2986SOL     OW20590   4.110   2.853  15.856 -0.3148 -0.1755 -0.1926
 2986SOL    HW120591   4.088   2.834  15.765 -3.0962 -0.6377  0.5810
 2986SOL    HW220592   4.169   2.783  15.885 -0.2122  0.6040  1.4802
 2987SOL     OW20593   4.088   1.473   4.005 -0.0473  0.0816  0.0452
 2987SOL    HW120594   4.087   1.548   3.946 -1.0749  0.0935  0.0795
 2987SOL    HW220595   4.074   1.398   3.947 -1.3479  0.4081 -0.0557
 2988SOL     OW20596   2.923   1.149   6.959 -0.1338  0.1631 -0.4198
 2988SOL    HW120597   2.885   1.233   6.932  1.9152  1.8290  1.9160
 2988SOL    HW220598   3.017   1.163   6.945 -0.0517 -0.7007 -0.7292
 2989SOL     OW20599   3.329   3.805   3.601  0.6675 -0.4115  0.1990
 2989SOL    HW120600   3.370   3.867   3.661  0.0865  2.4463 -2.3728
 2989SOL    HW220601   3.236   3.822   3.618  0.8257  1.0198 -0.3516
 2990SOL     OW20602   0.779   3.272  17.216 -0.0637 -0.6043 -0.0696
 2990SOL    HW120603   0.808   3.304  17.302  1.0846  0.1518 -0.7394
 2990SOL    HW220604   0.698   3.319  17.193  0.9002  0.9155 -0.3727
 2991SOL     OW20605   3.890   4.007   6.472  0.2061 -0.2525 -0.2168
 2991SOL    HW120606   3.825   3.987   6.539  0.3278  3.2643  0.9824
 2991SOL    HW220607   3.960   3.964   6.519 -0.4823 -0.8233  0.2851
 2992SOL     OW20608   1.538   1.741  15.151 -0.1889 -0.4255  0.5151
 2992SOL    HW120609   1.499   1.655  15.134 -1.4883 -0.0066  1.3774
 2992SOL    HW220610   1.465   1.797  15.176 -0.2524 -0.9776  1.5737
 2993SOL     OW20611   2.430   3.078   9.087  0.0607  0.6236  0.9486
 2993SOL    HW120612   2.342   3.073   9.050  0.4141  1.7920 -0.0556
 2993SOL    HW220613   2.422   3.012   9.155 -0.7103  0.9183  1.1448
 2994SOL     OW20614   4.237   0.822  17.276 -0.1689 -0.1583 -0.5577
 2994SOL    HW120615   4.319   0.832  17.325 -0.6166  2.4122 -0.3531
 2994SOL    HW220616   4.266   0.768  17.201 -0.4001 -0.5714 -0.3507
 2995SOL     OW20617   2.500   3.244  10.609  0.2406 -0.2216  0.1064
 2995SOL    HW120618   2.554   3.165  10.613  0.0350 -0.3433  0.4838
 2995SOL    HW220619   2.414   3.206  10.629 -0.5315  1.3651 -0.2135
 2996SOL     OW20620   0.978   2.591   0.883  0.1663  0.0906 -0.3299
 2996SOL    HW120621   0.951   2.679   0.907  1.6937  0.4343  0.1777
 2996SOL    HW220622   0.959   2.594   0.790 -0.6402  1.7134 -0.1204
 2997SOL     OW20623   4.412   1.959   5.365 -0.0188  0.2157  0.4595
 2997SOL    HW120624   4.468   2.029   5.332  0.6829 -0.7605 -0.4068
 2997SOL    HW220625   4.447   1.893   5.306  0.3786 -0.1457  1.0937
 2998SOL     OW20626   1.673   3.257  13.779 -0.7947 -0.9245 -1.1522
 2998SOL    HW120627   1.734   3.315  13.824  0.2353 -1.7056 -1.5377
 2998SOL    HW220628   1.591   3.306  13.783  0.2447  0.6761  0.8871
 2999SOL     OW20629   1.999   2.944  16.300  0.5645 -0.1985 -0.0110
 2999SOL    HW120630   1.947   2.870  16.269  0.1613 -0.7675  2.0125
 2999SOL    HW220631   1.965   2.948  16.389 -0.8390 -0.4292 -0.5262
 3000SOL     OW20632   4.153   4.625  14.358  0.5447 -0.0236 -0.1753
 3000SOL    HW120633   4.237   4.619  14.404  0.4102 -2.1857 -0.2325
 3000SOL    HW220634   4.104   4.677  14.422  0.0950  0.8082 -1.2161
 3001SOL     OW20635   3.897   0.816  10.292  0.2172 -0.1348 -0.0006
 3001SOL    HW120636   3.899   0.908  10.268  0.8856 -0.4638 -1.2216
 3001SOL    HW220637   3.805   0.789  10.295 -0.6507  3.0426  0.9355
 3002SOL     OW20638   1.563   3.124   9.337 -0.1800  0.4863 -0.5255
 3002SOL    HW120639   1.487   3.096   9.387 -0.3497 -0.2614 -1.1955
 3002SOL    HW220640   1.558   3.061   9.265 -1.5654 -0.5702  0.4791
 3003SOL     OW20641   0.175   2.405   8.774 -0.2708 -0.0099  0.2170
 3003SOL    HW120642   0.257   2.369   8.807 -0.1775 -0.4346 -0.4974
 3003SOL    HW220643   0.182   2.375   8.684  0.4575 -2.3950  1.0709
 3004SOL     OW20644   2.337   3.522   1.327  0.1175 -0.1801  0.0774
 3004SOL    HW120645   2.385   3.601   1.303  2.0478 -1.4479 -0.2540
 3004SOL    HW220646   2.259   3.522   1.272  0.5907 -0.0488 -0.5814
 3005SOL     OW20647   4.164   0.584   6.804 -0.0522 -0.0303 -0.6182
 3005SOL    HW120648   4.234   0.642   6.774 -1.6793  2.0605 -0.4193
 3005SOL    HW220649   4.097   0.609   6.740 -0.4242 -0.7565 -0.5032
 3006SOL     OW20650   2.979   0.322  15.145 -0.8119 -0.2381 -0.0910
 3006SOL    HW120651   2.940   0.372  15.073  1.2175 -0.0425 -1.0477
 3006SOL    HW220652   3.023   0.255  15.094 -0.5454  0.3463 -0.6303
 3007SOL     OW20653   2.649   3.638   3.996 -0.1152  0.3909  0.1396
 3007SOL    HW120654   2.561   3.629   3.957  0.8931 -2.1525 -1.5913
 3007SOL    HW220655   2.649   3.558   4.049 -0.9687 -0.7532 -1.5547
 3008SOL     OW20656   1.897   1.404   2.593  0.2813  0.4874 -0.1571
 3008SOL    HW120657   1.932   1.379   2.679 -0.8586 -2.8060 -0.6781
 3008SOL    HW220658   1.949   1.335   2.552 -0.7249 -0.1068 -0.4222
 3009SOL     OW20659   3.507   2.102   2.508 -0.8995 -0.0908  0.1826
 3009SOL    HW120660   3.576   2.084   2.444 -0.4567 -0.4263  0.7595
 3009SOL    HW220661   3.434   2.106   2.446 -2.0452  0.2798  1.5627
 3010SOL     OW20662   3.784   4.308   6.290 -0.4977  0.6080  0.5496
 3010SOL    HW120663   3.766   4.216   6.309 -1.6320  0.4391 -1.3395
 3010SOL    HW220664   3.790   4.340   6.380  0.7859 -0.8700  0.9862
 3011SOL     OW20665   3.424   3.386  12.856  0.0365  0.2564  0.3472
 3011SOL    HW120666   3.417   3.298  12.820  2.8692  0.8748 -1.7413
 3011SOL    HW220667   3.482   3.370  12.930  1.5244 -1.1968 -1.1444
 3012SOL     OW20668   1.177   4.394   6.695 -0.0027  0.6233  0.3119
 3012SOL    HW120669   1.230   4.474   6.697  0.4773  0.3148 -0.0553
 3012SOL    HW220670   1.165   4.374   6.788 -0.5609 -0.9197 -0.1003
 3013SOL     OW20671   1.061   1.261   6.902  0.1130  0.4910  0.6813
 3013SOL    HW120672   1.145   1.244   6.943  0.3839  0.1765 -0.0190
 3013SOL    HW220673   1.072   1.353   6.879  2.7735  0.4689  1.9267
 3014SOL     OW20674   4.210   1.444   6.441  0.2270  0.2154 -0.4849
 3014SOL    HW120675   4.123   1.406   6.449  0.6444 -0.8920 -1.1360
 3014SOL    HW220676   4.217   1.430   6.347  0.6363  1.1200 -0.5931
 3015SOL     OW20677   3.324   4.413  12.445  0.6683 -0.7311  0.0277
 3015SOL    HW120678   3.388   4.369  12.501  0.5320 -0.2278  0.5776
 3015SOL    HW220679   3.345   4.506  12.454 -0.0477 -0.4702 -1.0557
 3016SOL     OW20680   3.035   3.962   7.795 -0.2057  0.0460  0.3675
 3016SOL    HW120681   3.030   3.910   7.875  0.3845 -1.3259 -0.4902
 3016SOL    HW220682   2.947   3.952   7.759  0.4620 -2.0105 -0.6888
 3017SOL     OW20683   3.606   1.283   5.575  0.0900 -0.1292  0.0042
 3017SOL    HW120684   3.550   1.207   5.557 -1.1124  0.6095  0.6758
 3017SOL    HW220685   3.671   1.274   5.505  0.3423  0.9000  0.1041
 3018SOL     OW20686   1.806   3.507   2.691  0.3302  0.0687 -0.1166
 3018SOL    HW120687   1.890   3.469   2.716 -0.9741  0.1491  4.4134
 3018SOL    HW220688   1.747   3.447   2.738 -0.1998  0.2847 -0.5117
 3019SOL     OW20689   2.413   0.238   6.179 -0.1468 -0.0737  0.0117
 3019SOL    HW120690   2.394   0.229   6.086 -0.6621  1.2920 -0.0190
 3019SOL    HW220691   2.332   0.274   6.216 -0.7651 -1.3341 -0.0847
 3020SOL     OW20692   4.148   3.844  14.528 -0.2307 -0.0422 -0.5106
 3020SOL    HW120693   4.110   3.914  14.475  0.5730  1.1826  0.5274
 3020SOL    HW220694   4.208   3.887  14.589 -0.5311  0.5718 -0.6559
 3021SOL     OW20695   4.378   1.001   2.184  0.1973  0.3489  0.0709
 3021SOL    HW120696   4.336   0.956   2.257 -0.9848 -0.4733 -1.1174
 3021SOL    HW220697   4.444   0.941   2.150  0.2854 -0.0484  0.9573
 3022SOL     OW20698   2.045   4.013   6.404 -0.2133  0.1604 -0.6434
 3022SOL    HW120699   1.987   4.065   6.460  0.0790 -3.0970  2.6776
 3022SOL    HW220700   2.064   4.080   6.338 -1.6196 -0.0293 -1.2359
 3023SOL     OW20701   0.344   4.231   0.965  0.3873 -0.1200  0.3487
 3023SOL    HW120702   0.282   4.158   0.961  1.8570 -1.2394 -1.6007
 3023SOL    HW220703   0.426   4.183   0.952 -1.1034 -2.2326 -1.1728
 3024SOL     OW20704   0.237   4.111  17.230 -0.5085 -0.0040  0.1262
 3024SOL    HW120705   0.229   4.200  17.262 -0.9386  0.9501 -2.5917
 3024SOL    HW220706   0.299   4.076  17.293 -1.7184 -0.0493  1.2935
 3025SOL     OW20707   0.023   2.125   3.256  0.3764 -0.7495 -0.3629
 3025SOL    HW120708   0.053   2.036   3.273 -2.1125 -1.6537 -0.7665
 3025SOL    HW220709   0.003   2.133   3.163 -0.1077 -2.6391 -0.4116
 3026SOL     OW20710   2.086   4.040   7.206  0.6818 -0.3112  0.3812
 3026SOL    HW120711   2.145   3.966   7.218 -0.5941 -1.3349  0.3415
 3026SOL    HW220712   2.129   4.091   7.137 -1.5376 -0.8634 -1.3942
 3027SOL     OW20713   2.379   4.078  10.287  0.1408  0.5517  0.3358
 3027SOL    HW120714   2.307   4.140  10.274  0.6146  1.3012  1.3048
 3027SOL    HW220715   2.457   4.132  10.276  1.5836 -1.2938  1.7189
 3028SOL     OW20716   1.004   0.583   8.819  0.1240  0.4157 -0.2807
 3028SOL    HW120717   1.088   0.591   8.774 -0.1658 -1.3666 -1.1317
 3028SOL    HW220718   1.011   0.653   8.885  0.0145  0.7046 -0.5767
 3029SOL     OW20719   4.085   3.553   6.302 -0.0585 -0.0039 -0.2744
 3029SOL    HW120720   4.011   3.577   6.246 -1.3566  0.8073  1.8029
 3029SOL    HW220721   4.131   3.483   6.255 -0.8856 -0.8352  0.1576
 3030SOL     OW20722   2.099   0.196   7.845  0.5423  0.2157 -0.1895
 3030SOL    HW120723   2.097   0.287   7.816 -0.5681  0.5462  0.9390
 3030SOL    HW220724   2.107   0.162   7.755  2.1892 -0.2980  0.1465
 3031SOL     OW20725   3.286   3.582   9.070  0.6157 -0.7241  0.0194
 3031SOL    HW120726   3.312   3.630   9.148 -2.0600  2.5376 -1.0823
 3031SOL    HW220727   3.204   3.540   9.096 -0.7975  1.8227 -0.3869
 3032SOL     OW20728   4.227   1.934   6.202 -0.0201 -0.5574 -0.3178
 3032SOL    HW120729   4.256   1.920   6.112  0.4282  0.4126 -0.3293
 3032SOL    HW220730   4.155   1.997   6.192 -0.7312 -1.1241  1.2902
 3033SOL     OW20731   1.852   4.455   6.331 -0.1423  0.4381 -0.2409
 3033SOL    HW120732   1.772   4.505   6.315 -0.0292  0.1010 -1.9240
 3033SOL    HW220733   1.904   4.511   6.388  1.5963 -1.7936  0.3555
 3034SOL     OW20734   3.187   3.896  14.974 -0.4690  0.6140 -0.2288
 3034SOL    HW120735   3.110   3.854  15.010  0.6318 -2.0149 -0.9274
 3034SOL    HW220736   3.206   3.830  14.908 -0.1390 -0.0879  0.5701
 3035SOL     OW20737   3.120   4.332   6.493 -0.3651  0.6582 -0.0130
 3035SOL    HW120738   3.106   4.400   6.427 -3.2219  0.1221  0.0698
 3035SOL    HW220739   3.093   4.372   6.576  0.4445  1.7100 -0.2516
 3036SOL     OW20740   1.496   1.648  17.661 -0.0630 -0.0014 -0.1882
 3036SOL    HW120741   1.493   1.720  17.723  2.8002  0.1766 -0.2757
 3036SOL    HW220742   1.554   1.585  17.704  3.7640  2.1188 -2.2463
 3037SOL     OW20743   2.688   4.243   5.868  0.1976  0.0654 -0.3126
 3037SOL    HW120744   2.692   4.245   5.772 -2.1997 -0.3920 -0.4269
 3037SOL    HW220745   2.661   4.332   5.892 -0.0791 -0.1360  0.1090
 3038SOL     OW20746   2.821   3.146   3.313  0.1231  0.5672  0.5903
 3038SOL    HW120747   2.872   3.108   3.242 -4.7888 -1.1623 -1.9569
 3038SOL    HW220748   2.778   3.218   3.269 -0.2089  0.5398  0.8709
 3039SOL     OW20749   0.042   3.307   1.659  0.4633  0.1342  0.0245
 3039SOL    HW120750   4.688   3.298   1.641  0.4175 -1.2526  0.9402
 3039SOL    HW220751   0.056   3.384   1.603  2.7469 -0.7493 -0.6343
 3040SOL     OW20752   0.397   1.074   4.599 -0.1153 -0.2698 -0.0853
 3040SOL    HW120753   0.321   1.015   4.597  1.2963 -2.0856 -0.8429
 3040SOL    HW220754   0.379   1.143   4.536  0.7733  0.8626  0.8779
 3041SOL     OW20755   1.157   1.633   4.381 -0.1020  0.3630 -0.1619
 3041SOL    HW120756   1.228   1.695   4.395  1.0076 -0.7502 -0.8268
 3041SOL    HW220757   1.085   1.681   4.420 -1.7951 -2.0136 -0.3283
 3042SOL     OW20758   1.964   3.574   7.673 -0.2691 -0.6378  0.1373
 3042SOL    HW120759   1.875   3.553   7.642 -0.1519  0.4668 -0.9515
 3042SOL    HW220760   2.012   3.509   7.623 -0.8862 -0.6697 -0.4235
 3043SOL     OW20761   4.103   0.991   2.168 -0.6075 -0.3723  0.2451
 3043SOL    HW120762   4.152   0.940   2.103 -0.7129  1.3849 -1.2083
 3043SOL    HW220763   4.062   0.928   2.227  0.7028 -1.7520 -0.3144
 3044SOL     OW20764   0.497   4.218   6.702  0.2051 -0.0891 -1.0699
 3044SOL    HW120765   0.537   4.142   6.660 -0.7216  0.1122 -2.3441
 3044SOL    HW220766   0.458   4.187   6.783  2.4036 -0.5234 -0.1830
 3045SOL     OW20767   2.815   2.631   2.291  0.0164 -0.1707  0.1918
 3045SOL    HW120768   2.817   2.536   2.303 -2.5987 -0.3328 -0.6261
 3045SOL    HW220769   2.898   2.645   2.246 -1.0771 -0.3566 -1.9258
 3046SOL     OW20770   1.786   1.235   0.838  0.1452  0.7259 -0.7491
 3046SOL    HW120771   1.700   1.264   0.869 -0.4878 -2.1476  0.1685
 3046SOL    HW220772   1.760   1.148   0.807  0.6757  0.9807 -1.9126
 3047SOL     OW20773   3.945   2.507   5.611 -0.6901 -0.3493  0.1197
 3047SOL    HW120774   3.901   2.589   5.587  2.0174  1.7471  2.3387
 3047SOL    HW220775   4.022   2.515   5.555 -0.6345  3.2450  0.6888
 3048SOL     OW20776   1.390   2.814   7.590 -0.2407  0.1934 -0.0269
 3048SOL    HW120777   1.369   2.863   7.511  1.2845  1.8515  0.5863
 3048SOL    HW220778   1.476   2.777   7.567  0.7825  1.0550  2.4152
 3049SOL     OW20779   4.137   1.404   9.209  0.3109 -0.1024 -0.5811
 3049SOL    HW120780   4.210   1.464   9.225  1.6816 -2.0739  0.5084
 3049SOL    HW220781   4.100   1.441   9.128  0.9762  0.3660 -0.6720
 3050SOL     OW20782   1.696   3.092   3.798  0.5434  0.2523 -0.3254
 3050SOL    HW120783   1.681   3.091   3.704  0.0244  2.4891 -0.2704
 3050SOL    HW220784   1.641   3.168   3.819  0.3418  0.6342 -2.2708
 3051SOL     OW20785   1.645   1.631  14.513 -0.5549  0.3952 -0.3833
 3051SOL    HW120786   1.689   1.702  14.467  1.5596  1.1333  2.7632
 3051SOL    HW220787   1.561   1.672  14.534 -0.8599  0.0352 -0.9049
 3052SOL     OW20788   3.048   3.249  14.826  0.0188 -0.0103 -0.3219
 3052SOL    HW120789   2.966   3.293  14.805 -1.1693 -1.8300  0.4745
 3052SOL    HW220790   3.041   3.174  14.767  0.5050  1.1220 -1.8191
 3053SOL     OW20791   1.783   2.280   5.103 -0.6553  0.1141  0.1444
 3053SOL    HW120792   1.798   2.269   5.197 -0.6588  2.1325  0.3728
 3053SOL    HW220793   1.833   2.356   5.074  2.4309 -1.2369  1.9102
 3054SOL     OW20794   2.057   4.391   8.186 -0.9012 -0.2322 -0.1382
 3054SOL    HW120795   2.036   4.322   8.123  0.6465 -0.9324  0.1175
 3054SOL    HW220796   1.981   4.402   8.244 -0.4762  0.3013  0.3195
 3055SOL     OW20797   4.436   0.404  11.675  0.1397  0.1356  0.3093
 3055SOL    HW120798   4.438   0.488  11.629 -1.8906 -0.7145 -1.3477
 3055SOL    HW220799   4.470   0.432  11.760  2.1552 -0.7722 -0.2117
 3056SOL     OW20800   1.467   0.103   0.082  0.1405 -0.0641  0.2478
 3056SOL    HW120801   1.500   0.192   0.085  1.6138 -0.7041  2.7196
 3056SOL    HW220802   1.491   0.075   0.170  3.0534 -0.3059 -0.6200
 3057SOL     OW20803   0.248   2.690   6.521 -0.0104  0.2677  0.3261
 3057SOL    HW120804   0.300   2.626   6.473 -1.7590 -1.6074  0.9449
 3057SOL    HW220805   0.271   2.768   6.470 -0.0533 -0.5887 -1.0195
 3058SOL     OW20806   2.619   4.158   6.976 -0.3069 -1.2998  0.5713
 3058SOL    HW120807   2.568   4.225   6.931 -0.4463 -0.8167  1.4517
 3058SOL    HW220808   2.559   4.083   6.983 -0.3494 -1.3811 -0.7241
 3059SOL     OW20809   0.227   2.281  11.465  0.4157  0.0432  0.0374
 3059SOL    HW120810   0.237   2.354  11.403 -0.9323  0.7555  0.6608
 3059SOL    HW220811   0.196   2.330  11.541  0.0399  0.6039 -0.4780
 3060SOL     OW20812   0.915   2.365  12.688  0.2201  0.2344 -0.4121
 3060SOL    HW120813   0.918   2.274  12.660  1.5566  0.1152  0.1175
 3060SOL    HW220814   0.826   2.387  12.661 -0.2798 -2.6297 -1.1068
 3061SOL     OW20815   2.594   0.683  13.498 -0.4375 -0.2466 -0.3526
 3061SOL    HW120816   2.534   0.690  13.572 -0.5527 -0.7640 -0.4002
 3061SOL    HW220817   2.655   0.616  13.528  0.8361  1.9237  1.9302
 3062SOL     OW20818   3.325   0.507  11.826  0.6331 -0.8519  0.4532
 3062SOL    HW120819   3.262   0.443  11.860 -1.2032  1.0191  0.5443
 3062SOL    HW220820   3.342   0.570  11.895  1.3451  1.3477 -1.7345
 3063SOL     OW20821   4.451   2.561   7.364  0.5001 -0.0234 -0.3820
 3063SOL    HW120822   4.431   2.643   7.409  0.1503  0.8410 -2.1402
 3063SOL    HW220823   4.545   2.567   7.345 -0.2597  0.1954 -3.8956
 3064SOL     OW20824   4.060   3.200  15.341 -0.0399 -0.2133  0.3814
 3064SOL    HW120825   4.036   3.217  15.432 -1.0073  0.7536 -0.0450
 3064SOL    HW220826   4.088   3.109  15.348  1.4923  0.2525  0.1351
 3065SOL     OW20827   4.610   2.084   4.263  0.0373 -0.5645  0.2192
 3065SOL    HW120828   4.581   2.043   4.181 -2.2382  1.6391 -0.1077
 3065SOL    HW220829   4.547   2.057   4.330 -1.4280  1.6791 -0.2551
 3066SOL     OW20830   2.388   0.655   8.126  0.0416 -0.2399 -0.0367
 3066SOL    HW120831   2.472   0.700   8.142 -0.0160 -0.5420  1.1621
 3066SOL    HW220832   2.325   0.698   8.184 -0.5038 -1.3601  0.2061
 3067SOL     OW20833   2.999   1.125  16.933  0.2225  0.4132 -0.2152
 3067SOL    HW120834   2.914   1.110  16.892 -0.0635  0.4701  0.3508
 3067SOL    HW220835   2.986   1.196  16.996 -0.5027  0.7338 -0.7254
 3068SOL     OW20836   0.178   4.585  12.570  0.0496  0.1580  0.0040
 3068SOL    HW120837   0.125   4.664  12.577  0.6541  0.7168 -1.8138
 3068SOL    HW220838   0.144   4.548  12.489  1.3948  1.0107 -0.9403
 3069SOL     OW20839   2.915   2.170  11.081 -0.3344  0.7257 -0.1956
 3069SOL    HW120840   2.959   2.250  11.109  1.8740 -0.2205 -0.9065
 3069SOL    HW220841   2.989   2.133  11.031 -1.3650  0.1492 -1.2885
 3070SOL     OW20842   2.239   2.194  13.382  0.5542 -0.0433  0.2362
 3070SOL    HW120843   2.303   2.169  13.449 -0.3996  0.2905  1.2656
 3070SOL    HW220844   2.188   2.249  13.441 -2.5463 -2.5360 -0.1427
 3071SOL     OW20845   0.974   4.300   6.238  0.0771  0.7613 -0.5535
 3071SOL    HW120846   0.960   4.213   6.276  0.5181  1.0764  0.3451
 3071SOL    HW220847   1.060   4.295   6.195 -0.3616 -1.6109 -1.1527
 3072SOL     OW20848   1.951   3.804   7.815 -0.2864  0.3004 -0.1568
 3072SOL    HW120849   1.949   3.720   7.769 -0.1070 -0.4285  1.1719
 3072SOL    HW220850   1.902   3.785   7.895  0.9883 -0.6562  0.3902
 3073SOL     OW20851   1.262   1.162  11.647  0.1150 -1.1412 -1.1204
 3073SOL    HW120852   1.205   1.121  11.582  0.4456 -0.3118 -1.9287
 3073SOL    HW220853   1.321   1.088  11.663 -0.0549 -0.7799  1.1683
 3074SOL     OW20854   3.762   2.981  12.737 -0.2677  0.7275 -0.0905
 3074SOL    HW120855   3.856   2.999  12.727  0.0267 -0.5707  0.4204
 3074SOL    HW220856   3.729   3.069  12.755  1.1265  1.1270  0.5254
 3075SOL     OW20857   1.971   3.785  10.417  0.5920  0.1490  0.5480
 3075SOL    HW120858   1.935   3.795  10.329  2.5166 -2.2215 -0.4984
 3075SOL    HW220859   2.065   3.795  10.402  0.5867 -0.1100  0.3529
 3076SOL     OW20860   4.078   3.106   3.661  0.7551  0.1320  0.0100
 3076SOL    HW120861   4.116   3.019   3.647  1.7283  0.6785 -0.7473
 3076SOL    HW220862   4.064   3.143   3.574  0.5604 -1.5967 -0.7078
 3077SOL     OW20863   1.603   4.728   7.566  0.0835 -0.4431 -0.0567
 3077SOL    HW120864   1.546   4.709   7.491  0.2720  0.8672 -0.5212
 3077SOL    HW220865   1.662   0.052   7.527 -1.9211  1.4149 -0.0612
 3078SOL     OW20866   2.658   1.551   0.507 -0.0013  0.2854  0.0710
 3078SOL    HW120867   2.712   1.609   0.454 -0.5103 -0.8725 -1.7160
 3078SOL    HW220868   2.699   1.465   0.497 -1.1043 -0.1009 -1.1376
 3079SOL     OW20869   3.365   0.395  15.055  0.8633 -0.1026 -0.2921
 3079SOL    HW120870   3.299   0.371  14.990  1.5417  2.9328 -2.0995
 3079SOL    HW220871   3.441   0.349  15.018  1.8743  1.4285 -0.1510
 3080SOL     OW20872   3.395   0.292   4.068 -0.0949 -0.6336  0.2661
 3080SOL    HW120873   3.417   0.199   4.068  0.4754 -0.4902  4.0769
 3080SOL    HW220874   3.378   0.305   3.975  0.1754 -2.3065 -0.0158
 3081SOL     OW20875   2.202   0.468   5.113  0.4569  0.2470 -0.0430
 3081SOL    HW120876   2.256   0.408   5.163  1.2763  1.6330  0.7297
 3081SOL    HW220877   2.123   0.468   5.167 -0.2153 -3.0019 -1.0435
 3082SOL     OW20878   1.788   4.578  15.247  0.5326 -0.4269  0.5488
 3082SOL    HW120879   1.712   4.534  15.208  0.4162  1.9263 -1.9240
 3082SOL    HW220880   1.754   4.667  15.257  0.8746 -0.0509 -1.6063
 3083SOL     OW20881   0.175   1.975   3.913 -0.5028 -0.1461 -0.2342
 3083SOL    HW120882   0.083   2.000   3.921 -0.3410  0.3935 -0.0686
 3083SOL    HW220883   0.219   2.060   3.908  0.5115 -0.6932 -0.7630
 3084SOL     OW20884   2.706   0.754   5.936 -0.1013 -0.2863  0.1490
 3084SOL    HW120885   2.758   0.830   5.912 -0.8251  0.1310 -0.1159
 3084SOL    HW220886   2.769   0.684   5.917 -0.7228 -0.9407  0.4932
 3085SOL     OW20887   2.862   2.059  17.557  0.0305  0.4174  0.2116
 3085SOL    HW120888   2.802   2.063  17.482 -1.2293  3.7928  1.3757
 3085SOL    HW220889   2.844   1.968  17.578  0.0903  0.1630 -0.8484
 3086SOL     OW20890   0.785   1.834   1.123  0.3469 -0.0436  0.4797
 3086SOL    HW120891   0.734   1.910   1.148 -0.6063 -0.6525  0.3768
 3086SOL    HW220892   0.844   1.874   1.059  0.6282 -1.8055 -0.3726
 3087SOL     OW20893   4.022   2.688   2.399  0.2200  0.4436 -0.7140
 3087SOL    HW120894   4.098   2.746   2.390  0.9518 -0.0504  2.1556
 3087SOL    HW220895   3.980   2.722   2.478  1.8037  0.4285  0.1480
 3088SOL     OW20896   3.275   0.733   4.217 -0.4411 -0.1729  0.4629
 3088SOL    HW120897   3.254   0.825   4.205  1.3954  0.4262  1.7090
 3088SOL    HW220898   3.359   0.726   4.171 -0.5865 -2.2594  0.5417
 3089SOL     OW20899   4.664   4.342   6.246 -0.0678 -0.7213 -0.0939
 3089SOL    HW120900   4.672   4.424   6.197 -2.5089  0.5066  1.5560
 3089SOL    HW220901   4.571   4.346   6.270  0.0002 -2.2240  0.3808
 3090SOL     OW20902   1.558   0.444   2.275  1.0953  0.2314 -0.1544
 3090SOL    HW120903   1.542   0.501   2.350  0.6220  0.1281 -0.1750
 3090SOL    HW220904   1.468   0.444   2.242  0.5253  1.7726  1.4270
 3091SOL     OW20905   0.679   3.385   8.052  0.1310 -0.1273  0.9339
 3091SOL    HW120906   0.596   3.424   8.081  2.3211  3.2192  2.7345
 3091SOL    HW220907   0.735   3.378   8.130  1.4021  1.9401  0.2087
 3092SOL     OW20908   0.532   0.444   5.543  0.3929 -0.1403  0.3856
 3092SOL    HW120909   0.522   0.519   5.601 -0.2672 -0.0161  0.1101
 3092SOL    HW220910   0.626   0.430   5.553  0.3347  1.8621  3.6195
 3093SOL     OW20911   2.326   0.193   5.053 -0.2491 -0.2986 -0.6212
 3093SOL    HW120912   2.336   0.098   5.039  0.4061 -0.2781 -0.2922
 3093SOL    HW220913   2.231   0.201   5.059  0.0626  1.9122  1.3888
 3094SOL     OW20914   0.271   2.932   2.768 -0.0432  0.0650  0.3179
 3094SOL    HW120915   0.326   3.006   2.743  1.4078 -2.2545 -3.4074
 3094SOL    HW220916   0.182   2.961   2.750 -0.0990 -2.0654 -3.0016
 3095SOL     OW20917   3.007   1.937   2.601 -0.5844 -0.2708 -0.6641
 3095SOL    HW120918   3.073   1.934   2.532  0.0777  0.2386 -0.0590
 3095SOL    HW220919   2.992   1.843   2.604  0.2999 -0.3265  2.2236
 3096SOL     OW20920   0.391   3.276   7.056 -0.0940  0.2490  0.4072
 3096SOL    HW120921   0.337   3.198   7.071 -2.1650  1.2912 -1.5507
 3096SOL    HW220922   0.479   3.240   7.065  0.1635  0.6136 -0.6107
 3097SOL     OW20923   1.332   4.724   3.992 -0.2485 -0.3390  0.0852
 3097SOL    HW120924   1.329   4.715   4.087 -1.1216  1.1276  0.2142
 3097SOL    HW220925   1.326   4.634   3.960 -2.4858 -0.6107  1.2699
 3098SOL     OW20926   3.613   0.450   6.834 -0.2456 -0.6477 -0.8649
 3098SOL    HW120927   3.696   0.404   6.824 -0.4546 -1.4169  0.8729
 3098SOL    HW220928   3.614   0.443   6.930 -1.0964 -0.7741 -0.8616
 3099SOL     OW20929   2.385   0.453   5.369 -0.0614 -0.0778 -0.4634
 3099SOL    HW120930   2.429   0.533   5.342 -2.5994  1.9270  1.3566
 3099SOL    HW220931   2.312   0.496   5.413 -1.6407 -1.9273 -1.2491
 3100SOL     OW20932   4.051   1.211   8.723 -0.6508  0.5838  0.5770
 3100SOL    HW120933   3.996   1.198   8.801  0.6971  0.7412  1.5516
 3100SOL    HW220934   4.142   1.195   8.748 -1.0462 -0.1992  1.5172
 3101SOL     OW20935   2.335   3.967   6.589  0.0880 -0.2768  0.1089
 3101SOL    HW120936   2.390   3.894   6.616 -1.4269 -1.9434 -1.3185
 3101SOL    HW220937   2.321   3.939   6.498  0.2517 -0.5393  0.1681
 3102SOL     OW20938   1.037   4.678   6.682 -0.0098  0.2261  0.0537
 3102SOL    HW120939   1.115   4.645   6.638 -0.8563 -2.2609  0.4366
 3102SOL    HW220940   1.063   0.021   6.723  0.7980 -0.6342  1.2991
 3103SOL     OW20941   3.915   3.376   9.302 -0.4587  0.0358  0.3503
 3103SOL    HW120942   3.973   3.442   9.340 -0.1428 -0.6626  1.1039
 3103SOL    HW220943   3.966   3.295   9.300 -0.9405 -0.2632  0.0019
 3104SOL     OW20944   4.185   4.453  14.951 -0.6539  0.4944 -0.0400
 3104SOL    HW120945   4.102   4.437  14.906 -0.4106  0.6396 -0.5400
 3104SOL    HW220946   4.189   4.548  14.958  0.4366  0.4279  0.3081
 3105SOL     OW20947   4.434   2.767   8.423 -0.0523  0.1295 -0.1212
 3105SOL    HW120948   4.359   2.825   8.425 -1.4659 -1.7255  0.4176
 3105SOL    HW220949   4.505   2.803   8.477 -2.6692  3.9366  0.7540
 3106SOL     OW20950   3.885   1.448   2.120 -0.1392  0.4588 -0.8388
 3106SOL    HW120951   3.874   1.354   2.133  2.3341  0.5559  1.8509
 3106SOL    HW220952   3.880   1.440   2.025 -0.2775 -2.9394 -0.5560
 3107SOL     OW20953   1.471   3.435  13.831 -0.8777 -0.3893 -0.1615
 3107SOL    HW120954   1.445   3.502  13.768 -0.4426  0.1999  0.2765
 3107SOL    HW220955   1.448   3.471  13.917 -0.4139 -0.7512  0.1169
 3108SOL     OW20956   2.125   3.620   7.122  0.2155 -0.4518 -0.2345
 3108SOL    HW120957   2.076   3.585   7.196 -1.0130  1.6727 -0.0356
 3108SOL    HW220958   2.073   3.700   7.109 -0.4143 -0.8733 -0.3133
 3109SOL     OW20959   0.540   3.659   8.815  0.0416 -0.5322  0.3905
 3109SOL    HW120960   0.495   3.741   8.837 -1.3105 -0.4404 -2.6476
 3109SOL    HW220961   0.625   3.696   8.838  1.0262 -2.2880 -0.4775
 3110SOL     OW20962   1.852   2.682   2.225 -0.7214 -0.3126  0.0155
 3110SOL    HW120963   1.775   2.632   2.202  0.0549 -1.2226 -0.6137
 3110SOL    HW220964   1.925   2.647   2.174 -0.0113  1.5760 -0.2692
 3111SOL     OW20965   4.376   0.303   1.517  0.4418 -0.3942  0.3521
 3111SOL    HW120966   4.405   0.231   1.573 -0.3889  0.6982  2.1788
 3111SOL    HW220967   4.340   0.367   1.578  0.6469 -0.6909  0.7776
 3112SOL     OW20968   2.538   3.007   6.749 -0.6064  0.3652 -0.0929
 3112SOL    HW120969   2.485   3.053   6.814 -1.8703 -0.2515 -0.6900
 3112SOL    HW220970   2.475   2.941   6.718 -0.8712 -0.5381  2.3603
 3113SOL     OW20971   3.209   1.698   5.431 -0.1860  0.3140  0.2005
 3113SOL    HW120972   3.279   1.694   5.366  0.4200  0.9904  0.8141
 3113SOL    HW220973   3.137   1.656   5.384  0.2478 -1.2495  0.9552
 3114SOL     OW20974   2.680   4.070  14.351 -0.2792  0.0404 -0.4254
 3114SOL    HW120975   2.635   4.154  14.351  0.2529  0.3296  2.2062
 3114SOL    HW220976   2.766   4.110  14.340  0.1063 -0.3929  0.9950
 3115SOL     OW20977   3.942   4.131   7.454  0.5973  0.1214 -0.0278
 3115SOL    HW120978   3.905   4.148   7.368 -2.7245  1.8249  1.7431
 3115SOL    HW220979   3.860   4.117   7.501  1.2492 -0.8173  0.8427
 3116SOL     OW20980   3.196   1.188  17.228  0.4201  0.4428 -0.4204
 3116SOL    HW120981   3.119   1.241  17.210 -0.5739 -0.0519  2.2953
 3116SOL    HW220982   3.255   1.212  17.157  0.4341 -1.0327 -0.9160
 3117SOL     OW20983   3.319   1.118   6.486 -0.2688 -0.2114  0.0553
 3117SOL    HW120984   3.379   1.052   6.451 -2.0021 -2.0784  0.5867
 3117SOL    HW220985   3.314   1.171   6.406  1.9656 -0.2849 -0.1376
 3118SOL     OW20986   3.811   4.484   3.275  0.1306  0.7297  0.2875
 3118SOL    HW120987   3.869   4.512   3.346  1.2699  4.0979 -1.9842
 3118SOL    HW220988   3.826   4.555   3.214  1.2180  0.7552  0.5828
 3119SOL     OW20989   4.019   0.391   0.973 -0.6324 -0.0547  0.0838
 3119SOL    HW120990   4.095   0.334   0.965 -0.5402  0.3925 -2.2424
 3119SOL    HW220991   4.013   0.398   1.069  0.5080 -2.1795  0.2960
 3120SOL     OW20992   4.157   4.186   7.274  0.1733 -0.3137 -0.1242
 3120SOL    HW120993   4.108   4.169   7.354  2.3807 -1.1602  1.0423
 3120SOL    HW220994   4.246   4.214   7.293  0.3201  1.1694 -3.0432
 3121SOL     OW20995   4.102   2.689   4.146  0.2003  0.2253  0.4976
 3121SOL    HW120996   4.044   2.651   4.079  1.0054  0.1550 -0.1573
 3121SOL    HW220997   4.185   2.651   4.116 -0.1877 -1.6354  1.8012
 3122SOL     OW20998   4.285   4.348   8.483  0.0880 -0.7647 -0.3567
 3122SOL    HW120999   4.245   4.434   8.495  1.0306 -0.1997 -1.2656
 3122SOL    HW221000   4.374   4.356   8.517  0.4858 -0.5944 -1.4383
 3123SOL     OW21001   1.711   3.680  12.688 -0.5803 -0.1151  0.1551
 3123SOL    HW121002   1.637   3.620  12.683  0.0830 -0.8411 -0.7855
 3123SOL    HW221003   1.705   3.727  12.604  0.0872  0.6831  0.5482
 3124SOL     OW21004   4.600   1.547  17.484 -0.2191 -0.0538  0.1421
 3124SOL    HW121005   4.670   1.498  17.441  0.7203  0.7669  0.7144
 3124SOL    HW221006   4.536   1.570  17.417 -0.0768 -1.9414 -0.6411
 3125SOL     OW21007   4.674   3.062  17.075  0.3282 -0.1750  0.5597
 3125SOL    HW121008   4.684   3.158  17.074  0.4013 -0.1733  1.8469
 3125SOL    HW221009   4.660   3.050  17.169 -1.5360 -1.1807  0.1521
 3126SOL     OW21010   4.575   0.047   9.278 -0.3120 -0.6120 -0.2079
 3126SOL    HW121011   4.511   0.001   9.333 -1.0932 -0.3635 -0.9146
 3126SOL    HW221012   4.651   0.043   9.336  0.2613 -1.4774 -1.0126
 3127SOL     OW21013   0.001   4.627  11.491  0.0343 -0.4595  0.6798
 3127SOL    HW121014   0.081   4.680  11.496  1.0869 -2.2256  2.1776
 3127SOL    HW221015   4.685   4.682  11.434  0.3238  1.6176  2.4041
 3128SOL     OW21016   2.070   4.424   4.250 -0.0724  0.8933  0.0861
 3128SOL    HW121017   2.076   4.505   4.301 -0.2270  0.0612  1.4540
 3128SOL    HW221018   2.024   4.371   4.316 -0.5499 -1.4350 -2.1350
 3129SOL     OW21019   2.381   4.101   2.432  0.0684  0.3705  0.5235
 3129SOL    HW121020   2.297   4.079   2.472  0.9002 -0.2433  1.9294
 3129SOL    HW221021   2.442   4.033   2.463  0.5469  0.2128 -0.7584
 3130SOL     OW21022   3.719   2.231   1.489  0.7195 -0.0527 -0.0196
 3130SOL    HW121023   3.778   2.192   1.424 -1.6762 -1.4514 -1.3142
 3130SOL    HW221024   3.676   2.296   1.433  3.4189  1.0630 -0.7949
 3131SOL     OW21025   3.763   2.531   7.699  0.4705 -0.1701  0.1555
 3131SOL    HW121026   3.682   2.489   7.728 -0.5742  2.0151  0.3525
 3131SOL    HW221027   3.726   2.593   7.637  1.3874  0.5337  0.3083
 3132SOL     OW21028   2.912   1.270   4.366  0.0883 -0.3205  0.2240
 3132SOL    HW121029   2.901   1.195   4.425  0.6231 -1.9294 -1.7352
 3132SOL    HW221030   2.840   1.257   4.304  0.1042 -1.2406  0.4018
 3133SOL     OW21031   1.627   2.088   7.176  0.0226 -0.7687 -0.5144
 3133SOL    HW121032   1.616   2.016   7.239  3.3110 -1.1369 -0.3659
 3133SOL    HW221033   1.713   2.116   7.205  0.0243  0.2324 -1.5062
 3134SOL     OW21034   1.654   2.738  16.086  0.1490 -0.0467  0.2885
 3134SOL    HW121035   1.674   2.832  16.082  0.5794 -0.1599 -0.1299
 3134SOL    HW221036   1.679   2.718  16.176  1.6597  1.4776  0.2043
 3135SOL     OW21037   4.593   2.050   2.255 -0.0158 -0.3292 -0.4194
 3135SOL    HW121038   4.670   2.010   2.295 -0.7757 -0.3476  1.0248
 3135SOL    HW221039   4.525   2.016   2.314  0.2571  1.7593  1.1178
 3136SOL     OW21040   2.573   2.588  10.601 -0.5298 -0.4316 -0.3070
 3136SOL    HW121041   2.611   2.518  10.655  1.5986 -1.2176 -2.8145
 3136SOL    HW221042   2.482   2.593  10.629 -0.4955 -2.2706  0.1467
 3137SOL     OW21043   2.001   0.978  17.539 -0.1003 -0.0263  0.3258
 3137SOL    HW121044   2.011   0.912  17.470  1.0756  1.3365 -0.8140
 3137SOL    HW221045   2.090   0.990  17.573  0.2679 -2.0900  0.1016
 3138SOL     OW21046   0.475   2.141   9.069  0.5862  0.1095  0.7692
 3138SOL    HW121047   0.466   2.126   9.163  3.2640 -0.6315  0.9084
 3138SOL    HW221048   0.406   2.084   9.035  0.9580 -0.4420  0.9510
 3139SOL     OW21049   2.596   1.164   5.713 -0.3864 -0.4082 -0.0426
 3139SOL    HW121050   2.663   1.232   5.708  0.0672 -0.9224 -0.9365
 3139SOL    HW221051   2.517   1.201   5.674 -0.5333 -1.4601 -0.7382
 3140SOL     OW21052   4.323   4.675   7.461 -0.0173 -0.1481 -0.3768
 3140SOL    HW121053   4.264   4.723   7.518 -0.2899  1.3084 -1.8884
 3140SOL    HW221054   4.321   4.586   7.496  3.1270  0.3929  1.1229
 3141SOL     OW21055   0.902   1.556   9.564  0.1552  0.5204 -0.2162
 3141SOL    HW121056   0.891   1.482   9.504 -0.5859  0.9069 -0.5498
 3141SOL    HW221057   0.883   1.519   9.650 -1.6771 -2.1707 -1.7603
 3142SOL     OW21058   1.842   1.426   6.463  0.5806 -0.0792 -0.3212
 3142SOL    HW121059   1.773   1.464   6.409 -1.4654 -0.4522  2.0208
 3142SOL    HW221060   1.909   1.409   6.397  0.3971  2.4423 -1.1738
 3143SOL     OW21061   0.697   3.851   0.923  0.4283  0.0578 -0.1290
 3143SOL    HW121062   0.702   3.793   0.848 -3.1995 -1.6442  0.9362
 3143SOL    HW221063   0.792   3.852   0.938  0.6564  0.3118 -1.5643
 3144SOL     OW21064   2.945   3.358   8.213  0.4682 -0.1107 -0.3596
 3144SOL    HW121065   3.013   3.328   8.274  0.0880 -0.3955 -0.0773
 3144SOL    HW221066   2.989   3.403   8.141 -0.9687  1.4472 -0.2661
 3145SOL     OW21067   4.504   3.590   7.885 -0.1612  0.4098  0.5438
 3145SOL    HW121068   4.435   3.602   7.950  1.5585  1.1251  2.2588
 3145SOL    HW221069   4.467   3.631   7.807  1.0354 -2.5453 -1.6011
 3146SOL     OW21070   0.951   0.056   8.884  0.2153 -0.0741  0.6315
 3146SOL    HW121071   0.940   0.151   8.885 -2.0420 -0.3238 -0.3195
 3146SOL    HW221072   0.904   0.035   8.803 -1.7184  1.7596  1.2796
 3147SOL     OW21073   0.764   3.906  17.477  0.1059  0.3834  0.5606
 3147SOL    HW121074   0.772   3.849  17.401  0.7253  1.5135 -0.2305
 3147SOL    HW221075   0.804   3.854  17.546  1.2256 -0.1235 -0.4535
 3148SOL     OW21076   3.022   4.695   4.549  0.1359 -0.4765  0.0536
 3148SOL    HW121077   3.088   4.669   4.485 -0.8521 -1.1004 -0.7179
 3148SOL    HW221078   3.013   0.050   4.535  0.2940 -0.4160  0.3726
 3149SOL     OW21079   2.762   4.008   6.770 -0.0422 -0.1889 -0.2732
 3149SOL    HW121080   2.725   4.080   6.822 -1.8273 -1.2974  0.0003
 3149SOL    HW221081   2.830   4.048   6.716 -0.5802  0.6578 -0.3233
 3150SOL     OW21082   2.310   2.581  11.771 -0.1687  0.0341 -0.1095
 3150SOL    HW121083   2.384   2.552  11.824 -0.6329 -0.5709  0.1980
 3150SOL    HW221084   2.346   2.608  11.686 -0.0663 -0.4449 -0.2178
 3151SOL     OW21085   2.010   1.062   4.438  0.3916 -0.1476 -0.5305
 3151SOL    HW121086   1.938   1.052   4.376  1.9686 -1.3689 -2.1650
 3151SOL    HW221087   2.070   0.991   4.414  1.0855  0.0423  0.5980
 3152SOL     OW21088   2.838   1.398   4.610  0.5028  0.0153 -0.4293
 3152SOL    HW121089   2.861   1.364   4.523  0.5711  2.6716 -1.4589
 3152SOL    HW221090   2.923   1.391   4.653 -1.6350 -0.3199  3.7001
 3153SOL     OW21091   2.726   4.630   9.071  0.1911  0.3658 -0.5831
 3153SOL    HW121092   2.665   4.673   9.011 -0.0411  0.1089 -0.5254
 3153SOL    HW221093   2.767   4.706   9.113 -0.3383 -0.6075  1.6560
 3154SOL     OW21094   0.213   2.346   4.039 -0.4637 -0.2134  0.2174
 3154SOL    HW121095   0.201   2.441   4.045  2.0672 -0.0190  2.3380
 3154SOL    HW221096   0.166   2.313   4.116  0.0189  2.1549  1.5411
 3155SOL     OW21097   3.957   2.982   2.234  0.2964 -0.2978  0.7778
 3155SOL    HW121098   3.887   3.045   2.252 -1.9269 -1.4465 -3.9628
 3155SOL    HW221099   4.025   3.026   2.284 -1.0193  0.9743  1.4528
 3156SOL     OW21100   1.620   2.872   7.842 -0.0349 -0.1362 -0.0419
 3156SOL    HW121101   1.627   2.794   7.786 -1.7062 -1.4101  1.5151
 3156SOL    HW221102   1.586   2.828   7.920  1.9307 -2.0821 -0.2713
 3157SOL     OW21103   3.015   0.898   0.657  0.2189  0.4830 -0.2290
 3157SOL    HW121104   2.939   0.950   0.633 -0.6006 -0.9495 -0.7340
 3157SOL    HW221105   2.989   0.871   0.745  0.1790 -0.7959 -0.6382
 3158SOL     OW21106   1.371   0.884   6.160  0.3450  0.2653 -0.4676
 3158SOL    HW121107   1.423   0.949   6.208  0.7175  1.1509 -2.0609
 3158SOL    HW221108   1.285   0.909   6.194  0.6219  0.5834 -0.0095
 3159SOL     OW21109   0.433   1.309   4.143 -0.1958  0.1588  0.1316
 3159SOL    HW121110   0.483   1.231   4.169 -0.5574 -0.3478 -0.6801
 3159SOL    HW221111   0.504   1.363   4.110 -1.0331  0.4211 -1.2626
 3160SOL     OW21112   0.225   3.737   5.942  0.3578  0.1970  0.5402
 3160SOL    HW121113   0.189   3.680   5.874  0.6223  1.8259 -0.9803
 3160SOL    HW221114   0.173   3.815   5.921  1.2828  1.2521  2.1878
 3161SOL     OW21115   1.404   4.647   3.708  0.0889  0.0632 -0.9735
 3161SOL    HW121116   1.498   4.643   3.722  0.0173 -0.6061 -0.6682
 3161SOL    HW221117   1.367   4.583   3.769  0.5320  1.2482  0.5356
 3162SOL     OW21118   0.807   2.536   5.393 -0.0868 -0.3909  0.0132
 3162SOL    HW121119   0.739   2.578   5.446 -0.1992 -3.8257  2.5960
 3162SOL    HW221120   0.838   2.621   5.361  2.9551 -0.7507  1.8964
 3163SOL     OW21121   0.876   4.017   9.948 -0.1223  0.0825  0.5942
 3163SOL    HW121122   0.944   3.970   9.899  1.2287  1.9830  0.6495
 3163SOL    HW221123   0.841   3.966  10.021  0.4447 -1.0470  0.0837
 3164SOL     OW21124   3.113   4.159  11.362 -0.4827 -0.1915  0.5126
 3164SOL    HW121125   3.083   4.213  11.435 -1.1322  0.8510 -0.5086
 3164SOL    HW221126   3.208   4.166  11.359 -0.3579 -2.0837  0.0430
 3165SOL     OW21127   4.514   3.663  14.909 -0.2853  0.1301 -0.4930
 3165SOL    HW121128   4.558   3.664  14.824  0.4901  0.2860 -0.0914
 3165SOL    HW221129   4.441   3.608  14.883  0.4415  0.0611 -2.3858
 3166SOL     OW21130   1.591   0.184   8.095 -0.2653 -0.2639 -0.2189
 3166SOL    HW121131   1.594   0.090   8.075 -0.7630 -0.4212  0.4207
 3166SOL    HW221132   1.636   0.225   8.021  0.4255 -0.3040  0.1852
 3167SOL     OW21133   3.212   0.201  12.505 -0.4472  0.3069 -0.2044
 3167SOL    HW121134   3.157   0.273  12.537  0.0001  1.1898 -1.4177
 3167SOL    HW221135   3.289   0.249  12.476 -0.3378 -0.0827 -0.5599
 3168SOL     OW21136   0.280   1.979  10.063 -0.2177  0.1130 -0.2306
 3168SOL    HW121137   0.302   2.072  10.068  0.2742 -0.0664  0.8429
 3168SOL    HW221138   0.196   1.980  10.016 -0.7997 -2.7097  0.7647
 3169SOL     OW21139   4.259   0.256   0.982 -0.0461 -0.2100  0.0252
 3169SOL    HW121140   4.268   0.250   1.077 -0.6861 -3.0412 -0.0738
 3169SOL    HW221141   4.341   0.214   0.956  1.6611  2.1027  1.7475
 3170SOL     OW21142   1.181   0.137   3.791 -0.0580 -0.0786 -0.6242
 3170SOL    HW121143   1.269   0.105   3.812 -0.8386 -1.5678  0.3922
 3170SOL    HW221144   1.126   0.070   3.831 -0.4654  0.3420 -0.4921
 3171SOL     OW21145   0.855   3.544  13.520  0.6229 -0.7608  0.0414
 3171SOL    HW121146   0.760   3.549  13.509  0.7471 -0.5479 -0.9684
 3171SOL    HW221147   0.886   3.555  13.430  0.9835  0.9467  0.3661
 3172SOL     OW21148   1.721   3.195   8.989 -0.8285 -0.3605  0.2378
 3172SOL    HW121149   1.783   3.167   9.056  0.1803  0.7043 -0.2525
 3172SOL    HW221150   1.764   3.165   8.909  1.6885  0.7896  1.1439
 3173SOL     OW21151   1.317   1.831   7.680 -0.6421  0.5265  0.1317
 3173SOL    HW121152   1.370   1.769   7.730  0.2277  1.1020 -0.0760
 3173SOL    HW221153   1.348   1.919   7.699 -0.6955  0.6818 -0.5081
 3174SOL     OW21154   4.096   2.835  13.296  0.3227  0.0523  0.1709
 3174SOL    HW121155   4.095   2.793  13.381 -2.5964  2.0290  1.1498
 3174SOL    HW221156   4.183   2.873  13.297  0.0461  0.7106 -0.2091
 3175SOL     OW21157   3.828   0.893   0.365 -0.2610 -0.1156 -0.0777
 3175SOL    HW121158   3.738   0.860   0.362 -0.7124  0.8840  1.9891
 3175SOL    HW221159   3.851   0.869   0.455  1.0362  0.1544 -0.3368
 3176SOL     OW21160   4.301   2.430   3.063  0.5817 -0.0645  0.6146
 3176SOL    HW121161   4.342   2.491   3.002 -1.8680 -0.9979 -1.9843
 3176SOL    HW221162   4.382   2.414   3.112  0.1369  0.0316  1.3691
 3177SOL     OW21163   4.415   1.501   8.067 -0.7421 -0.6701 -0.5221
 3177SOL    HW121164   4.428   1.587   8.028 -0.2087 -0.5410 -0.0662
 3177SOL    HW221165   4.325   1.491   8.035 -1.1336  0.4675  0.2415
 3178SOL     OW21166   4.086   1.107   1.829  0.2278  0.0444 -0.1353
 3178SOL    HW121167   4.114   1.144   1.745 -0.2733 -2.7166 -1.5253
 3178SOL    HW221168   4.170   1.103   1.874 -0.4946 -0.9515  1.1021
 3179SOL     OW21169   4.736   3.613  17.026 -0.3276  0.2563  0.2123
 3179SOL    HW121170   0.005   3.656  17.111  1.1774  1.7205 -0.6814
 3179SOL    HW221171   0.027   3.681  16.967  2.8069 -1.7025 -0.4614
 3180SOL     OW21172   0.519   3.535   8.195  0.0445  0.5090  0.1413
 3180SOL    HW121173   0.568   3.546   8.277  0.0050  0.6255  0.1490
 3180SOL    HW221174   0.517   3.617   8.147 -0.7175 -0.2060 -1.0292
 3181SOL     OW21175   0.551   1.362   7.387 -0.1076 -0.0731 -0.6167
 3181SOL    HW121176   0.465   1.320   7.397 -0.5227  0.7311 -0.8268
 3181SOL    HW221177   0.522   1.452   7.376 -1.1737 -0.6088 -2.1007
 3182SOL     OW21178   3.201   0.185   6.665  0.5628 -0.1070 -0.0629
 3182SOL    HW121179   3.251   0.104   6.680 -0.4882 -0.5004  1.2726
 3182SOL    HW221180   3.223   0.207   6.575  1.8758  2.5710  0.9307
 3183SOL     OW21181   0.032   1.301   7.496 -0.7597  0.1582 -0.1249
 3183SOL    HW121182   0.047   1.395   7.484 -1.9202  0.3378 -0.1635
 3183SOL    HW221183   4.735   1.278   7.411 -0.2710  0.4166 -0.4063
 3184SOL     OW21184   4.288   3.588   9.355 -0.2684  0.5082  0.0280
 3184SOL    HW121185   4.269   3.659   9.293 -0.1273  0.6776  0.1774
 3184SOL    HW221186   4.200   3.583   9.393  0.1651  1.1152  1.1064
 3185SOL     OW21187   0.569   0.055   2.153 -0.4546  0.2448 -0.1033
 3185SOL    HW121188   0.496   4.733   2.158  1.7917 -2.2965  1.1935
 3185SOL    HW221189   0.526   0.126   2.201  1.0807  1.1076  0.0063
 3186SOL     OW21190   3.150   3.242  11.042  0.1553  0.4516  0.1536
 3186SOL    HW121191   3.088   3.265  10.971  0.8790 -0.6433 -0.8278
 3186SOL    HW221192   3.091   3.181  11.086  0.8430 -0.6781 -0.4775
 3187SOL     OW21193   0.152   3.972  17.751 -0.1962 -0.1586  0.2072
 3187SOL    HW121194   0.146   4.034   0.068  2.9064 -0.8416  1.0309
 3187SOL    HW221195   0.227   3.922   0.026  1.1658  1.7541 -0.0139
 3188SOL     OW21196   1.594   0.004   2.103 -0.0440 -0.6230  0.0406
 3188SOL    HW121197   1.625   4.663   2.063 -0.5926 -0.0444 -1.5457
 3188SOL    HW221198   1.499   4.735   2.105 -0.1842  1.1262  0.6497
 3189SOL     OW21199   2.175   2.783   9.748  0.4497  0.3204 -0.4310
 3189SOL    HW121200   2.091   2.830   9.748 -0.7415 -1.7684  0.0778
 3189SOL    HW221201   2.235   2.854   9.728 -1.3263  1.3274 -2.1344
 3190SOL     OW21202   4.603   3.624   8.753  0.1086  0.3910 -0.0780
 3190SOL    HW121203   4.620   3.530   8.742 -0.1681  0.6028 -2.3626
 3190SOL    HW221204   4.662   3.634   8.827  2.8727  1.9141 -2.5116
 3191SOL     OW21205   3.540   3.778  15.132  0.3707 -0.2930 -0.3077
 3191SOL    HW121206   3.520   3.709  15.068  2.8451 -0.0507 -1.3245
 3191SOL    HW221207   3.574   3.849  15.077  3.1302  0.5853  2.5712
 3192SOL     OW21208   1.485   4.236  14.933  0.5810 -0.3313  0.3664
 3192SOL    HW121209   1.531   4.246  15.016  0.0452 -0.9383  0.7447
 3192SOL    HW221210   1.444   4.323  14.938  0.2340 -0.3921 -1.2350
 3193SOL     OW21211   0.718   3.328   4.515  0.5268  0.0110 -0.7701
 3193SOL    HW121212   0.701   3.414   4.476 -3.0042 -0.2653  0.1554
 3193SOL    HW221213   0.794   3.291   4.470  1.8390  0.7800  0.8092
 3194SOL     OW21214   4.680   2.509   7.689 -0.4345  0.5017 -0.5906
 3194SOL    HW121215   4.734   2.581   7.655  2.2138  0.7658  4.0322
 3194SOL    HW221216   4.712   2.506   7.780  0.8742  1.4528 -1.0223
 3195SOL     OW21217   0.154   2.385   2.454 -0.0162  0.4830  0.1721
 3195SOL    HW121218   0.090   2.318   2.477  0.5669 -0.5173 -1.1554
 3195SOL    HW221219   0.122   2.448   2.519  0.2608  0.5513  0.2433
 3196SOL     OW21220   4.319   0.334   7.993 -0.4536  0.0544 -0.0726
 3196SOL    HW121221   4.390   0.371   8.045 -0.8201  0.7906 -0.1011
 3196SOL    HW221222   4.365   0.262   7.949  0.6729  0.0234  1.1539
 3197SOL     OW21223   3.469   4.023   3.031  0.2275  0.0713  0.3014
 3197SOL    HW121224   3.556   4.030   3.068  0.0496 -0.9174  0.9143
 3197SOL    HW221225   3.440   4.114   3.025 -3.1681 -1.0362 -0.2452
 3198SOL     OW21226   4.240   2.330   8.466  1.0386  0.0727  0.5614
 3198SOL    HW121227   4.248   2.236   8.451 -1.7316  0.0759 -0.9901
 3198SOL    HW221228   4.225   2.329   8.561 -0.2346  0.8383  0.3709
 3199SOL     OW21229   3.754   0.542   4.109 -0.4171  0.2556 -0.2455
 3199SOL    HW121230   3.679   0.601   4.102 -0.6449  0.1819  1.6579
 3199SOL    HW221231   3.711   0.474   4.160 -1.1093  1.9681  1.4392
 3200SOL     OW21232   1.612   2.056  14.632 -0.2596  0.4832 -0.2918
 3200SOL    HW121233   1.646   2.030  14.546  0.6074 -0.5108  0.3503
 3200SOL    HW221234   1.601   2.151  14.625 -1.9338  0.2758 -0.2534
 3201SOL     OW21235   3.590   3.574   4.415 -0.0398  0.3642  0.0906
 3201SOL    HW121236   3.502   3.571   4.454 -0.0917 -2.2297 -0.2641
 3201SOL    HW221237   3.588   3.513   4.342 -0.6235  1.0795 -0.4908
 3202SOL     OW21238   0.761   3.785  12.573  0.4485 -0.5531 -0.1341
 3202SOL    HW121239   0.767   3.694  12.546 -0.2402 -0.4052 -0.7900
 3202SOL    HW221240   0.735   3.817  12.487 -0.3921  1.4044  0.8403
 3203SOL     OW21241   1.609   1.791   3.482  0.1848  0.3896  0.2631
 3203SOL    HW121242   1.607   1.821   3.573  0.9897 -1.6153  0.9312
 3203SOL    HW221243   1.704   1.792   3.464  0.1627  1.2337  0.1825
 3204SOL     OW21244   2.482   0.616   1.364 -0.4978 -0.3355 -0.0740
 3204SOL    HW121245   2.465   0.580   1.277 -2.9157  1.5956 -0.4029
 3204SOL    HW221246   2.477   0.709   1.339  0.6454 -0.4471 -0.6899
 3205SOL     OW21247   3.977   0.876   2.820  0.5073  0.6619  0.1988
 3205SOL    HW121248   3.991   0.831   2.737  2.4971 -0.0482  0.9236
 3205SOL    HW221249   4.070   0.884   2.839  0.6010  0.0392 -0.0376
 3206SOL     OW21250   1.575   0.695   3.322  0.0489 -0.2036  0.1408
 3206SOL    HW121251   1.625   0.616   3.341  2.5666  1.3700  0.2066
 3206SOL    HW221252   1.645   0.743   3.277  0.5190 -1.6927 -0.7268
 3207SOL     OW21253   1.640   3.517   6.046  0.5959 -0.6908 -0.6580
 3207SOL    HW121254   1.669   3.602   6.014 -2.3090  0.6271  0.2158
 3207SOL    HW221255   1.565   3.506   5.987 -1.0403 -1.1396  1.4573
 3208SOL     OW21256   1.734   4.531   2.025 -0.0144 -0.2706 -0.1143
 3208SOL    HW121257   1.816   4.541   2.074 -0.2909 -2.7831  0.8665
 3208SOL    HW221258   1.767   4.475   1.955 -0.4923  1.3325 -1.6091
 3209SOL     OW21259   1.280   2.762  12.204  0.5050  0.0759  0.1150
 3209SOL    HW121260   1.252   2.850  12.229  0.2325 -0.4737  1.7867
 3209SOL    HW221261   1.375   2.772  12.205  0.5778 -0.4416 -0.9750
 3210SOL     OW21262   4.114   1.664  11.236  0.0651 -0.1996  0.1045
 3210SOL    HW121263   4.149   1.634  11.152 -0.8916 -2.3485  0.4587
 3210SOL    HW221264   4.059   1.742  11.231  1.5437  0.8682  0.6260
 3211SOL     OW21265   3.528   0.728   8.286 -0.1759 -0.1204  0.1480
 3211SOL    HW121266   3.546   0.645   8.242  0.9612 -0.3729  1.0741
 3211SOL    HW221267   3.433   0.718   8.286  0.0046 -1.7157 -0.6183
 3212SOL     OW21268   2.200   0.092   8.094  0.3340  0.1615  0.2144
 3212SOL    HW121269   2.129   0.037   8.126  1.6338 -1.0866  0.9373
 3212SOL    HW221270   2.156   0.133   8.020 -1.0201  2.6432  2.3610
 3213SOL     OW21271   3.320   1.225   5.709  0.2410  0.2707  0.0200
 3213SOL    HW121272   3.341   1.254   5.798  1.9541  2.1898 -1.0050
 3213SOL    HW221273   3.226   1.224   5.728  0.4757  1.4151  1.3422
 3214SOL     OW21274   0.564   3.864   6.100 -0.1288  0.5185 -0.6460
 3214SOL    HW121275   0.483   3.908   6.124 -1.1647 -0.1339 -2.9069
 3214SOL    HW221276   0.618   3.909   6.165 -2.5946  2.0371  0.3671
 3215SOL     OW21277   3.208   1.796   1.593  0.3143 -0.1153  0.3434
 3215SOL    HW121278   3.200   1.878   1.641  0.7357  0.5067 -0.6538
 3215SOL    HW221279   3.294   1.816   1.555 -0.2037  3.3227  0.9940
 3216SOL     OW21280   3.594   4.703   7.116  0.0386  0.0994  0.2501
 3216SOL    HW121281   3.577   4.710   7.210 -1.2692 -0.3212  0.0512
 3216SOL    HW221282   3.557   0.042   7.076 -1.7732 -1.3909 -1.0289
 3217SOL     OW21283   3.232   1.861   8.079  0.1665  0.3503  0.2851
 3217SOL    HW121284   3.205   1.892   7.993  0.3578  0.4129  0.2488
 3217SOL    HW221285   3.197   1.772   8.081  0.7611  0.1441  1.9462
 3218SOL     OW21286   3.094   1.028   3.655  0.1530  0.3157  0.1457
 3218SOL    HW121287   3.079   0.961   3.721 -2.7961  0.4565 -0.3851
 3218SOL    HW221288   3.007   1.049   3.622  1.4139  0.5517 -3.1108
 3219SOL     OW21289   3.812   4.480   0.961 -0.1016  0.3962 -0.1090
 3219SOL    HW121290   3.840   4.451   0.875  1.6001  1.5031  0.0545
 3219SOL    HW221291   3.809   4.575   0.950  1.1919  0.7192  2.1244
 3220SOL     OW21292   0.264   3.405   8.216 -0.3098  0.0207 -0.3360
 3220SOL    HW121293   0.334   3.467   8.194 -0.7673  0.2182 -1.2164
 3220SOL    HW221294   0.285   3.404   8.309 -0.5498 -0.7964 -0.2941
 3221SOL     OW21295   1.515   0.943   3.959 -0.0998 -0.0682 -1.4739
 3221SOL    HW121296   1.510   0.921   4.052  0.8129 -1.5448 -1.7669
 3221SOL    HW221297   1.563   0.868   3.922  4.1915  1.6453  0.6453
 3222SOL     OW21298   2.911   0.799   0.019 -0.2770  0.0035 -0.5350
 3222SOL    HW121299   2.816   0.794   0.021 -0.2360 -0.8284 -0.6693
 3222SOL    HW221300   2.922   0.853  17.696  0.8620  2.4832  1.3135
 3223SOL     OW21301   1.314   3.454   4.912  0.4963 -0.2017 -0.3924
 3223SOL    HW121302   1.303   3.452   5.007  3.4048  0.2133 -0.0175
 3223SOL    HW221303   1.384   3.518   4.895  0.1094  0.3165 -0.0363
 3224SOL     OW21304   3.248   3.896   2.203 -0.0616  0.4916 -0.1539
 3224SOL    HW121305   3.284   3.972   2.158  1.3564 -0.7340 -1.0766
 3224SOL    HW221306   3.225   3.842   2.127  0.2258  0.2696 -0.0854
 3225SOL     OW21307   4.182   0.509   5.251 -0.0713 -0.2849  0.0374
 3225SOL    HW121308   4.184   0.532   5.344 -1.7327  1.7214 -0.4165
 3225SOL    HW221309   4.106   0.451   5.244  0.2973 -0.4612 -2.5488
 3226SOL     OW21310   0.435   2.153   7.560 -0.3026  0.1718 -0.0099
 3226SOL    HW121311   0.381   2.102   7.499 -0.2166  0.8495 -0.6498
 3226SOL    HW221312   0.417   2.240   7.524 -3.4467 -0.6028 -0.3711
 3227SOL     OW21313   2.173   4.671  12.754  0.6198 -0.0200 -0.4330
 3227SOL    HW121314   2.153   4.599  12.693  1.0308  0.1186 -0.7333
 3227SOL    HW221315   2.115   0.000  12.721 -0.2037 -0.1486  0.7226
 3228SOL     OW21316   0.412   2.610  13.898 -0.1809  0.1195 -0.3667
 3228SOL    HW121317   0.399   2.693  13.943  1.1949 -0.0712  0.3740
 3228SOL    HW221318   0.483   2.570  13.947 -0.5819 -0.7790 -0.5270
 3229SOL     OW21319   1.638   0.338   4.714 -0.5027  0.1960  0.0393
 3229SOL    HW121320   1.675   0.260   4.754 -0.6495 -1.0783 -2.2734
 3229SOL    HW221321   1.664   0.325   4.622 -0.2534  1.4008 -0.0611
 3230SOL     OW21322   3.439   0.525   6.631  0.6751  0.0005 -0.0102
 3230SOL    HW121323   3.471   0.518   6.721  3.3951 -0.4411 -1.0202
 3230SOL    HW221324   3.504   0.481   6.576 -0.5111 -0.7648 -0.7981
 3231SOL     OW21325   4.675   0.384   2.288 -0.2728 -0.3772 -0.1315
 3231SOL    HW121326   4.716   0.306   2.251 -1.6228  0.1262 -2.7179
 3231SOL    HW221327   4.705   0.380   2.378  0.2232 -0.8821 -0.3198
 3232SOL     OW21328   3.522   1.318  12.737 -0.2657  0.3820 -0.1067
 3232SOL    HW121329   3.597   1.260  12.748  1.3486  2.3073 -0.8989
 3232SOL    HW221330   3.494   1.318  12.829 -0.7162  0.3739 -0.2484
 3233SOL     OW21331   3.669   3.734   5.590 -0.1112  0.0563  0.1975
 3233SOL    HW121332   3.707   3.808   5.542 -1.0885  1.9425  2.3021
 3233SOL    HW221333   3.625   3.778   5.663  0.9158  0.0763  0.8041
 3234SOL     OW21334   4.127   2.269   6.716  0.2958  0.3592 -0.0555
 3234SOL    HW121335   4.107   2.180   6.742  1.3465  0.6967  1.8924
 3234SOL    HW221336   4.121   2.267   6.620  1.0164 -0.0317 -0.0913
 3235SOL     OW21337   4.714   2.884   4.186 -0.2037  0.0903 -0.4972
 3235SOL    HW121338   4.677   2.972   4.181 -3.2018 -1.1728 -0.7267
 3235SOL    HW221339   4.641   2.832   4.151 -1.3901  1.0857  0.4822
 3236SOL     OW21340   1.346   4.611   6.721  0.0687  0.1984  0.1081
 3236SOL    HW121341   1.358   4.705   6.727  0.9974  0.2223 -1.9717
 3236SOL    HW221342   1.404   4.578   6.790  0.7630 -0.8771 -0.9835
 3237SOL     OW21343   3.404   2.505   0.434 -0.5111  0.0287 -0.5296
 3237SOL    HW121344   3.499   2.520   0.432 -0.5673  0.3212 -0.9106
 3237SOL    HW221345   3.387   2.511   0.528  2.4995  0.2202  0.0075
 3238SOL     OW21346   3.621   0.816   0.641 -0.1208 -0.6608  0.2005
 3238SOL    HW121347   3.634   0.738   0.694  1.6355  0.7956  1.9345
 3238SOL    HW221348   3.711   0.838   0.618 -0.3880  1.0299  0.7302
 3239SOL     OW21349   2.160   3.595   0.596  0.0521 -0.2839  0.1936
 3239SOL    HW121350   2.181   3.683   0.628 -1.8043  0.5214 -0.7557
 3239SOL    HW221351   2.139   3.613   0.505 -0.2589 -2.5477 -0.1771
 3240SOL     OW21352   2.685   4.012   3.602  1.1254  0.7424  0.1568
 3240SOL    HW121353   2.732   3.939   3.643 -0.4704 -0.5095 -0.2722
 3240SOL    HW221354   2.595   3.991   3.626  0.9533  0.7687 -0.4799
 3241SOL     OW21355   3.709   0.617   2.548 -0.2840  0.4227  0.0442
 3241SOL    HW121356   3.781   0.665   2.507 -0.8106 -0.1045 -1.5047
 3241SOL    HW221357   3.756   0.536   2.569 -0.6619  0.5439  1.3587
 3242SOL     OW21358   2.051   2.422  11.965  0.2923 -0.2994 -0.5063
 3242SOL    HW121359   2.137   2.440  11.926  0.7825 -1.1210  0.2013
 3242SOL    HW221360   2.067   2.351  12.028  0.9951  1.8158  1.6649
 3243SOL     OW21361   0.178   0.978   6.685  0.6215 -0.4778  0.2967
 3243SOL    HW121362   0.183   1.063   6.728 -1.9347 -0.2655  0.1615
 3243SOL    HW221363   0.107   0.982   6.620 -0.1110 -0.2129  1.1235
 3244SOL     OW21364   3.412   1.437   4.235  0.3109  0.4906 -0.1938
 3244SOL    HW121365   3.382   1.525   4.215 -0.4778  0.6019  1.5467
 3244SOL    HW221366   3.328   1.394   4.221  0.9825 -1.2070  1.0125
 3245SOL     OW21367   2.016   3.600   8.735  0.5605 -0.4889  0.1030
 3245SOL    HW121368   1.954   3.666   8.764  3.7135  2.2127  0.6435
 3245SOL    HW221369   1.970   3.566   8.658 -2.5109 -1.0587  2.1897
 3246SOL     OW21370   4.381   0.492   3.494 -0.3917  0.1594  0.5601
 3246SOL    HW121371   4.472   0.463   3.499 -0.7863 -0.9158  1.6368
 3246SOL    HW221372   4.349   0.445   3.571 -1.3532 -1.0822 -0.5946
 3247SOL     OW21373   4.468   3.066   3.907 -0.3096  0.2602 -0.1253
 3247SOL    HW121374   4.447   3.159   3.904  1.2928  0.6259  0.3204
 3247SOL    HW221375   4.485   3.060   4.001 -1.1098  3.1968  0.1792
 3248SOL     OW21376   4.683   1.741   1.317 -0.4500 -0.4236  0.0471
 3248SOL    HW121377   4.654   1.824   1.278  0.6892 -0.2259 -0.3767
 3248SOL    HW221378   4.615   1.725   1.382 -0.3013 -2.1259 -0.2024
 3249SOL     OW21379   0.284   2.222  13.032 -0.1624  0.7951 -0.9348
 3249SOL    HW121380   0.283   2.276  13.112 -0.8472  1.0452 -1.1076
 3249SOL    HW221381   0.364   2.260  12.996  0.3100  0.3008 -0.4027
 3250SOL     OW21382   2.583   2.628   1.620 -0.0035  0.0536  0.4799
 3250SOL    HW121383   2.670   2.667   1.619  0.3907 -0.8389  0.9862
 3250SOL    HW221384   2.543   2.682   1.689  0.8763 -1.2807  2.0336
 3251SOL     OW21385   4.205   2.779  17.133  0.7302  0.0083  0.1706
 3251SOL    HW121386   4.195   2.686  17.152  2.1454 -0.5443 -1.7390
 3251SOL    HW221387   4.121   2.814  17.163 -0.0044 -0.4531 -1.3545
 3252SOL     OW21388   3.573   0.591   1.418  0.3944  0.2048  0.3377
 3252SOL    HW121389   3.587   0.597   1.512  3.2424 -0.3987 -0.0236
 3252SOL    HW221390   3.662   0.566   1.390  0.1146  0.1526 -0.5119
 3253SOL     OW21391   1.817   1.244   4.589  0.2876 -0.1478 -0.0307
 3253SOL    HW121392   1.884   1.193   4.545  0.5208  0.9979 -1.0063
 3253SOL    HW221393   1.794   1.304   4.518 -0.8656  1.1996  1.4661
 3254SOL     OW21394   2.164   0.182  11.286  0.1115  0.4259 -0.5869
 3254SOL    HW121395   2.148   0.141  11.201 -2.0908 -0.7227  0.3631
 3254SOL    HW221396   2.183   0.272  11.262  0.3112  0.3732 -0.6281
 3255SOL     OW21397   0.930   1.648   8.666  0.0259 -0.0962 -0.3269
 3255SOL    HW121398   0.962   1.710   8.732  0.1758  0.1912 -0.6686
 3255SOL    HW221399   0.990   1.660   8.593  0.3782 -0.0408 -0.0303
 3256SOL     OW21400   3.750   3.274  10.915  0.0412  0.1151 -0.6087
 3256SOL    HW121401   3.682   3.340  10.895  0.5655  0.8460  0.0289
 3256SOL    HW221402   3.765   3.231  10.831  1.0499 -0.0544 -0.3347
 3257SOL     OW21403   1.457   3.643   2.725 -0.3821  0.2248 -0.2006
 3257SOL    HW121404   1.375   3.635   2.677 -0.1395  0.0238 -0.5812
 3257SOL    HW221405   1.509   3.700   2.668  0.4505 -1.0352 -0.7200
 3258SOL     OW21406   1.096   0.380   3.993  0.1543  0.0591 -0.4541
 3258SOL    HW121407   1.127   0.336   3.914 -0.7462 -1.2862 -0.0609
 3258SOL    HW221408   1.155   0.455   4.002 -2.5942  1.7190  3.4169
 3259SOL     OW21409   1.071   2.565   4.064  0.2353  0.0063 -0.4681
 3259SOL    HW121410   1.121   2.489   4.037  0.8587  0.4980 -0.6909
 3259SOL    HW221411   1.136   2.592   4.129  0.5502  2.1942 -1.6928
 3260SOL     OW21412   1.924   0.402   6.070  0.0170 -0.3698  0.2759
 3260SOL    HW121413   1.975   0.431   5.995 -1.0768  2.5316  0.6290
 3260SOL    HW221414   1.853   0.466   6.080 -0.5976 -1.1097  0.6284
 3261SOL     OW21415   1.827   3.696   8.031 -0.0793 -0.4895 -0.6017
 3261SOL    HW121416   1.743   3.662   8.001 -0.4689 -0.3397  0.3229
 3261SOL    HW221417   1.885   3.622   8.014  0.0784 -0.5112  0.0280
 3262SOL     OW21418   3.944   4.324  15.134 -0.2949  0.0157  0.3796
 3262SOL    HW121419   3.978   4.411  15.156  0.8200 -0.3379  0.0476
 3262SOL    HW221420   3.947   4.340  15.040  1.0406  1.2687  0.6385
 3263SOL     OW21421   0.603   3.519   2.014 -0.0386  0.1945 -0.2274
 3263SOL    HW121422   0.545   3.516   1.937  0.4783 -0.6998 -0.5753
 3263SOL    HW221423   0.612   3.614   2.021  0.4252  0.0183  1.5771
 3264SOL     OW21424   0.932   0.359   7.426  0.0129 -0.2695  0.1502
 3264SOL    HW121425   0.897   0.376   7.339  1.1114  0.4441 -0.1634
 3264SOL    HW221426   0.860   0.310   7.465 -0.0859 -0.0348  0.2641
 3265SOL     OW21427   1.094   1.702   7.018  0.4313 -0.2916 -0.3119
 3265SOL    HW121428   1.184   1.726   7.037 -0.0194  2.3947 -1.4482
 3265SOL    HW221429   1.046   1.785   7.018  0.6553 -0.1616 -3.1328
 3266SOL     OW21430   3.265   0.729  14.016 -0.8316 -0.4525 -0.2369
 3266SOL    HW121431   3.211   0.729  14.095  0.8509 -0.5577  0.9030
 3266SOL    HW221432   3.206   0.790  13.970  0.8649  2.2965  1.2104
 3267SOL     OW21433   3.679   4.682   6.179 -0.5239 -0.1765  0.2963
 3267SOL    HW121434   3.605   4.718   6.229 -0.5717  0.4706 -0.2360
 3267SOL    HW221435   3.748   4.709   6.239 -0.1248 -0.7076  0.0707
 3268SOL     OW21436   3.836   0.401   2.602  0.0429  0.2764  0.1912
 3268SOL    HW121437   3.797   0.347   2.671  0.3248  1.1731  1.0553
 3268SOL    HW221438   3.869   0.332   2.544 -0.0391 -0.1810  0.6876
 3269SOL     OW21439   3.204   3.512   4.935 -0.1077 -0.2837  0.6241
 3269SOL    HW121440   3.222   3.444   5.000 -1.0981  0.1006  1.3054
 3269SOL    HW221441   3.281   3.498   4.879 -1.7116 -2.1612 -1.0746
 3270SOL     OW21442   4.317   4.686  14.583 -0.3646 -0.1442 -0.4718
 3270SOL    HW121443   4.282   0.030  14.550 -3.8318 -1.3815  0.1589
 3270SOL    HW221444   4.373   4.721  14.652 -0.6022 -2.7188  1.0306
 3271SOL     OW21445   4.395   4.717   7.748 -0.4808 -0.0375 -0.0402
 3271SOL    HW121446   4.387   4.704   7.842 -0.6293  2.4674  0.2945
 3271SOL    HW221447   4.305   4.710   7.716  0.0258 -0.7276 -1.3051
 3272SOL     OW21448   3.409   0.911   6.289 -0.8940 -0.8069 -0.1218
 3272SOL    HW121449   3.367   0.879   6.209 -1.5277  0.0683 -0.1329
 3272SOL    HW221450   3.372   0.857   6.359 -2.3460  0.0490 -0.2380
 3273SOL     OW21451   1.856   1.575  14.292  0.0892 -0.3804 -0.5670
 3273SOL    HW121452   1.827   1.664  14.309 -0.6752 -0.6346 -0.5359
 3273SOL    HW221453   1.906   1.590  14.212  1.4810 -1.0134  0.1765
 3274SOL     OW21454   3.238   3.184   7.000  0.5031 -0.1483 -0.4306
 3274SOL    HW121455   3.297   3.140   6.938  0.7324 -2.9390  1.7656
 3274SOL    HW221456   3.147   3.173   6.974 -0.0736 -0.1107  1.6573
 3275SOL     OW21457   3.418   4.166   4.748 -0.0477 -0.2265 -0.2593
 3275SOL    HW121458   3.410   4.195   4.839 -2.4839  3.1757 -1.5629
 3275SOL    HW221459   3.329   4.186   4.718 -0.4545 -0.6887  0.6398
 3276SOL     OW21460   2.585   4.201   0.490  0.1911 -1.0436 -0.2963
 3276SOL    HW121461   2.549   4.226   0.575  1.7411  0.9311 -0.2029
 3276SOL    HW221462   2.626   4.285   0.466  0.7434 -0.8464  1.3207
 3277SOL     OW21463   1.027   0.983  10.055 -0.0373 -0.0871  0.2084
 3277SOL    HW121464   1.073   1.063  10.030 -0.0589  0.4309  1.8764
 3277SOL    HW221465   1.090   0.914  10.034 -0.2183 -0.3133  0.4060
 3278SOL     OW21466   3.556   3.925   8.352  0.0598 -0.1722 -0.5466
 3278SOL    HW121467   3.598   3.964   8.276 -1.2021  0.3161 -0.9828
 3278SOL    HW221468   3.499   3.864   8.306 -1.9237  2.2862 -1.3332
 3279SOL     OW21469   0.092   3.120   3.850 -0.3085 -0.7800  0.2761
 3279SOL    HW121470   0.162   3.077   3.801 -0.0559 -0.7524  0.6166
 3279SOL    HW221471   0.019   3.128   3.789 -0.0374  0.2540  0.0907
 3280SOL     OW21472   3.024   3.024   6.207 -0.6011 -0.3125 -0.5044
 3280SOL    HW121473   2.932   3.026   6.233  0.0466  1.7106  1.6091
 3280SOL    HW221474   3.026   2.951   6.145  0.0324  0.5902 -1.5499
 3281SOL     OW21475   4.111   0.193  11.142 -0.2113  0.0752  0.1853
 3281SOL    HW121476   4.198   0.173  11.109 -1.2301 -3.2625 -0.5110
 3281SOL    HW221477   4.134   0.226  11.229 -1.1295  0.7758  0.1625
 3282SOL     OW21478   2.490   1.528   5.060  0.0918  0.2171 -0.3259
 3282SOL    HW121479   2.546   1.490   4.991 -0.1998 -2.8373  1.1367
 3282SOL    HW221480   2.405   1.494   5.033 -1.0530  3.7476 -1.1960
 3283SOL     OW21481   0.130   0.251  16.343 -0.6774  0.0589  0.7982
 3283SOL    HW121482   0.078   0.185  16.297  1.1986 -1.5136  0.9439
 3283SOL    HW221483   0.214   0.225  16.304 -1.1793 -1.5933  0.8264
 3284SOL     OW21484   0.630   1.163  16.807 -0.8694  0.1338  0.1040
 3284SOL    HW121485   0.673   1.217  16.740 -0.6195  0.5896  0.6339
 3284SOL    HW221486   0.614   1.225  16.878  1.3287  0.4918  0.2906
 3285SOL     OW21487   2.317   2.500  10.048  0.8407 -0.1563  0.2335
 3285SOL    HW121488   2.365   2.417  10.050 -1.0524 -1.2819 -0.2046
 3285SOL    HW221489   2.238   2.462  10.009  0.3119 -0.3308  1.4733
 3286SOL     OW21490   2.352   3.674   9.441 -0.3029  0.0923  0.6203
 3286SOL    HW121491   2.273   3.637   9.481 -0.0847 -1.6842 -0.6388
 3286SOL    HW221492   2.324   3.715   9.359  1.6628  2.9854  1.3763
 3287SOL     OW21493   4.558   3.111   9.649 -0.2203  0.0012  0.1421
 3287SOL    HW121494   4.495   3.151   9.590 -0.1141 -0.7434 -0.4760
 3287SOL    HW221495   4.599   3.051   9.586 -0.3400 -1.4712  1.4785
 3288SOL     OW21496   1.077   2.515   4.845 -0.3044 -0.6441 -0.5821
 3288SOL    HW121497   1.025   2.451   4.892 -1.0975  0.0000 -0.5709
 3288SOL    HW221498   1.167   2.493   4.868 -0.1338  0.4071 -0.2361
 3289SOL     OW21499   2.738   0.920   3.829  0.0192  0.3219 -0.4933
 3289SOL    HW121500   2.664   0.921   3.768 -1.1980 -3.6089  0.9428
 3289SOL    HW221501   2.797   0.856   3.789 -1.2372 -1.0946 -0.0774
 3290SOL     OW21502   1.363   3.681   7.675 -0.0209  0.1131  0.3695
 3290SOL    HW121503   1.370   3.608   7.613 -1.0287 -0.9918  1.5667
 3290SOL    HW221504   1.336   3.757   7.624 -2.2905 -1.5006 -0.8182
 3291SOL     OW21505   2.968   2.934  16.109 -0.7308 -0.4091 -0.0141
 3291SOL    HW121506   3.051   2.981  16.114 -0.0007 -1.5848 -1.1738
 3291SOL    HW221507   2.949   2.920  16.016  1.7253  2.6365 -0.9746
 3292SOL     OW21508   3.256   0.658   4.502  0.5116  0.3461  0.2162
 3292SOL    HW121509   3.199   0.586   4.474 -0.1144  0.6450  0.7360
 3292SOL    HW221510   3.268   0.712   4.424  0.1238 -1.0016 -0.7716
 3293SOL     OW21511   2.699   3.089   5.466  0.1332 -0.3657 -0.1022
 3293SOL    HW121512   2.658   3.084   5.553 -1.1808 -0.3865 -0.7210
 3293SOL    HW221513   2.732   3.178   5.474 -1.6908  0.4013 -1.1090
 3294SOL     OW21514   2.352   0.570   2.411  0.6840  0.2512 -0.2597
 3294SOL    HW121515   2.401   0.570   2.330  2.6471 -0.5910  0.9460
 3294SOL    HW221516   2.270   0.592   2.366 -0.2466 -0.5459  1.0432
 3295SOL     OW21517   3.328   4.081  13.240  0.4756  0.2079  0.2399
 3295SOL    HW121518   3.348   4.045  13.326 -1.1088 -0.3482  0.3775
 3295SOL    HW221519   3.274   4.014  13.199  2.2594 -0.7942 -0.4927
 3296SOL     OW21520   3.511   4.134  12.037 -0.3028 -0.0007  0.1374
 3296SOL    HW121521   3.451   4.190  12.085 -1.0663 -0.6778 -0.0427
 3296SOL    HW221522   3.548   4.073  12.101  1.4209 -0.2147 -1.0410
 3297SOL     OW21523   4.557   2.408   5.714 -0.0881 -0.1452  0.0694
 3297SOL    HW121524   4.586   2.384   5.802 -0.4854  3.1080  1.1055
 3297SOL    HW221525   4.637   2.408   5.661  0.0555  0.4324  0.2849
 3298SOL     OW21526   3.516   2.997   3.201 -0.8560  0.0053  0.3976
 3298SOL    HW121527   3.590   3.022   3.145 -0.6111  0.3636  0.8859
 3298SOL    HW221528   3.501   2.904   3.187  3.1707 -0.7830  1.2449
 3299SOL     OW21529   1.629   3.555   8.370 -0.2018  0.2416  0.3567
 3299SOL    HW121530   1.556   3.617   8.370 -1.1183 -0.8499  1.8336
 3299SOL    HW221531   1.609   3.496   8.297 -3.1938  1.2215  0.3765
 3300SOL     OW21532   2.220   4.564  14.138 -0.0450 -0.2102 -0.5294
 3300SOL    HW121533   2.187   4.516  14.061 -3.1342 -1.6444  1.6976
 3300SOL    HW221534   2.276   4.494  14.172 -0.7512 -0.6089 -0.1864
 3301SOL     OW21535   0.252   4.213   8.305 -0.1844 -0.2498  0.2324
 3301SOL    HW121536   0.212   4.129   8.283  0.1387 -0.0931 -0.9242
 3301SOL    HW221537   0.269   4.256   8.222 -3.2339  1.3010  0.3820
 3302SOL     OW21538   2.924   0.988   7.254 -0.0305  0.0509  0.0285
 3302SOL    HW121539   2.919   1.067   7.200  0.6073  0.5164  0.6364
 3302SOL    HW221540   2.946   1.015   7.344  0.0857 -0.2733  0.0956
 3303SOL     OW21541   1.007   1.988   1.851 -0.0389 -0.4464 -0.0907
 3303SOL    HW121542   0.987   2.037   1.772  1.3921  1.5583  0.7833
 3303SOL    HW221543   1.102   1.991   1.848 -0.0554  0.2443  0.0775
 3304SOL     OW21544   3.647   3.104   2.972  0.5123  0.7666  0.4653
 3304SOL    HW121545   3.564   3.100   2.923  2.0378  0.2112 -2.0313
 3304SOL    HW221546   3.686   3.188   2.948 -0.4525  0.8276 -0.8709
 3305SOL     OW21547   4.112   4.329   3.654 -0.2317 -0.2058 -0.7564
 3305SOL    HW121548   4.070   4.288   3.730  1.2804 -0.8267 -0.2551
 3305SOL    HW221549   4.205   4.307   3.667 -0.8173 -2.6532 -0.7956
 3306SOL     OW21550   4.380   4.514   5.113 -0.2931  0.2801  0.0513
 3306SOL    HW121551   4.301   4.461   5.106 -0.2181  0.0108  1.1817
 3306SOL    HW221552   4.367   4.585   5.051  0.4735 -0.9364 -1.4994
 3307SOL     OW21553   3.814   0.510  14.464 -0.7694 -0.1804  0.4411
 3307SOL    HW121554   3.788   0.426  14.427  0.2385 -0.6127  0.7240
 3307SOL    HW221555   3.786   0.578  14.402 -0.4388 -0.5714 -0.1432
 3308SOL     OW21556   1.137   1.262   8.081 -0.0083  0.1274  0.3835
 3308SOL    HW121557   1.154   1.296   8.169  2.8009 -1.9894  0.6948
 3308SOL    HW221558   1.065   1.320   8.058  0.8240  0.1711 -2.1081
 3309SOL     OW21559   4.093   3.992  10.768 -0.2009 -0.3251  0.2015
 3309SOL    HW121560   4.155   4.061  10.794 -1.3601  0.1303  1.7410
 3309SOL    HW221561   4.009   4.036  10.781  0.2260  0.5338  0.0587
 3310SOL     OW21562   3.887   3.163   9.530 -0.3589 -0.2449  0.1535
 3310SOL    HW121563   3.900   3.088   9.588  0.3838  0.8083  1.3560
 3310SOL    HW221564   3.937   3.136   9.454  0.4783 -0.0149  0.6170
 3311SOL     OW21565   3.796   3.700   5.239 -0.1790  0.0096  0.7062
 3311SOL    HW121566   3.816   3.778   5.291  1.1148  0.7724 -0.9345
 3311SOL    HW221567   3.702   3.687   5.248 -0.6327  2.1724 -1.0336
 3312SOL     OW21568   0.239   1.988   9.084  0.1877  0.1700 -0.6316
 3312SOL    HW121569   0.158   2.022   9.048 -0.1811 -0.5172 -0.4542
 3312SOL    HW221570   0.213   1.903   9.121  0.3251  0.0994 -0.6955
 3313SOL     OW21571   1.790   2.951   5.954  0.1619 -0.2367  0.4753
 3313SOL    HW121572   1.847   2.960   5.877 -1.2845 -0.2567 -0.5997
 3313SOL    HW221573   1.860   2.910   6.004 -0.2948 -1.7641 -0.1333
 3314SOL     OW21574   3.672   3.824   4.345  0.0897 -0.5421 -0.0623
 3314SOL    HW121575   3.633   3.746   4.385 -0.2698  0.1936  1.0329
 3314SOL    HW221576   3.603   3.859   4.288 -0.1863 -0.2592  0.4469
 3315SOL     OW21577   4.730   4.448   7.616  0.1530  0.4043  0.1351
 3315SOL    HW121578   4.701   4.527   7.571  0.2001 -0.4907 -1.4768
 3315SOL    HW221579   4.690   4.462   7.701  1.4247  2.4424  0.3855
 3316SOL     OW21580   1.515   0.126   9.917 -0.2070  0.1752  0.0563
 3316SOL    HW121581   1.577   0.126   9.844  0.6489 -1.8235  0.7777
 3316SOL    HW221582   1.513   0.036   9.949  0.0308  0.6474  1.4122
 3317SOL     OW21583   2.105   0.775   7.204 -0.7625 -0.1860  0.5792
 3317SOL    HW121584   2.139   0.844   7.148 -1.5071 -1.6448 -1.6649
 3317SOL    HW221585   2.130   0.700   7.149  1.8748  0.3204  1.0489
 3318SOL     OW21586   2.071   2.662   8.060  0.1660 -0.2701  0.4386
 3318SOL    HW121587   2.002   2.607   8.095 -0.9946  0.8520 -0.0647
 3318SOL    HW221588   2.139   2.600   8.036 -1.3611 -1.2650 -1.3901
 3319SOL     OW21589   1.893   2.444  10.492  0.3394  0.1348  0.0875
 3319SOL    HW121590   1.806   2.407  10.478  0.4523  0.8717 -2.4685
 3319SOL    HW221591   1.916   2.442  10.585 -0.6705  1.1217  0.3446
 3320SOL     OW21592   3.455   3.664   8.544 -0.2309 -0.4450  0.3296
 3320SOL    HW121593   3.439   3.735   8.605  1.1174 -0.1068  0.2900
 3320SOL    HW221594   3.550   3.675   8.542 -0.4589  0.7947 -3.1270
 3321SOL     OW21595   3.695   0.391   8.475  0.6651  0.1265  0.2324
 3321SOL    HW121596   3.669   0.332   8.546  0.7668 -0.3556 -0.1328
 3321SOL    HW221597   3.607   0.400   8.437  1.2210  1.5419 -0.6862
 3322SOL     OW21598   1.570   3.845   4.122  0.1435  0.5215  0.0330
 3322SOL    HW121599   1.601   3.859   4.032 -0.6653 -2.6428 -0.7510
 3322SOL    HW221600   1.479   3.871   4.107 -0.2922 -2.9537 -3.4454
 3323SOL     OW21601   0.638   2.648   4.165 -0.2944 -0.0177 -0.2736
 3323SOL    HW121602   0.689   2.567   4.159  2.3174  1.3317  3.5639
 3323SOL    HW221603   0.589   2.644   4.082  1.8872  1.5255 -1.6320
 3324SOL     OW21604   2.036   2.743   5.313  0.2762 -0.4412 -0.2135
 3324SOL    HW121605   2.047   2.650   5.335  1.4629 -0.5931 -1.4983
 3324SOL    HW221606   2.031   2.741   5.218 -0.7800  1.1147 -0.1969
 3325SOL     OW21607   4.601   3.635   3.477 -0.2609  0.1594  0.2589
 3325SOL    HW121608   4.527   3.599   3.525 -0.0519 -1.3923 -0.5593
 3325SOL    HW221609   4.641   3.554   3.444 -0.8467  0.2506 -0.6708
 3326SOL     OW21610   4.407   2.204   9.278 -0.4733  0.2497 -0.0935
 3326SOL    HW121611   4.460   2.217   9.200 -1.9325  1.1005 -0.9405
 3326SOL    HW221612   4.443   2.264   9.344  2.1749 -2.2490  0.7252
 3327SOL     OW21613   0.176   0.192   2.727  0.1557 -0.1378  0.6890
 3327SOL    HW121614   0.226   0.212   2.806 -1.1482 -0.1170  1.5121
 3327SOL    HW221615   0.118   0.121   2.753  0.6656 -1.1897 -1.0635
 3328SOL     OW21616   1.013   4.349   2.094  0.2074 -0.4094 -0.6721
 3328SOL    HW121617   1.011   4.369   2.187 -1.6069  2.7366 -1.3875
 3328SOL    HW221618   1.092   4.295   2.094  0.2487 -0.3598 -2.2178
 3329SOL     OW21619   2.433   3.591   5.591 -0.0635 -0.4575  0.2073
 3329SOL    HW121620   2.428   3.649   5.667  1.7373  0.9946 -0.8097
 3329SOL    HW221621   2.419   3.653   5.520 -0.0001 -1.3285 -0.5646
 3330SOL     OW21622   0.646   0.534  14.395  0.0023  0.1495  0.0429
 3330SOL    HW121623   0.570   0.481  14.420  0.2452 -0.4877 -0.5616
 3330SOL    HW221624   0.723   0.507  14.447  0.5052  1.8792  0.1978
 3331SOL     OW21625   0.582   0.844   6.790  0.4799 -0.2457 -0.0051
 3331SOL    HW121626   0.634   0.828   6.870 -1.8290 -0.1231  1.5242
 3331SOL    HW221627   0.653   0.862   6.729 -1.6300  1.0060 -2.0467
 3332SOL     OW21628   0.027   3.899   8.940  0.1331 -0.7455 -0.1965
 3332SOL    HW121629   4.686   3.857   8.971 -0.9219  2.1100  1.0295
 3332SOL    HW221630   0.065   3.822   8.898 -0.9244 -0.0710 -2.3852
 3333SOL     OW21631   3.512   1.159   1.154 -0.4797 -0.0378  0.0080
 3333SOL    HW121632   3.492   1.130   1.242 -1.6602 -1.5791 -0.7717
 3333SOL    HW221633   3.448   1.113   1.100  1.7946 -1.7308 -1.2502
 3334SOL     OW21634   4.211   3.267   3.076  0.1911 -0.0611  1.0388
 3334SOL    HW121635   4.122   3.302   3.081 -0.6724 -2.1670  0.7113
 3334SOL    HW221636   4.206   3.218   2.994  0.9221 -0.9013  1.4958
 3335SOL     OW21637   4.586   3.551   2.098  0.7045  0.1759  0.2365
 3335SOL    HW121638   4.674   3.542   2.132  0.4815  0.8808  0.9873
 3335SOL    HW221639   4.603   3.621   2.035  1.4030 -0.5409 -0.3696
 3336SOL     OW21640   2.039   1.673   2.819 -0.4985  0.1418  0.0759
 3336SOL    HW121641   2.001   1.585   2.823 -0.8412  0.2841 -0.0055
 3336SOL    HW221642   2.033   1.690   2.913  0.0085  0.1013  0.1105
 3337SOL     OW21643   2.510   3.917   0.433  0.8442  0.5961 -0.3074
 3337SOL    HW121644   2.493   3.930   0.340 -0.1161 -2.6059 -0.5670
 3337SOL    HW221645   2.561   3.997   0.447  3.0683 -0.6118 -1.4202
 3338SOL     OW21646   0.168   3.953  16.502  0.1166 -0.4327  0.0371
 3338SOL    HW121647   0.194   4.046  16.504 -0.6224 -0.2160 -0.4102
 3338SOL    HW221648   0.078   3.956  16.469 -0.0549  0.6751  0.6061
 3339SOL     OW21649   1.616   1.870   2.644  0.0131 -0.3070 -0.2058
 3339SOL    HW121650   1.640   1.822   2.723  2.2793  2.1706  0.6113
 3339SOL    HW221651   1.686   1.932   2.623  1.3220 -1.3924  0.9127
 3340SOL     OW21652   3.029   2.443   4.300 -0.1499  0.8354  0.1559
 3340SOL    HW121653   2.948   2.486   4.327 -1.2815 -0.9787 -0.3142
 3340SOL    HW221654   3.099   2.499   4.334  2.6109 -1.4026 -1.7833
 3341SOL     OW21655   2.431   4.356   6.913 -0.3512  0.1699 -0.8017
 3341SOL    HW121656   2.417   4.344   6.819  0.6110  1.1542 -1.0675
 3341SOL    HW221657   2.401   4.446   6.914 -0.3644  0.1677 -1.0569
 3342SOL     OW21658   4.595   2.919   5.952  0.5409  0.0234 -0.7355
 3342SOL    HW121659   4.582   2.824   5.959  0.6137 -0.1444 -2.8607
 3342SOL    HW221660   4.571   2.945   6.041  1.4332 -2.4036  0.2213
 3343SOL     OW21661   1.900   1.585   5.226 -0.2555  0.4891  0.3208
 3343SOL    HW121662   1.994   1.602   5.239 -0.4574  1.1295  0.9845
 3343SOL    HW221663   1.889   1.498   5.264  1.9290  0.3459  0.6564
 3344SOL     OW21664   3.440   0.313  13.395  0.3090 -0.6532 -0.2478
 3344SOL    HW121665   3.515   0.289  13.450  1.4961 -0.5082 -1.8132
 3344SOL    HW221666   3.369   0.302  13.458  0.6164 -0.5001  0.1232
 3345SOL     OW21667   4.606   1.005   2.574 -0.1627 -0.4095  0.2288
 3345SOL    HW121668   4.661   0.970   2.504 -0.7327 -0.3389 -0.2566
 3345SOL    HW221669   4.554   0.926   2.591 -0.1728 -0.1828  1.3065
 3346SOL     OW21670   3.547   3.125  11.148 -0.1620 -0.0063  0.1635
 3346SOL    HW121671   3.500   3.207  11.160  0.9373  0.5858  0.4625
 3346SOL    HW221672   3.481   3.081  11.095 -0.6256 -1.8953  2.2833
 3347SOL     OW21673   3.655   0.575   3.348 -0.2259  0.6718 -0.3540
 3347SOL    HW121674   3.748   0.584   3.373 -0.5355 -0.4114  1.2130
 3347SOL    HW221675   3.611   0.635   3.408  0.0171 -0.6537  1.1527
 3348SOL     OW21676   3.531   4.006   7.775 -0.0114  0.1802 -0.2358
 3348SOL    HW121677   3.586   4.060   7.718  0.9059 -0.6241 -0.0968
 3348SOL    HW221678   3.493   4.076   7.827 -1.1995 -1.8122  1.5956
 3349SOL     OW21679   2.902   2.009  17.186  0.4035 -0.1621 -0.4738
 3349SOL    HW121680   2.969   1.943  17.206  0.2406 -0.0552  0.4576
 3349SOL    HW221681   2.939   2.019  17.099  0.4879  0.5479 -0.3558
 3350SOL     OW21682   2.321   2.187  11.938 -0.0196 -0.5018 -0.0998
 3350SOL    HW121683   2.301   2.203  12.031 -1.9870  0.1499 -0.6213
 3350SOL    HW221684   2.338   2.094  11.928 -0.8543 -0.3701 -2.6338
 3351SOL     OW21685   4.072   2.687  14.669  0.0698  0.3852 -0.2182
 3351SOL    HW121686   4.069   2.661  14.576 -4.7863 -2.0359  0.5837
 3351SOL    HW221687   4.131   2.618  14.700 -1.0282 -0.7224 -0.5932
 3352SOL     OW21688   0.446   4.590  12.388 -0.1753 -0.3412  0.3620
 3352SOL    HW121689   0.402   4.674  12.371  2.1638  0.9303  0.6093
 3352SOL    HW221690   0.378   4.530  12.357 -0.4164  0.9702 -1.6108
 3353SOL     OW21691   0.839   3.396   1.660 -0.1087  0.1267  0.4814
 3353SOL    HW121692   0.897   3.473   1.656 -0.5310  0.3841 -0.6571
 3353SOL    HW221693   0.782   3.420   1.587  1.9024 -0.7218 -1.3695
 3354SOL     OW21694   3.473   2.464   7.724  0.3700  0.0690  0.3551
 3354SOL    HW121695   3.425   2.540   7.692 -0.2805 -0.4290  0.1241
 3354SOL    HW221696   3.460   2.458   7.818  0.7809 -0.4770  0.3777
 3355SOL     OW21697   2.158   2.761   7.132 -0.0560  0.0178  0.1710
 3355SOL    HW121698   2.235   2.724   7.089 -0.5816  0.6537 -1.3289
 3355SOL    HW221699   2.089   2.697   7.121 -3.0626  3.2475  0.3703
 3356SOL     OW21700   0.590   1.794   9.384  0.5674 -0.5868 -0.0238
 3356SOL    HW121701   0.635   1.748   9.456  0.1503 -1.4048 -0.2802
 3356SOL    HW221702   0.524   1.727   9.368  1.4008 -1.4035 -0.0832
 3357SOL     OW21703   3.320   0.004   5.185  0.3621 -0.4289 -0.0765
 3357SOL    HW121704   3.335   0.093   5.216  1.5441 -0.2739 -1.0778
 3357SOL    HW221705   3.397   0.001   5.128  0.3559  0.9348 -0.1594
 3358SOL     OW21706   3.695   2.833  16.303 -0.2362  0.2291  0.3436
 3358SOL    HW121707   3.748   2.786  16.239  1.7309  2.6775  0.1678
 3358SOL    HW221708   3.765   2.872  16.356  1.5399 -2.5997  0.0702
 3359SOL     OW21709   0.986   4.328   7.950 -0.5084 -0.5972 -0.0889
 3359SOL    HW121710   0.921   4.303   8.015 -0.6345  0.1272  0.0621
 3359SOL    HW221711   0.961   4.282   7.869 -2.6676  0.9258 -0.2972
 3360SOL     OW21712   0.941   1.967   0.895 -0.2849  0.1668  0.3599
 3360SOL    HW121713   1.015   1.980   0.955  2.0730  0.2739 -2.5998
 3360SOL    HW221714   0.964   2.047   0.849 -0.8401  0.0411 -0.1311
 3361SOL     OW21715   2.575   1.495  14.937 -0.0197  0.8706  0.1814
 3361SOL    HW121716   2.600   1.404  14.953 -3.1095 -0.4193 -2.2919
 3361SOL    HW221717   2.481   1.481  14.930  0.0104  0.4812  0.5587
 3362SOL     OW21718   1.516   2.810   0.723 -0.4875 -0.2474 -0.0208
 3362SOL    HW121719   1.541   2.744   0.658  0.3787 -2.0512  2.1156
 3362SOL    HW221720   1.505   2.752   0.799  1.7377 -1.6462 -0.7748
 3363SOL     OW21721   3.154   3.612   9.891  0.1329  0.7738  0.1113
 3363SOL    HW121722   3.233   3.663   9.909  0.7468 -0.6695  1.5484
 3363SOL    HW221723   3.167   3.548   9.961 -0.4285  0.1850 -0.3132
 3364SOL     OW21724   0.337   0.313  13.528 -0.1631 -0.4261  0.1892
 3364SOL    HW121725   0.264   0.332  13.469  0.6449 -1.2465 -1.0784
 3364SOL    HW221726   0.290   0.265  13.596 -0.0780 -1.5476 -0.5432
 3365SOL     OW21727   0.275   0.115   3.370  0.2312  0.0980 -0.1975
 3365SOL    HW121728   0.195   0.063   3.366  0.0180  0.3786  0.4395
 3365SOL    HW221729   0.314   0.112   3.283 -2.9482  0.7425 -1.6291
 3366SOL     OW21730   0.450   0.015   4.607 -0.2986  0.1368 -0.4297
 3366SOL    HW121731   0.369   0.005   4.657 -0.7585  0.4540 -1.1099
 3366SOL    HW221732   0.431   4.708   4.526  0.2373 -3.1289  1.3358
 3367SOL     OW21733   1.002   3.279  12.584 -0.3084 -0.0396  0.4602
 3367SOL    HW121734   0.938   3.303  12.651 -1.2466 -1.2412 -0.0014
 3367SOL    HW221735   1.019   3.186  12.601  0.2325  0.0967  0.6549
 3368SOL     OW21736   3.314   3.906   4.961 -0.1273  0.6202  0.1769
 3368SOL    HW121737   3.319   3.832   5.022  0.3073 -0.1782 -0.8153
 3368SOL    HW221738   3.225   3.896   4.929 -0.2751  0.4335  0.6419
 3369SOL     OW21739   3.523   1.248  10.528 -0.0844 -0.1699 -0.0684
 3369SOL    HW121740   3.434   1.283  10.521 -0.8730 -2.3795 -0.9216
 3369SOL    HW221741   3.536   1.247  10.623 -2.1869 -2.8541  0.1728
 3370SOL     OW21742   0.474   3.224   3.408  0.2012 -0.2961  0.8562
 3370SOL    HW121743   0.552   3.278   3.401 -0.9547  1.4223  1.1091
 3370SOL    HW221744   0.404   3.279   3.372  0.3414 -1.4036 -1.1119
 3371SOL     OW21745   1.606   3.435   3.898 -0.1335  0.1015  0.3517
 3371SOL    HW121746   1.534   3.372   3.902  0.6457 -0.7731  0.5357
 3371SOL    HW221747   1.556   3.505   3.856 -0.5993 -0.0364  0.6773
 3372SOL     OW21748   4.373   4.285   3.743 -0.2866 -0.8600 -0.4735
 3372SOL    HW121749   4.401   4.246   3.660 -0.1328 -1.2874 -0.2251
 3372SOL    HW221750   4.353   4.205   3.792  0.5534 -0.4260  0.5734
 3373SOL     OW21751   1.914   3.561   7.311 -0.1548  0.6022  0.2851
 3373SOL    HW121752   1.906   3.466   7.302 -0.4918  0.6260  0.3406
 3373SOL    HW221753   1.824   3.588   7.326  0.1284  2.1105 -0.6881
 3374SOL     OW21754   1.641   0.703   2.199  0.4407 -0.5934 -0.3158
 3374SOL    HW121755   1.561   0.751   2.183 -0.6960 -2.1462  0.6519
 3374SOL    HW221756   1.613   0.616   2.229 -0.6727  0.0667  0.5750
 3375SOL     OW21757   4.067   4.477   5.069  0.1480 -0.6012 -0.1801
 3375SOL    HW121758   4.048   4.494   4.977 -0.1212  0.4733  0.0798
 3375SOL    HW221759   3.995   4.529   5.105  0.1166 -0.4219 -0.5045
 3376SOL     OW21760   3.397   4.594   3.475  0.7138 -0.0871  0.1463
 3376SOL    HW121761   3.382   4.615   3.383 -0.3048 -2.1532 -0.1561
 3376SOL    HW221762   3.358   4.668   3.521  0.8979  1.2713 -1.9324
 3377SOL     OW21763   1.576   3.744   4.629 -0.3076 -0.1455 -0.8163
 3377SOL    HW121764   1.616   3.824   4.662 -0.6300 -0.2507 -0.1842
 3377SOL    HW221765   1.613   3.682   4.692 -0.4937 -0.2062 -0.7667
 3378SOL     OW21766   2.695   1.198   4.219  0.1053 -0.1930  0.1982
 3378SOL    HW121767   2.748   1.197   4.140 -1.5019  0.1424 -0.8638
 3378SOL    HW221768   2.613   1.174   4.177  1.7917 -1.1275 -2.5460
 3379SOL     OW21769   4.037   4.035   9.754  0.1646  0.1510  0.0617
 3379SOL    HW121770   4.108   3.971   9.756  0.9059  1.0311  1.5939
 3379SOL    HW221771   3.987   3.996   9.826 -1.5888  2.4306  0.0623
 3380SOL     OW21772   0.293   1.304   0.216  0.1408 -0.0468 -0.8113
 3380SOL    HW121773   0.202   1.275   0.207  0.2814 -0.0637 -2.3161
 3380SOL    HW221774   0.287   1.350   0.300 -0.7718 -0.4411 -0.6561
 3381SOL     OW21775   2.180   0.340   8.729  0.0339  0.4999  0.2670
 3381SOL    HW121776   2.136   0.270   8.682  2.2976 -0.1694 -0.8542
 3381SOL    HW221777   2.178   0.425   8.684 -1.0408  0.9802  1.1949
 3382SOL     OW21778   0.113   4.402   8.757  0.3364  0.0396  0.3144
 3382SOL    HW121779   0.118   4.312   8.790 -1.7908 -0.9143 -2.0270
 3382SOL    HW221780   0.038   4.441   8.801  0.7258  0.1572  0.8881
 3383SOL     OW21781   1.134   1.968  10.158  0.4054 -0.3889  0.4242
 3383SOL    HW121782   1.106   1.910  10.229 -1.4808 -0.9016 -0.7530
 3383SOL    HW221783   1.227   1.946  10.146  0.2172 -2.7061  3.1192
 3384SOL     OW21784   2.926   1.752  14.663  0.2597  0.8682  0.7380
 3384SOL    HW121785   2.951   1.824  14.721  1.0100  0.5287  0.8290
 3384SOL    HW221786   2.921   1.682  14.727 -0.7100  1.8403  1.7161
 3385SOL     OW21787   1.579   4.052   3.582 -0.3536 -0.7697 -0.0000
 3385SOL    HW121788   1.622   3.980   3.537 -0.5284 -1.3322  0.7424
 3385SOL    HW221789   1.485   4.052   3.565 -0.1738  0.7818 -0.9675
 3386SOL     OW21790   4.168   3.390   8.779  0.0697 -0.6417  0.1893
 3386SOL    HW121791   4.253   3.346   8.783  0.1367 -0.5191  0.0941
 3386SOL    HW221792   4.129   3.384   8.691 -1.0539 -0.3561  0.6596
 3387SOL     OW21793   3.579   4.658   9.326 -0.4762 -0.3224  0.3518
 3387SOL    HW121794   3.580   4.634   9.418  0.3148  0.2617  0.4978
 3387SOL    HW221795   3.538   0.005   9.329 -0.1023 -0.1417  0.2933
 3388SOL     OW21796   4.697   1.466   5.416  0.5016 -0.4901  0.1376
 3388SOL    HW121797   4.721   1.374   5.412  0.2665 -0.5771  0.7358
 3388SOL    HW221798   4.618   1.450   5.466 -0.3629 -0.2857 -1.1621
 3389SOL     OW21799   2.185   0.441   4.823  0.7713  0.0035  0.3490
 3389SOL    HW121800   2.175   0.402   4.910  0.1571  0.5517  0.5168
 3389SOL    HW221801   2.125   0.397   4.763 -0.9036  1.1020  1.2491
 3390SOL     OW21802   2.291   4.507  14.454 -0.4248  0.4507 -0.1074
 3390SOL    HW121803   2.320   4.452  14.382  0.6033 -1.1303  1.5287
 3390SOL    HW221804   2.267   4.437  14.514  0.5303  1.1551  1.1019
 3391SOL     OW21805   2.990   0.159  10.041  0.3374  0.6211 -0.0335
 3391SOL    HW121806   2.996   0.253  10.022  1.6703  0.7428  0.9521
 3391SOL    HW221807   3.064   0.128   9.990 -0.5575 -1.9793  0.2669
 3392SOL     OW21808   1.771   4.207   7.108 -0.9530 -0.0011  0.0727
 3392SOL    HW121809   1.744   4.243   7.193 -1.7537 -0.7478  0.1295
 3392SOL    HW221810   1.773   4.113   7.126 -1.9500  0.0926  0.6781
 3393SOL     OW21811   4.715   0.302   5.024 -0.5127  0.5160  0.4784
 3393SOL    HW121812   0.056   0.320   5.073  1.1876 -0.0232 -2.1061
 3393SOL    HW221813   4.651   0.291   5.094 -1.3785  0.1539 -0.3708
 3394SOL     OW21814   3.053   1.409   2.669  0.3953  0.1623  0.1780
 3394SOL    HW121815   3.019   1.343   2.729 -1.2423  0.6385 -0.2082
 3394SOL    HW221816   3.042   1.367   2.584  2.8139  0.9533 -0.5220
 3395SOL     OW21817   3.159   3.452  17.440 -0.3704 -0.1986  0.0077
 3395SOL    HW121818   3.160   3.540  17.402  0.4059  0.2276  1.0343
 3395SOL    HW221819   3.222   3.464  17.511 -0.7835  0.2638  0.2951
 3396SOL     OW21820   1.766   1.970   8.529  0.3504 -0.2920  0.3158
 3396SOL    HW121821   1.819   1.958   8.450 -0.7116  1.5585 -0.6727
 3396SOL    HW221822   1.767   1.880   8.562 -0.5842 -0.9911 -1.5270
 3397SOL     OW21823   4.147   2.860   5.676  0.2523  0.0628  0.0689
 3397SOL    HW121824   4.063   2.851   5.720  0.7348 -0.6392  0.8454
 3397SOL    HW221825   4.180   2.945   5.706 -1.2672  1.4816 -2.2369
 3398SOL     OW21826   2.265   1.963  14.948  0.1073  0.3105 -0.1391
 3398SOL    HW121827   2.334   1.960  14.882  0.3811 -1.3597  0.2213
 3398SOL    HW221828   2.186   1.942  14.899  1.2740 -1.4991 -1.2288
 3399SOL     OW21829   0.794   1.242   7.323 -0.0178 -0.4587 -0.4266
 3399SOL    HW121830   0.709   1.285   7.329  0.8264  1.6843 -3.4300
 3399SOL    HW221831   0.800   1.237   7.228  0.7493  0.8375 -0.4473
 3400SOL     OW21832   0.757   4.574   1.675  0.7432  0.2359  0.4983
 3400SOL    HW121833   0.805   4.492   1.689  0.0754 -0.2907 -0.3291
 3400SOL    HW221834   0.675   4.552   1.631 -0.2484  1.0193  1.9185
 3401SOL     OW21835   2.994   2.508   7.973 -0.1979  0.1609  0.0960
 3401SOL    HW121836   2.927   2.452   8.013 -1.0236 -0.0741 -1.6375
 3401SOL    HW221837   3.023   2.563   8.046  1.1042  1.7463 -1.6372
 3402SOL     OW21838   3.443   2.111   4.060 -0.3266  0.3444  0.1604
 3402SOL    HW121839   3.533   2.098   4.030 -1.2169 -0.4016 -2.1371
 3402SOL    HW221840   3.391   2.101   3.981 -2.2414  1.0293  1.3315
 3403SOL     OW21841   2.272   1.940   1.472 -0.2195  0.1751  0.5957
 3403SOL    HW121842   2.209   1.940   1.543  0.2711  0.2581  1.0260
 3403SOL    HW221843   2.240   2.002   1.407 -2.5809 -1.2375  0.3797
 3404SOL     OW21844   3.075   4.430  12.539 -0.6428 -0.5594  0.1621
 3404SOL    HW121845   3.165   4.425  12.506 -0.2225  0.9006  1.0991
 3404SOL    HW221846   3.047   4.510  12.495  2.3244  0.0724 -0.5861
 3405SOL     OW21847   1.230   0.722   2.326 -0.3216 -0.4721  0.0789
 3405SOL    HW121848   1.268   0.639   2.298 -2.0534 -1.1916 -0.1228
 3405SOL    HW221849   1.284   0.791   2.288  2.1817 -2.6792 -0.3192
 3406SOL     OW21850   0.703   0.836   4.969  0.3396  0.3010  0.2751
 3406SOL    HW121851   0.643   0.877   4.907 -0.4330 -2.0605 -0.5441
 3406SOL    HW221852   0.749   0.768   4.920  0.2310  0.2865  0.1931
 3407SOL     OW21853   4.471   0.724   2.484 -0.3672  0.1029 -1.0784
 3407SOL    HW121854   4.539   0.657   2.498 -0.3339  0.6029  1.1554
 3407SOL    HW221855   4.444   0.744   2.573 -1.3309 -2.5279 -0.7827
 3408SOL     OW21856   4.112   1.510   4.281 -0.0341 -0.7543 -0.2625
 3408SOL    HW121857   4.089   1.503   4.188 -0.5465 -0.5604 -0.1493
 3408SOL    HW221858   4.073   1.594   4.305 -0.7176 -1.5961  1.5306
 3409SOL     OW21859   3.601   1.125   2.855  0.0598 -0.0481  0.3553
 3409SOL    HW121860   3.602   1.042   2.807 -0.1715 -0.8216  1.6812
 3409SOL    HW221861   3.624   1.093   2.942  4.1133  1.1933 -0.2238
 3410SOL     OW21862   3.874   2.482   1.390  0.0310 -0.7299 -0.0118
 3410SOL    HW121863   3.853   2.401   1.343  1.3460 -0.4513 -1.0875
 3410SOL    HW221864   3.922   2.520   1.317 -1.4052 -1.4668 -1.3395
 3411SOL     OW21865   1.256   0.604   8.644  0.1402 -0.6830  0.0523
 3411SOL    HW121866   1.201   0.669   8.600  1.7326 -0.2768 -1.3384
 3411SOL    HW221867   1.319   0.654   8.697 -0.7530  0.2700  0.2154
 3412SOL     OW21868   0.418   3.830   7.800 -0.7124 -0.3651 -0.2277
 3412SOL    HW121869   0.443   3.781   7.721 -0.3299 -2.1730  1.0306
 3412SOL    HW221870   0.388   3.911   7.758 -0.7000 -0.6618 -0.8184
 3413SOL     OW21871   2.029   1.396   8.496 -0.0800  0.5608  0.0195
 3413SOL    HW121872   2.113   1.361   8.470  0.1387  1.2240 -0.1716
 3413SOL    HW221873   2.032   1.486   8.464 -0.8612  0.0724 -1.4021
 3414SOL     OW21874   3.577   0.387   4.252 -0.1780  0.2719 -0.1568
 3414SOL    HW121875   3.548   0.426   4.334  3.0653  0.5956  0.8323
 3414SOL    HW221876   3.503   0.347   4.207  0.3524  0.6658 -1.3725
 3415SOL     OW21877   2.573   2.597   4.513  0.3490 -0.1399 -0.3328
 3415SOL    HW121878   2.546   2.526   4.455  2.0236  0.6990 -2.1754
 3415SOL    HW221879   2.667   2.579   4.518  0.4171  0.4343  0.4233
 3416SOL     OW21880   2.842   3.252   0.138 -0.3751  0.1052 -0.1567
 3416SOL    HW121881   2.782   3.202   0.194  2.5644 -1.7983  1.2775
 3416SOL    HW221882   2.850   3.203   0.056 -0.4699 -1.5588  0.8193
 3417SOL     OW21883   4.166   0.667   4.934  0.2302 -0.1739  0.9822
 3417SOL    HW121884   4.183   0.690   5.025 -0.0666  0.4184  0.8828
 3417SOL    HW221885   4.256   0.686   4.909  0.3201 -0.3468  1.1732
 3418SOL     OW21886   2.179   1.053   5.345  0.6847 -0.1022  0.0093
 3418SOL    HW121887   2.110   1.024   5.285 -0.5691 -0.9034  1.8681
 3418SOL    HW221888   2.259   1.029   5.298  1.5854  1.0912  0.9472
 3419SOL     OW21889   3.612   2.035   8.847  0.3313  0.1368  0.7909
 3419SOL    HW121890   3.540   1.972   8.853  0.5064  0.0370  1.8299
 3419SOL    HW221891   3.638   2.036   8.755 -0.4306 -1.9502  0.5564
 3420SOL     OW21892   1.650   4.409   9.374 -0.1218  0.3204 -0.4296
 3420SOL    HW121893   1.713   4.391   9.305 -1.1557 -1.1220 -1.0151
 3420SOL    HW221894   1.642   4.500   9.345  2.3876  0.0143 -2.0178
 3421SOL     OW21895   0.448   2.480  17.360  0.2848  0.6375  0.3155
 3421SOL    HW121896   0.355   2.459  17.370 -0.4348  3.8785  0.5822
 3421SOL    HW221897   0.444   2.567  17.319 -0.1684  0.5515  0.1832
 3422SOL     OW21898   1.573   3.131   7.348 -0.0176 -0.1306 -0.6607
 3422SOL    HW121899   1.488   3.115   7.389  0.5531  1.2885  1.1045
 3422SOL    HW221900   1.634   3.114   7.421 -0.4070 -1.4233 -0.6314
 3423SOL     OW21901   2.940   3.889   2.181  0.5685  0.6334 -0.6353
 3423SOL    HW121902   3.030   3.867   2.159  0.5711 -1.2486  1.2617
 3423SOL    HW221903   2.907   3.816   2.234 -0.4582 -1.0397 -3.5777
 3424SOL     OW21904   3.491   0.016   5.572  0.0114 -0.2192  0.0976
 3424SOL    HW121905   3.426   0.032   5.641  1.4132  1.3328  1.0588
 3424SOL    HW221906   3.521   4.668   5.598  0.9041 -0.1169 -0.5947
 3425SOL     OW21907   0.780   3.907   4.556  0.2243  0.4236  0.1926
 3425SOL    HW121908   0.787   4.002   4.569  2.0399  0.2982  0.1027
 3425SOL    HW221909   0.822   3.877   4.636 -0.1173 -1.3569 -0.3004
 3426SOL     OW21910   4.635   2.558  17.360  0.1236  0.5661  0.0369
 3426SOL    HW121911   4.602   2.508  17.435 -0.6573 -0.5960 -1.0844
 3426SOL    HW221912   4.556   2.568  17.308 -0.0753  2.1254  0.6545
 3427SOL     OW21913   3.369   3.897   2.808 -0.3823 -0.2674 -0.0193
 3427SOL    HW121914   3.399   3.923   2.895  0.4863 -0.6954 -0.1855
 3427SOL    HW221915   3.391   3.981   2.766  3.4404 -0.6427  1.2053
 3428SOL     OW21916   3.087   0.205   7.420  0.2342  0.1208  0.3472
 3428SOL    HW121917   3.098   0.110   7.412 -0.6518 -0.0983  1.7937
 3428SOL    HW221918   3.003   0.219   7.377  0.0284  2.4491  1.5315
 3429SOL     OW21919   0.591   4.701   7.627 -0.1131 -0.0113 -0.1348
 3429SOL    HW121920   0.625   4.658   7.548  0.6221  0.9755 -0.3540
 3429SOL    HW221921   0.499   4.714   7.605 -0.3695 -1.7093 -0.0722
 3430SOL     OW21922   0.683   3.977   2.763 -0.0260 -0.3093 -0.2326
 3430SOL    HW121923   0.756   3.915   2.769  0.1191 -0.1117  0.0631
 3430SOL    HW221924   0.603   3.925   2.757 -0.0752 -0.0661 -1.6041
 3431SOL     OW21925   2.165   4.609   8.468 -0.2436  0.0168 -0.1874
 3431SOL    HW121926   2.209   4.570   8.392 -1.1419  1.3626 -1.3982
 3431SOL    HW221927   2.184   4.539   8.531 -2.4847 -0.1557  0.2830
 3432SOL     OW21928   2.912   0.473   0.696 -0.1621 -0.3492 -0.4329
 3432SOL    HW121929   2.841   0.427   0.742 -1.3533  3.2179  1.3304
 3432SOL    HW221930   2.934   0.412   0.626 -0.3179 -0.0626 -0.7295
 3433SOL     OW21931   4.402   4.696   4.336  0.1973 -0.1002  0.5122
 3433SOL    HW121932   4.416   4.604   4.360 -1.2113 -1.0846 -2.4186
 3433SOL    HW221933   4.492   4.728   4.337  0.8092 -1.7857 -2.3248
 3434SOL     OW21934   1.299   1.731   4.017 -0.2292  0.0129  0.2098
 3434SOL    HW121935   1.235   1.676   3.972 -1.9255  1.8546  0.3337
 3434SOL    HW221936   1.246   1.808   4.038 -0.0351  1.4035 -4.5516
 3435SOL     OW21937   1.641   4.197  13.122 -0.1378  0.4124  0.1773
 3435SOL    HW121938   1.701   4.224  13.052  1.3698  1.5224  1.9003
 3435SOL    HW221939   1.700   4.153  13.183 -0.7618 -1.3399 -0.4543
 3436SOL     OW21940   2.079   1.751   7.563  0.6394 -0.0691  0.1147
 3436SOL    HW121941   2.039   1.752   7.650 -0.7203 -0.2122 -0.5062
 3436SOL    HW221942   2.157   1.704   7.592  0.4391 -1.1135 -1.0292
 3437SOL     OW21943   2.774   1.257  16.439  0.1215  0.2758  0.1210
 3437SOL    HW121944   2.831   1.183  16.458  1.2045  0.6782 -1.6151
 3437SOL    HW221945   2.846   1.319  16.438  1.0806 -0.8235  1.2096
 3438SOL     OW21946   4.538   3.908   7.184 -0.1631 -0.4693  0.0741
 3438SOL    HW121947   4.520   3.955   7.103 -0.5321 -0.1178  0.3632
 3438SOL    HW221948   4.628   3.878   7.173 -0.2613 -0.4657 -0.7519
 3439SOL     OW21949   0.868   3.095  16.998 -0.1221 -0.1782 -0.2342
 3439SOL    HW121950   0.789   3.059  16.958 -0.8260  2.7552 -1.5237
 3439SOL    HW221951   0.829   3.145  17.070  0.5253  1.0005 -0.7010
 3440SOL     OW21952   2.914   0.625  14.623 -0.2954 -0.0049 -0.2589
 3440SOL    HW121953   2.912   0.532  14.647  0.3773 -0.3273 -1.4759
 3440SOL    HW221954   2.959   0.633  14.539 -1.9994  0.1608 -1.1547
 3441SOL     OW21955   2.486   3.614   0.871 -0.4172 -0.2027  0.1795
 3441SOL    HW121956   2.582   3.619   0.874 -0.3127 -1.8700 -0.2243
 3441SOL    HW221957   2.455   3.699   0.900 -0.3054 -0.1479  0.1395
 3442SOL     OW21958   2.135   3.151   6.168  0.3468  0.3995  0.2026
 3442SOL    HW121959   2.207   3.100   6.129  2.6693  1.9843  2.4390
 3442SOL    HW221960   2.119   3.223   6.107 -0.8296 -1.4073 -1.6301
 3443SOL     OW21961   0.612   1.959   4.496 -0.7031  0.0883 -0.3550
 3443SOL    HW121962   0.587   1.983   4.585  0.4797 -0.4672  0.1375
 3443SOL    HW221963   0.687   2.019   4.491 -0.5829  0.0113  0.5263
 3444SOL     OW21964   3.680   2.249   6.232  0.6127  0.1059  0.0584
 3444SOL    HW121965   3.745   2.302   6.278 -0.0486  1.2924 -0.3662
 3444SOL    HW221966   3.592   2.281   6.255  0.2093  0.0390 -1.3736
 3445SOL     OW21967   0.829   3.011   7.414 -0.0563 -0.3329  0.8040
 3445SOL    HW121968   0.829   3.105   7.396  0.0319 -0.4439  0.2353
 3445SOL    HW221969   0.737   2.997   7.392  0.7542 -2.7439 -1.0713
 3446SOL     OW21970   3.466   0.181   2.426  0.5681  0.0468 -0.6772
 3446SOL    HW121971   3.416   0.242   2.372 -1.5480 -0.4610  0.6849
 3446SOL    HW221972   3.516   0.245   2.475 -0.8128  0.0540  0.7419
 3447SOL     OW21973   1.094   3.498  13.665 -0.0362 -0.1070 -0.0769
 3447SOL    HW121974   1.081   3.553  13.742 -0.1981  1.1789 -1.0274
 3447SOL    HW221975   1.012   3.528  13.624  0.6511 -0.1483 -1.4821
 3448SOL     OW21976   2.292   3.062   9.407 -0.0293 -0.2377 -0.1170
 3448SOL    HW121977   2.319   3.060   9.499 -3.4579 -3.1368  0.8319
 3448SOL    HW221978   2.343   2.988   9.374  0.9772  0.2162  0.4302
 3449SOL     OW21979   1.796   3.534  10.083  0.0750  0.0681 -0.1464
 3449SOL    HW121980   1.814   3.494  10.168  1.2837 -2.3331 -1.5342
 3449SOL    HW221981   1.783   3.460  10.023  0.1874  0.1466 -0.2670
 3450SOL     OW21982   0.382   2.507   5.496 -0.0610 -0.3919  0.1767
 3450SOL    HW121983   0.290   2.502   5.523  0.3558 -0.1077  1.6719
 3450SOL    HW221984   0.363   2.578   5.435 -0.4671  0.4719  1.3002
 3451SOL     OW21985   2.416   4.205   7.934 -0.9222  0.3413  0.2185
 3451SOL    HW121986   2.488   4.199   7.996 -0.7022 -0.5744 -0.1236
 3451SOL    HW221987   2.456   4.266   7.872 -2.8145  0.6019 -0.7701
 3452SOL     OW21988   3.559   0.814   5.193  0.2768  0.6142 -0.2193
 3452SOL    HW121989   3.508   0.870   5.135 -1.0636 -0.6381 -0.2569
 3452SOL    HW221990   3.646   0.817   5.155  0.5436  0.0487  0.3397
 3453SOL     OW21991   0.103   0.636   7.042 -0.3122 -0.0200 -0.0229
 3453SOL    HW121992   0.048   0.705   7.005 -0.8261  1.2381  3.0309
 3453SOL    HW221993   0.179   0.686   7.069 -1.8676  2.9638 -1.2065
 3454SOL     OW21994   1.765   1.315  14.346 -0.3349  0.0218 -0.0903
 3454SOL    HW121995   1.803   1.316  14.434 -1.7231  0.0777  0.5207
 3454SOL    HW221996   1.787   1.405  14.322  3.2714 -1.7680 -3.4079
 3455SOL     OW21997   4.380   0.217   2.995  0.7720 -0.2203 -0.5834
 3455SOL    HW121998   4.403   0.194   3.085 -0.5515  1.0723  0.0847
 3455SOL    HW221999   4.288   0.193   2.996  1.3718 -2.4271  0.8673
 3456SOL     OW22000   1.960   3.239  15.387 -0.2608  0.0916 -0.6494
 3456SOL    HW122001   1.898   3.306  15.416  2.9463  2.1804  1.3749
 3456SOL    HW222002   2.007   3.211  15.466  1.5751 -1.5501 -2.3413
 3457SOL     OW22003   2.992   3.534   8.022 -0.3791 -0.0255 -0.0780
 3457SOL    HW122004   3.054   3.604   8.046 -2.0597  0.6886  2.2199
 3457SOL    HW222005   2.940   3.580   7.955 -0.6558 -1.0222 -0.5439
 3458SOL     OW22006   3.304   3.868   1.434 -0.6364  0.1611 -0.0945
 3458SOL    HW122007   3.270   3.942   1.484  2.6598  0.9096  1.0760
 3458SOL    HW222008   3.233   3.872   1.370 -0.8201  0.5465  0.1325
 3459SOL     OW22009   1.294   2.932   8.434  0.9617 -0.4963  0.1528
 3459SOL    HW122010   1.360   2.863   8.434  1.0292 -0.4402 -0.9822
 3459SOL    HW222011   1.328   2.993   8.368 -0.7068  0.3338  0.0759
 3460SOL     OW22012   4.025   2.229   7.027 -0.5515  0.4679 -0.5040
 3460SOL    HW122013   3.930   2.237   7.014 -0.6675 -0.2396 -0.1215
 3460SOL    HW222014   4.030   2.176   7.106  1.6856  1.1345 -0.2181
 3461SOL     OW22015   1.071   4.259   3.935 -0.8765 -0.6387  0.3043
 3461SOL    HW122016   1.025   4.175   3.922 -1.7723 -0.2465  0.9762
 3461SOL    HW222017   1.029   4.317   3.872 -2.3930 -0.8500  1.1129
 3462SOL     OW22018   1.779   4.674   6.976 -0.0926 -0.0697 -0.0600
 3462SOL    HW122019   1.867   4.688   6.940 -0.6069 -1.3179 -1.7926
 3462SOL    HW222020   1.788   4.686   7.070 -0.2400 -1.1221  0.0871
 3463SOL     OW22021   4.306   0.087  17.070  0.2753 -0.2830  0.6439
 3463SOL    HW122022   4.305   0.049  16.983  0.8658 -0.9109  0.9105
 3463SOL    HW222023   4.226   0.139  17.077 -0.6942 -1.5519 -1.1869
 3464SOL     OW22024   4.059   1.728   5.352 -0.1287 -0.2565 -0.5301
 3464SOL    HW122025   4.083   1.759   5.440  0.0899 -0.7039 -0.4299
 3464SOL    HW222026   3.977   1.773   5.332  1.4785  3.2382  0.8005
 3465SOL     OW22027   2.559   3.913  13.731  0.0803 -0.3144 -0.4491
 3465SOL    HW122028   2.549   3.884  13.821 -2.1579  0.5181 -0.4199
 3465SOL    HW222029   2.582   4.005  13.745 -1.9818  0.2190 -0.4391
 3466SOL     OW22030   0.216   0.700  12.858  0.1992  0.2915  0.7627
 3466SOL    HW122031   0.253   0.659  12.936  0.0445 -0.4048  0.4715
 3466SOL    HW222032   0.132   0.656  12.866  1.0238 -1.4461 -0.1806
 3467SOL     OW22033   0.080   3.502   2.223 -0.2060 -0.2237 -0.1841
 3467SOL    HW122034   0.140   3.576   2.211 -0.8717  0.6382  1.7980
 3467SOL    HW222035   0.139   3.427   2.231  1.3984  0.9030 -1.2880
 3468SOL     OW22036   0.645   3.951  17.714 -0.1098  0.0067 -0.3709
 3468SOL    HW122037   0.681   3.950  17.625  1.5018  1.4496  0.2612
 3468SOL    HW222038   0.719   3.922   0.012 -1.3300  0.9456  1.8448
 3469SOL     OW22039   3.517   1.652  17.617 -0.4630  0.1035 -0.1326
 3469SOL    HW122040   3.504   1.568  17.575 -1.5071  0.6318 -0.8703
 3469SOL    HW222041   3.474   1.629  17.700 -0.3227  0.1563 -0.0447
 3470SOL     OW22042   0.666   2.949   3.151  0.4675 -0.4388 -0.5653
 3470SOL    HW122043   0.647   3.003   3.074 -0.6223 -1.0054 -0.6907
 3470SOL    HW222044   0.581   2.946   3.194  1.2497 -2.2718  0.8333
 3471SOL     OW22045   1.068   3.770   6.997  0.1492 -0.3781 -0.9455
 3471SOL    HW122046   1.049   3.787   6.905 -1.0991  0.9952 -0.4308
 3471SOL    HW222047   1.063   3.675   6.991  0.7488 -0.4080 -0.9430
 3472SOL     OW22048   1.211   0.547   3.410 -0.2821  0.8333 -0.6714
 3472SOL    HW122049   1.275   0.476   3.412  0.2448  1.3512  0.8303
 3472SOL    HW222050   1.237   0.596   3.332 -0.6271  0.7236 -0.8509
 3473SOL     OW22051   0.834   3.206  15.961 -0.0066 -0.2308 -0.5482
 3473SOL    HW122052   0.911   3.169  16.004  0.5648  0.0704 -1.3153
 3473SOL    HW222053   0.780   3.228  16.037 -1.3397 -0.0279 -1.5412
 3474SOL     OW22054   3.549   1.591  16.916 -0.1041  0.3279  0.0498
 3474SOL    HW122055   3.554   1.505  16.875 -0.4514  1.4951 -2.4336
 3474SOL    HW222056   3.638   1.589  16.953  0.3963  2.0527 -1.0349
 3475SOL     OW22057   0.358   0.714   5.016 -0.4058  0.1169 -0.6209
 3475SOL    HW122058   0.374   0.673   4.930  1.4462 -1.5225  0.5140
 3475SOL    HW222059   0.394   0.654   5.081  0.3978  1.6030  0.3103
 3476SOL     OW22060   2.554   3.089   7.835  0.5202 -0.3405 -0.0778
 3476SOL    HW122061   2.503   3.158   7.878  1.4397 -0.5319  1.3007
 3476SOL    HW222062   2.604   3.060   7.910  1.2556 -0.6360 -0.6875
 3477SOL     OW22063   0.881   0.938   8.649 -0.3607  1.0725 -0.3000
 3477SOL    HW122064   0.907   1.004   8.714 -0.1033  1.3432 -0.6791
 3477SOL    HW222065   0.826   0.990   8.591  0.7783  1.0388 -1.3872
 3478SOL     OW22066   0.798   0.350   7.907 -0.0852  0.9308 -0.3560
 3478SOL    HW122067   0.754   0.273   7.871 -1.5637  2.1125 -1.0728
 3478SOL    HW222068   0.863   0.303   7.961 -1.8088  1.4195  2.1319
 3479SOL     OW22069   1.375   4.315  12.195 -0.1943  0.1926 -0.2438
 3479SOL    HW122070   1.440   4.251  12.166  2.9333  1.4320  3.9481
 3479SOL    HW222071   1.308   4.266  12.147  0.7185 -1.9993  0.7095
 3480SOL     OW22072   0.866   3.972   2.109  0.4180 -0.2925 -0.0201
 3480SOL    HW122073   0.788   3.916   2.106  0.8068 -0.8565  0.4547
 3480SOL    HW222074   0.925   3.908   2.148  3.9138  2.8870 -0.1054
 3481SOL     OW22075   1.013   4.049   3.508 -0.0961  1.4103  0.1668
 3481SOL    HW122076   1.071   4.122   3.531 -0.1962  1.8114 -0.8194
 3481SOL    HW222077   1.075   3.982   3.481 -0.5330  1.2177 -0.3592
 3482SOL     OW22078   4.294   2.435   8.079 -0.0172 -0.2569  0.5987
 3482SOL    HW122079   4.306   2.476   8.165  0.3359 -2.7202  1.7233
 3482SOL    HW222080   4.199   2.427   8.077  0.1016 -1.9142  1.0712
 3483SOL     OW22081   4.663   3.796  10.933  0.1023  0.7782  0.5074
 3483SOL    HW122082   4.701   3.709  10.923 -0.5701  0.5929 -0.3836
 3483SOL    HW222083   4.595   3.775  10.997 -0.9787  0.3226 -0.8101
 3484SOL     OW22084   2.664   0.507   2.211  0.3938 -0.5392  0.5156
 3484SOL    HW122085   2.676   0.417   2.181 -0.9402 -0.3616 -0.5029
 3484SOL    HW222086   2.589   0.533   2.158  0.7923  0.4431  0.4220
 3485SOL     OW22087   3.302   3.087  13.156  0.1583  0.4493  0.2175
 3485SOL    HW122088   3.214   3.097  13.194 -0.5398 -0.3152 -1.1956
 3485SOL    HW222089   3.351   3.030  13.215 -1.8671 -0.8469  0.6442
 3486SOL     OW22090   2.228   2.421   4.649 -0.2065  0.0955  0.3860
 3486SOL    HW122091   2.263   2.503   4.615 -0.2419 -0.2655 -0.5254
 3486SOL    HW222092   2.163   2.455   4.711 -1.8439 -0.7515 -0.8416
 3487SOL     OW22093   3.086   3.444   4.418 -0.0311  0.7458 -0.1737
 3487SOL    HW122094   3.099   3.503   4.493  0.1859 -1.8627  1.8521
 3487SOL    HW222095   3.073   3.360   4.463 -0.0220  0.8309 -0.0110
 3488SOL     OW22096   1.655   0.443   8.317 -0.0043 -0.1238 -0.0847
 3488SOL    HW122097   1.734   0.479   8.276  0.0338  1.6782  1.5808
 3488SOL    HW222098   1.577   0.497   8.300 -2.3298 -3.3766  0.3977
 3489SOL     OW22099   0.484   2.055   9.900  0.0408  0.5369 -0.2398
 3489SOL    HW122100   0.525   2.093   9.978 -0.8380  0.6125  0.1880
 3489SOL    HW222101   0.426   1.986   9.931 -0.4388  0.5586 -1.0805
 3490SOL     OW22102   2.565   0.544   8.787  0.1619 -0.8828 -0.6495
 3490SOL    HW122103   2.633   0.539   8.854  0.4267  4.7312 -0.5452
 3490SOL    HW222104   2.503   0.484   8.830 -2.9178  3.7051  1.3176
 3491SOL     OW22105   2.818   2.869   6.566 -0.8576  0.6566  0.5501
 3491SOL    HW122106   2.751   2.803   6.584  0.1616 -0.2066  1.2042
 3491SOL    HW222107   2.883   2.846   6.633  0.5822 -1.0562 -1.4163
 3492SOL     OW22108   1.752   1.766   8.947 -0.6012 -0.2002  0.0200
 3492SOL    HW122109   1.692   1.699   8.979  1.0211 -1.4330  0.4724
 3492SOL    HW222110   1.744   1.828   9.020 -3.1073  2.9013 -2.8981
 3493SOL     OW22111   0.695   1.666   8.476 -0.2023  0.0322  0.5822
 3493SOL    HW122112   0.777   1.642   8.520  0.9658  0.0922 -1.5320
 3493SOL    HW222113   0.656   1.728   8.537 -1.1375 -0.3916  0.4187
 3494SOL     OW22114   2.665   3.227   8.311 -0.4197 -0.1970 -0.0276
 3494SOL    HW122115   2.740   3.280   8.285 -0.8470  0.5735  0.3269
 3494SOL    HW222116   2.659   3.261   8.400 -2.1637  1.0601 -0.6254
 3495SOL     OW22117   0.614   2.633  14.962  0.0448 -0.2674 -0.3034
 3495SOL    HW122118   0.587   2.643  14.871 -0.4820  2.7263  0.1841
 3495SOL    HW222119   0.652   2.720  14.966 -0.5635  0.0443 -1.2346
 3496SOL     OW22120   0.457   1.356   0.548 -0.2756  0.0861  0.0108
 3496SOL    HW122121   0.476   1.366   0.642  2.1455 -1.3624 -0.3134
 3496SOL    HW222122   0.419   1.442   0.534 -0.9659 -0.5463 -2.0731
 3497SOL     OW22123   1.642   0.519  17.182 -0.9419  0.0281 -0.1287
 3497SOL    HW122124   1.598   0.591  17.138  0.1106  0.3242 -0.6993
 3497SOL    HW222125   1.730   0.524  17.144 -1.5791 -0.1033 -1.5973
 3498SOL     OW22126   4.196   1.095  17.306  0.7878  0.0146 -0.0617
 3498SOL    HW122127   4.267   1.158  17.308  0.9740 -0.1258 -2.5392
 3498SOL    HW222128   4.238   1.015  17.274  0.1620 -1.4700  2.7718
 3499SOL     OW22129   3.713   1.272   8.359  0.5811 -0.3623 -0.2670
 3499SOL    HW122130   3.756   1.235   8.436  3.1115 -0.1374 -1.5901
 3499SOL    HW222131   3.787   1.253   8.301  0.7903  0.2213 -0.1941
 3500SOL     OW22132   1.259   4.028  12.205  0.1523  0.4556  0.4592
 3500SOL    HW122133   1.190   4.015  12.270 -1.9843  1.6022 -1.5998
 3500SOL    HW222134   1.226   4.095  12.146 -0.7810 -1.7047 -1.4705
 3501SOL     OW22135   0.257   3.666   7.941 -0.1444  0.1494  0.2563
 3501SOL    HW122136   0.312   3.730   7.896 -1.9504  1.0980 -0.5943
 3501SOL    HW222137   0.169   3.699   7.926  0.7017  1.7367 -1.2359
 3502SOL     OW22138   1.021   3.691   9.109  0.7014 -0.2505 -0.5498
 3502SOL    HW122139   1.010   3.642   9.028  1.0654  0.3634 -0.9671
 3502SOL    HW222140   1.006   3.627   9.179  2.8036 -1.3915 -1.1515
 3503SOL     OW22141   0.734   0.722   0.744  0.3507 -0.2031 -0.1892
 3503SOL    HW122142   0.755   0.714   0.837 -1.3647 -0.0500  0.2141
 3503SOL    HW222143   0.642   0.695   0.746 -0.0362  0.9543 -1.9659
 3504SOL     OW22144   1.586   1.169   7.276 -0.6395 -0.5165 -0.0105
 3504SOL    HW122145   1.656   1.112   7.245 -0.9979 -1.1577  0.3509
 3504SOL    HW222146   1.504   1.123   7.254 -0.1457 -1.3385 -0.1282
 3505SOL     OW22147   1.363   2.375  16.000 -0.0803 -0.1452 -0.0268
 3505SOL    HW122148   1.362   2.461  15.959  1.6938  0.2595  0.7742
 3505SOL    HW222149   1.442   2.339  15.959  0.3524  2.6019 -1.5617
 3506SOL     OW22150   3.662   4.417   2.969 -0.4813 -0.7141  0.4345
 3506SOL    HW122151   3.729   4.445   2.907 -2.8854  0.3181 -1.7031
 3506SOL    HW222152   3.715   4.379   3.039 -0.4855 -0.7103  0.4399
 3507SOL     OW22153   1.091   0.083  14.477  0.1843  0.2759 -0.1444
 3507SOL    HW122154   1.176   0.054  14.511  0.5974 -0.6020 -1.9247
 3507SOL    HW222155   1.084   0.018  14.407 -1.1979 -1.2540  1.3845
 3508SOL     OW22156   1.121   0.128  13.621 -0.0426 -0.1668  0.0439
 3508SOL    HW122157   1.095   0.163  13.536  0.7713  1.1818  0.3468
 3508SOL    HW222158   1.195   0.186  13.640  1.3221 -1.9667  0.2592
 3509SOL     OW22159   2.183   4.595   0.976  0.1402 -0.2019 -0.0604
 3509SOL    HW122160   2.193   4.684   0.943 -0.6699  0.4595  1.4548
 3509SOL    HW222161   2.088   4.597   0.964  0.0901  0.2196  0.3893
 3510SOL     OW22162   3.354   2.797   6.644 -0.0120  0.4196 -0.3268
 3510SOL    HW122163   3.295   2.722   6.643  1.5400 -0.8023  0.1641
 3510SOL    HW222164   3.394   2.771   6.727  1.7737  3.0456 -0.3665
 3511SOL     OW22165   0.344   1.833   2.710  0.1894  0.2321 -0.4538
 3511SOL    HW122166   0.298   1.799   2.787 -0.1968  1.2528 -0.2323
 3511SOL    HW222167   0.284   1.827   2.636 -1.5530 -1.1516  1.0743
 3512SOL     OW22168   4.067   3.080  17.489 -0.2411 -0.1993 -0.4651
 3512SOL    HW122169   4.024   3.006  17.446  1.0272 -1.5644  0.6204
 3512SOL    HW222170   4.153   3.076  17.448 -0.3198 -0.4806 -0.6065
 3513SOL     OW22171   4.535   1.161   3.887 -0.3405 -0.1186  0.2801
 3513SOL    HW122172   4.628   1.182   3.880 -0.3548 -0.5921 -1.1775
 3513SOL    HW222173   4.512   1.208   3.968  1.0094  0.2156  0.4634
 3514SOL     OW22174   0.600   2.386  12.893 -0.0911  0.0632  0.0947
 3514SOL    HW122175   0.599   2.309  12.949  0.5234 -0.1064 -0.1323
 3514SOL    HW222176   0.682   2.431  12.912  0.2455 -0.0344 -1.1048
 3515SOL     OW22177   2.283   0.761   3.115  0.3606 -0.8259 -0.0794
 3515SOL    HW122178   2.321   0.824   3.176  0.8619 -2.3341  1.1367
 3515SOL    HW222179   2.353   0.742   3.053  0.3098 -0.8392 -0.1326
 3516SOL     OW22180   2.010   4.563  11.792 -0.6171  0.8669 -0.4792
 3516SOL    HW122181   2.088   4.518  11.825 -1.3283  0.4410  0.5893
 3516SOL    HW222182   1.954   4.553  11.869 -0.7439  0.2022 -0.6604
 3517SOL     OW22183   2.551   0.488  12.032 -0.5684  0.6802  0.3418
 3517SOL    HW122184   2.507   0.486  12.117 -3.7890 -3.5728 -1.4111
 3517SOL    HW222185   2.555   0.395  12.011  1.5625  0.2462  2.6771
 3518SOL     OW22186   0.912   4.371   8.449 -0.1273  0.0223 -0.1397
 3518SOL    HW122187   0.827   4.365   8.493 -0.5024 -0.3906 -0.9161
 3518SOL    HW222188   0.967   4.391   8.525 -1.9045  2.3939  0.5462
 3519SOL     OW22189   0.910   0.359   2.378 -0.9453 -0.0623 -0.3159
 3519SOL    HW122190   0.938   0.443   2.341  0.2398 -0.8933 -1.3206
 3519SOL    HW222191   0.975   0.299   2.340 -1.5699  0.4281 -2.1654
 3520SOL     OW22192   3.450   3.954  10.334 -0.7735 -0.4860 -0.3282
 3520SOL    HW122193   3.420   3.893  10.266 -0.0783 -0.5820 -0.5484
 3520SOL    HW222194   3.384   3.937  10.402 -2.8519 -2.4338 -2.8295
 3521SOL     OW22195   0.815   0.404   1.559 -0.0979 -0.1082 -0.0792
 3521SOL    HW122196   0.787   0.317   1.587 -3.1147  0.5591 -0.9587
 3521SOL    HW222197   0.888   0.382   1.501  1.0524 -0.2590  1.4418
 3522SOL     OW22198   1.192   4.475   3.592 -0.2656  0.3367  0.1470
 3522SOL    HW122199   1.256   4.542   3.614 -1.2104  1.2897 -0.0472
 3522SOL    HW222200   1.138   4.489   3.670 -0.1344  1.7679 -0.0296
 3523SOL     OW22201   3.783   2.851   8.797  0.8782 -0.0519 -0.2344
 3523SOL    HW122202   3.818   2.860   8.709  0.7483 -0.3411 -0.3154
 3523SOL    HW222203   3.687   2.850   8.786  0.7206  1.2690  0.9422
 3524SOL     OW22204   4.000   1.629   3.189 -0.3691  0.3917  0.3014
 3524SOL    HW122205   4.047   1.705   3.223 -0.3843  1.5632 -2.2683
 3524SOL    HW222206   3.926   1.677   3.151 -0.1926 -0.4215 -1.0966
 3525SOL     OW22207   3.073   3.399   4.034  0.3660  0.1487 -0.4144
 3525SOL    HW122208   3.029   3.392   3.949  1.1805 -1.5854 -0.6988
 3525SOL    HW222209   3.131   3.473   4.017  0.9572 -0.6262 -1.7610
 3526SOL     OW22210   1.240   4.737   8.045 -0.4399 -0.3087 -0.3984
 3526SOL    HW122211   1.295   0.054   7.990  0.1612  0.1253  0.6638
 3526SOL    HW222212   1.278   4.735   8.132  0.1750 -1.6322 -0.6823
 3527SOL     OW22213   3.617   0.214   8.687 -0.3919  0.0434 -0.5262
 3527SOL    HW122214   3.669   0.188   8.763 -0.4584 -0.7447 -0.7468
 3527SOL    HW222215   3.574   0.131   8.666  0.5448 -0.5686 -0.0731
 3528SOL     OW22216   1.874   2.518   8.215  0.5662  0.4812 -0.0134
 3528SOL    HW122217   1.904   2.431   8.189 -2.1803  0.2006 -2.2622
 3528SOL    HW222218   1.897   2.508   8.307  0.5966  0.9088  0.0236
 3529SOL     OW22219   3.531   2.557  10.772  0.1746  0.0645 -0.1504
 3529SOL    HW122220   3.531   2.621  10.700  0.4071  0.4150  0.1659
 3529SOL    HW222221   3.581   2.600  10.841  0.4206  1.9184 -1.4943
 3530SOL     OW22222   1.742   0.743   2.932 -0.2094  0.0249 -0.0669
 3530SOL    HW122223   1.805   0.776   2.996  1.6815 -1.5471 -1.0927
 3530SOL    HW222224   1.770   0.781   2.848  0.1719  2.1024  1.0069
 3531SOL     OW22225   0.715   4.274   0.616  0.7868 -0.5220 -0.5095
 3531SOL    HW122226   0.745   4.238   0.533 -0.3516 -1.9237 -0.3209
 3531SOL    HW222227   0.680   4.362   0.601  0.6068 -0.0913  2.5224
 3532SOL     OW22228   0.306   1.803   4.285 -0.4301  0.5652 -0.0843
 3532SOL    HW122229   0.318   1.761   4.200 -0.6237 -1.7780  1.0572
 3532SOL    HW222230   0.211   1.812   4.282 -0.6618 -1.6096  0.7704
 3533SOL     OW22231   1.960   1.763   7.812  0.1717 -0.2322  0.5733
 3533SOL    HW122232   1.903   1.712   7.869 -0.7371 -0.1441 -0.2680
 3533SOL    HW222233   2.033   1.780   7.872  1.4127 -2.0495 -0.4075
 3534SOL     OW22234   3.798   0.796   2.064  0.0147 -0.3208  0.2175
 3534SOL    HW122235   3.843   0.863   2.013 -1.1691  1.0148  0.9259
 3534SOL    HW222236   3.874   0.759   2.109 -0.4466 -1.5625 -0.0178
 3535SOL     OW22237   3.377   1.893   7.488 -0.3309  0.6903 -0.3534
 3535SOL    HW122238   3.472   1.893   7.471 -0.3719 -0.9967 -0.5298
 3535SOL    HW222239   3.380   1.863   7.579 -0.1363  0.6335 -0.3781
 3536SOL     OW22240   2.624   0.506   2.975  0.8810 -0.2625 -0.1216
 3536SOL    HW122241   2.624   0.495   2.880  0.2896 -0.3299 -0.1137
 3536SOL    HW222242   2.558   0.447   3.012 -1.1379  2.0092 -0.0947
 3537SOL     OW22243   4.140   1.155  10.144 -0.8201 -0.0414 -0.2303
 3537SOL    HW122244   4.102   1.221  10.086  0.6530 -0.2965 -1.4838
 3537SOL    HW222245   4.062   1.124  10.189 -0.3798 -0.1978  0.4186
 3538SOL     OW22246   2.372   4.210   8.933  0.2909 -0.1019  0.7175
 3538SOL    HW122247   2.293   4.164   8.903 -0.2656  2.6123 -1.9247
 3538SOL    HW222248   2.395   4.151   9.005  2.5287 -0.8568 -0.6134
 3539SOL     OW22249   3.191   2.866   6.925 -0.4415 -0.1606  0.3735
 3539SOL    HW122250   3.238   2.834   7.002  4.0576  1.6057 -1.6973
 3539SOL    HW222251   3.261   2.902   6.871 -1.4728  0.0949 -0.8022
 3540SOL     OW22252   0.931   0.901   3.630  0.8109 -0.8808  0.3035
 3540SOL    HW122253   0.967   0.814   3.645 -0.9587 -1.4470  1.1828
 3540SOL    HW222254   0.952   0.910   3.536 -2.3902 -1.5022 -0.4531
 3541SOL     OW22255   2.911   2.493  14.369 -0.2051  0.2123  0.2390
 3541SOL    HW122256   2.961   2.439  14.431 -1.7591  0.0997  1.3903
 3541SOL    HW222257   2.899   2.415  14.314  1.9617  0.0620 -0.0227
 3542SOL     OW22258   0.242   2.732   1.712 -0.3618 -0.0751  0.1026
 3542SOL    HW122259   0.271   2.779   1.634 -0.4608  1.2071  0.8352
 3542SOL    HW222260   0.173   2.667   1.695 -1.8173  1.2257  1.0396
 3543SOL     OW22261   3.007   1.205   8.135  0.4181  0.0754 -0.8083
 3543SOL    HW122262   3.072   1.184   8.068 -0.8777  0.2586 -2.1305
 3543SOL    HW222263   3.046   1.184   8.219 -0.7850 -2.3145 -0.8179
 3544SOL     OW22264   0.385   3.897   8.866 -0.5902 -0.1673 -0.1829
 3544SOL    HW122265   0.378   3.978   8.917 -3.0687 -0.1219 -0.5851
 3544SOL    HW222266   0.358   3.939   8.784 -0.5401  0.3166  0.0464
 3545SOL     OW22267   4.340   1.324   5.511  0.2402  0.0706  0.3134
 3545SOL    HW122268   4.338   1.378   5.432  1.7828 -0.0842  0.1672
 3545SOL    HW222269   4.381   1.384   5.574 -1.3995  0.7793  0.7225
 3546SOL     OW22270   3.284   3.001  12.197 -0.2042  0.0201  0.4124
 3546SOL    HW122271   3.257   2.981  12.287  0.6210  2.0243  1.1074
 3546SOL    HW222272   3.374   3.022  12.221 -0.6225  2.5433 -0.2883
 3547SOL     OW22273   0.787   4.667  12.760  0.2954 -0.1016 -0.1494
 3547SOL    HW122274   0.842   4.589  12.770 -0.7199 -0.6437  1.1046
 3547SOL    HW222275   0.743   4.644  12.678 -0.5163  0.5728  0.1059
 3548SOL     OW22276   0.121   1.539   7.455  0.5146 -0.2354 -0.0824
 3548SOL    HW122277   0.078   1.591   7.387 -1.4862  0.2843  1.5682
 3548SOL    HW222278   0.214   1.559   7.445  0.7423 -0.8782  0.7696
 3549SOL     OW22279   3.558   2.883   3.658 -0.0594  0.0386  0.2127
 3549SOL    HW122280   3.564   2.922   3.570  0.9850 -0.5411  0.0273
 3549SOL    HW222281   3.617   2.926   3.719 -0.3290 -0.7690  1.0450
 3550SOL     OW22282   2.805   2.479   0.251 -0.0661 -0.0907  0.3822
 3550SOL    HW122283   2.889   2.440   0.274  0.1144  1.5396  2.5042
 3550SOL    HW222284   2.770   2.495   0.338  0.7369  0.7944  0.5492
 3551SOL     OW22285   1.103   0.514   4.760 -0.0164  0.3592 -0.7508
 3551SOL    HW122286   1.027   0.554   4.802 -0.1989 -1.6373  0.7670
 3551SOL    HW222287   1.157   0.469   4.825 -0.7122  0.7226  0.0835
 3552SOL     OW22288   2.358   2.575  12.995 -0.4346 -0.0225 -0.3689
 3552SOL    HW122289   2.434   2.518  13.008 -0.4334  0.1672  0.4947
 3552SOL    HW222290   2.390   2.612  12.913  1.4290  1.7328  1.1151
 3553SOL     OW22291   4.490   0.067   3.519 -0.1591  0.6643  0.2099
 3553SOL    HW122292   4.541   0.033   3.592 -1.0401  1.0710  1.0085
 3553SOL    HW222293   4.422   0.124   3.555 -0.6721  0.8130 -0.9826
 3554SOL     OW22294   1.239   0.140  16.224 -0.1386 -0.5538 -0.3283
 3554SOL    HW122295   1.217   0.070  16.163  0.2404 -0.3780 -0.6667
 3554SOL    HW222296   1.335   0.146  16.220 -0.1917  1.8771  1.8656
 3555SOL     OW22297   2.899   1.050  14.494 -0.2773 -0.1998 -0.1362
 3555SOL    HW122298   2.852   1.123  14.535  0.9606  0.7731 -0.4662
 3555SOL    HW222299   2.822   0.996  14.473 -0.6893 -0.0610  0.9806
 3556SOL     OW22300   1.714   3.200   1.819 -0.8304  0.1498  0.0920
 3556SOL    HW122301   1.642   3.198   1.882  0.4091  0.4003  1.5086
 3556SOL    HW222302   1.763   3.123   1.846 -2.0089 -0.8040 -0.4830
 3557SOL     OW22303   2.630   2.287   7.779 -0.1746 -0.0036 -0.1925
 3557SOL    HW122304   2.566   2.266   7.712 -0.5888 -0.1068  0.2347
 3557SOL    HW222305   2.714   2.273   7.736  0.5991  0.5269  1.1451
 3558SOL     OW22306   1.671   3.859   3.824  0.6132  0.1833  0.1085
 3558SOL    HW122307   1.581   3.854   3.790  0.2585 -1.7673  1.3920
 3558SOL    HW222308   1.724   3.868   3.745  0.6029 -2.2610 -0.1579
 3559SOL     OW22309   4.006   3.165  13.438  0.3428  0.2466  0.5719
 3559SOL    HW122310   3.948   3.147  13.512 -0.9799 -2.0373 -1.0136
 3559SOL    HW222311   4.081   3.109  13.454  0.7938  1.7245  3.5171
 3560SOL     OW22312   2.602   0.845  10.369  0.1344  0.2337 -0.5525
 3560SOL    HW122313   2.515   0.885  10.361 -0.6039 -1.0718  0.9848
 3560SOL    HW222314   2.657   0.914  10.331 -1.7690  2.5731  0.9536
 3561SOL     OW22315   0.536   3.302  11.958  0.2448 -0.6834  0.5608
 3561SOL    HW122316   0.524   3.227  11.900 -0.8351 -0.9103  1.0749
 3561SOL    HW222317   0.592   3.355  11.901 -3.2627  1.3137 -1.0365
 3562SOL     OW22318   0.404   1.768   6.513 -0.1745  0.5085 -0.5114
 3562SOL    HW122319   0.449   1.707   6.455 -0.4933 -0.9714  0.8067
 3562SOL    HW222320   0.312   1.752   6.496  0.1171 -1.0485 -0.5890
 3563SOL     OW22321   0.204   4.204   9.229 -0.5268 -0.4043 -0.2603
 3563SOL    HW122322   0.161   4.273   9.179  2.8278  1.1917 -0.9619
 3563SOL    HW222323   0.207   4.241   9.317 -0.2602  0.8064 -0.7743
 3564SOL     OW22324   4.648   0.046  17.237 -0.2787  0.2093  0.1465
 3564SOL    HW122325   4.594   4.728  17.184  1.0589 -2.1610  1.3456
 3564SOL    HW222326   4.598   0.042  17.318  0.2665 -2.0649  0.3679
 3565SOL     OW22327   0.923   1.570  16.843 -0.2092  0.6704 -0.2451
 3565SOL    HW122328   1.011   1.609  16.847  0.3715 -0.6395 -0.3631
 3565SOL    HW222329   0.876   1.634  16.790 -2.0361 -0.7266 -0.3143
 3566SOL     OW22330   0.468   2.892   5.842 -0.4158  0.3726  0.3655
 3566SOL    HW122331   0.562   2.908   5.835 -0.3229 -0.2224  0.3060
 3566SOL    HW222332   0.444   2.825   5.778  0.6491  1.8070 -1.5644
 3567SOL     OW22333   0.499   0.818   5.938  0.5723  0.0725 -0.0203
 3567SOL    HW122334   0.446   0.859   6.007 -0.4526  1.2737 -1.4948
 3567SOL    HW222335   0.585   0.829   5.979 -0.3395  0.4694  1.8061
 3568SOL     OW22336   4.398   0.775   6.816  0.4283 -0.2852 -0.3633
 3568SOL    HW122337   4.449   0.707   6.860 -0.8898 -0.2387  1.2206
 3568SOL    HW222338   4.458   0.787   6.743 -0.2435  0.2664 -0.8288
 3569SOL     OW22339   4.561   2.402   3.411  0.3500  0.0258  0.2933
 3569SOL    HW122340   4.598   2.487   3.388 -0.4823 -0.2978 -2.1761
 3569SOL    HW222341   4.542   2.414   3.504  0.1614 -2.0474  0.5280
 3570SOL     OW22342   0.331   1.962  10.349 -0.7006 -0.9143 -0.2948
 3570SOL    HW122343   0.247   1.916  10.353 -0.9580 -0.5054 -0.9409
 3570SOL    HW222344   0.341   1.971  10.254  0.7865 -0.5895 -0.1173
 3571SOL     OW22345   3.542   1.236  15.846  0.1220 -0.1871 -0.0652
 3571SOL    HW122346   3.528   1.286  15.766  0.6720 -1.0713 -0.7165
 3571SOL    HW222347   3.451   1.215  15.865  0.6663 -2.4122  0.1660
 3572SOL     OW22348   1.724   0.160  13.802 -0.0784 -0.6013  0.1662
 3572SOL    HW122349   1.649   0.181  13.859 -1.0204  0.7105 -1.5634
 3572SOL    HW222350   1.787   0.203  13.860  0.6785 -1.2514 -0.1763
 3573SOL     OW22351   1.132   0.967  17.146 -0.3305 -0.0430 -0.1883
 3573SOL    HW122352   1.224   0.973  17.121  0.3330  0.6860  2.3734
 3573SOL    HW222353   1.114   1.057  17.173 -0.3901  0.6419 -2.5190
 3574SOL     OW22354   1.917   3.303   7.333 -0.0190 -0.0734  0.4632
 3574SOL    HW122355   1.986   3.263   7.279 -0.1548 -0.2175  0.3980
 3574SOL    HW222356   1.838   3.290   7.281  1.2077  0.9888 -1.6851
 3575SOL     OW22357   2.479   1.471   3.401 -0.5661 -0.2344 -0.1292
 3575SOL    HW122358   2.514   1.386   3.373  0.0194  0.3951 -1.2847
 3575SOL    HW222359   2.388   1.449   3.380 -0.2504 -2.3276  0.6797
 3576SOL     OW22360   0.317   1.286   3.378  0.1621  0.3420  0.7617
 3576SOL    HW122361   0.370   1.300   3.457  0.6328 -2.6260  0.9950
 3576SOL    HW222362   0.251   1.228   3.416  0.3710  0.7241  1.7035
 3577SOL     OW22363   2.751   4.604  15.510 -0.1048  0.2382  0.2155
 3577SOL    HW122364   2.827   4.579  15.458 -0.0928  0.0414  0.3254
 3577SOL    HW222365   2.722   4.689  15.477 -2.1842  0.2743  2.1034
 3578SOL     OW22366   3.535   2.847   2.407  0.0048 -0.4013  0.1166
 3578SOL    HW122367   3.494   2.849   2.320 -0.5399  0.4231  0.3936
 3578SOL    HW222368   3.565   2.756   2.412 -0.8509 -0.6578  0.6684
 3579SOL     OW22369   2.955   4.560   2.891 -0.7037 -0.1182 -0.1810
 3579SOL    HW122370   3.027   4.552   2.828 -1.6842 -1.7233 -1.1151
 3579SOL    HW222371   2.885   4.583   2.830  0.7236 -0.3587 -1.9026
 3580SOL     OW22372   2.483   1.256   1.863  0.6696  0.2590 -0.2542
 3580SOL    HW122373   2.481   1.287   1.772 -1.0908 -0.0930 -0.3240
 3580SOL    HW222374   2.564   1.298   1.892  0.1148 -0.4394  2.2834
 3581SOL     OW22375   0.226   2.523   6.080 -0.4744 -0.5496  0.5306
 3581SOL    HW122376   0.210   2.458   6.149 -0.6857 -0.2282  0.7827
 3581SOL    HW222377   0.271   2.471   6.013 -0.0955  0.2066  0.2067
 3582SOL     OW22378   4.332   2.773   7.521 -0.1385 -0.1420 -0.6485
 3582SOL    HW122379   4.348   2.863   7.547  1.0074 -0.2963 -0.8179
 3582SOL    HW222380   4.376   2.729   7.594  0.2891 -0.1298 -0.8971
 3583SOL     OW22381   3.658   2.466   7.187  0.0089 -0.1202  0.1608
 3583SOL    HW122382   3.706   2.406   7.244  0.2555  0.4803  0.5922
 3583SOL    HW222383   3.677   2.545   7.239 -0.8874 -0.2560  0.6852
 3584SOL     OW22384   3.737   4.217   7.632  0.0223 -0.0070 -0.4583
 3584SOL    HW122385   3.779   4.254   7.710 -0.4665  1.9589 -1.1328
 3584SOL    HW222386   3.723   4.291   7.572 -0.3582 -0.0703 -0.4465
 3585SOL     OW22387   4.296   2.890   4.271  0.4785  0.1922 -0.0007
 3585SOL    HW122388   4.312   2.974   4.314  0.2034  0.4800 -0.4566
 3585SOL    HW222389   4.205   2.870   4.290 -0.8841  3.4743 -2.8543
 3586SOL     OW22390   4.466   4.010  12.437  0.2614 -0.7315  0.1771
 3586SOL    HW122391   4.520   4.077  12.480 -0.2250  1.9217 -3.3597
 3586SOL    HW222392   4.487   4.029  12.345  0.5600 -1.3859  0.1115
 3587SOL     OW22393   4.689   3.330   2.987 -0.3902 -0.1219 -0.1057
 3587SOL    HW122394   0.039   3.356   2.962 -0.3740  0.8729  0.9789
 3587SOL    HW222395   4.638   3.373   2.919 -1.1610  0.5881  0.9137
 3588SOL     OW22396   3.566   2.880  12.611 -0.2011  0.1284 -0.1009
 3588SOL    HW122397   3.635   2.931  12.654 -0.2270 -0.5781  0.7795
 3588SOL    HW222398   3.628   2.831  12.557  1.5982  2.5883 -0.2663
 3589SOL     OW22399   3.595   2.877   7.107  0.3506 -0.0743  0.0320
 3589SOL    HW122400   3.619   2.929   7.030 -0.4678 -0.4957 -0.5074
 3589SOL    HW222401   3.675   2.823   7.108 -1.2007 -2.4176 -2.8233
 3590SOL     OW22402   0.938   0.402  15.548  0.0732  1.0100  0.2717
 3590SOL    HW122403   1.019   0.452  15.553  0.0786  0.8922  1.3757
 3590SOL    HW222404   0.883   0.457  15.492  0.5004  1.3631  0.1982
 3591SOL     OW22405   0.726   0.155   6.608 -0.3875  0.1363 -0.6706
 3591SOL    HW122406   0.743   0.099   6.684 -2.2042  0.5071  0.0095
 3591SOL    HW222407   0.738   0.093   6.536 -0.1276 -0.4280 -0.1426
 3592SOL     OW22408   1.834   2.052   3.717 -0.6283 -0.3125  0.2227
 3592SOL    HW122409   1.878   1.967   3.719  0.7700  0.4499  2.2211
 3592SOL    HW222410   1.888   2.095   3.651  0.2157 -1.9811 -0.1745
 3593SOL     OW22411   3.845   4.645   7.307 -0.5737  0.0566 -0.3700
 3593SOL    HW122412   3.818   4.644   7.399  1.5023 -2.2350  0.2433
 3593SOL    HW222413   3.793   4.577   7.266  0.1772  0.2555 -1.6502
 3594SOL     OW22414   4.462   0.639   1.865  0.0476  0.4077 -0.0490
 3594SOL    HW122415   4.516   0.678   1.795 -0.7953  0.2895 -0.7609
 3594SOL    HW222416   4.529   0.616   1.930  1.1823  0.9802 -1.0026
 3595SOL     OW22417   1.766   0.968   6.052 -0.8112  0.0608  0.0588
 3595SOL    HW122418   1.681   0.926   6.041 -0.3550 -0.4408 -1.4666
 3595SOL    HW222419   1.748   1.062   6.057 -1.4009  0.0494 -2.2196
 3596SOL     OW22420   1.632   4.311   6.001 -0.1795  0.0107  0.3343
 3596SOL    HW122421   1.722   4.344   6.005 -1.1286  2.9124 -2.5048
 3596SOL    HW222422   1.584   4.393   6.011 -2.2159 -1.1719  0.2879
 3597SOL     OW22423   2.405   2.378   3.055  0.1995  0.2961 -0.3000
 3597SOL    HW122424   2.357   2.334   2.985  2.8025 -0.1895 -1.7747
 3597SOL    HW222425   2.473   2.428   3.010 -0.3284  0.2921 -1.1048
 3598SOL     OW22426   4.306   1.394   8.704  0.4591  0.5149 -0.0505
 3598SOL    HW122427   4.311   1.321   8.766  0.6970 -0.0657 -0.7491
 3598SOL    HW222428   4.343   1.343   8.631  1.0735  1.8620 -0.6951
 3599SOL     OW22429   0.493   0.983   6.226 -0.5117 -0.2182 -0.6267
 3599SOL    HW122430   0.515   0.927   6.301  1.2104  0.5169 -0.5789
 3599SOL    HW222431   0.416   0.934   6.197 -0.5897  0.2244 -1.1432
 3600SOL     OW22432   2.477   3.460   8.808  0.5518 -0.1488 -0.0318
 3600SOL    HW122433   2.468   3.490   8.898  1.0030 -1.4603  0.4514
 3600SOL    HW222434   2.551   3.403   8.827 -0.0521 -0.1781  2.2308
 3601SOL     OW22435   1.857   2.194   7.254 -0.0567 -0.1387  0.4535
 3601SOL    HW122436   1.876   2.278   7.294  1.0903 -0.2590  0.1672
 3601SOL    HW222437   1.935   2.146   7.280  0.2645  0.2567  0.2096
 3602SOL     OW22438   3.888   1.985   5.099  0.3174 -0.0657  0.0183
 3602SOL    HW122439   3.863   2.067   5.057  0.9638  0.7808  1.2818
 3602SOL    HW222440   3.932   2.006   5.181 -0.9115  2.2783  0.0796
 3603SOL     OW22441   0.275   2.922  16.257  0.7152  0.3932 -0.1463
 3603SOL    HW122442   0.213   2.853  16.283  2.3345 -1.2601 -0.7536
 3603SOL    HW222443   0.334   2.875  16.200  1.8331  2.2764 -0.5485
 3604SOL     OW22444   2.595   0.384  17.754 -0.3760 -0.6200 -0.1207
 3604SOL    HW122445   2.510   0.417   0.028  0.1938  1.0284 -0.2978
 3604SOL    HW222446   2.651   0.413   0.070 -1.6099 -0.2757  0.6980
 3605SOL     OW22447   2.078   0.616   8.599 -0.1376 -0.1367  0.1535
 3605SOL    HW122448   1.998   0.650   8.557 -0.5264  0.2468  1.2208
 3605SOL    HW222449   2.084   0.664   8.681 -1.1045 -0.7255  0.5796
 3606SOL     OW22450   1.281   1.332  12.077  0.5863  0.1143 -0.0143
 3606SOL    HW122451   1.336   1.402  12.112  0.8282 -0.2747  0.3938
 3606SOL    HW222452   1.271   1.356  11.985 -1.3015 -0.4538  0.0266
 3607SOL     OW22453   3.173   4.296   4.674  0.0550  0.7671  0.1670
 3607SOL    HW122454   3.083   4.270   4.692  0.0254  0.2185 -0.7584
 3607SOL    HW222455   3.180   4.378   4.723  0.0786  1.2742 -0.6800
 3608SOL     OW22456   0.457   2.550   4.879  0.1739 -0.5701 -0.2888
 3608SOL    HW122457   0.384   2.612   4.876 -0.5076 -1.2662  2.1524
 3608SOL    HW222458   0.520   2.608   4.835 -0.9208  0.5658 -0.3481
 3609SOL     OW22459   4.695   1.693   3.437  0.6057 -0.0048  0.2708
 3609SOL    HW122460   4.637   1.637   3.386  0.7201  0.2251 -0.1091
 3609SOL    HW222461   4.718   1.641   3.514  1.4220 -1.3500 -0.8725
 3610SOL     OW22462   4.087   3.862  14.151  0.2594  0.0493 -0.3472
 3610SOL    HW122463   4.138   3.887  14.228  0.3959  2.5423 -1.2419
 3610SOL    HW222464   4.033   3.939  14.135 -1.7566 -1.3636 -0.4385
 3611SOL     OW22465   3.326   0.043  15.801  0.1683 -0.4745  0.0649
 3611SOL    HW122466   3.285   0.016  15.884  0.8535 -0.2783  0.4640
 3611SOL    HW222467   3.282   0.124  15.772 -0.3801 -1.2959 -1.3845
 3612SOL     OW22468   1.691   1.566  15.655 -0.3514  0.0495  0.5223
 3612SOL    HW122469   1.761   1.534  15.711 -1.0832 -1.9589  0.2962
 3612SOL    HW222470   1.741   1.588  15.577  2.3267 -1.1547  1.9036
 3613SOL     OW22471   4.199   0.136   8.720 -0.2645 -0.1478  0.1480
 3613SOL    HW122472   4.154   0.199   8.776 -0.6011  0.5138 -0.8649
 3613SOL    HW222473   4.288   0.146   8.754 -0.9224  0.9357  1.5423
 3614SOL     OW22474   3.701   3.206  15.741 -0.8440  0.1067 -0.0348
 3614SOL    HW122475   3.702   3.299  15.759  0.8490  0.2685 -0.9585
 3614SOL    HW222476   3.652   3.173  15.816  0.0419  0.8995  0.8817
 3615SOL     OW22477   4.477   3.911   5.301 -0.2868 -0.5804 -0.6745
 3615SOL    HW122478   4.436   3.996   5.289  2.1003  0.5613 -0.6721
 3615SOL    HW222479   4.522   3.893   5.219  0.7198  0.2165 -0.2840
 3616SOL     OW22480   3.159   1.254   8.899  0.4794  0.3857 -0.1792
 3616SOL    HW122481   3.090   1.318   8.880  2.8631  2.4348 -2.0074
 3616SOL    HW222482   3.170   1.282   8.990  1.8565 -2.4084  0.5173
 3617SOL     OW22483   2.414   1.410  11.032 -0.4133 -0.0450 -0.0282
 3617SOL    HW122484   2.509   1.411  11.043 -0.4002  0.2726 -0.1583
 3617SOL    HW222485   2.405   1.421  10.937 -1.9554  2.0426  0.3396
 3618SOL     OW22486   1.981   3.818   7.060 -0.3177  0.5760 -0.5753
 3618SOL    HW122487   1.911   3.851   7.118 -0.1265  0.9441 -0.5519
 3618SOL    HW222488   1.999   3.897   7.009 -0.1231  0.3119 -0.9170
 3619SOL     OW22489   3.259   2.967  17.328  0.4137 -0.3942 -0.5390
 3619SOL    HW122490   3.229   3.044  17.279  1.4823 -0.8618 -1.9461
 3619SOL    HW222491   3.271   3.006  17.414 -0.7929  2.6288 -1.7527
 3620SOL     OW22492   0.360   3.145   4.964 -0.2145  0.0612 -0.0205
 3620SOL    HW122493   0.312   3.141   4.882 -0.7958 -0.9673  0.3594
 3620SOL    HW222494   0.290   3.135   5.029  0.3761 -1.4493  0.4047
 3621SOL     OW22495   2.127   3.770   6.446  0.0794  0.1757  0.5256
 3621SOL    HW122496   2.099   3.855   6.412  0.9736 -0.0926 -0.9133
 3621SOL    HW222497   2.217   3.800   6.455  1.2788 -3.4702  0.6011
 3622SOL     OW22498   1.360   1.286   2.079  0.0750  0.5195 -0.2356
 3622SOL    HW122499   1.385   1.303   1.988  1.0630 -2.1951 -0.4556
 3622SOL    HW222500   1.266   1.284   2.061 -0.5446  0.7196  3.0672
 3623SOL     OW22501   3.622   0.438   3.794 -0.0799 -0.1333  0.3563
 3623SOL    HW122502   3.614   0.397   3.708  2.0428  2.1692 -0.9304
 3623SOL    HW222503   3.531   0.433   3.824 -0.5961  0.8620 -1.0559
 3624SOL     OW22504   2.374   0.958   0.995  0.3483 -0.1269 -0.1720
 3624SOL    HW122505   2.465   0.988   0.997 -0.7726  3.0913  1.7797
 3624SOL    HW222506   2.334   0.999   1.071 -0.6688 -2.7251  0.6849
 3625SOL     OW22507   4.663   1.910   6.208 -0.1076 -0.2051  0.3220
 3625SOL    HW122508   4.725   1.948   6.270 -0.4058 -0.5457  0.8216
 3625SOL    HW222509   4.591   1.882   6.264 -0.5524 -1.0316 -0.6494
 3626SOL     OW22510   0.630   1.776   5.008  0.1036 -0.1840  0.4376
 3626SOL    HW122511   0.711   1.794   4.961 -0.4780 -0.4260 -0.6470
 3626SOL    HW222512   0.639   1.838   5.080 -2.1916  1.1110 -0.3997
 3627SOL     OW22513   1.484   0.232  11.184 -0.1267  0.3735 -0.0633
 3627SOL    HW122514   1.547   0.178  11.136 -1.1401 -1.4792  0.6755
 3627SOL    HW222515   1.419   0.178  11.229  2.1333 -0.4328  2.2992
 3628SOL     OW22516   3.802   1.207   2.663  0.2302 -0.2717 -0.3352
 3628SOL    HW122517   3.861   1.277   2.693 -2.7179  2.2932 -0.5994
 3628SOL    HW222518   3.760   1.188   2.747  0.4025  0.8274  0.0082
 3629SOL     OW22519   3.659   1.037   3.908 -0.0565  0.1560  0.0620
 3629SOL    HW122520   3.700   0.960   3.869 -2.1352 -1.0516  0.2224
 3629SOL    HW222521   3.566   1.014   3.902  0.2451 -1.0547 -0.1032
 3630SOL     OW22522   2.076   4.576   5.105 -0.0688 -0.2377 -0.2156
 3630SOL    HW122523   2.167   4.558   5.084  0.0759 -1.3371  1.4028
 3630SOL    HW222524   2.023   4.496   5.099 -0.0477 -0.0940 -2.4459
 3631SOL     OW22525   4.652   3.523  12.885 -0.1197 -0.5442  0.2706
 3631SOL    HW122526   4.563   3.550  12.867 -0.1694 -0.5284  0.5394
 3631SOL    HW222527   4.705   3.602  12.878 -1.8815  0.5886 -0.0049
 3632SOL     OW22528   1.631   4.275   3.097 -0.8000 -0.3990 -0.0556
 3632SOL    HW122529   1.587   4.241   3.019 -0.4312 -0.7556 -0.1081
 3632SOL    HW222530   1.626   4.369   3.084 -1.0114 -0.3250  0.5777
 3633SOL     OW22531   3.685   3.147   2.250 -0.2776  0.6693  0.2577
 3633SOL    HW122532   3.603   3.185   2.281 -1.1085  0.6462 -1.9319
 3633SOL    HW222533   3.656   3.089   2.180 -0.3072  0.5756  0.3489
 3634SOL     OW22534   2.445   4.366   5.637 -0.2846  0.7034 -0.0220
 3634SOL    HW122535   2.528   4.325   5.612 -0.2732  1.1179 -0.6502
 3634SOL    HW222536   2.388   4.289   5.637  0.4283  0.1879 -3.7228
 3635SOL     OW22537   3.349   4.411   2.287 -0.2275 -0.3281  0.5124
 3635SOL    HW122538   3.308   4.389   2.203 -1.6368  1.9164  0.6139
 3635SOL    HW222539   3.323   4.501   2.306  1.4565 -0.1424  1.9455
 3636SOL     OW22540   0.864   3.737  13.801 -0.4785 -0.4857 -0.2435
 3636SOL    HW122541   0.924   3.679  13.848  1.9835  3.5198  1.6017
 3636SOL    HW222542   0.810   3.672  13.758 -2.5590  0.9755  0.1699
 3637SOL     OW22543   3.176   1.444   8.157 -0.5922  0.0957  0.1733
 3637SOL    HW122544   3.245   1.476   8.215  1.6242 -0.0726 -2.3815
 3637SOL    HW222545   3.128   1.394   8.223  0.2965 -0.9773  0.0038
 3638SOL     OW22546   2.333   0.454   0.395 -0.3284  0.6890 -0.0918
 3638SOL    HW122547   2.292   0.469   0.480 -2.4888  1.0265 -1.1982
 3638SOL    HW222548   2.329   0.540   0.355  2.3864 -0.2194 -2.3688
 3639SOL     OW22549   0.805   2.845   2.513 -0.2937  0.2529 -0.2094
 3639SOL    HW122550   0.782   2.811   2.599  0.8733  1.8113  0.7218
 3639SOL    HW222551   0.833   2.763   2.474 -0.1926  1.5308 -2.8801
 3640SOL     OW22552   3.825   3.605   8.696  0.0315 -0.0606  0.0757
 3640SOL    HW122553   3.767   3.535   8.727 -0.4093  0.1243 -0.3400
 3640SOL    HW222554   3.776   3.650   8.628  0.9544 -1.6636 -1.6404
 3641SOL     OW22555   3.821   4.715   6.941  0.5735  0.3681  0.0021
 3641SOL    HW122556   3.762   4.737   7.013 -1.0026  0.3967 -1.2965
 3641SOL    HW222557   3.858   4.633   6.972  1.1973  1.7539  2.8940
 3642SOL     OW22558   2.144   1.302   4.454  0.3219  0.3740  0.1393
 3642SOL    HW122559   2.093   1.348   4.387 -0.1647 -1.5791 -0.8552
 3642SOL    HW222560   2.103   1.216   4.446 -0.8805  1.0415 -0.8863
 3643SOL     OW22561   3.062   2.981   6.627  0.4371 -0.2141  0.3559
 3643SOL    HW122562   3.088   3.023   6.710  0.2397 -1.6828  1.1605
 3643SOL    HW222563   3.077   2.890   6.654 -0.0135 -0.2350  0.5199
 3644SOL     OW22564   0.849   3.449  10.919  0.0774  0.5334 -0.2512
 3644SOL    HW122565   0.877   3.403  10.840 -0.2112  1.1805 -0.7242
 3644SOL    HW222566   0.789   3.518  10.891 -0.1095  0.8191  0.8643
 3645SOL     OW22567   3.482   1.824   1.545  0.1021  0.0339  0.1224
 3645SOL    HW122568   3.516   1.912   1.558  0.2774 -0.1848  1.2024
 3645SOL    HW222569   3.513   1.797   1.459 -1.0624 -0.3444 -0.1700
 3646SOL     OW22570   3.099   2.309   4.020 -0.0964 -0.3348 -0.2550
 3646SOL    HW122571   3.037   2.257   3.968 -0.3097 -0.9186  0.5974
 3646SOL    HW222572   3.090   2.245   4.090  0.9558  1.9771  1.9740
 3647SOL     OW22573   3.305   0.227  15.460  0.0983 -0.3587 -0.3930
 3647SOL    HW122574   3.287   0.311  15.501 -0.4675 -0.5760 -0.1957
 3647SOL    HW222575   3.219   0.192  15.435  0.6207 -2.5995  0.9609
 3648SOL     OW22576   3.324   4.375   2.571  0.1775  0.0362 -0.3474
 3648SOL    HW122577   3.383   4.449   2.560 -1.1740  1.3394  1.1182
 3648SOL    HW222578   3.313   4.358   2.477  0.3324 -1.2076 -0.1430
 3649SOL     OW22579   3.898   3.174   7.362 -0.1769  0.8014  0.2528
 3649SOL    HW122580   3.919   3.229   7.438  1.8718  0.8692 -0.3654
 3649SOL    HW222581   3.817   3.212   7.328 -0.5693  2.5376  3.1040
 3650SOL     OW22582   4.595   3.443   2.760 -0.1274  0.0487 -0.1046
 3650SOL    HW122583   4.581   3.524   2.712  1.7739  0.6497  0.3448
 3650SOL    HW222584   4.636   3.395   2.687 -0.1981 -1.3996  0.7922
 3651SOL     OW22585   3.978   1.135   2.975 -0.2312  0.1481 -0.1056
 3651SOL    HW122586   3.959   1.053   2.930  1.8762  0.0817 -0.8487
 3651SOL    HW222587   4.046   1.166   2.916  0.3859 -2.3577 -0.7113
 3652SOL     OW22588   3.787   4.192  17.397 -0.5462  0.9052 -0.3420
 3652SOL    HW122589   3.736   4.122  17.437  1.6640  0.4966  1.7397
 3652SOL    HW222590   3.784   4.260  17.464 -3.2200 -0.1572  0.6298
 3653SOL     OW22591   0.825   3.513   9.834  0.1220  0.4656 -0.1740
 3653SOL    HW122592   0.873   3.447   9.885 -0.3600 -0.5065 -0.9695
 3653SOL    HW222593   0.896   3.574   9.814 -1.2280  2.0926  0.0803
 3654SOL     OW22594   4.275   0.653   7.093  0.2602  0.0054  0.1716
 3654SOL    HW122595   4.312   0.568   7.117 -3.6769 -1.4270  1.0764
 3654SOL    HW222596   4.258   0.652   6.999 -3.8960  1.3751  0.9261
 3655SOL     OW22597   3.626   2.173  10.927 -0.2711 -0.5399  0.7121
 3655SOL    HW122598   3.705   2.209  10.888 -0.8998  0.1822  0.0954
 3655SOL    HW222599   3.660   2.085  10.940  1.1699  0.1103  1.2849
 3656SOL     OW22600   1.719   4.550   5.748 -0.5003 -0.6467  0.2276
 3656SOL    HW122601   1.769   4.596   5.680  2.5968 -1.0901  2.1850
 3656SOL    HW222602   1.761   4.588   5.825 -0.2854  0.5877 -0.4975
 3657SOL     OW22603   1.463   1.033  12.538  0.1178 -0.0232  0.0102
 3657SOL    HW122604   1.373   1.023  12.571  0.3238  1.8686  1.1361
 3657SOL    HW222605   1.444   1.081  12.457  2.2145  0.4044 -0.2109
 3658SOL     OW22606   1.822   3.885  16.945  0.1921 -0.0532 -0.3158
 3658SOL    HW122607   1.812   3.981  16.942 -2.1104 -0.2685  0.2687
 3658SOL    HW222608   1.755   3.867  17.012  0.8289 -0.7076  0.1314
 3659SOL     OW22609   0.746   4.374   8.934  0.3396 -0.2085  0.1682
 3659SOL    HW122610   0.748   4.316   8.858 -0.4022 -0.8532  0.6350
 3659SOL    HW222611   0.804   4.444   8.905  2.3407 -1.5802  0.9003
 3660SOL     OW22612   2.172   4.050   2.601  0.3335  0.5239  0.1060
 3660SOL    HW122613   2.096   4.044   2.659 -0.0878  0.1159 -0.4949
 3660SOL    HW222614   2.244   4.034   2.663  0.2536  1.0147  0.3229
 3661SOL     OW22615   4.098   0.876   5.772  0.1820  0.1386 -0.4351
 3661SOL    HW122616   4.014   0.829   5.771  0.0241  0.3955  0.6629
 3661SOL    HW222617   4.157   0.811   5.810  2.7336  1.6524 -1.8209
 3662SOL     OW22618   0.593   3.555   7.193 -0.0240 -0.3185  0.0600
 3662SOL    HW122619   0.587   3.554   7.288 -0.1848  0.2450  0.0556
 3662SOL    HW222620   0.676   3.507   7.190  0.3310  0.2596  0.6652
 3663SOL     OW22621   0.327   1.574  14.584 -0.5676  0.1372 -0.5129
 3663SOL    HW122622   0.378   1.579  14.665 -1.6652  1.2865  0.1057
 3663SOL    HW222623   0.328   1.668  14.567  0.3053  0.0797 -0.7859
 3664SOL     OW22624   2.932   1.088   8.773  0.2142  0.3622 -0.1908
 3664SOL    HW122625   2.998   1.112   8.708  0.3352 -1.3828 -0.7132
 3664SOL    HW222626   2.917   1.177   8.804 -0.8529  0.1077  0.0054
 3665SOL     OW22627   3.551   2.510   3.651 -0.3106  0.2306  0.2609
 3665SOL    HW122628   3.465   2.498   3.612 -0.7462 -0.6707  1.5113
 3665SOL    HW222629   3.590   2.576   3.594 -0.8330  1.0017  0.7912
 3666SOL     OW22630   4.062   0.035   5.576 -0.3460 -0.4564 -0.3730
 3666SOL    HW122631   4.031   0.028   5.485 -0.8390  0.4465 -0.2740
 3666SOL    HW222632   4.029   4.694   5.615 -1.1736 -0.0375 -0.2124
 3667SOL     OW22633   0.419   2.623   5.805 -0.3115 -0.1985 -0.8598
 3667SOL    HW122634   0.514   2.621   5.796 -0.3462 -0.6163 -1.1233
 3667SOL    HW222635   0.410   2.534   5.838 -2.5378  0.0462 -0.7710
 3668SOL     OW22636   1.866   1.737  17.037  0.0262 -0.2662 -0.4464
 3668SOL    HW122637   1.789   1.693  17.073  0.3792 -1.2682 -0.9260
 3668SOL    HW222638   1.845   1.830  17.052 -1.0795 -0.3418 -1.4200
 3669SOL     OW22639   3.491   4.698   2.117  0.5039 -0.2041  0.4845
 3669SOL    HW122640   3.423   0.022   2.094  0.1933 -1.1666 -1.2329
 3669SOL    HW222641   3.539   4.689   2.035  0.9176 -0.2319  0.7292
 3670SOL     OW22642   1.980   0.076  14.162  0.2710 -0.6336  0.4632
 3670SOL    HW122643   1.947   4.738  14.116  1.1274 -0.9609  0.3914
 3670SOL    HW222644   1.907   0.087  14.223  0.2824  1.5749  0.0630
 3671SOL     OW22645   0.849   0.418  10.488  1.0633  0.1473  0.2049
 3671SOL    HW122646   0.815   0.332  10.463  0.6873 -0.4047  2.6651
 3671SOL    HW222647   0.772   0.472  10.469  0.1228 -1.4907 -0.5922
 3672SOL     OW22648   4.720   2.675   7.257 -0.1604 -0.3514  0.2276
 3672SOL    HW122649   0.010   2.735   7.189  0.5630 -0.7359  0.1993
 3672SOL    HW222650   0.062   2.640   7.293  0.0009 -1.4366 -1.2040
 3673SOL     OW22651   2.615   1.070   5.226 -0.0063 -0.0106  0.2830
 3673SOL    HW122652   2.563   1.145   5.254 -0.2927 -0.5124  1.1022
 3673SOL    HW222653   2.547   1.008   5.200  1.9126 -1.3593 -1.5808
 3674SOL     OW22654   2.652   2.965   7.158 -0.1389  0.5652 -0.2645
 3674SOL    HW122655   2.723   2.962   7.222 -1.4814 -0.9393  1.1341
 3674SOL    HW222656   2.594   2.899   7.195  1.5893  0.1294  1.6607
 3675SOL     OW22657   1.899   1.876  13.110 -0.0792 -0.4266  0.2115
 3675SOL    HW122658   1.942   1.791  13.104  1.0154 -0.0642  2.9920
 3675SOL    HW222659   1.966   1.941  13.088 -0.8584  0.7832  1.3850
 3676SOL     OW22660   3.287   1.993  13.684  0.0469  0.0765  0.0940
 3676SOL    HW122661   3.225   2.013  13.614 -1.7144 -0.2853  1.5405
 3676SOL    HW222662   3.371   1.981  13.640  0.5951 -0.6732  1.3602
 3677SOL     OW22663   3.053   1.842  14.447 -0.2475  0.5929 -0.5432
 3677SOL    HW122664   2.990   1.805  14.510  0.0299  0.2517 -0.4661
 3677SOL    HW222665   3.118   1.868  14.512 -2.8319  2.5396  1.2675
 3678SOL     OW22666   4.485   0.056   8.707 -0.0724 -0.1324  0.2311
 3678SOL    HW122667   4.475   0.019   8.619 -1.0306 -0.9363  0.6869
 3678SOL    HW222668   4.530   0.137   8.683  1.2898 -0.5825  1.3133
 3679SOL     OW22669   3.807   0.633   8.218 -0.4232 -0.0801 -0.1096
 3679SOL    HW122670   3.718   0.603   8.204 -0.4425  0.1926 -0.5805
 3679SOL    HW222671   3.857   0.561   8.257  1.5324  1.0721 -0.4664
 3680SOL     OW22672   4.258   3.604   0.931 -0.2055 -0.1026 -0.2447
 3680SOL    HW122673   4.275   3.600   1.025 -1.6207  0.7804  0.0631
 3680SOL    HW222674   4.343   3.630   0.896  1.0820 -2.9173  0.8186
 3681SOL     OW22675   0.715   0.740   6.546 -0.6439  0.4625  0.0836
 3681SOL    HW122676   0.721   0.745   6.451  0.7281 -0.2136  0.1440
 3681SOL    HW222677   0.785   0.802   6.570 -1.0092  1.8315 -2.4130
 3682SOL     OW22678   3.189   0.704   7.435 -0.1823  0.7210  0.0973
 3682SOL    HW122679   3.151   0.624   7.471 -0.8739  0.0911 -2.0292
 3682SOL    HW222680   3.158   0.704   7.344  0.3523  0.3292 -0.0892
 3683SOL     OW22681   4.184   2.315   4.647 -0.5264 -0.0058 -0.5964
 3683SOL    HW122682   4.272   2.282   4.669 -0.8000 -0.0942  0.3685
 3683SOL    HW222683   4.181   2.331   4.553  3.3259  0.6043 -0.6242
 3684SOL     OW22684   2.950   2.433  16.487  0.0300  0.8573  0.3795
 3684SOL    HW122685   2.880   2.482  16.530 -0.9702 -1.4169  1.3379
 3684SOL    HW222686   3.006   2.508  16.468 -0.7548  1.1396 -0.7903
 3685SOL     OW22687   4.462   2.413   2.648  0.2469 -0.4509  0.5278
 3685SOL    HW122688   4.401   2.341   2.633 -0.0902  0.3571 -2.0275
 3685SOL    HW222689   4.546   2.389   2.607  0.1621  1.0765 -0.5691
 3686SOL     OW22690   3.967   0.721   2.488  0.2084  0.2200  0.4128
 3686SOL    HW122691   3.934   0.810   2.474 -1.4143 -0.8119 -2.3923
 3686SOL    HW222692   4.048   0.731   2.439  0.2285 -0.1423  0.3755
 3687SOL     OW22693   3.306   4.510   9.055  0.4111  0.0185 -0.1259
 3687SOL    HW122694   3.295   4.463   9.138  1.5638 -0.6218 -0.3419
 3687SOL    HW222695   3.359   4.446   9.006 -0.1960  0.9242 -1.9584
 3688SOL     OW22696   3.746   2.454  14.833  0.3499  0.4880 -0.0564
 3688SOL    HW122697   3.719   2.508  14.907  0.9838 -2.1424  2.1077
 3688SOL    HW222698   3.661   2.435  14.794 -0.5053  3.2276  0.4595
 3689SOL     OW22699   3.455   1.291   7.100  0.3870  0.2040 -1.1732
 3689SOL    HW122700   3.428   1.380   7.123 -1.3143 -0.1607 -1.7882
 3689SOL    HW222701   3.405   1.249   7.170  0.0500  1.8528 -0.4236
 3690SOL     OW22702   3.050   1.903   3.180 -0.1832 -0.0311 -0.2305
 3690SOL    HW122703   3.062   1.849   3.102  2.3427 -0.2522  0.3317
 3690SOL    HW222704   3.139   1.936   3.188  0.5140 -1.5310 -1.8529
 3691SOL     OW22705   4.522   1.009   6.300  0.2378  0.2706  0.0419
 3691SOL    HW122706   4.578   1.075   6.259  0.0559  0.0761 -0.5120
 3691SOL    HW222707   4.437   1.026   6.259 -0.5950  0.0551  1.6838
 3692SOL     OW22708   3.538   3.185  14.309  0.1941 -0.1457  0.0601
 3692SOL    HW122709   3.449   3.195  14.343 -0.2303  0.3286 -1.1795
 3692SOL    HW222710   3.535   3.206  14.215 -0.8493  1.0349  0.3611
 3693SOL     OW22711   0.689   0.381   9.264  0.0944 -0.2138 -1.0061
 3693SOL    HW122712   0.724   0.307   9.313 -1.2104  0.5853  1.1131
 3693SOL    HW222713   0.614   0.339   9.221 -1.0490 -0.8915  1.6783
 3694SOL     OW22714   3.490   3.127   9.610  0.1043 -0.6590  0.2681
 3694SOL    HW122715   3.486   3.032   9.612 -0.4810 -0.6093  1.5885
 3694SOL    HW222716   3.524   3.153   9.524 -1.8448  0.1725 -0.2592
 3695SOL     OW22717   3.492   1.107   0.266  0.0376 -0.2057 -0.0989
 3695SOL    HW122718   3.443   1.049   0.324  0.9599 -0.8238  0.0647
 3695SOL    HW222719   3.582   1.089   0.294  0.3071  2.3530  0.6308
 3696SOL     OW22720   0.749   3.664   0.748  0.2939  0.2485  0.3090
 3696SOL    HW122721   0.752   3.595   0.814  1.1129 -0.4931 -0.5097
 3696SOL    HW222722   0.803   3.633   0.676  1.3459  2.0731  0.2991
 3697SOL     OW22723   3.469   0.442   5.525  0.3257 -0.0692 -0.3685
 3697SOL    HW122724   3.408   0.514   5.510 -0.1654 -0.5034 -0.4485
 3697SOL    HW222725   3.483   0.402   5.439 -0.5503 -0.2674 -0.4170
 3698SOL     OW22726   2.560   0.101   8.870  0.3875 -0.5673  0.0474
 3698SOL    HW122727   2.642   0.110   8.822  0.2506  1.5181  0.2081
 3698SOL    HW222728   2.523   0.189   8.863  0.3587 -0.6405 -0.7560
 3699SOL     OW22729   0.177   3.770  16.881  0.1372 -0.1665  0.1056
 3699SOL    HW122730   0.256   3.799  16.927  0.1327  1.8300 -1.1786
 3699SOL    HW222731   0.146   3.858  16.860  0.4890  0.1664  0.9811
 3700SOL     OW22732   0.149   4.669   3.141 -0.5600  0.0481 -0.0879
 3700SOL    HW122733   0.244   4.671   3.135 -0.4782 -2.4043  0.0852
 3700SOL    HW222734   0.130   4.598   3.079 -0.2695  2.5994 -3.0667
 3701SOL     OW22735   3.408   2.496  15.528  0.1197  0.4811  0.4332
 3701SOL    HW122736   3.343   2.429  15.505  1.7241 -1.8141  2.5523
 3701SOL    HW222737   3.404   2.553  15.452  0.7962  1.2630  0.9884
 3702SOL     OW22738   0.050   2.348   5.188 -0.3835  0.1466  0.4256
 3702SOL    HW122739   0.114   2.358   5.117 -0.4235  0.7994  0.4853
 3702SOL    HW222740   0.013   2.435   5.175  1.4142  1.0151  1.0883
 3703SOL     OW22741   0.411   3.273   2.019  0.1687 -0.6643  0.3545
 3703SOL    HW122742   0.477   3.343   2.017 -1.5385  0.9500  0.4984
 3703SOL    HW222743   0.335   3.311   1.976 -0.2422  0.0466  1.7152
 3704SOL     OW22744   3.547   2.488   1.991  0.2212  0.2078 -0.5667
 3704SOL    HW122745   3.577   2.534   1.913  0.3623 -1.0829 -1.2722
 3704SOL    HW222746   3.512   2.563   2.039  0.8242 -1.5472  2.6010
 3705SOL     OW22747   3.933   0.641   7.006 -0.0291  0.5432  0.4872
 3705SOL    HW122748   3.937   0.623   7.100 -1.4155 -0.3340  0.3862
 3705SOL    HW222749   4.005   0.703   6.997  2.2772 -2.1435  0.3615
 3706SOL     OW22750   3.456   0.018   4.080  0.1777 -0.1239 -0.0709
 3706SOL    HW122751   3.447   4.683   4.021  1.0169 -0.8596  0.7451
 3706SOL    HW222752   3.491   4.713   4.157  1.2488  0.8140 -0.0153
 3707SOL     OW22753   0.001   2.509   5.580 -0.1029  0.2958 -0.0224
 3707SOL    HW122754   0.048   2.433   5.546 -0.1156  0.5388 -0.5863
 3707SOL    HW222755   0.066   2.579   5.578  0.0140  0.1813 -0.3316
 3708SOL     OW22756   1.746   3.931   7.137 -0.0644  0.3020  0.1046
 3708SOL    HW122757   1.698   3.911   7.218  0.2665  2.0692  0.7353
 3708SOL    HW222758   1.695   3.887   7.069  2.6672 -1.6851 -0.6226
 3709SOL     OW22759   2.385   4.734   8.567 -0.1274 -0.1430  0.0324
 3709SOL    HW122760   2.311   4.706   8.512 -1.3613  2.2830  0.4574
 3709SOL    HW222761   2.379   0.090   8.558  1.6313 -0.0754 -0.3669
 3710SOL     OW22762   3.086   0.868  13.871  0.0673 -0.1531  0.4381
 3710SOL    HW122763   2.998   0.891  13.841 -0.1308 -0.5955  0.6861
 3710SOL    HW222764   3.143   0.944  13.857  0.4206 -0.8562 -1.9325
 3711SOL     OW22765   4.408   0.753  13.948  0.0563  0.1192 -0.7065
 3711SOL    HW122766   4.431   0.667  13.983  1.2431  1.4462  1.7663
 3711SOL    HW222767   4.315   0.754  13.969  0.1630 -1.6481 -0.1324
 3712SOL     OW22768   1.829   1.587   2.370  0.4457 -0.1440 -0.5899
 3712SOL    HW122769   1.875   1.534   2.305 -0.9429 -0.0230 -1.6809
 3712SOL    HW222770   1.830   1.533   2.449  3.6523  0.3485 -0.3024
 3713SOL     OW22771   2.649   3.693   8.462 -0.2020 -0.0859  0.0591
 3713SOL    HW122772   2.680   3.659   8.377  1.1637 -0.1379  0.5832
 3713SOL    HW222773   2.723   3.736   8.505  0.2659  2.1872 -2.9969
 3714SOL     OW22774   3.679   1.482  10.699  0.7827  0.0421 -0.0432
 3714SOL    HW122775   3.663   1.397  10.739 -1.2223  0.5696  0.2687
 3714SOL    HW222776   3.590   1.510  10.678  0.4674 -1.5007 -0.7597
 3715SOL     OW22777   1.442   0.246   8.337  0.3704  0.2610 -0.4376
 3715SOL    HW122778   1.440   0.340   8.357 -0.2605 -0.0372  0.9124
 3715SOL    HW222779   1.494   0.258   8.258  3.7004 -2.1877  1.3812
 3716SOL     OW22780   3.994   2.170   8.338  0.2266  0.4886  0.1690
 3716SOL    HW122781   3.970   2.210   8.422  1.9031 -0.1095  0.9186
 3716SOL    HW222782   4.079   2.132   8.358  0.4718  0.7558 -0.3705
 3717SOL     OW22783   0.446   3.288  10.556  0.0311  0.1324  0.0837
 3717SOL    HW122784   0.504   3.255  10.487  0.6666  2.4434 -0.5130
 3717SOL    HW222785   0.429   3.212  10.611  1.2417 -0.2773 -0.1066
 3718SOL     OW22786   0.145   2.656  11.886  0.3781 -0.0771 -0.2801
 3718SOL    HW122787   0.051   2.649  11.898  0.4000 -2.0010 -1.2162
 3718SOL    HW222788   0.158   2.748  11.910 -1.4800  0.3888 -1.1014
 3719SOL     OW22789   1.010   2.741   5.053 -0.3932  0.4737  0.0137
 3719SOL    HW122790   1.081   2.707   4.998 -1.0556 -0.7505 -0.0651
 3719SOL    HW222791   0.991   2.823   5.007  0.6078  0.3379 -0.6494
 3720SOL     OW22792   1.975   3.487   5.779  0.1032 -0.1889 -0.2309
 3720SOL    HW122793   2.019   3.472   5.696  2.1516  0.3097  0.7812
 3720SOL    HW222794   1.970   3.582   5.783 -0.7597 -0.3161  1.8249
 3721SOL     OW22795   0.654   2.577   2.241  0.8070 -0.1243 -0.8130
 3721SOL    HW122796   0.644   2.661   2.286 -1.4233 -1.1396  0.6059
 3721SOL    HW222797   0.690   2.604   2.156  4.0619 -2.1775 -0.0669
 3722SOL     OW22798   3.981   3.172   6.559 -0.3800  0.1812 -0.1609
 3722SOL    HW122799   4.011   3.100   6.613  0.0132  1.3873  1.2321
 3722SOL    HW222800   3.979   3.135   6.471  0.6154  2.1366 -1.0197
 3723SOL     OW22801   4.326   3.185  13.415  1.0094  0.3573  0.2349
 3723SOL    HW122802   4.415   3.173  13.448  1.6171  1.5123 -1.0015
 3723SOL    HW222803   4.326   3.155  13.324 -3.0826  0.7302  0.1350
 3724SOL     OW22804   3.049   0.609   3.818  0.0186 -0.1982 -0.3267
 3724SOL    HW122805   3.071   0.702   3.822 -2.0767  0.2744  0.3829
 3724SOL    HW222806   3.127   0.568   3.781 -0.1127 -2.1512  1.5922
 3725SOL     OW22807   0.570   3.833   9.241 -0.1241 -0.1712  0.2119
 3725SOL    HW122808   0.631   3.759   9.236 -1.6296 -1.3648 -0.4433
 3725SOL    HW222809   0.543   3.848   9.332  0.5213 -3.5805  0.9720
 3726SOL     OW22810   2.418   1.440  13.804  0.0406 -0.0468 -0.1490
 3726SOL    HW122811   2.425   1.428  13.709  0.2227  1.9320 -0.3747
 3726SOL    HW222812   2.346   1.377  13.814 -0.2783 -0.0700 -2.5052
 3727SOL     OW22813   2.521   1.250   0.798 -0.6611 -0.7362  0.1358
 3727SOL    HW122814   2.433   1.212   0.796 -0.4957 -1.0069 -1.6360
 3727SOL    HW222815   2.503   1.344   0.807 -1.2456 -0.7673 -0.7885
 3728SOL     OW22816   0.859   2.442   9.642 -0.1091  0.1209 -0.3676
 3728SOL    HW122817   0.827   2.380   9.576 -0.8053 -0.9674  1.0089
 3728SOL    HW222818   0.940   2.398   9.669 -1.1695 -1.9721 -0.5683
 3729SOL     OW22819   3.496   2.430   9.719  0.6147  0.1286 -0.2125
 3729SOL    HW122820   3.515   2.381   9.640 -1.4974 -2.2440  0.7765
 3729SOL    HW222821   3.417   2.476   9.692 -0.1317  0.0980  1.8994
 3730SOL     OW22822   1.273   1.655  10.179  0.2274  0.2665 -0.2594
 3730SOL    HW122823   1.315   1.585  10.230  0.4905  0.9731  0.5072
 3730SOL    HW222824   1.227   1.702  10.249 -0.4447 -1.9223  0.7489
 3731SOL     OW22825   2.152   1.733  15.121  0.6124  0.3879  0.6493
 3731SOL    HW122826   2.204   1.810  15.143  1.4662 -0.0560  0.1679
 3731SOL    HW222827   2.196   1.710  15.039 -0.9091 -1.6181  0.3876
 3732SOL     OW22828   0.923   2.272   0.862 -0.5459 -0.0077  0.4833
 3732SOL    HW122829   0.963   2.353   0.831 -0.7789 -0.7344 -1.7539
 3732SOL    HW222830   0.932   2.284   0.956 -2.8440 -0.4696  0.7481
 3733SOL     OW22831   3.202   4.170   2.813  0.3246 -0.2222 -0.3394
 3733SOL    HW122832   3.276   4.180   2.873  0.8355 -2.0553 -0.6522
 3733SOL    HW222833   3.135   4.111   2.848  1.6160 -0.0740  2.3381
 3734SOL     OW22834   3.112   3.890  10.123 -0.6224 -0.0172  0.2834
 3734SOL    HW122835   3.134   3.939  10.044 -2.0420  0.6489  0.3104
 3734SOL    HW222836   3.192   3.839  10.139  0.1247  1.1770  0.3142
 3735SOL     OW22837   0.301   3.093   9.126  0.7830 -0.2746 -0.1371
 3735SOL    HW122838   0.276   3.185   9.121 -0.2626 -0.6598 -1.8303
 3735SOL    HW222839   0.242   3.057   9.060  0.3445  0.6019 -0.2111
 3736SOL     OW22840   0.374   3.796  17.471  0.1547 -0.0678 -0.1352
 3736SOL    HW122841   0.402   3.888  17.472 -2.4396  0.7591 -1.9526
 3736SOL    HW222842   0.454   3.751  17.446  0.9424  0.6172  1.1509
 3737SOL     OW22843   2.231   1.044   4.661  0.2643  0.5747 -0.2447
 3737SOL    HW122844   2.151   1.018   4.615 -0.3113 -0.2508  1.2474
 3737SOL    HW222845   2.306   1.011   4.612 -0.6147 -0.9044 -0.6064
 3738SOL     OW22846   3.001   4.559   6.402  0.1674  0.3384  0.0784
 3738SOL    HW122847   2.950   4.628   6.360 -1.5546  0.5783  2.5166
 3738SOL    HW222848   3.025   4.607   6.481 -1.0554 -0.1877  0.7792
 3739SOL     OW22849   4.104   4.318   1.852 -0.1122 -0.0249  0.5501
 3739SOL    HW122850   4.051   4.278   1.784  0.5221  0.6371 -0.3370
 3739SOL    HW222851   4.133   4.250   1.913 -0.5566 -1.0669 -0.4179
 3740SOL     OW22852   3.126   3.799   8.349  0.5683  0.2354 -0.4355
 3740SOL    HW122853   3.143   3.867   8.283  1.2108  0.8116  0.3321
 3740SOL    HW222854   3.192   3.737   8.318  2.5390  0.4704  3.4027
 3741SOL     OW22855   1.983   1.301   7.523 -0.2437  0.4472 -0.3479
 3741SOL    HW122856   1.997   1.308   7.617  1.7459  0.7910 -0.6732
 3741SOL    HW222857   1.889   1.293   7.507  0.3837 -0.5630 -3.5418
 3742SOL     OW22858   0.302   0.957   3.804  1.2409 -0.4124 -0.2408
 3742SOL    HW122859   0.304   0.910   3.721  2.2364 -0.2203 -0.3335
 3742SOL    HW222860   0.359   1.032   3.786  2.0451 -0.7398  0.8994
 3743SOL     OW22861   4.233   3.210  14.779  0.1553 -0.7003 -0.3069
 3743SOL    HW122862   4.171   3.209  14.852  0.3793 -1.4758 -0.1190
 3743SOL    HW222863   4.196   3.145  14.720 -3.0592  1.5488 -0.7476
 3744SOL     OW22864   4.039   3.517  15.726  0.2060 -0.1323  0.0506
 3744SOL    HW122865   4.026   3.443  15.667  1.0770  0.6608 -1.1092
 3744SOL    HW222866   4.038   3.586  15.660  1.5407 -0.4242 -0.2635
 3745SOL     OW22867   3.217   0.118   9.219  0.5583 -0.0877  0.1508
 3745SOL    HW122868   3.158   0.055   9.262 -0.8851 -0.4517 -2.3310
 3745SOL    HW222869   3.181   0.202   9.247 -2.1921 -1.2327  0.1597
 3746SOL     OW22870   4.434   3.479   8.505 -0.0043 -0.1316  0.0565
 3746SOL    HW122871   4.489   3.425   8.563 -1.1255 -0.7552  0.5284
 3746SOL    HW222872   4.509   3.534   8.483 -0.6025  0.3817 -0.6687
 3747SOL     OW22873   1.044   0.936  12.927  0.3599  0.0464  0.1660
 3747SOL    HW122874   1.045   0.972  12.838  0.6635 -0.3427  0.0115
 3747SOL    HW222875   1.072   0.847  12.908  1.1340  0.4587 -0.6476
 3748SOL     OW22876   3.828   4.276   3.125 -0.1839 -0.3085 -0.0194
 3748SOL    HW122877   3.917   4.259   3.094  0.0985  1.2750 -0.0660
 3748SOL    HW222878   3.838   4.324   3.206  0.8544 -0.0513 -0.3010
 3749SOL     OW22879   0.981   4.141   7.736 -0.1164 -0.3501 -0.5924
 3749SOL    HW122880   1.066   4.151   7.692  0.4749  0.5102  0.7437
 3749SOL    HW222881   0.956   4.050   7.720  2.2791 -1.1582  0.2425
 3750SOL     OW22882   2.480   1.004   2.936  0.0541 -0.2490 -0.0951
 3750SOL    HW122883   2.485   0.908   2.937 -0.0360 -0.2351  1.1483
 3750SOL    HW222884   2.454   1.022   2.845  1.8573 -0.8150 -0.7278
 3751SOL     OW22885   1.894   2.539  12.345  0.0331  0.1492 -0.2099
 3751SOL    HW122886   1.927   2.616  12.391  0.3451  0.3921 -0.8451
 3751SOL    HW222887   1.851   2.499  12.421  0.8628  1.7520  1.0959
 3752SOL     OW22888   4.514   0.847   7.132 -0.5009 -0.1803  0.0591
 3752SOL    HW122889   4.469   0.763   7.132  0.2544 -0.5922  0.1481
 3752SOL    HW222890   4.532   0.853   7.038  0.8675 -1.9834  0.1949
 3753SOL     OW22891   2.579   0.074   8.233  0.2730 -0.5168  0.2137
 3753SOL    HW122892   2.638   0.047   8.304  0.5043  2.5584  1.1825
 3753SOL    HW222893   2.562   0.167   8.247 -1.8074 -0.7705 -0.6348
 3754SOL     OW22894   1.570   3.250   1.050  0.1288  0.0306  0.3525
 3754SOL    HW122895   1.510   3.318   1.080  1.6446  0.7358  1.7797
 3754SOL    HW222896   1.640   3.248   1.115  1.0443  1.0762 -0.6192
 3755SOL     OW22897   4.517   2.886   5.415  0.5783 -0.3960 -0.2261
 3755SOL    HW122898   4.512   2.846   5.328 -0.8368  3.3343 -1.9017
 3755SOL    HW222899   4.553   2.969   5.384  1.7794 -0.5285  0.8461
 3756SOL     OW22900   3.178   3.623   3.951 -0.3813 -0.4310  0.3205
 3756SOL    HW122901   3.158   3.717   3.947 -1.9260 -0.7201  1.3612
 3756SOL    HW222902   3.149   3.607   3.861 -1.4623  2.0118  0.2260
 3757SOL     OW22903   3.481   3.768  15.666 -0.3825  0.5964 -0.0427
 3757SOL    HW122904   3.539   3.781  15.741  1.4240  0.6159 -1.4384
 3757SOL    HW222905   3.539   3.777  15.591 -1.1709  0.6235 -0.6476
 3758SOL     OW22906   2.792   3.889  10.243 -0.3450 -0.3319  0.3847
 3758SOL    HW122907   2.734   3.923  10.175  1.5734 -0.0357 -1.1094
 3758SOL    HW222908   2.733   3.883  10.318 -2.0158  0.5863 -0.8587
 3759SOL     OW22909   2.271   0.672   4.714 -0.1763 -0.9725 -0.4525
 3759SOL    HW122910   2.329   0.717   4.775  0.6864 -1.1020 -1.1751
 3759SOL    HW222911   2.247   0.593   4.762  1.7030 -1.0432  0.3817
 3760SOL     OW22912   3.821   1.622   8.150 -0.3571  0.5996 -0.0675
 3760SOL    HW122913   3.798   1.553   8.088  0.7085  1.4820 -1.4612
 3760SOL    HW222914   3.737   1.665   8.164  0.1792  0.8254  2.4677
 3761SOL     OW22915   1.263   0.570   7.106 -0.2073 -0.1051 -0.7054
 3761SOL    HW122916   1.342   0.558   7.052 -1.4630 -1.0390 -2.3205
 3761SOL    HW222917   1.297   0.644   7.156  1.5285 -0.1596 -1.7948
 3762SOL     OW22918   4.653   1.209  17.327  0.0450 -0.1096 -0.2493
 3762SOL    HW122919   4.685   1.243  17.244  2.7034 -1.1422  0.3589
 3762SOL    HW222920   4.739   1.190  17.365 -0.5474 -1.4913  0.4400
 3763SOL     OW22921   3.080   2.682  16.429 -0.9076 -0.2087  0.1298
 3763SOL    HW122922   3.034   2.668  16.346 -1.6240 -0.4131  0.5669
 3763SOL    HW222923   3.170   2.667  16.399 -1.8167  0.4893 -2.9469
 3764SOL     OW22924   3.087   3.926   9.141  0.0593  0.0363 -0.7404
 3764SOL    HW122925   3.038   3.854   9.181  3.1052 -1.0379  0.9773
 3764SOL    HW222926   3.052   3.915   9.053 -1.0425 -0.3520 -0.2578
 3765SOL     OW22927   1.521   2.619   0.263 -0.8505  0.2937 -0.1389
 3765SOL    HW122928   1.537   2.525   0.273 -0.7353  0.2510 -0.7595
 3765SOL    HW222929   1.566   2.643   0.344  1.3139  1.7120 -1.7610
 3766SOL     OW22930   2.529   0.223  12.537 -0.3680 -0.1806  0.6838
 3766SOL    HW122931   2.569   0.311  12.532 -1.4240  0.1746 -1.1758
 3766SOL    HW222932   2.555   0.194  12.624  0.0426  1.9549  1.2844
 3767SOL     OW22933   1.006   2.082  13.723  0.3697 -0.4457 -0.4783
 3767SOL    HW122934   0.978   1.992  13.707 -1.1461 -0.3082  1.4705
 3767SOL    HW222935   0.929   2.121  13.765  0.2325 -0.9096 -0.2999
 3768SOL     OW22936   3.129   1.102   3.990  0.1952  0.4620  0.5850
 3768SOL    HW122937   3.115   1.173   3.927 -0.9978 -1.5138 -1.3634
 3768SOL    HW222938   3.121   1.155   4.070  0.9100  0.7134  0.4914
 3769SOL     OW22939   0.448   0.973  13.944 -0.2376  0.5886 -0.1436
 3769SOL    HW122940   0.451   0.972  14.039 -2.3653  0.1664 -0.0727
 3769SOL    HW222941   0.537   0.944  13.923 -0.1387 -1.4328  3.1639
 3770SOL     OW22942   3.272   0.901   7.033 -0.0570 -0.2105  0.4304
 3770SOL    HW122943   3.348   0.886   7.089  0.9352  2.8403 -0.0823
 3770SOL    HW222944   3.307   0.975   6.983 -1.5203 -1.0579 -1.8528
 3771SOL     OW22945   1.966   2.787  13.150 -0.1790 -0.2255 -0.0027
 3771SOL    HW122946   2.007   2.706  13.181  2.5061  0.9937 -0.4640
 3771SOL    HW222947   2.022   2.800  13.074 -0.7041 -1.6197 -0.6361
 3772SOL     OW22948   2.363   4.256   8.569 -0.3044 -0.1547 -0.2399
 3772SOL    HW122949   2.429   4.282   8.634  0.6828 -0.8657 -0.9567
 3772SOL    HW222950   2.419   4.255   8.491 -2.3662  0.6964 -1.7202
 3773SOL     OW22951   0.374   3.772   3.528  0.3878 -0.2158 -0.4072
 3773SOL    HW122952   0.295   3.722   3.506 -0.7896  1.0524  0.8801
 3773SOL    HW222953   0.341   3.858   3.502  0.9290  1.0051  2.9694
 3774SOL     OW22954   2.920   1.423   0.666 -0.0632 -1.5999  0.0545
 3774SOL    HW122955   2.864   1.359   0.622 -1.0983 -0.4180 -0.3579
 3774SOL    HW222956   3.008   1.386   0.664  0.5444 -0.2098  1.5965
 3775SOL     OW22957   2.448   0.108   7.966  0.1057 -0.3221 -0.4677
 3775SOL    HW122958   2.514   0.146   8.024 -1.4674 -0.1863  1.2317
 3775SOL    HW222959   2.373   0.110   8.025  0.1711  2.6153 -0.5165
 3776SOL     OW22960   3.925   2.901   4.812  0.5678  0.3009 -0.4257
 3776SOL    HW122961   3.859   2.833   4.819  1.1569 -0.2249  0.0325
 3776SOL    HW222962   3.878   2.983   4.831  1.9141  0.8511  0.5948
 3777SOL     OW22963   1.894   2.428   0.536  0.4465  0.2203  0.0603
 3777SOL    HW122964   1.877   2.521   0.553 -0.8319  1.0000 -5.3920
 3777SOL    HW222965   1.807   2.390   0.531  0.4122  0.2187  0.6586
 3778SOL     OW22966   0.580   1.073   6.569 -0.2887 -0.3686  0.2542
 3778SOL    HW122967   0.675   1.083   6.575 -0.0355 -1.7839 -1.1696
 3778SOL    HW222968   0.554   1.130   6.640  3.6302  0.7065  0.8298
 3779SOL     OW22969   0.959   2.787   9.280 -0.3272  0.3099  0.4402
 3779SOL    HW122970   0.958   2.871   9.325  1.1402 -0.3074  1.6163
 3779SOL    HW222971   0.868   2.757   9.284  0.1356 -1.4714 -2.2134
 3780SOL     OW22972   2.394   2.656  13.917 -0.0436 -0.2783  0.2560
 3780SOL    HW122973   2.393   2.690  14.007  0.5757 -1.3439  0.6662
 3780SOL    HW222974   2.351   2.573  13.934 -0.4012 -0.6701 -2.6861
 3781SOL     OW22975   4.635   4.331   5.154  0.1971  0.1391  0.7492
 3781SOL    HW122976   4.581   4.322   5.076  1.7702 -1.7258 -0.1102
 3781SOL    HW222977   4.700   4.393   5.120  0.1559  0.1049  0.6128
 3782SOL     OW22978   3.058   1.294   8.567  0.2027 -0.0863  0.1325
 3782SOL    HW122979   3.146   1.321   8.590 -0.3119 -0.8053  2.9725
 3782SOL    HW222980   3.073   1.245   8.486  1.9281 -0.2859  0.5803
 3783SOL     OW22981   1.504   0.625   2.465 -0.8033  0.0047  0.0552
 3783SOL    HW122982   1.453   0.665   2.535 -2.0492 -0.3045 -0.6859
 3783SOL    HW222983   1.588   0.665   2.489 -1.4176  1.3256 -0.0024
 3784SOL     OW22984   0.965   2.127   2.174 -0.6006 -0.4361  0.5954
 3784SOL    HW122985   0.974   2.050   2.118  1.1415  1.9982 -2.4111
 3784SOL    HW222986   0.884   2.164   2.141  0.0598 -1.1098 -1.7545
 3785SOL     OW22987   2.198   4.530  15.973 -0.1845  0.6448  0.3199
 3785SOL    HW122988   2.136   4.574  15.915 -0.8125  0.9814  1.2594
 3785SOL    HW222989   2.164   4.441  15.964  1.1255  0.2101 -0.4193
 3786SOL     OW22990   1.766   0.644   0.715 -0.1050 -0.2881  0.6613
 3786SOL    HW122991   1.691   0.701   0.734 -0.5500 -0.7914  0.4015
 3786SOL    HW222992   1.739   0.610   0.630  1.2207  0.1934  0.0540
 3787SOL     OW22993   1.581   3.754  13.718  0.5003 -0.4401  0.2868
 3787SOL    HW122994   1.541   3.776  13.802 -0.2114  0.8551 -0.3792
 3787SOL    HW222995   1.515   3.721  13.657 -1.3642 -0.3800  2.2734
 3788SOL     OW22996   0.483   0.987   5.695 -0.8025 -0.2791  0.0158
 3788SOL    HW122997   0.568   0.957   5.666  0.3890  1.2252  1.9476
 3788SOL    HW222998   0.457   0.915   5.752  0.7329 -1.3659 -0.6811
 3789SOL     OW22999   1.643   0.511  17.731 -0.1971 -0.3224  0.0560
 3789SOL    HW123000   1.566   0.542  17.684 -0.2262  0.4520  0.6266
 3789SOL    HW223001   1.602   0.473   0.054 -0.8173  1.9831  0.8432
 3790SOL     OW23002   1.174   3.156   4.205 -0.4294  0.3028  0.1935
 3790SOL    HW123003   1.140   3.246   4.214  0.0311  0.4738  0.2452
 3790SOL    HW223004   1.204   3.148   4.296  1.0819  0.3457 -0.3136
 3791SOL     OW23005   4.676   0.300  15.257  0.5593 -0.5296  0.3349
 3791SOL    HW123006   4.728   0.220  15.246  0.2505 -0.6554 -0.2511
 3791SOL    HW223007   4.597   0.290  15.203 -0.5460  1.8229  1.5345
 3792SOL     OW23008   1.847   2.791  13.485 -0.0253  0.5090 -0.0635
 3792SOL    HW123009   1.911   2.727  13.516 -1.1645 -0.4596  0.3070
 3792SOL    HW223010   1.795   2.732  13.429  0.7131 -0.9962  0.8472
 3793SOL     OW23011   1.884   4.646  17.001 -0.3614  0.4092 -0.3561
 3793SOL    HW123012   1.846   4.655  17.088 -0.6584 -0.3115 -0.4142
 3793SOL    HW223013   1.905   4.739  16.995 -0.8524  0.4081 -2.1972
 3794SOL     OW23014   2.337   4.058   1.651  0.1021  0.0708 -0.0993
 3794SOL    HW123015   2.391   4.019   1.719  1.1544  1.5453 -0.0960
 3794SOL    HW223016   2.249   4.039   1.685  0.3611 -0.4384  0.2857
 3795SOL     OW23017   1.350   1.847   4.344  0.4362 -0.6297 -0.0450
 3795SOL    HW123018   1.361   1.940   4.365 -4.7600 -0.0439  0.1029
 3795SOL    HW223019   1.339   1.862   4.250 -0.5123  0.5000  0.2387
 3796SOL     OW23020   1.855   3.891  10.656  0.4202 -0.1517 -0.0507
 3796SOL    HW123021   1.793   3.958  10.624 -0.6504 -0.5709  1.1532
 3796SOL    HW223022   1.881   3.862  10.568  2.5305  0.8771  0.2302
 3797SOL     OW23023   0.550   3.093   2.134 -0.3571  0.3178  0.1718
 3797SOL    HW123024   0.473   3.094   2.191  0.3783  0.4681  1.1715
 3797SOL    HW223025   0.508   3.133   2.058 -1.7255 -0.4561  0.5176
 3798SOL     OW23026   3.441   0.558  11.564 -0.2213  0.0139 -0.5878
 3798SOL    HW123027   3.430   0.628  11.628 -0.3575 -0.5190 -0.0313
 3798SOL    HW223028   3.383   0.490  11.600  0.3826  0.1424  0.6410
 3799SOL     OW23029   1.194   4.156   2.057 -0.0576  0.3428  0.1362
 3799SOL    HW123030   1.270   4.108   2.090  0.0186  0.1734 -0.2798
 3799SOL    HW223031   1.192   4.122   1.967  0.3562  1.6929 -0.3867
 3800SOL     OW23032   0.463   2.483   9.971  0.1118 -0.5755 -0.0024
 3800SOL    HW123033   0.430   2.454   9.885  0.2479  1.4655 -0.7491
 3800SOL    HW223034   0.555   2.495   9.948 -0.4843  1.7944 -1.1328
 3801SOL     OW23035   4.185   4.171   6.316  0.0896  0.5111 -0.1030
 3801SOL    HW123036   4.267   4.125   6.299 -1.1653 -2.1801  1.1431
 3801SOL    HW223037   4.137   4.172   6.233 -0.2321  0.1085  0.0760
 3802SOL     OW23038   1.848   3.348   9.585 -0.1391  0.3783 -0.8338
 3802SOL    HW123039   1.922   3.353   9.525 -0.1671  1.3202 -0.7860
 3802SOL    HW223040   1.820   3.256   9.592  0.0663  0.3676 -0.1537
 3803SOL     OW23041   3.538   1.559   8.798  0.1352  0.0838  0.4509
 3803SOL    HW123042   3.616   1.595   8.841  0.1876  1.5873 -0.9161
 3803SOL    HW223043   3.509   1.482   8.847 -0.0852 -0.4329 -0.5121
 3804SOL     OW23044   1.747   2.829  10.309 -0.1633  0.1520  0.0928
 3804SOL    HW123045   1.818   2.775  10.273  0.3958  1.0701 -0.1745
 3804SOL    HW223046   1.792   2.903  10.350 -0.9158  0.2826  0.6744
 3805SOL     OW23047   1.938   4.158   6.653  0.1813  0.5226  0.0836
 3805SOL    HW123048   2.025   4.198   6.648  0.2351  0.1892 -1.8917
 3805SOL    HW223049   1.916   4.139   6.744  0.3772 -1.4924 -0.2988
 3806SOL     OW23050   0.578   4.566  13.444  0.4235 -0.3964 -0.1814
 3806SOL    HW123051   0.567   4.629  13.373  0.5070 -0.8793 -0.6277
 3806SOL    HW223052   0.667   4.534  13.429  1.3286  2.0586 -0.0651
 3807SOL     OW23053   3.447   3.474   9.477  0.2915 -0.2562 -0.4415
 3807SOL    HW123054   3.506   3.411   9.436  2.7771  0.5565  1.8710
 3807SOL    HW223055   3.508   3.522   9.533  0.1373  0.7993 -1.1720
 3808SOL     OW23056   1.237   1.898  12.806 -0.1219 -0.0196  0.0054
 3808SOL    HW123057   1.275   1.879  12.720 -0.9362 -1.0727 -0.1079
 3808SOL    HW223058   1.315   1.878  12.858  0.0623 -1.0474 -0.6651
 3809SOL     OW23059   4.080   0.485   8.777  0.3043  0.2082  0.1013
 3809SOL    HW123060   3.997   0.474   8.731 -1.2638  0.7409  2.7898
 3809SOL    HW223061   4.122   0.543   8.715 -0.5450 -1.3967 -1.9914
 3810SOL     OW23062   0.319   1.248   7.523 -0.0160 -0.6556  0.1473
 3810SOL    HW123063   0.227   1.274   7.518  0.2212  0.2582  0.5108
 3810SOL    HW223064   0.334   1.225   7.614  0.8792  1.0183  0.4109
 3811SOL     OW23065   0.006   0.943   7.327 -1.1434  0.0183 -0.2382
 3811SOL    HW123066   4.718   0.985   7.409  0.1750 -0.2725  0.3555
 3811SOL    HW223067   4.662   0.952   7.280 -0.0690  1.3845 -1.8794
 3812SOL     OW23068   2.031   3.756  13.127 -0.0361  0.2958  0.2085
 3812SOL    HW123069   1.951   3.751  13.075  1.3928 -0.7771 -1.8922
 3812SOL    HW223070   2.090   3.724  13.059  1.3924  0.1874  1.4773
 3813SOL     OW23071   4.323   2.593  17.693 -0.1247  0.1034 -0.0693
 3813SOL    HW123072   4.236   2.634  17.695 -0.9046 -1.4883 -1.2247
 3813SOL    HW223073   4.384   2.661  17.722 -0.1846 -1.0016  2.7351
 3814SOL     OW23074   4.120   0.500   0.136  0.3330 -0.4490 -0.4674
 3814SOL    HW123075   4.050   0.436   0.146 -2.0793  2.3774  0.8868
 3814SOL    HW223076   4.097   0.575   0.191  0.5858  1.4185 -2.9269
 3815SOL     OW23077   2.536   4.595   9.286 -0.0558 -0.1387  0.0119
 3815SOL    HW123078   2.463   4.547   9.246  0.2336 -0.8243  0.2980
 3815SOL    HW223079   2.594   4.589   9.209  1.7339 -1.5563  1.4790
 3816SOL     OW23080   2.778   0.013   3.884  0.1947  0.0171 -0.0645
 3816SOL    HW123081   2.847   0.074   3.911  0.1546  0.2059 -0.3796
 3816SOL    HW223082   2.791   4.739   3.790  1.3270  1.5659 -0.1258
 3817SOL     OW23083   4.281   3.022   6.449 -0.1596 -0.4062 -0.0332
 3817SOL    HW123084   4.206   2.970   6.478 -0.3299 -0.1583 -0.0241
 3817SOL    HW223085   4.233   3.073   6.383  1.0957  0.5890 -0.1619
 3818SOL     OW23086   1.386   2.539  10.397  0.1693  0.1306 -0.2159
 3818SOL    HW123087   1.323   2.583  10.339  0.0822  1.7013  1.0991
 3818SOL    HW223088   1.367   2.568  10.486  0.9609 -0.8744  0.2852
 3819SOL     OW23089   4.664   0.738  16.421  0.5273 -0.0884  0.5194
 3819SOL    HW123090   4.734   0.803  16.414  0.5086 -0.0712  0.4920
 3819SOL    HW223091   4.694   0.663  16.370  1.5722  1.5419 -1.2625
 3820SOL     OW23092   2.849   3.397   6.915  0.0492 -0.2216 -0.2586
 3820SOL    HW123093   2.885   3.430   6.833 -0.1907 -0.1957 -0.3537
 3820SOL    HW223094   2.756   3.391   6.892  0.4205  0.7689 -1.9672
 3821SOL     OW23095   3.952   2.146   5.885  0.3344 -0.0499  0.1423
 3821SOL    HW123096   3.858   2.144   5.865  0.6441  0.7974 -1.3597
 3821SOL    HW223097   3.950   2.077   5.952 -2.3802 -0.3581 -0.2342
 3822SOL     OW23098   2.741   4.376   1.388 -0.7600  0.2329  0.5296
 3822SOL    HW123099   2.688   4.315   1.439 -1.2099  1.2592  1.2943
 3822SOL    HW223100   2.688   4.397   1.310  1.2074  1.1239 -0.5654
 3823SOL     OW23101   2.263   3.054   4.765  0.4690  0.4088 -0.2763
 3823SOL    HW123102   2.343   3.076   4.812 -0.0955  0.1175  0.8149
 3823SOL    HW223103   2.287   3.079   4.676  1.1808 -0.2019 -0.2458
 3824SOL     OW23104   2.320   0.550  15.204 -0.3369  0.2414  0.2726
 3824SOL    HW123105   2.271   0.632  15.207 -1.5501 -0.5078  1.1355
 3824SOL    HW223106   2.333   0.541  15.299 -0.4178  0.2324  0.2829
 3825SOL     OW23107   4.487   2.209   6.201  0.0379  0.2632 -0.1413
 3825SOL    HW123108   4.408   2.212   6.256  1.9939  0.9414  2.6268
 3825SOL    HW223109   4.526   2.131   6.240  1.3033  0.5663 -0.7837
 3826SOL     OW23110   0.061   3.571  12.399 -0.0898  0.2536 -0.1259
 3826SOL    HW123111   0.018   3.588  12.315 -3.0058 -0.0343  1.3047
 3826SOL    HW223112   0.080   3.478  12.386 -1.4960  0.0008 -0.3687
 3827SOL     OW23113   1.361   2.713   6.450 -0.2847 -0.4290  0.1712
 3827SOL    HW123114   1.431   2.758   6.403 -0.8496  1.1106  0.8120
 3827SOL    HW223115   1.307   2.685   6.377 -1.6241  1.3673  0.4832
 3828SOL     OW23116   4.265   0.556   2.840 -0.5291 -0.0910  0.0390
 3828SOL    HW123117   4.288   0.465   2.820  0.1885  0.2927 -0.9131
 3828SOL    HW223118   4.182   0.571   2.795  0.7306 -0.6326 -2.4710
 3829SOL     OW23119   0.462   2.310   5.303  0.0427  0.2381 -0.2453
 3829SOL    HW123120   0.432   2.236   5.356 -1.3152  1.1272  0.2222
 3829SOL    HW223121   0.454   2.390   5.355  0.3477 -0.4808  0.8879
 3830SOL     OW23122   4.234   3.628   4.205 -0.0900  0.5189  0.5347
 3830SOL    HW123123   4.199   3.609   4.118 -3.9064  1.4590  1.8635
 3830SOL    HW223124   4.193   3.557   4.254  1.8912  0.0278  1.4955
 3831SOL     OW23125   1.951   0.754   3.861  0.2807 -0.3819  0.6637
 3831SOL    HW123126   1.858   0.736   3.845  0.6534 -0.3311 -1.5724
 3831SOL    HW223127   1.951   0.788   3.951  1.1213 -1.6200  1.1318
 3832SOL     OW23128   1.880   1.655   4.778  0.2774  0.1858  0.2946
 3832SOL    HW123129   1.852   1.678   4.867  0.4625 -2.2836  1.0182
 3832SOL    HW223130   1.798   1.620   4.745 -0.7516  2.2287  0.6990
 3833SOL     OW23131   0.592   2.345   2.881 -0.3833  0.4074 -0.5652
 3833SOL    HW123132   0.532   2.394   2.825  0.6609  1.1789 -1.0083
 3833SOL    HW223133   0.664   2.405   2.904 -1.0516  0.4377  1.4163
 3834SOL     OW23134   4.527   1.430  13.363 -0.0100  0.2003 -0.1115
 3834SOL    HW123135   4.562   1.352  13.406 -0.4921 -0.4827 -0.9558
 3834SOL    HW223136   4.614   1.457  13.331  1.0016  0.2595  2.7280
 3835SOL     OW23137   0.503   1.862  13.048 -0.0434  0.3190 -0.2525
 3835SOL    HW123138   0.558   1.785  13.053 -2.1829 -0.9921  2.8394
 3835SOL    HW223139   0.574   1.917  13.014  1.0614  0.7555  2.7539
 3836SOL     OW23140   1.957   3.024  12.258 -0.2197  0.4875 -0.0768
 3836SOL    HW123141   2.016   2.948  12.253  1.6881  1.7414  3.2545
 3836SOL    HW223142   1.892   2.980  12.312 -0.6099  0.8657 -0.2368
 3837SOL     OW23143   3.825   2.456   1.942  0.3119 -0.5927  0.6585
 3837SOL    HW123144   3.799   2.402   1.868 -0.1587  0.1618  0.2770
 3837SOL    HW223145   3.737   2.463   1.979 -0.2219 -0.5924 -0.6358
 3838SOL     OW23146   2.561   0.007  16.351  0.5902  0.6669  0.1619
 3838SOL    HW123147   2.621   0.033  16.422  0.4558  0.4371  0.3598
 3838SOL    HW223148   2.502   4.687  16.397  0.3075  0.7862 -0.0479
 3839SOL     OW23149   1.883   3.148   3.975  0.2423 -0.5024  0.5122
 3839SOL    HW123150   1.847   3.105   4.053 -0.4495  0.5190  0.7469
 3839SOL    HW223151   1.821   3.122   3.906  0.0076 -1.4147  1.0549
 3840SOL     OW23152   2.217   1.629  15.564  0.2416 -0.7884 -0.0877
 3840SOL    HW123153   2.231   1.661  15.653  1.2839  0.9912 -0.8872
 3840SOL    HW223154   2.221   1.717  15.526 -1.3970 -0.0932  1.3284
 3841SOL     OW23155   1.255   4.680   0.409 -0.2775  0.0906 -0.1693
 3841SOL    HW123156   1.223   0.031   0.399 -1.4645 -0.2365  0.6524
 3841SOL    HW223157   1.278   4.682   0.502 -1.1245  1.7708  0.0187
 3842SOL     OW23158   4.620   1.989   7.976  0.1923  0.1911  0.3134
 3842SOL    HW123159   4.534   2.015   8.008  0.1688 -0.7226  0.9925
 3842SOL    HW223160   4.613   2.009   7.882 -0.9567 -0.3298  0.2924
 3843SOL     OW23161   2.617   3.431  13.121 -0.1347  0.7645 -0.3279
 3843SOL    HW123162   2.554   3.503  13.127 -0.0991  0.5618  2.7622
 3843SOL    HW223163   2.676   3.472  13.058  0.9993  0.0179  0.2422
 3844SOL     OW23164   1.666   4.133   2.147  0.2191 -0.8146 -0.0157
 3844SOL    HW123165   1.714   4.144   2.229  0.6327 -0.8347 -0.2502
 3844SOL    HW223166   1.587   4.185   2.160  0.6004 -0.6775  1.7194
 3845SOL     OW23167   0.258   3.550  15.250 -0.1751 -0.4307  0.4420
 3845SOL    HW123168   0.248   3.639  15.216  1.2498 -0.2149  0.5858
 3845SOL    HW223169   0.338   3.522  15.205  0.1781  0.0168  0.7962
 3846SOL     OW23170   2.161   3.531   1.538 -0.4269  0.8287  0.0485
 3846SOL    HW123171   2.237   3.506   1.486 -0.2175  1.0125  0.2689
 3846SOL    HW223172   2.199   3.509   1.623 -0.5349 -2.3983 -0.7425
 3847SOL     OW23173   0.999   3.870   1.809  0.4848 -0.4495  0.3500
 3847SOL    HW123174   0.958   3.795   1.851  0.9850 -0.1837  1.3245
 3847SOL    HW223175   1.088   3.863   1.844 -0.1101  0.8631  2.1254
 3848SOL     OW23176   1.337   2.385   7.616  0.1288 -0.5705 -0.1943
 3848SOL    HW123177   1.308   2.429   7.696 -1.3871 -1.1316 -0.4298
 3848SOL    HW223178   1.329   2.445   7.541  0.5082 -1.1208 -0.6792
 3849SOL     OW23179   1.249   4.467   5.734 -0.4860  0.1647 -0.4149
 3849SOL    HW123180   1.320   4.465   5.670 -0.3669 -1.5504 -0.2226
 3849SOL    HW223181   1.215   4.378   5.736 -0.5444  0.2215  1.6895
 3850SOL     OW23182   3.046   3.626   4.617 -0.0204  0.6562 -0.1793
 3850SOL    HW123183   3.049   3.717   4.589  0.3394  0.1702 -1.7229
 3850SOL    HW223184   2.965   3.628   4.670  0.2151 -2.8658  0.3473
 3851SOL     OW23185   2.594   0.476   3.280  0.2359  0.1682 -0.4884
 3851SOL    HW123186   2.677   0.428   3.283  0.4181  0.4845 -0.5021
 3851SOL    HW223187   2.553   0.431   3.206 -1.7808 -1.1302  1.4276
 3852SOL     OW23188   2.778   1.061  15.361 -0.0946 -0.6146 -0.0322
 3852SOL    HW123189   2.829   0.985  15.336  0.4105 -0.1915 -0.2918
 3852SOL    HW223190   2.789   1.053  15.456  0.2392 -1.3724 -0.1431
 3853SOL     OW23191   1.241   2.197  15.777  0.5914 -0.5811 -1.3070
 3853SOL    HW123192   1.254   2.116  15.826  2.7896  0.0960 -0.7666
 3853SOL    HW223193   1.307   2.260  15.807  1.3151 -1.9487 -0.0198
 3854SOL     OW23194   1.977   1.293  16.928  0.3612  0.4224 -0.4678
 3854SOL    HW123195   1.985   1.258  16.839 -0.5837  1.4679 -0.9631
 3854SOL    HW223196   1.980   1.209  16.975  1.4736  0.1046 -1.0960
 3855SOL     OW23197   2.315   3.063   9.664 -0.6044  0.1842  0.5387
 3855SOL    HW123198   2.397   3.063   9.714 -0.4884  1.1638  0.3361
 3855SOL    HW223199   2.264   3.115   9.725 -1.8115  0.3533 -0.6205
 3856SOL     OW23200   1.300   1.594   9.799 -0.1211  0.6249 -0.2186
 3856SOL    HW123201   1.228   1.601   9.862  0.2770  1.4440  0.1358
 3856SOL    HW223202   1.254   1.639   9.728  2.0701  0.1479 -1.9336
 3857SOL     OW23203   4.007   3.203  12.683  0.1154  0.0434  0.6058
 3857SOL    HW123204   4.022   3.222  12.590  0.3923  0.4429  0.7321
 3857SOL    HW223205   4.095   3.200  12.719  0.6470  0.1152 -0.6702
 3858SOL     OW23206   4.616   1.406   8.271 -0.0815  0.0865  0.0544
 3858SOL    HW123207   4.697   1.436   8.228 -0.3302  1.5032  0.5595
 3858SOL    HW223208   4.555   1.440   8.206  1.7432  1.0906 -1.1335
 3859SOL     OW23209   0.149   2.866  10.673  0.1235 -0.0154  0.3887
 3859SOL    HW123210   0.090   2.867  10.597  2.4823 -0.0117 -1.4606
 3859SOL    HW223211   0.169   2.773  10.683 -0.3618 -0.3145 -1.2723
 3860SOL     OW23212   4.143   0.417   3.317  0.1314  0.5363 -0.5089
 3860SOL    HW123213   4.235   0.423   3.343 -0.2679  0.5184  0.9198
 3860SOL    HW223214   4.149   0.454   3.229  2.6841 -1.1389 -1.0346
 3861SOL     OW23215   0.292   3.107   4.697 -0.0679 -0.1235  0.8913
 3861SOL    HW123216   0.277   3.192   4.655 -0.6199 -0.9790 -0.6785
 3861SOL    HW223217   0.201   3.090   4.719 -0.2127  0.4690  0.7317
 3862SOL     OW23218   4.731   1.749   9.463  0.2857 -0.1115  0.1586
 3862SOL    HW123219   0.057   1.758   9.532 -0.0124  0.4282  0.3693
 3862SOL    HW223220   4.696   1.836   9.482  0.6136  0.4826 -1.9179
 3863SOL     OW23221   3.830   3.514  14.742  0.3204  0.0112  0.2155
 3863SOL    HW123222   3.919   3.521  14.709 -0.2237 -1.4285 -1.5995
 3863SOL    HW223223   3.787   3.580  14.687 -0.2110 -0.1983  0.3741
 3864SOL     OW23224   1.167   0.694   8.002 -0.2299 -0.2043  0.1251
 3864SOL    HW123225   1.193   0.770   8.055  0.1403  0.7482 -1.4383
 3864SOL    HW223226   1.085   0.719   7.961 -0.3318  0.0497  0.4917
 3865SOL     OW23227   3.694   1.160  15.113  0.2202  0.1858 -0.2932
 3865SOL    HW123228   3.645   1.106  15.175 -1.6562  1.5223 -0.6320
 3865SOL    HW223229   3.718   1.237  15.166 -1.1831  0.8259 -0.6075
 3866SOL     OW23230   4.087   3.118  15.851  0.0159  0.0543 -0.0353
 3866SOL    HW123231   4.003   3.111  15.897 -0.9754  0.3467 -1.8319
 3866SOL    HW223232   4.099   3.027  15.828 -0.0297  0.3062 -1.0346
 3867SOL     OW23233   4.697   1.440   7.020  0.3256  0.5811  0.2997
 3867SOL    HW123234   0.034   1.484   6.982 -0.8877  0.7480 -1.9445
 3867SOL    HW223235   4.633   1.433   6.950 -1.0985  1.4345  1.5111
 3868SOL     OW23236   3.460   4.366  10.488 -0.0715  0.1734  0.4162
 3868SOL    HW123237   3.370   4.333  10.485  0.0485 -0.1749  0.5433
 3868SOL    HW223238   3.507   4.282  10.485 -0.6745 -0.2082  1.6419
 3869SOL     OW23239   4.178   3.514   2.517  0.2645  1.1120 -0.2389
 3869SOL    HW123240   4.208   3.435   2.562  0.2459  0.9489 -0.5147
 3869SOL    HW223241   4.143   3.483   2.433 -1.2703 -0.3305  0.9337
 3870SOL     OW23242   4.231   0.213   5.008 -0.3762 -0.3909 -0.4113
 3870SOL    HW123243   4.310   0.257   4.977  0.5305 -1.1927  0.7711
 3870SOL    HW223244   4.237   0.121   4.981  3.3289 -0.4153  0.5770
 3871SOL     OW23245   1.884   2.453   6.502 -0.2073 -0.1060  0.1531
 3871SOL    HW123246   1.845   2.370   6.528 -0.3139  0.3538  1.4302
 3871SOL    HW223247   1.950   2.455   6.571 -0.5340  0.8810  0.4413
 3872SOL     OW23248   4.413   2.310  16.391 -0.3950  0.1923 -0.1695
 3872SOL    HW123249   4.438   2.252  16.463 -0.9169  0.6448  0.3809
 3872SOL    HW223250   4.394   2.392  16.438  0.6343 -0.9167  2.2074
 3873SOL     OW23251   2.547   4.352  11.143 -0.4315 -0.0042 -0.6749
 3873SOL    HW123252   2.558   4.257  11.152 -2.1324 -0.1275  0.2413
 3873SOL    HW223253   2.629   4.380  11.102 -0.0106  2.0464  1.5791
 3874SOL     OW23254   2.799   1.513   5.469  0.0460  0.0770 -0.3801
 3874SOL    HW123255   2.722   1.490   5.418 -0.6794  0.4739  0.5261
 3874SOL    HW223256   2.776   1.593   5.517 -1.5468  0.1659 -1.3164
 3875SOL     OW23257   2.881   1.064   4.634  0.3183  0.0232 -0.1177
 3875SOL    HW123258   2.974   1.040   4.631  0.3930  0.2489  0.3990
 3875SOL    HW223259   2.887   1.140   4.692 -0.2437 -0.6313  0.7957
 3876SOL     OW23260   1.824   2.304   2.586  0.5632 -0.1584 -0.0729
 3876SOL    HW123261   1.851   2.340   2.671 -2.5886  2.0880 -0.0395
 3876SOL    HW223262   1.909   2.304   2.542 -0.9352 -2.1910 -2.9188
 3877SOL     OW23263   0.108   3.766   4.849  0.4966  0.6589  0.3019
 3877SOL    HW123264   0.168   3.755   4.922 -0.6908 -0.1158  1.1566
 3877SOL    HW223265   0.129   3.856   4.824 -0.2139  0.6090 -0.4726
 3878SOL     OW23266   4.295   2.770   7.204 -0.4097 -0.5561  0.0409
 3878SOL    HW123267   4.244   2.753   7.283 -0.0937  0.0526  0.3760
 3878SOL    HW223268   4.346   2.844   7.236 -3.4351  1.2862  0.5236
 3879SOL     OW23269   0.749   4.337   3.243 -0.6440 -0.2740  0.3425
 3879SOL    HW123270   0.794   4.253   3.231  0.7451  0.0277  3.2318
 3879SOL    HW223271   0.817   4.377   3.298  2.4301 -0.8374 -3.0028
 3880SOL     OW23272   2.073   1.058   7.419 -0.0755  0.1181 -0.5387
 3880SOL    HW123273   2.026   1.042   7.337  1.9342 -0.0574 -1.6477
 3880SOL    HW223274   2.057   1.152   7.427 -2.1811 -0.3247  0.4951
 3881SOL     OW23275   3.438   0.351   8.397  0.0229  0.1135 -0.3876
 3881SOL    HW123276   3.383   0.283   8.434  0.1538 -0.6809 -1.6571
 3881SOL    HW223277   3.385   0.420   8.437 -1.3248 -0.0645 -1.8873
 3882SOL     OW23278   2.159   0.858   9.912 -0.1091  0.1938  0.5474
 3882SOL    HW123279   2.181   0.865   9.819 -0.3435 -0.7127  0.4173
 3882SOL    HW223280   2.066   0.839   9.925  0.3158 -2.2413 -0.0365
 3883SOL     OW23281   1.365   3.620  13.632 -0.4359  0.3713  0.2804
 3883SOL    HW123282   1.272   3.601  13.645 -0.4079 -0.3433 -0.5736
 3883SOL    HW223283   1.374   3.559  13.559  0.7219  0.7033  0.1356
 3884SOL     OW23284   2.067   3.980   7.512  0.1369 -0.4585 -0.1658
 3884SOL    HW123285   2.046   4.022   7.428  0.9365  1.1049  0.4285
 3884SOL    HW223286   2.067   3.887   7.488 -1.8068 -0.8764  1.4226
 3885SOL     OW23287   2.640   3.144   3.933 -0.8767 -0.0680  0.4575
 3885SOL    HW123288   2.716   3.142   3.875 -0.6705 -1.7455  0.7993
 3885SOL    HW223289   2.687   3.168   4.012 -0.8308  2.0332 -0.1936
 3886SOL     OW23290   2.665   1.868   7.266  0.1918 -0.1552  0.4023
 3886SOL    HW123291   2.710   1.783   7.273  0.5050 -0.1972 -2.2460
 3886SOL    HW223292   2.722   1.918   7.209 -0.0892  1.1499  1.2567
 3887SOL     OW23293   1.910   1.763  10.913  0.4177  0.1438 -0.3011
 3887SOL    HW123294   1.963   1.700  10.864  0.2489  0.6290 -1.1006
 3887SOL    HW223295   1.973   1.835  10.916 -0.8975  1.3239 -1.2046
 3888SOL     OW23296   4.255   3.812   1.955  0.0639  0.2689 -0.0541
 3888SOL    HW123297   4.198   3.754   1.904 -0.6404  0.2717  0.7360
 3888SOL    HW223298   4.212   3.832   2.039 -1.1089 -1.8337 -0.1693
 3889SOL     OW23299   0.237   0.294   2.459  0.3629  0.4212  0.0138
 3889SOL    HW123300   0.250   0.271   2.551 -1.2030 -2.4418 -0.4921
 3889SOL    HW223301   0.211   0.386   2.465  1.8143  0.8783 -0.8593
 3890SOL     OW23302   4.106   1.307   7.559 -0.1498  0.0594 -0.3049
 3890SOL    HW123303   4.146   1.344   7.637  1.6008  1.6804 -1.9789
 3890SOL    HW223304   4.040   1.373   7.538  0.8554  1.3250  0.5324
 3891SOL     OW23305   3.776   0.856   1.477 -0.1959  0.3636  0.2078
 3891SOL    HW123306   3.850   0.889   1.425 -2.2082 -1.0171 -3.5147
 3891SOL    HW223307   3.817   0.781   1.521 -1.5161  0.2159  1.1849
 3892SOL     OW23308   2.773   2.305   5.309  0.3911 -0.4955 -0.0097
 3892SOL    HW123309   2.685   2.324   5.342 -0.1254 -0.0708 -1.6622
 3892SOL    HW223310   2.831   2.331   5.380 -0.4564  1.9282 -0.2128
 3893SOL     OW23311   2.497   3.203  14.976 -0.3869 -0.3977 -0.4638
 3893SOL    HW123312   2.431   3.149  15.020  1.0278  0.6336  2.9650
 3893SOL    HW223313   2.537   3.142  14.913  1.1610  0.6685 -0.5174
 3894SOL     OW23314   3.915   1.482  16.952  0.1223 -0.3528  0.3443
 3894SOL    HW123315   3.868   1.475  16.869  0.9116 -0.7895 -0.0745
 3894SOL    HW223316   3.973   1.554  16.929 -0.0510 -0.4777 -0.4918
 3895SOL     OW23317   1.769   0.376  11.681 -0.0581 -0.5200 -0.7453
 3895SOL    HW123318   1.801   0.313  11.617  0.0373 -0.1893 -1.0261
 3895SOL    HW223319   1.795   0.463  11.650  1.4270 -0.6475  0.1432
 3896SOL     OW23320   0.910   0.724   8.263  0.2432  0.2604  0.5956
 3896SOL    HW123321   0.911   0.807   8.215 -3.6779  0.0647  0.2176
 3896SOL    HW223322   0.858   0.663   8.212 -0.0342  1.2005 -0.2465
 3897SOL     OW23323   4.312   0.770  12.075  0.5584  0.5954 -0.3340
 3897SOL    HW123324   4.375   0.762  12.147 -1.0034  0.4644  1.0259
 3897SOL    HW223325   4.234   0.750  12.126  2.3694  0.4096  2.3828
 3898SOL     OW23326   1.263   2.314   9.530 -0.7509  0.2435  0.5124
 3898SOL    HW123327   1.297   2.226   9.514  0.2416  1.0848 -2.0444
 3898SOL    HW223328   1.319   2.357   9.594 -1.5180  0.2651  1.1681
 3899SOL     OW23329   1.468   4.395   1.728 -0.3992  0.0180  0.2507
 3899SOL    HW123330   1.525   4.361   1.659 -1.0854  2.0081 -1.3128
 3899SOL    HW223331   1.449   4.314   1.776  1.1621 -1.0799 -0.9432
 3900SOL     OW23332   1.688   4.574   0.046  0.7100  0.1336  0.6637
 3900SOL    HW123333   1.712   4.601  17.713 -0.1081  1.0771  0.7206
 3900SOL    HW223334   1.665   4.655   0.092  0.9642  0.7802 -0.3519
 3901SOL     OW23335   0.109   1.252   9.102 -0.2100  0.5886 -0.3640
 3901SOL    HW123336   0.189   1.224   9.146 -1.0521 -1.1810  0.0584
 3901SOL    HW223337   0.131   1.211   9.018 -1.4713 -1.9194  0.5467
 3902SOL     OW23338   4.084   4.077  14.409  0.1271  0.5384 -0.5103
 3902SOL    HW123339   4.023   4.086  14.336  0.4140 -2.7336 -1.1506
 3902SOL    HW223340   4.083   4.168  14.438  1.1289  0.5822 -0.6268
 3903SOL     OW23341   4.009   3.075  10.942 -0.1093  0.1562  0.0566
 3903SOL    HW123342   4.074   3.006  10.954 -0.8265 -0.2736  1.4723
 3903SOL    HW223343   4.059   3.152  10.916 -1.8375  0.7573 -1.4841
 3904SOL     OW23344   2.389   3.857   6.339 -0.7034  0.1898  0.1597
 3904SOL    HW123345   2.396   3.941   6.293  0.9895 -2.0972 -3.7087
 3904SOL    HW223346   2.398   3.797   6.265  1.6769 -2.6746  2.8177
 3905SOL     OW23347   1.695   4.428  14.011 -0.1713 -0.4736  0.1860
 3905SOL    HW123348   1.763   4.470  13.959 -1.3792  2.2583  0.8199
 3905SOL    HW223349   1.681   4.496  14.076  2.0319 -0.1486  0.2942
 3906SOL     OW23350   2.872   1.644  14.899  0.3172  0.7802 -0.3667
 3906SOL    HW123351   2.792   1.598  14.926  0.0226  1.5590  0.0763
 3906SOL    HW223352   2.876   1.706  14.972  1.9963  0.2831 -0.0397
 3907SOL     OW23353   2.994   0.100   1.913 -0.2380 -0.0994  0.1509
 3907SOL    HW123354   2.901   0.078   1.903  0.7450 -4.0625 -0.0886
 3907SOL    HW223355   3.044   0.020   1.901  1.2006  0.8276 -0.0894
 3908SOL     OW23356   2.945   0.374   8.797  1.2281  0.0462 -0.0077
 3908SOL    HW123357   3.023   0.352   8.849  0.5849 -0.4449  0.7598
 3908SOL    HW223358   2.916   0.453   8.843 -2.3776 -0.0069 -2.2497
 3909SOL     OW23359   1.011   0.371   9.215  0.0617  0.3051 -0.0384
 3909SOL    HW123360   1.077   0.308   9.241  0.8030  0.2150 -2.1098
 3909SOL    HW223361   0.937   0.314   9.192 -0.0322  1.2103 -2.0184
 3910SOL     OW23362   2.215   3.055   6.460  0.1582  0.0298  0.2856
 3910SOL    HW123363   2.296   3.010   6.438  0.4165  1.2404 -1.2070
 3910SOL    HW223364   2.177   3.071   6.374  1.1020  0.2830 -0.0759
 3911SOL     OW23365   3.251   0.657   4.781 -0.2433  0.1847 -0.1822
 3911SOL    HW123366   3.345   0.668   4.768 -0.1042 -0.1180  0.5779
 3911SOL    HW223367   3.228   0.658   4.688  0.8431  2.0863 -0.4251
 3912SOL     OW23368   3.245   1.596  13.824 -0.0517 -0.5928 -0.7090
 3912SOL    HW123369   3.204   1.527  13.876  1.2080 -1.7784 -1.2689
 3912SOL    HW223370   3.232   1.677  13.873 -0.0347 -0.8497 -0.2804
 3913SOL     OW23371   0.560   2.216  16.889  0.1701  0.0178 -0.2117
 3913SOL    HW123372   0.489   2.170  16.844 -0.8800  1.1619  0.2352
 3913SOL    HW223373   0.617   2.243  16.817  0.1986  0.6306  0.0345
 3914SOL     OW23374   2.616   1.313   2.924  0.1934  0.0469  0.5840
 3914SOL    HW123375   2.531   1.310   2.967 -1.1771  0.2230 -2.1078
 3914SOL    HW223376   2.671   1.254   2.976  0.1476  0.3519  0.9768
 3915SOL     OW23377   0.136   3.841   3.805 -0.1418  0.4027  0.0960
 3915SOL    HW123378   0.066   3.906   3.802 -0.4596  0.0490 -0.1034
 3915SOL    HW223379   0.132   3.811   3.714  0.7778  0.6857 -0.0455
 3916SOL     OW23380   3.937   1.792   7.142 -0.3435 -0.6709 -0.3089
 3916SOL    HW123381   4.023   1.831   7.157 -1.8331  1.1441  3.3281
 3916SOL    HW223382   3.887   1.864   7.103  1.2104  0.9132  0.6408
 3917SOL     OW23383   4.313   1.017   3.836  0.8129  0.1804  0.0284
 3917SOL    HW123384   4.274   1.067   3.908 -0.0567  0.7886 -0.8805
 3917SOL    HW223385   4.389   1.072   3.816  1.0797 -0.4640 -0.7455
 3918SOL     OW23386   4.694   1.573   2.322 -0.0143  0.0437  0.4746
 3918SOL    HW123387   4.701   1.568   2.226 -0.0508  0.7991  0.4370
 3918SOL    HW223388   4.600   1.559   2.334  1.0688 -4.0988  3.9903
 3919SOL     OW23389   2.596   3.387   5.693 -0.4502 -0.1424 -0.0269
 3919SOL    HW123390   2.655   3.417   5.763 -0.7212  0.8326 -0.2104
 3919SOL    HW223391   2.546   3.455   5.649  0.2356  0.8474  0.7126
 3920SOL     OW23392   0.958   1.445   8.002 -0.3369 -0.7178  0.0415
 3920SOL    HW123393   1.038   1.485   7.968  0.0729 -0.1853  1.6436
 3920SOL    HW223394   0.885   1.504   7.980  1.4843  0.5851 -2.5286
 3921SOL     OW23395   3.011   1.209  14.300 -0.5169 -0.6496  0.1030
 3921SOL    HW123396   2.947   1.170  14.360 -1.5218 -0.1414 -0.6272
 3921SOL    HW223397   3.054   1.262  14.367  2.7540 -3.1439 -0.0086
 3922SOL     OW23398   4.564   1.758  11.154  0.1552 -0.1821 -0.4365
 3922SOL    HW123399   4.531   1.668  11.161  1.3026 -0.8472 -3.7684
 3922SOL    HW223400   4.657   1.738  11.158  0.2410  0.1597 -0.7759
 3923SOL     OW23401   0.382   1.023   1.937  0.0419  0.7740 -0.0646
 3923SOL    HW123402   0.389   1.094   2.001  2.9565  1.4479 -1.1497
 3923SOL    HW223403   0.352   0.952   1.994  1.4941 -0.8458 -1.3187
 3924SOL     OW23404   3.509   4.420  15.508  0.1145 -0.2755  0.0953
 3924SOL    HW123405   3.558   4.361  15.564  0.4610  1.6997  1.8688
 3924SOL    HW223406   3.431   4.428  15.563  0.1805 -0.4200  0.2066
 3925SOL     OW23407   3.698   1.685   3.596 -0.8264 -0.0172  0.1398
 3925SOL    HW123408   3.788   1.717   3.588 -0.6769  0.0659  2.2276
 3925SOL    HW223409   3.655   1.722   3.673  0.3823  0.9978  0.3286
 3926SOL     OW23410   2.167   2.554   6.623 -0.0442  0.4789  0.6163
 3926SOL    HW123411   2.230   2.574   6.553 -3.4452  0.5893 -2.4501
 3926SOL    HW223412   2.194   2.464   6.642 -1.0815  0.1326  0.4584
 3927SOL     OW23413   1.654   1.456   6.936 -0.3909 -0.8070 -0.2521
 3927SOL    HW123414   1.678   1.365   6.920  1.2327 -0.0791 -2.0013
 3927SOL    HW223415   1.742   1.487   6.917 -0.5066 -1.3341 -1.6136
 3928SOL     OW23416   1.570   2.368   7.202 -0.4744 -0.0837 -0.3324
 3928SOL    HW123417   1.524   2.376   7.118  0.0809 -0.5272 -0.6753
 3928SOL    HW223418   1.600   2.277   7.198 -0.2896 -0.0949  1.3449
 3929SOL     OW23419   2.475   1.600   2.972  0.8692  0.0277  0.2608
 3929SOL    HW123420   2.458   1.506   2.980  2.3848 -0.4033 -1.7119
 3929SOL    HW223421   2.456   1.605   2.879  0.3643  1.2583  0.4307
 3930SOL     OW23422   2.954   2.330   6.031 -0.0486  0.0368 -0.5523
 3930SOL    HW123423   2.971   2.236   6.037 -0.0450  0.1573  1.2920
 3930SOL    HW223424   3.037   2.361   5.994  1.0648 -0.4110  1.5848
 3931SOL     OW23425   3.656   4.176   5.887  0.2257  0.3464  0.3341
 3931SOL    HW123426   3.727   4.113   5.878  0.6123  0.4168  2.9458
 3931SOL    HW223427   3.673   4.215   5.973  0.9191  2.2546 -0.6626
 3932SOL     OW23428   0.808   3.146  11.944 -0.1308  0.6363 -0.0778
 3932SOL    HW123429   0.748   3.215  11.971 -0.0389  0.5984  0.2302
 3932SOL    HW223430   0.894   3.174  11.978 -0.1018 -0.1196  0.4687
 3933SOL     OW23431   0.049   4.441  11.301 -0.0679 -0.5364  0.3679
 3933SOL    HW123432   0.034   4.505  11.372  0.7944 -0.4406  0.4607
 3933SOL    HW223433   0.137   4.469  11.277  0.2391 -1.2713  0.6546
 3934SOL     OW23434   1.609   2.384   7.678 -0.0314 -0.0070  0.3092
 3934SOL    HW123435   1.630   2.294   7.653 -0.9493 -0.2522  0.4245
 3934SOL    HW223436   1.513   2.388   7.685  0.0930  2.2249  0.5779
 3935SOL     OW23437   0.193   0.006   4.984 -0.3833 -0.5327  0.7075
 3935SOL    HW123438   0.195   0.079   4.923 -2.7941  0.0848  1.3721
 3935SOL    HW223439   0.264   0.018   5.047  0.6275  0.2085 -0.6033
 3936SOL     OW23440   1.235   4.593  14.760 -0.4996  0.0929 -0.1753
 3936SOL    HW123441   1.221   4.683  14.789  1.6290  0.5414 -0.5569
 3936SOL    HW223442   1.234   4.604  14.665  0.2952 -4.4387 -0.7209
 3937SOL     OW23443   0.763   2.258   9.431  0.2898  0.4185  0.3453
 3937SOL    HW123444   0.678   2.237   9.470  0.0362  0.8139  0.0082
 3937SOL    HW223445   0.816   2.188   9.470 -0.7917 -0.7825 -0.3050
 3938SOL     OW23446   2.095   4.350   3.179 -0.2437  0.0883  0.2413
 3938SOL    HW123447   2.178   4.398   3.181 -0.1052 -0.0810 -1.6834
 3938SOL    HW223448   2.130   4.271   3.220  0.9523 -0.5061 -1.9443
 3939SOL     OW23449   0.692   3.642   8.395 -0.1799  0.4749 -0.2058
 3939SOL    HW123450   0.753   3.659   8.467 -0.0963  1.2321 -0.4553
 3939SOL    HW223451   0.685   3.729   8.356  0.3113  2.2470  3.6206
 3940SOL     OW23452   2.423   1.679   4.463 -0.0042  0.5513 -0.4844
 3940SOL    HW123453   2.384   1.614   4.404 -1.0228  0.3106  0.4643
 3940SOL    HW223454   2.461   1.624   4.530 -0.8218 -1.4026 -1.6121
 3941SOL     OW23455   4.337   1.398   4.253  0.4698 -0.4451  0.3167
 3941SOL    HW123456   4.250   1.437   4.248  0.3531 -0.7726 -0.2094
 3941SOL    HW223457   4.351   1.409   4.347  0.3305  1.1389  0.1558
 3942SOL     OW23458   3.198   4.365   2.072 -0.5225 -0.2068 -0.2848
 3942SOL    HW123459   3.131   4.369   2.004  0.5536  3.3414 -1.1834
 3942SOL    HW223460   3.263   4.419   2.027  2.0190  0.8628  4.7011
 3943SOL     OW23461   4.370   4.184   5.390  0.7586  0.2168 -0.3599
 3943SOL    HW123462   4.293   4.139   5.357  1.6909 -1.4187 -0.3153
 3943SOL    HW223463   4.348   4.276   5.379 -0.4676 -0.2536 -1.7383
 3944SOL     OW23464   0.138   1.007   3.415 -0.4564  0.4820  0.3625
 3944SOL    HW123465   0.129   1.027   3.321  0.9668  0.1248  0.1537
 3944SOL    HW223466   0.232   0.991   3.425 -0.6922 -0.2481  1.3640
 3945SOL     OW23467   1.901   4.670   3.820 -0.4937  0.9483  0.2678
 3945SOL    HW123468   1.992   4.645   3.805 -0.3760  0.6199  1.5480
 3945SOL    HW223469   1.897   4.628   3.906 -0.4486 -0.5638 -0.4634
 3946SOL     OW23470   3.047   1.804   3.446  0.3512  0.4529 -0.0490
 3946SOL    HW123471   3.018   1.714   3.456  1.4649  0.3074  1.9656
 3946SOL    HW223472   3.080   1.803   3.356  2.0741  0.7675  0.5658
 3947SOL     OW23473   3.943   1.365   1.848  0.5000  0.6283  0.3455
 3947SOL    HW123474   3.868   1.319   1.811  0.3963  1.7441 -0.8327
 3947SOL    HW223475   4.012   1.299   1.849 -0.6230 -0.5343 -0.4998
 3948SOL     OW23476   2.437   4.357   6.652  1.1076 -0.4677 -1.0034
 3948SOL    HW123477   2.498   4.331   6.583  1.3937 -0.7183 -0.6522
 3948SOL    HW223478   2.451   4.452   6.654 -2.9784  0.1595 -1.6896
 3949SOL     OW23479   3.485   3.248   2.490 -0.4905  0.0902  0.0964
 3949SOL    HW123480   3.423   3.266   2.561 -0.2073  1.2273  0.0442
 3949SOL    HW223481   3.435   3.176   2.451 -0.1767 -0.6116  0.9695
 3950SOL     OW23482   2.641   3.226   9.121 -0.2306  0.6569 -0.2512
 3950SOL    HW123483   2.596   3.291   9.174 -1.6988 -0.5167 -0.0658
 3950SOL    HW223484   2.570   3.164   9.106  0.0259  0.1943  0.4881
 3951SOL     OW23485   2.696   2.432   1.999 -0.4855  0.4927 -0.1788
 3951SOL    HW123486   2.775   2.465   1.957 -0.2846  0.8539  0.4805
 3951SOL    HW223487   2.635   2.417   1.927  1.3998 -0.3248 -1.5963
 3952SOL     OW23488   2.163   0.582   5.481 -0.0339 -0.0195  0.1434
 3952SOL    HW123489   2.094   0.622   5.533 -0.1023 -0.9821  0.7868
 3952SOL    HW223490   2.128   0.573   5.392 -0.2887  0.1155  0.2325
 3953SOL     OW23491   1.127   2.048   4.992  0.1689 -0.7630 -0.3437
 3953SOL    HW123492   1.163   2.134   5.012 -1.1878  0.0160 -1.2970
 3953SOL    HW223493   1.195   2.008   4.938  1.1343  1.0744 -0.4903
 3954SOL     OW23494   1.858   0.778   7.292 -0.3486  0.0910 -0.0908
 3954SOL    HW123495   1.950   0.763   7.269  0.1236  2.6411  0.1111
 3954SOL    HW223496   1.867   0.764   7.386  0.5091  2.1284  0.1350
 3955SOL     OW23497   2.538   3.540   3.323  0.5002 -0.8057  0.3369
 3955SOL    HW123498   2.623   3.578   3.298  0.2067 -0.7211 -0.5403
 3955SOL    HW223499   2.556   3.466   3.381  1.0118 -2.2884 -1.7477
 3956SOL     OW23500   1.679   3.278   4.257  0.1509  0.0946  0.2747
 3956SOL    HW123501   1.667   3.215   4.186  4.0816 -0.2754 -0.0327
 3956SOL    HW223502   1.750   3.330   4.221 -1.1536  2.0522  0.4979
 3957SOL     OW23503   1.040   0.780   2.069 -0.2743  0.1929  0.2981
 3957SOL    HW123504   1.039   0.690   2.038 -2.1974 -0.0411  1.0451
 3957SOL    HW223505   1.091   0.774   2.150  0.9075 -0.5928 -0.5097
 3958SOL     OW23506   2.948   2.502   3.810 -0.3295 -0.0310  0.3529
 3958SOL    HW123507   2.904   2.564   3.752  1.1440  0.7932  0.1005
 3958SOL    HW223508   2.880   2.437   3.826  0.7722 -1.3727 -0.4653
 3959SOL     OW23509   3.126   0.983   4.572 -0.1857 -0.6579  0.0430
 3959SOL    HW123510   3.164   0.973   4.659 -0.8480 -0.1449  0.3917
 3959SOL    HW223511   3.205   0.999   4.520 -0.3391  1.1571  0.3504
 3960SOL     OW23512   4.178   4.053   5.269 -0.9882 -0.1584  0.2798
 3960SOL    HW123513   4.161   4.034   5.177  1.5663 -0.1149 -0.1927
 3960SOL    HW223514   4.090   4.028   5.296 -0.9981 -0.6686 -0.2535
 3961SOL     OW23515   4.140   2.225   5.089  0.3620 -0.5463 -0.3564
 3961SOL    HW123516   4.181   2.310   5.107  0.7657 -0.4291 -1.8002
 3961SOL    HW223517   4.108   2.209   5.178  0.0955  0.0913 -0.3411
 3962SOL     OW23518   0.240   3.695   0.157 -0.3029  0.3166  0.4011
 3962SOL    HW123519   0.307   3.628   0.165 -1.1417 -0.4157  1.2893
 3962SOL    HW223520   0.293   3.767   0.122  1.0801 -0.5845  0.6513
 3963SOL     OW23521   4.680   3.191  16.820  0.2380 -0.2129  0.0304
 3963SOL    HW123522   4.725   3.150  16.746  1.2163  0.2995  0.3465
 3963SOL    HW223523   4.705   3.127  16.886  3.0698  1.1885  0.2853
 3964SOL     OW23524   1.414   2.372  16.982 -0.1667 -0.1377  0.4001
 3964SOL    HW123525   1.377   2.459  17.001 -0.3545 -0.4596  1.5241
 3964SOL    HW223526   1.344   2.340  16.925 -0.1501  0.6691 -0.0707
 3965SOL     OW23527   1.901   0.876   2.736 -0.3306  0.2672 -0.1143
 3965SOL    HW123528   1.967   0.857   2.802 -2.7330  1.3503  2.5772
 3965SOL    HW223529   1.953   0.930   2.676 -0.7339 -0.8421 -1.4829
 3966SOL     OW23530   3.197   0.049   3.603  0.0658 -0.3875  0.0931
 3966SOL    HW123531   3.128   0.113   3.593  1.0135  0.6098 -0.0433
 3966SOL    HW223532   3.132   4.718   3.605 -1.5192  1.0856 -0.7364
 3967SOL     OW23533   0.773   3.460   0.956  0.9056  0.1484 -0.3422
 3967SOL    HW123534   0.799   3.368   0.952 -0.9949 -0.4650  1.6661
 3967SOL    HW223535   0.825   3.502   1.025  0.4761 -0.1188  0.1371
 3968SOL     OW23536   4.658   3.767   2.996 -0.1287  0.0570  0.4810
 3968SOL    HW123537   4.575   3.766   2.948 -0.0312 -1.4946  0.3290
 3968SOL    HW223538   4.722   3.742   2.929 -0.9862 -1.6404  0.2713
 3969SOL     OW23539   1.953   1.330   4.806  0.1068 -0.1514 -0.0587
 3969SOL    HW123540   1.909   1.295   4.728  1.8752 -0.0033 -1.1229
 3969SOL    HW223541   1.964   1.420   4.778 -2.0360 -0.2926 -1.3097
 3970SOL     OW23542   3.639   2.549  15.276 -0.3733  0.2208 -1.0469
 3970SOL    HW123543   3.602   2.586  15.196 -0.1544 -1.5207 -1.9615
 3970SOL    HW223544   3.564   2.527  15.331  0.5117  0.9437  0.4563
 3971SOL     OW23545   2.289   3.337   0.469  0.3986 -0.1390  0.2025
 3971SOL    HW123546   2.265   3.427   0.493  1.4695 -0.0037  0.7637
 3971SOL    HW223547   2.344   3.316   0.544  0.2962  1.6783  0.7971
 3972SOL     OW23548   1.849   1.666   6.618 -0.5071  0.1537  0.4531
 3972SOL    HW123549   1.831   1.587   6.568 -0.5958 -0.3616  1.2984
 3972SOL    HW223550   1.848   1.633   6.708 -0.9928  1.8067  1.0512
 3973SOL     OW23551   3.248   4.462   5.866 -0.3822  0.1672  0.2564
 3973SOL    HW123552   3.313   4.392   5.875 -0.2159  0.3862  0.7365
 3973SOL    HW223553   3.171   4.406   5.857  0.2645 -0.8888  1.3550
 3974SOL     OW23554   4.005   2.938  12.450  0.4664  0.2429  0.4542
 3974SOL    HW123555   4.043   2.850  12.449 -0.6506 -0.2127 -1.7881
 3974SOL    HW223556   4.088   2.979  12.424  0.3594 -0.3431 -0.8080
 3975SOL     OW23557   4.410   0.867   0.742 -0.0423 -0.7216 -0.4828
 3975SOL    HW123558   4.338   0.874   0.678  0.9749 -2.1116 -1.7938
 3975SOL    HW223559   4.417   0.773   0.758 -0.0280 -0.7883 -0.8648
 3976SOL     OW23560   1.659   2.693   0.492  0.1110  0.0171  0.1658
 3976SOL    HW123561   1.742   2.676   0.536  0.1476 -2.6696 -0.9004
 3976SOL    HW223562   1.688   2.771   0.445 -2.8867 -0.1599 -1.9698
 3977SOL     OW23563   0.234   3.347   3.309  0.7286  0.2597  0.0549
 3977SOL    HW123564   0.284   3.366   3.230  0.8633 -0.1499  0.0437
 3977SOL    HW223565   0.165   3.409   3.287 -0.5032 -0.0798  2.9659
 3978SOL     OW23566   3.321   2.638   4.132  0.8505  0.2450  0.2686
 3978SOL    HW123567   3.240   2.610   4.090  0.3583 -0.1310  1.4742
 3978SOL    HW223568   3.374   2.559   4.136  1.4725  0.7009  1.3206
 3979SOL     OW23569   2.642   4.252   2.721 -0.1329 -0.1136  0.4864
 3979SOL    HW123570   2.701   4.193   2.674 -0.5871 -0.9827  0.9969
 3979SOL    HW223571   2.695   4.257   2.801  0.8341  4.4093 -0.4379
 3980SOL     OW23572   1.686   3.348   6.272 -0.1736  0.3000 -0.1329
 3980SOL    HW123573   1.679   3.362   6.177  0.5528  1.3082 -0.0438
 3980SOL    HW223574   1.641   3.264   6.281  0.4700 -0.3576 -3.0115
 3981SOL     OW23575   2.885   2.674   2.788  0.0889  0.5784  0.1058
 3981SOL    HW123576   2.968   2.718   2.771  0.8791 -1.4540 -1.2494
 3981SOL    HW223577   2.928   2.597   2.827 -0.6759  1.3233  2.4132
 3982SOL     OW23578   1.309   2.829   4.445 -0.4175  0.8269  0.2288
 3982SOL    HW123579   1.266   2.763   4.500  1.9416  0.9704  2.2681
 3982SOL    HW223580   1.306   2.789   4.358 -0.3032  0.8295  0.2239
 3983SOL     OW23581   0.596   2.987   5.009 -0.0120 -0.1806  0.1056
 3983SOL    HW123582   0.618   3.011   4.919 -0.5520  1.6378  0.4524
 3983SOL    HW223583   0.518   3.043   5.016 -0.5623 -0.8354 -0.8305
 3984SOL     OW23584   1.156   3.259   5.311  0.4787 -0.8596  0.1297
 3984SOL    HW123585   1.193   3.307   5.237  1.7169 -0.8638  0.7399
 3984SOL    HW223586   1.088   3.200   5.279 -0.9345 -1.1839  3.7378
 3985SOL     OW23587   1.789   1.642   2.719  0.3504 -0.4098  0.3517
 3985SOL    HW123588   1.815   1.577   2.654  0.4546  0.6353 -0.6582
 3985SOL    HW223589   1.868   1.693   2.740  1.9532 -3.0451  0.7799
 3986SOL     OW23590   1.365   3.766   3.299  0.2191  0.4750 -0.0170
 3986SOL    HW123591   1.307   3.743   3.227  2.3296 -1.4136 -1.1308
 3986SOL    HW223592   1.357   3.862   3.301  0.8992  0.5223  0.4158
 3987SOL     OW23593   2.893   1.651   6.046  0.0373 -0.0573  0.3093
 3987SOL    HW123594   2.968   1.648   5.986  0.7102  0.8734  1.0860
 3987SOL    HW223595   2.915   1.577   6.103  1.9736  0.6935  0.5499
 3988SOL     OW23596   1.884   4.592  13.734 -0.7252  0.6398  0.3555
 3988SOL    HW123597   1.875   4.652  13.660  1.9547  0.6890  0.0662
 3988SOL    HW223598   1.946   4.527  13.702 -1.3997  0.1105  0.1351
 3989SOL     OW23599   0.564   3.242   8.850 -0.8112  0.4228 -0.4207
 3989SOL    HW123600   0.511   3.167   8.877 -0.1727  0.9617  2.3394
 3989SOL    HW223601   0.540   3.233   8.757  0.4589 -2.1617 -0.5227
 3990SOL     OW23602   3.388   0.283   7.389  0.4021  0.4456 -0.0597
 3990SOL    HW123603   3.371   0.351   7.324 -2.5638 -0.4077 -0.1901
 3990SOL    HW223604   3.296   0.268   7.412  0.4586  1.5271  0.8713
 3991SOL     OW23605   2.293   2.691   4.614  0.6690 -0.1430 -0.0153
 3991SOL    HW123606   2.360   2.672   4.548  0.7369 -0.5944  0.1883
 3991SOL    HW223607   2.347   2.724   4.685  1.3052 -0.0891 -0.5267
 3992SOL     OW23608   0.675   4.721   3.128  0.1760 -0.1264  0.4505
 3992SOL    HW123609   0.655   4.734   3.220  1.9137 -0.8687  0.9414
 3992SOL    HW223610   0.731   0.057   3.110 -1.0506  0.5942 -0.2534
 3993SOL     OW23611   3.390   2.358   3.461  0.0881 -0.1859  0.4899
 3993SOL    HW123612   3.390   2.318   3.374  2.0317 -0.5784  0.6670
 3993SOL    HW223613   3.356   2.289   3.517  1.6910 -2.1560 -0.9209
 3994SOL     OW23614   4.206   4.410   3.211  0.1935  0.4000  0.0430
 3994SOL    HW123615   4.198   4.480   3.146  0.4614  0.1370 -0.2678
 3994SOL    HW223616   4.153   4.428   3.289 -1.2464 -0.9278 -0.6490
 3995SOL     OW23617   3.751   3.884   7.319 -0.0908  0.2934  0.2637
 3995SOL    HW123618   3.836   3.857   7.353  0.5348  0.6445 -1.0153
 3995SOL    HW223619   3.690   3.871   7.391  1.2683 -0.8172  1.2156
 3996SOL     OW23620   2.633   4.043   1.013 -0.1555 -0.3108  0.0859
 3996SOL    HW123621   2.588   4.073   0.933  0.9924  1.9309  0.2888
 3996SOL    HW223622   2.715   4.093   1.012 -1.5234  1.8909 -1.7815
 3997SOL     OW23623   2.931   2.409   7.047 -0.6757  0.7361  0.1390
 3997SOL    HW123624   3.006   2.381   7.100  0.1056 -0.3137 -1.5285
 3997SOL    HW223625   2.898   2.332   7.003  0.1276  1.4809 -1.7570
 3998SOL     OW23626   3.476   0.661  12.243  0.0489 -0.2244 -0.3821
 3998SOL    HW123627   3.528   0.709  12.179 -0.3298  1.1572  0.3566
 3998SOL    HW223628   3.532   0.583  12.251  0.5820  0.0240 -1.8317
 3999SOL     OW23629   1.801   2.144  15.162  0.8779 -0.1589 -0.4152
 3999SOL    HW123630   1.716   2.117  15.195  0.4909 -1.4299 -2.4741
 3999SOL    HW223631   1.803   2.099  15.077  3.0265 -1.2062  0.1781
 4000SOL     OW23632   1.934   0.658   5.695  0.1034  0.5349 -0.4520
 4000SOL    HW123633   1.870   0.609   5.644 -0.5562  1.4017 -0.4419
 4000SOL    HW223634   1.886   0.740   5.702 -1.2718 -0.1343 -1.9205
 4001SOL     OW23635   0.278   0.479   7.848  0.0172  0.6003 -0.2937
 4001SOL    HW123636   0.363   0.513   7.876  0.8700 -3.3295  2.0133
 4001SOL    HW223637   0.254   0.549   7.788  0.1566  1.4880  0.6918
 4002SOL     OW23638   2.639   1.352   6.597 -0.3999 -0.8769 -0.5382
 4002SOL    HW123639   2.733   1.365   6.594 -0.6348  0.7864 -0.5736
 4002SOL    HW223640   2.639   1.313   6.685 -2.5332 -0.5798 -0.4084
 4003SOL     OW23641   0.040   1.517   6.259 -0.2461 -0.5718  0.3727
 4003SOL    HW123642   0.076   1.433   6.287 -0.3327 -1.3497 -1.8904
 4003SOL    HW223643   0.061   1.524   6.166  2.9274 -2.2052  0.9701
 4004SOL     OW23644   0.153   3.017  16.493 -0.9579 -0.1806  0.4627
 4004SOL    HW123645   0.091   3.072  16.446  0.9889  1.4434 -0.2099
 4004SOL    HW223646   0.219   3.007  16.423  0.3333  1.4620  1.4396
 4005SOL     OW23647   4.720   1.171  11.946 -0.0129  0.3750 -0.1226
 4005SOL    HW123648   4.709   1.263  11.970 -2.4195 -0.0945  0.5702
 4005SOL    HW223649   0.004   1.129  12.028  0.3517  0.7110 -0.0561
 4006SOL     OW23650   3.411   0.464   3.543  0.1681  0.4610 -0.5234
 4006SOL    HW123651   3.350   0.487   3.474 -1.0008  0.3819  0.4739
 4006SOL    HW223652   3.492   0.430   3.504  0.6157  0.3363  0.4957
 4007SOL     OW23653   2.018   4.613  16.760 -0.2840 -0.2475  0.2058
 4007SOL    HW123654   1.995   4.538  16.706  0.6189  0.2853 -0.9296
 4007SOL    HW223655   1.971   4.592  16.840 -0.4531 -0.8764 -0.0604
 4008SOL     OW23656   3.971   1.001   6.470 -0.3373 -0.3947 -0.4547
 4008SOL    HW123657   3.942   0.915   6.441 -1.5977  0.0286 -0.4201
 4008SOL    HW223658   4.044   0.979   6.529 -0.3704  0.4158 -0.1056
 4009SOL     OW23659   2.577   3.834  13.018 -0.5940 -0.1578 -0.8797
 4009SOL    HW123660   2.651   3.836  12.957  0.0386 -0.9275 -0.1279
 4009SOL    HW223661   2.596   3.753  13.065 -1.2190  0.6555  0.7890
 4010SOL     OW23662   4.066   2.644  10.089 -0.3855 -0.2841 -0.0299
 4010SOL    HW123663   4.115   2.717  10.050 -0.1297 -0.5189 -0.1403
 4010SOL    HW223664   4.117   2.572  10.053 -0.0244 -0.3582  0.6315
 4011SOL     OW23665   0.036   4.109   4.565 -0.7312  0.6702  0.0216
 4011SOL    HW123666   0.010   4.030   4.516  0.9267  0.7833 -1.0285
 4011SOL    HW223667   4.709   4.112   4.634  0.5419 -0.7657  1.3004
 4012SOL     OW23668   1.195   2.695  10.237  0.1781 -0.0467  0.8887
 4012SOL    HW123669   1.108   2.661  10.217  1.3269 -1.2091 -2.1514
 4012SOL    HW223670   1.180   2.788  10.218 -0.7172  0.1178  2.3294
 4013SOL     OW23671   1.103   0.614  11.010 -0.1862  0.4209  0.1616
 4013SOL    HW123672   1.015   0.650  11.018 -0.8571 -1.4454  1.1404
 4013SOL    HW223673   1.090   0.596  10.917 -0.7516 -0.1804  0.3617
 4014SOL     OW23674   1.276   0.052   9.446 -0.0170  0.3441 -0.0418
 4014SOL    HW123675   1.233   0.077   9.528 -1.1523 -0.5022 -0.3678
 4014SOL    HW223676   1.362   0.092   9.457 -0.0428 -0.1254  1.9442
 4015SOL     OW23677   4.060   0.774   3.289  0.1113 -0.1167 -0.2848
 4015SOL    HW123678   4.094   0.864   3.289  0.9720 -0.4411  1.6569
 4015SOL    HW223679   4.123   0.727   3.235 -0.9443 -0.9144 -0.8094
 4016SOL     OW23680   3.959   2.948   3.232 -0.6228  0.0886 -0.1074
 4016SOL    HW123681   3.932   2.866   3.189 -0.5640  1.3462 -2.5498
 4016SOL    HW223682   4.035   2.914   3.278 -0.6053  0.6874  0.3016
 4017SOL     OW23683   3.264   1.148   7.281 -0.2231 -0.3817 -0.0629
 4017SOL    HW123684   3.241   1.088   7.352  1.7983 -0.2787  0.6727
 4017SOL    HW223685   3.221   1.114   7.202  0.6010 -0.7883 -0.3411
 4018SOL     OW23686   3.959   2.689  11.212  0.8386 -0.6554 -0.1199
 4018SOL    HW123687   3.950   2.728  11.299 -0.8505 -0.9945 -0.1612
 4018SOL    HW223688   3.870   2.692  11.178  0.3255 -0.4141  1.2462
 4019SOL     OW23689   3.188   1.116   0.458  0.0085 -0.0672  0.1698
 4019SOL    HW123690   3.193   1.181   0.387 -0.4125 -0.0802  0.1288
 4019SOL    HW223691   3.157   1.158   0.538  0.1119  0.5931 -0.1329
 4020SOL     OW23692   4.468   1.451   5.712  0.9743  0.5846  0.4408
 4020SOL    HW123693   4.415   1.442   5.792  1.1478 -2.5899  0.1881
 4020SOL    HW223694   4.503   1.539   5.722  1.2979  0.6633 -1.5485
 4021SOL     OW23695   4.556   2.094   9.712 -0.2012  0.2917 -0.2886
 4021SOL    HW123696   4.485   2.157   9.699 -0.1836  0.0818 -1.4406
 4021SOL    HW223697   4.608   2.152   9.768 -0.7778  2.0318 -1.5392
 4022SOL     OW23698   3.877   1.529   5.450  0.3121  0.4982  0.1265
 4022SOL    HW123699   3.958   1.576   5.471 -0.7843  1.5227  2.0621
 4022SOL    HW223700   3.842   1.579   5.376 -0.2522 -0.4893 -0.2664
 4023SOL     OW23701   2.289   1.548  14.907  0.1736 -0.1992 -0.5555
 4023SOL    HW123702   2.223   1.491  14.870 -2.8170  2.3108  0.8753
 4023SOL    HW223703   2.313   1.604  14.834 -0.5295  0.5264 -0.2322
 4024SOL     OW23704   3.013   0.751   7.942 -0.3054 -0.0707 -0.0951
 4024SOL    HW123705   2.938   0.692   7.955  0.2198 -0.6819  0.1394
 4024SOL    HW223706   3.082   0.699   7.984 -0.7063 -0.1439  0.4771
 4025SOL     OW23707   4.307   2.563   2.175  0.1396  0.1480  0.3586
 4025SOL    HW123708   4.362   2.616   2.118  0.1475  1.1586  1.2961
 4025SOL    HW223709   4.224   2.588   2.134 -0.0156  0.3270  0.7828
 4026SOL     OW23710   3.046   1.599   0.069 -0.0632  0.2230  0.0765
 4026SOL    HW123711   3.077   1.516   0.033  0.7739  0.0051  1.3079
 4026SOL    HW223712   3.082   1.597   0.158  1.0390 -0.4601 -0.3771
 4027SOL     OW23713   2.381   1.559  16.572 -0.5017  0.3767  0.4090
 4027SOL    HW123714   2.346   1.549  16.661  0.6148  2.6551  1.0998
 4027SOL    HW223715   2.440   1.483  16.571  1.1558  1.6896 -1.9907
 4028SOL     OW23716   2.507   4.019   8.284  0.3328  0.3832  0.2734
 4028SOL    HW123717   2.501   4.114   8.274  0.4568  0.2672 -0.9926
 4028SOL    HW223718   2.416   3.995   8.302  0.0585  0.1319 -1.4098
 4029SOL     OW23719   3.472   4.292  14.744  0.4645  0.4724  0.4022
 4029SOL    HW123720   3.468   4.323  14.835 -0.3507  1.2728  0.0935
 4029SOL    HW223721   3.538   4.350  14.707  1.0460 -1.2387 -1.2574
 4030SOL     OW23722   1.888   1.848   7.396  0.6088 -0.3877 -0.3503
 4030SOL    HW123723   1.970   1.883   7.360 -0.2858  0.8707 -1.1621
 4030SOL    HW223724   1.926   1.791   7.463  2.1007  0.1986 -0.7082
 4031SOL     OW23725   1.850   4.663   9.283 -0.7030  0.4163  0.4894
 4031SOL    HW123726   1.835   4.592   9.220  1.7666 -0.2778  0.6574
 4031SOL    HW223727   1.945   4.672   9.288 -0.5010 -0.9020 -0.9324
 4032SOL     OW23728   1.519   3.579   7.352  0.0930  0.2096  0.3732
 4032SOL    HW123729   1.445   3.543   7.303 -0.4335  0.4494  1.0041
 4032SOL    HW223730   1.588   3.578   7.285 -0.4854  0.5621 -0.2345
 4033SOL     OW23731   1.928   3.405   1.424 -0.4124  0.1721  0.3306
 4033SOL    HW123732   1.936   3.350   1.502 -1.5367 -0.0503  0.2999
 4033SOL    HW223733   2.016   3.442   1.418  0.0650 -0.7660  1.5413
 4034SOL     OW23734   4.539   3.024   2.620  0.3532 -0.0259 -0.3663
 4034SOL    HW123735   4.515   3.067   2.703  2.1635 -3.1916  1.7665
 4034SOL    HW223736   4.617   3.077   2.602 -0.5641  1.3086 -0.4473
 4035SOL     OW23737   0.716   1.520   5.428 -0.0400  0.3483  0.0955
 4035SOL    HW123738   0.689   1.444   5.377  0.4725 -0.3323  0.8570
 4035SOL    HW223739   0.649   1.589   5.427 -0.6638 -0.2481  2.2061
 4036SOL     OW23740   3.181   1.612   8.806 -0.8000 -0.5177 -0.1923
 4036SOL    HW123741   3.236   1.662   8.745 -0.4090 -1.6732 -0.7982
 4036SOL    HW223742   3.208   1.530   8.765  0.8875 -0.0944  0.0633
 4037SOL     OW23743   1.265   3.902   7.538 -0.3334  0.0941  0.0601
 4037SOL    HW123744   1.296   3.890   7.448 -1.8091 -1.6530 -0.2182
 4037SOL    HW223745   1.302   3.990   7.547  0.2011 -0.0819 -0.4462
 4038SOL     OW23746   0.980   3.995  12.854 -0.4723  0.8273  0.0885
 4038SOL    HW123747   0.893   4.035  12.851 -1.2249 -0.7777  0.3468
 4038SOL    HW223748   1.016   4.047  12.783  0.4646  1.7571  1.2513
 4039SOL     OW23749   1.356   1.449   6.756  0.1520 -0.1000  0.0140
 4039SOL    HW123750   1.385   1.362   6.785  1.2973  0.1458 -0.3859
 4039SOL    HW223751   1.260   1.448   6.763 -0.0415  1.7369 -2.1125
 4040SOL     OW23752   2.987   4.678  11.693  0.2623  0.0478 -0.2153
 4040SOL    HW123753   2.930   4.615  11.737  1.1668 -1.0781 -0.6586
 4040SOL    HW223754   3.066   4.625  11.679 -1.2785 -1.9553 -1.4408
 4041SOL     OW23755   0.729   3.831   3.154 -0.2077 -0.3302  0.3158
 4041SOL    HW123756   0.691   3.823   3.242 -0.8362  1.3768  0.1942
 4041SOL    HW223757   0.797   3.896   3.170 -1.3460  1.1622 -0.9585
 4042SOL     OW23758   2.453   1.897  13.642 -0.4935  0.5218  0.3298
 4042SOL    HW123759   2.474   1.981  13.602  1.0304  0.1036  0.2361
 4042SOL    HW223760   2.378   1.925  13.695  0.5205 -1.6983  2.9290
 4043SOL     OW23761   0.279   3.385  11.865 -0.7395  0.6315  0.1960
 4043SOL    HW123762   0.254   3.293  11.873  1.5439 -0.0219 -0.3364
 4043SOL    HW223763   0.322   3.406  11.947  0.7533 -2.0729  0.1123
 4044SOL     OW23764   1.251   3.438   0.835 -0.2161  0.1113 -0.2669
 4044SOL    HW123765   1.183   3.386   0.879 -1.0401  0.8220 -0.7113
 4044SOL    HW223766   1.307   3.364   0.811  1.0830 -0.0231  3.1698
 4045SOL     OW23767   2.389   0.512   2.090  0.2605  0.3603 -0.1916
 4045SOL    HW123768   2.313   0.561   2.060 -0.1662 -0.4957 -0.4934
 4045SOL    HW223769   2.413   0.445   2.026 -1.2818 -1.1022  0.7568
 4046SOL     OW23770   1.208   3.814   2.386 -0.3759 -0.2170 -0.3944
 4046SOL    HW123771   1.273   3.841   2.451  0.2096 -0.3046 -0.9391
 4046SOL    HW223772   1.197   3.903   2.351 -1.5020 -0.4666 -0.6396
 4047SOL     OW23773   1.444   4.249  16.054  0.3879  0.2395 -0.1349
 4047SOL    HW123774   1.500   4.310  16.006  0.4605  0.6004  0.4140
 4047SOL    HW223775   1.407   4.206  15.977  0.4226  2.2186 -1.2710
 4048SOL     OW23776   0.248   2.907   6.310 -0.5102 -0.5816  0.1789
 4048SOL    HW123777   0.217   2.880   6.223  2.3001  1.3297 -1.3980
 4048SOL    HW223778   0.177   2.970   6.321  0.1024 -0.0104  0.7709
 4049SOL     OW23779   3.091   2.196  11.414  0.3404 -0.5330  0.3291
 4049SOL    HW123780   3.026   2.134  11.381  0.9000 -1.3126  0.6970
 4049SOL    HW223781   3.037   2.275  11.402  0.0741 -0.9773 -1.4540
 4050SOL     OW23782   0.879   1.004   8.232  0.3159 -0.4274  0.3222
 4050SOL    HW123783   0.872   1.069   8.302  1.4175 -0.0812  0.1207
 4050SOL    HW223784   0.844   1.048   8.155  1.0526 -0.3471  0.0275
 4051SOL     OW23785   0.857   2.622  11.408 -0.7401 -0.5624  0.9810
 4051SOL    HW123786   0.867   2.542  11.460  1.5466 -0.8176  0.1303
 4051SOL    HW223787   0.927   2.623  11.344 -2.0328 -0.4175 -0.4354
 4052SOL     OW23788   4.062   0.990   8.147  0.4791 -0.1460 -0.4192
 4052SOL    HW123789   4.121   0.988   8.072  2.3809 -2.3863  1.1070
 4052SOL    HW223790   4.026   0.901   8.139 -0.9745  0.5046 -1.0601
 4053SOL     OW23791   2.666   1.973   3.291 -0.1182 -0.5751 -0.5310
 4053SOL    HW123792   2.757   1.976   3.322 -0.2227  3.8999 -0.6197
 4053SOL    HW223793   2.680   1.919   3.214  1.2106  0.4671 -1.0174
 4054SOL     OW23794   1.402   2.121   4.376 -0.1529 -0.4490 -0.5473
 4054SOL    HW123795   1.450   2.188   4.327 -1.6752  0.6371 -0.5699
 4054SOL    HW223796   1.477   2.083   4.421  1.0408 -0.1525 -2.2600
 4055SOL     OW23797   3.095   1.261  12.128 -0.1855 -0.1867 -0.5619
 4055SOL    HW123798   3.009   1.287  12.096 -0.1554  0.3066 -0.2365
 4055SOL    HW223799   3.080   1.267  12.222  1.3090 -2.0572 -0.2087
 4056SOL     OW23800   2.284   3.862   9.246  0.4432 -0.1929  0.3342
 4056SOL    HW123801   2.275   3.867   9.151 -2.0780 -1.3223  0.4932
 4056SOL    HW223802   2.332   3.943   9.262  0.3257 -0.4091  1.7916
 4057SOL     OW23803   1.934   1.079   6.988 -0.2608 -0.2268  0.0087
 4057SOL    HW123804   1.979   1.163   6.985 -2.1363  0.5885 -4.2745
 4057SOL    HW223805   2.012   1.027   6.970 -1.1113 -1.7743  0.7999
 4058SOL     OW23806   4.658   2.956   7.726  0.4089  0.0752  0.3734
 4058SOL    HW123807   4.718   2.998   7.789 -0.6126  0.4903  1.0638
 4058SOL    HW223808   4.628   2.890   7.788 -1.1303  0.3633 -0.0735
 4059SOL     OW23809   4.560   2.731  10.000 -0.1705 -0.1781  0.1548
 4059SOL    HW123810   4.480   2.780  10.019 -0.7591 -0.3466 -1.9411
 4059SOL    HW223811   4.619   2.803   9.981 -0.3561  0.0673  0.5104
 4060SOL     OW23812   4.388   2.865  13.602 -0.5077  0.3168 -0.1701
 4060SOL    HW123813   4.475   2.829  13.585 -0.6670 -0.9315  1.6526
 4060SOL    HW223814   4.366   2.827  13.687  2.4091  0.6058  0.7188
 4061SOL     OW23815   1.295   4.177   6.593 -0.5262 -0.2112  0.0293
 4061SOL    HW123816   1.334   4.227   6.522  1.2124 -1.3022  0.2220
 4061SOL    HW223817   1.220   4.233   6.614  0.3669  0.5805  1.1313
 4062SOL     OW23818   0.664   0.754   7.899  1.0137 -0.1758 -0.4389
 4062SOL    HW123819   0.660   0.748   7.804 -0.7653 -0.9923 -0.2969
 4062SOL    HW223820   0.606   0.830   7.910  0.3348 -0.6927 -0.4804
 4063SOL     OW23821   3.867   0.297  14.247  0.0120  0.1332 -0.3638
 4063SOL    HW123822   3.927   0.235  14.207 -3.2669 -3.7970  0.8596
 4063SOL    HW223823   3.898   0.379  14.209 -0.7279  0.6553  0.1586
 4064SOL     OW23824   3.504   3.437   3.014 -0.3449 -0.4429 -0.0483
 4064SOL    HW123825   3.483   3.530   3.027 -2.6693 -0.7329 -1.6733
 4064SOL    HW223826   3.599   3.442   3.027 -0.7879  0.8280  2.7626
 4065SOL     OW23827   0.388   1.237   3.824  0.2775 -0.0401 -0.1573
 4065SOL    HW123828   0.422   1.237   3.914  1.2379  3.4344 -0.5522
 4065SOL    HW223829   0.400   1.329   3.802  0.1496  0.4899  1.9039
 4066SOL     OW23830   3.406   1.095   1.962  0.4739 -0.1014  0.0812
 4066SOL    HW123831   3.324   1.048   1.946  0.1021  0.7538 -0.5443
 4066SOL    HW223832   3.410   1.155   1.888 -2.3829  0.7671  0.6307
 4067SOL     OW23833   3.360   3.340  12.406  0.7835  0.0213 -0.7555
 4067SOL    HW123834   3.310   3.258  12.407  0.0820  0.4703  0.7274
 4067SOL    HW223835   3.431   3.330  12.469 -1.5178  0.3161  1.9034
 4068SOL     OW23836   4.470   0.984   8.961  0.1144 -0.1379 -0.1685
 4068SOL    HW123837   4.509   0.986   8.874 -0.5620  4.6965 -0.3350
 4068SOL    HW223838   4.523   1.056   8.995  0.9088 -0.9065  0.2113
 4069SOL     OW23839   3.485   3.737   1.284  0.1361  0.3744 -0.2295
 4069SOL    HW123840   3.571   3.742   1.325  0.6639 -0.3735 -1.2521
 4069SOL    HW223841   3.423   3.783   1.341 -0.4518 -1.3190  0.5052
 4070SOL     OW23842   0.811   0.007   4.223  0.7078 -0.0551  0.3652
 4070SOL    HW123843   0.804   4.660   4.264 -0.7436 -0.2131 -0.2052
 4070SOL    HW223844   0.766   0.056   4.292 -0.3048  1.6568 -1.5253
 4071SOL     OW23845   3.735   0.285   9.722 -0.4592  0.4255  0.3742
 4071SOL    HW123846   3.741   0.357   9.659  0.1199  0.3549  0.3437
 4071SOL    HW223847   3.817   0.305   9.768 -1.2359  2.0282  1.0480
 4072SOL     OW23848   3.639   2.212  10.582  0.4345  0.1363  0.1712
 4072SOL    HW123849   3.716   2.225  10.637 -0.2553  2.7977  0.5428
 4072SOL    HW223850   3.563   2.234  10.635 -0.1036  1.6945 -1.2526
 4073SOL     OW23851   0.341   2.251   5.651  0.0679  0.0262  0.3521
 4073SOL    HW123852   0.379   2.170   5.616  2.7809  1.1538  0.6421
 4073SOL    HW223853   0.257   2.246   5.607  0.0354  1.6562  0.2076
 4074SOL     OW23854   3.058   2.261   7.853 -0.8431 -0.1012 -0.1394
 4074SOL    HW123855   3.121   2.232   7.919 -1.9142 -1.0912  0.4604
 4074SOL    HW223856   3.017   2.339   7.889 -3.0734 -0.8804 -0.9499
 4075SOL     OW23857   1.815   3.069  10.619 -0.4911  0.0084 -0.3571
 4075SOL    HW123858   1.811   2.990  10.673 -0.2793  0.3238  0.1140
 4075SOL    HW223859   1.846   3.033  10.536 -1.2595 -0.0857 -0.6036
 4076SOL     OW23860   2.815   0.055  12.430 -0.2116  0.1528 -0.1402
 4076SOL    HW123861   2.848   0.134  12.388 -0.8667  0.8674  0.6968
 4076SOL    HW223862   2.722   0.066  12.410 -0.0906 -0.6543 -1.1754
 4077SOL     OW23863   2.640   0.158  12.783  0.2104 -0.3631 -0.1631
 4077SOL    HW123864   2.597   0.143  12.867  1.7274 -1.5163  0.4277
 4077SOL    HW223865   2.707   0.225  12.794 -1.9078  1.9349 -1.3729
 4078SOL     OW23866   2.645   2.989   5.163 -1.1635  0.2074  0.4418
 4078SOL    HW123867   2.640   2.912   5.220 -0.9604 -0.1784 -0.0692
 4078SOL    HW223868   2.692   3.040   5.230 -1.4776 -1.4147  1.8887
 4079SOL     OW23869   0.177   4.625   4.688 -0.1838  0.3196 -0.1447
 4079SOL    HW123870   0.119   4.610   4.613 -0.2101  2.4349 -0.5570
 4079SOL    HW223871   0.131   4.691   4.740  1.5004 -0.0265  1.7648
 4080SOL     OW23872   3.566   2.187   8.017 -0.0485  0.0139  0.0421
 4080SOL    HW123873   3.628   2.115   8.004 -1.1455 -0.8708 -0.2938
 4080SOL    HW223874   3.575   2.206   8.110  3.4455 -3.4133  0.4091
 4081SOL     OW23875   0.741   3.354  17.484  0.3487  0.0852  0.0115
 4081SOL    HW123876   0.685   3.277  17.490 -1.9006  1.8802  1.8835
 4081SOL    HW223877   0.691   3.416  17.537 -1.6984 -0.6521 -1.0825
 4082SOL     OW23878   2.175   3.385   2.356 -0.7481 -0.3394  0.8470
 4082SOL    HW123879   2.102   3.345   2.309  1.6627 -0.9054 -2.4640
 4082SOL    HW223880   2.155   3.359   2.445 -1.3473 -0.0216  0.8040
 4083SOL     OW23881   3.602   4.009  14.973  0.1006  0.3720 -0.0340
 4083SOL    HW123882   3.660   4.072  15.016  0.6971  0.3270 -0.7706
 4083SOL    HW223883   3.665   3.946  14.938  0.0093 -0.1746  0.8000
 4084SOL     OW23884   0.873   0.453   0.885  0.5046  0.3473  0.6536
 4084SOL    HW123885   0.864   0.542   0.919 -3.0679  0.7791 -1.4242
 4084SOL    HW223886   0.922   0.410   0.954  1.3822 -0.9494 -0.7770
 4085SOL     OW23887   4.428   0.363  13.124 -0.0094 -0.5641  0.0055
 4085SOL    HW123888   4.337   0.375  13.149  0.0421  0.2902 -0.2058
 4085SOL    HW223889   4.415   0.336  13.034  1.3405 -0.4422 -0.2332
 4086SOL     OW23890   2.568   2.040  17.098 -0.5672 -0.0176 -0.5929
 4086SOL    HW123891   2.509   2.106  17.064 -0.1577 -0.2589 -1.7706
 4086SOL    HW223892   2.640   2.096  17.129 -1.1795 -0.9232  2.5049
 4087SOL     OW23893   4.026   3.573   9.445 -0.8554 -0.1947 -0.0213
 4087SOL    HW123894   3.962   3.544   9.510  0.5480 -1.4937  0.7796
 4087SOL    HW223895   4.016   3.668   9.453  0.6136  0.0435 -0.9792
 4088SOL     OW23896   2.487   0.344  10.864 -0.1549 -0.0417  0.0752
 4088SOL    HW123897   2.574   0.322  10.830  0.3886 -0.5787  1.8170
 4088SOL    HW223898   2.494   0.439  10.857 -1.6748 -0.1320 -2.7715
 4089SOL     OW23899   0.424   4.394   3.994 -0.5888 -0.2379  0.2224
 4089SOL    HW123900   0.500   4.394   3.935 -1.0155  1.4953 -0.3407
 4089SOL    HW223901   0.415   4.489   4.007  1.9980  0.1901 -1.1412
 4090SOL     OW23902   2.013   2.415   3.453  0.0905  0.2934 -0.1442
 4090SOL    HW123903   1.932   2.465   3.463  0.2275  0.4457  0.1943
 4090SOL    HW223904   2.038   2.430   3.362  0.1396 -0.7044 -0.2984
 4091SOL     OW23905   4.615   1.701   6.035 -0.2339 -1.0920  0.3768
 4091SOL    HW123906   4.667   1.720   5.957 -2.8940  0.9021 -0.9207
 4091SOL    HW223907   4.631   1.772   6.098  0.7195 -1.0676  0.1049
 4092SOL     OW23908   1.257   2.612  11.356  0.3636 -0.2272  0.6026
 4092SOL    HW123909   1.285   2.703  11.362  0.5026 -0.2194 -0.0790
 4092SOL    HW223910   1.164   2.625  11.338  0.4292  0.8128  1.0704
 4093SOL     OW23911   2.399   0.434   4.558  0.1368  0.1147  0.1036
 4093SOL    HW123912   2.352   0.509   4.595  0.0137 -0.0502  0.2795
 4093SOL    HW223913   2.487   0.439   4.596 -0.1238 -1.5116  0.9156
 4094SOL     OW23914   4.474   3.189   9.908 -0.4558  0.1127  0.1855
 4094SOL    HW123915   4.554   3.160   9.953 -0.3200  1.6159  0.9013
 4094SOL    HW223916   4.493   3.178   9.815  2.7752  3.2806  0.4621
 4095SOL     OW23917   0.998   4.281   5.298 -0.2311 -0.0166  0.5801
 4095SOL    HW123918   0.959   4.308   5.381  0.7287  1.1247  0.6586
 4095SOL    HW223919   1.000   4.364   5.249 -2.0207  0.6157  1.5641
 4096SOL     OW23920   1.076   0.140   2.763 -0.7175  0.0690  0.3661
 4096SOL    HW123921   1.015   0.111   2.694  0.6452  1.5758 -1.4813
 4096SOL    HW223922   1.125   0.058   2.763  0.4010  0.7338  0.0385
 4097SOL     OW23923   4.297   1.943   3.980 -0.3531  0.0609 -0.3637
 4097SOL    HW123924   4.377   1.968   3.933  0.5457  0.2950  1.2803
 4097SOL    HW223925   4.278   2.016   4.039  1.4921  0.7221 -0.5902
 4098SOL     OW23926   3.679   4.056  10.251  0.1136  0.0468  0.4269
 4098SOL    HW123927   3.597   4.009  10.264  2.1499 -3.4987  0.5144
 4098SOL    HW223928   3.653   4.143  10.280  0.0794  0.4032 -0.6679
 4099SOL     OW23929   1.821   1.167  16.601 -0.1742 -0.1839 -0.2001
 4099SOL    HW123930   1.762   1.235  16.634  0.3664  0.9415 -1.6087
 4099SOL    HW223931   1.810   1.104  16.673  1.8222  2.3828  2.3789
 4100SOL     OW23932   4.130   0.138   2.971  0.3283 -0.6601  0.0107
 4100SOL    HW123933   4.103   0.176   2.887  0.7250 -1.4137 -0.4548
 4100SOL    HW223934   4.140   0.045   2.948  2.7274 -0.8717  1.9090
 4101SOL     OW23935   3.855   4.074   9.487  0.2392 -0.0944 -0.0954
 4101SOL    HW123936   3.836   4.130   9.562 -0.5059 -1.3961  0.6933
 4101SOL    HW223937   3.943   4.098   9.457  0.1444 -0.1804 -0.4375
 4102SOL     OW23938   2.725   2.265   4.285 -0.4733  0.1511 -0.2086
 4102SOL    HW123939   2.779   2.222   4.350 -0.0395  0.6829 -0.2160
 4102SOL    HW223940   2.766   2.230   4.205  1.3975  0.0817  0.7861
 4103SOL     OW23941   0.990   3.288   6.748 -0.4253  0.0914 -0.3977
 4103SOL    HW123942   0.963   3.201   6.717  0.9262  0.1978 -1.8554
 4103SOL    HW223943   1.002   3.265   6.840  1.0683  2.6608  0.0524
 4104SOL     OW23944   2.294   0.113   3.957  0.1429 -0.2284  0.1769
 4104SOL    HW123945   2.323   0.066   3.879 -0.8190 -1.5270  0.5979
 4104SOL    HW223946   2.377   0.146   3.990 -0.4785  1.6281 -0.1414
 4105SOL     OW23947   0.376   4.315   5.862  0.3367  0.1732  0.3517
 4105SOL    HW123948   0.418   4.329   5.947  0.1990  1.0257  0.2735
 4105SOL    HW223949   0.440   4.333   5.793  0.5963 -0.2317  0.4872
 4106SOL     OW23950   1.514   4.595   9.970 -0.4548 -0.2266  0.1251
 4106SOL    HW123951   1.482   4.563   9.885  1.2324  0.8862 -0.9317
 4106SOL    HW223952   1.457   4.551  10.034  0.1950  0.9143  1.4902
 4107SOL     OW23953   1.432   1.526  16.232  0.9781 -0.2323 -0.2222
 4107SOL    HW123954   1.356   1.548  16.178 -0.2505  0.3297  1.7286
 4107SOL    HW223955   1.510   1.554  16.185  0.4821 -0.1286 -0.9840
 4108SOL     OW23956   4.480   2.428   6.884 -0.1561 -0.2396 -0.2380
 4108SOL    HW123957   4.543   2.460   6.821  0.3364 -0.4802  0.1296
 4108SOL    HW223958   4.504   2.479   6.962 -0.2838 -1.1510  0.3985
 4109SOL     OW23959   3.461   0.997   5.035 -0.2292  0.5617  0.1378
 4109SOL    HW123960   3.540   1.014   4.983 -0.0538  0.5374  0.3916
 4109SOL    HW223961   3.473   1.069   5.098 -2.8161  0.2241  0.9835
 4110SOL     OW23962   0.948   3.736   3.779 -0.4741  0.2968  0.3714
 4110SOL    HW123963   0.894   3.661   3.804 -0.7925 -0.3995 -2.4563
 4110SOL    HW223964   1.018   3.688   3.736  1.2864  0.8008  2.6227
 4111SOL     OW23965   1.264   2.251  14.124  0.0881  0.2233 -0.2497
 4111SOL    HW123966   1.328   2.253  14.053 -1.4206 -2.4982 -1.7049
 4111SOL    HW223967   1.327   2.250  14.195 -0.8458  0.8320  0.5800
 4112SOL     OW23968   2.114   0.584  12.556 -0.4377 -0.1101 -0.3176
 4112SOL    HW123969   2.035   0.574  12.502  0.5708  0.6665 -1.9112
 4112SOL    HW223970   2.089   0.571  12.648  0.3114 -0.3875 -0.1581
 4113SOL     OW23971   3.377   1.900  17.649 -0.0886 -0.3143 -0.2325
 4113SOL    HW123972   3.411   1.937  17.731 -0.6372  0.7065 -0.4802
 4113SOL    HW223973   3.415   1.812  17.653 -1.6153 -1.0204 -1.3355
 4114SOL     OW23974   1.593   1.457   3.185 -0.3370 -0.3050  0.3177
 4114SOL    HW123975   1.504   1.457   3.221 -0.2119  0.3526  0.6335
 4114SOL    HW223976   1.595   1.538   3.134  2.0648 -0.5245  0.1031
 4115SOL     OW23977   4.441   0.740   2.781  0.6853 -0.4510  0.1567
 4115SOL    HW123978   4.375   0.673   2.796 -0.3962  0.5373 -0.1474
 4115SOL    HW223979   4.514   0.707   2.834  1.0908  0.6833  0.3157
 4116SOL     OW23980   1.963   2.948  10.424  0.2861 -0.1781 -0.3734
 4116SOL    HW123981   2.008   3.028  10.398  0.6272 -0.0507  0.6069
 4116SOL    HW223982   2.038   2.900  10.457  0.2892 -0.7352 -1.1917
 4117SOL     OW23983   1.681   1.116  11.623 -0.8416  0.1012  0.3906
 4117SOL    HW123984   1.755   1.059  11.605 -2.5626 -1.4196 -1.7817
 4117SOL    HW223985   1.727   1.199  11.607 -0.4340 -0.4136 -1.0653
 4118SOL     OW23986   2.093   0.623   9.027 -0.8499  0.2868 -0.0890
 4118SOL    HW123987   2.067   0.672   8.949 -3.3991 -2.1432 -0.7670
 4118SOL    HW223988   2.180   0.658   9.044 -1.0850  0.2032  1.2868
 4119SOL     OW23989   2.708   0.267  10.743  0.2545 -0.0582  0.1388
 4119SOL    HW123990   2.778   0.331  10.729 -1.2389  1.5179 -0.1299
 4119SOL    HW223991   2.717   0.206  10.670 -1.4657 -0.6072  0.3904
 4120SOL     OW23992   4.011   1.994   2.878 -0.0512 -0.1282  0.2888
 4120SOL    HW123993   4.042   1.917   2.924 -0.8761 -0.3905  0.4058
 4120SOL    HW223994   4.097   2.033   2.863 -0.8253  0.8031 -1.9224
 4121SOL     OW23995   4.035   0.544   2.693 -0.4993 -0.4684 -0.2685
 4121SOL    HW123996   3.989   0.468   2.659 -0.7437 -0.3980 -0.0905
 4121SOL    HW223997   4.007   0.607   2.627 -0.4340 -1.6373 -1.4025
 4122SOL     OW23998   3.492   0.232  14.241  0.1420  0.5406  0.1921
 4122SOL    HW123999   3.422   0.296  14.228 -1.8092 -1.1551  2.3047
 4122SOL    HW224000   3.471   0.167  14.174  1.4488  0.6901 -0.3460
 4123SOL     OW24001   4.092   3.639  11.214 -0.3235 -0.2673 -0.2612
 4123SOL    HW124002   4.065   3.571  11.276  1.4426 -0.4149  0.3562
 4123SOL    HW224003   4.132   3.699  11.277 -0.1669 -1.2584  0.5906
 4124SOL     OW24004   3.215   0.253   4.271  0.2947  0.6713 -0.3805
 4124SOL    HW124005   3.271   0.211   4.336  2.6812  2.0717 -1.5441
 4124SOL    HW224006   3.276   0.273   4.200  2.2909  2.6307  1.8902
 4125SOL     OW24007   4.360   3.903   3.149 -0.3757 -0.5656 -0.6124
 4125SOL    HW124008   4.369   3.821   3.101 -1.1819 -1.3062  0.5257
 4125SOL    HW224009   4.415   3.879   3.224 -1.2238  0.0028  0.1966
 4126SOL     OW24010   3.994   2.219   3.990 -0.3011 -0.0163  0.0533
 4126SOL    HW124011   3.927   2.281   4.020  0.3106 -0.3011  1.9849
 4126SOL    HW224012   4.017   2.171   4.070  1.5074 -0.4046 -0.7019
 4127SOL     OW24013   1.818   4.259  17.334 -0.2630 -0.1242 -0.4757
 4127SOL    HW124014   1.912   4.250  17.347 -0.1207  1.5890 -0.3153
 4127SOL    HW224015   1.812   4.242  17.240 -1.2251 -2.0944 -0.0468
 4128SOL     OW24016   3.185   2.112   7.408 -0.1950  0.0179  0.3094
 4128SOL    HW124017   3.205   2.029   7.451 -0.3316 -0.4373 -0.5035
 4128SOL    HW224018   3.209   2.174   7.477 -0.2941 -2.0246  2.1965
 4129SOL     OW24019   0.330   2.625   8.640  0.0795  0.1564  0.5026
 4129SOL    HW124020   0.282   2.550   8.604  2.4466  0.3347 -3.0362
 4129SOL    HW224021   0.322   2.678   8.561  0.0268 -1.3699 -0.5261
 4130SOL     OW24022   2.924   1.552   7.493  0.4304  0.1820 -0.1603
 4130SOL    HW124023   3.012   1.538   7.458 -0.0430 -0.7647 -1.0096
 4130SOL    HW224024   2.933   1.630   7.547 -0.5780 -0.1944  0.5613
 4131SOL     OW24025   2.730   3.470   0.026 -0.6046 -0.5165  0.2220
 4131SOL    HW124026   2.769   3.390   0.061 -1.5515 -0.0563  2.3304
 4131SOL    HW224027   2.770   3.530   0.091 -3.1774  0.8037  0.5936
 4132SOL     OW24028   2.898   2.199   2.586  0.5148 -0.0458  0.0982
 4132SOL    HW124029   2.859   2.173   2.669 -0.1526 -0.5969 -0.3858
 4132SOL    HW224030   2.956   2.123   2.581 -0.2947 -0.5415 -1.8990
 4133SOL     OW24031   1.435   1.150   3.301  0.0581 -0.0078 -0.8830
 4133SOL    HW124032   1.448   1.245   3.296 -3.9102  0.6948  2.3476
 4133SOL    HW224033   1.357   1.134   3.249  0.0982  1.5654 -1.4454
 4134SOL     OW24034   3.261   1.790   2.737  0.7459  0.5711 -0.3118
 4134SOL    HW124035   3.224   1.841   2.665 -2.2483  1.6842  1.9897
 4134SOL    HW224036   3.262   1.707   2.690  1.8458  0.9120 -0.8740
 4135SOL     OW24037   1.865   0.431  12.178  0.0924 -0.0573  0.4563
 4135SOL    HW124038   1.849   0.390  12.093 -2.7495  0.2149  0.8514
 4135SOL    HW224039   1.859   0.351  12.231 -0.4276 -2.2364 -2.8333
 4136SOL     OW24040   0.741   4.014  12.703 -0.3329 -0.1674  0.2267
 4136SOL    HW124041   0.740   3.922  12.674 -0.6457 -0.3817  0.9300
 4136SOL    HW224042   0.652   4.022  12.736 -0.6588  1.0681 -0.9589
 4137SOL     OW24043   0.890   0.097  13.761  0.2277 -0.1873 -0.1144
 4137SOL    HW124044   0.939   0.163  13.810  1.5376 -0.8401 -0.5548
 4137SOL    HW224045   0.965   0.077  13.704  0.3204 -0.6846  0.1839
 4138SOL     OW24046   0.666   2.141   7.214 -0.0723  0.5426  0.4258
 4138SOL    HW124047   0.696   2.142   7.123 -1.0643 -0.7318  0.0824
 4138SOL    HW224048   0.647   2.232   7.234  0.2393  0.3689  1.5242
 4139SOL     OW24049   3.903   1.070   5.451  0.0760 -0.6609 -0.2316
 4139SOL    HW124050   3.971   1.102   5.510 -1.1492  0.0821  0.7847
 4139SOL    HW224051   3.867   1.154   5.422 -1.7906 -1.9211 -1.5892
 4140SOL     OW24052   0.353   3.912  17.054 -0.1008 -1.0803 -0.1973
 4140SOL    HW124053   0.299   3.987  17.076 -0.4876 -1.0693 -1.2168
 4140SOL    HW224054   0.439   3.951  17.040  0.2344 -1.7818 -0.1182
 4141SOL     OW24055   2.224   4.625   0.435 -0.4777 -0.3525  0.1508
 4141SOL    HW124056   2.151   4.664   0.484 -0.1190 -0.5220  0.8201
 4141SOL    HW224057   2.278   4.697   0.402 -1.3226  0.3023  0.1937
 4142SOL     OW24058   1.844   3.712  12.917 -0.0792 -0.0473  0.2182
 4142SOL    HW124059   1.821   3.705  12.824  0.4647  1.2646 -0.0214
 4142SOL    HW224060   1.884   3.627  12.931 -2.1442 -1.0838 -0.0993
 4143SOL     OW24061   4.427   0.021   9.617 -0.6549  0.6019 -0.3037
 4143SOL    HW124062   4.403   4.696   9.551  0.1424 -1.3454  1.3141
 4143SOL    HW224063   4.501   4.713   9.655 -0.3003 -1.1184 -3.1903
 4144SOL     OW24064   0.555   1.195   0.217 -0.0160 -0.2077  0.0184
 4144SOL    HW124065   0.526   1.110   0.184 -3.5045  1.1188 -0.3531
 4144SOL    HW224066   0.469   1.233   0.234  0.7050  1.1847  0.6217
 4145SOL     OW24067   1.294   0.245   2.374  0.2147  0.2614  0.2657
 4145SOL    HW124068   1.279   0.264   2.467  0.0243  2.1353 -0.1430
 4145SOL    HW224069   1.289   0.337   2.346  0.3179 -0.2684 -1.4837
 4146SOL     OW24070   2.785   1.146   3.068  0.4333 -0.1651 -0.3439
 4146SOL    HW124071   2.837   1.066   3.060  0.4669 -0.0485 -1.2758
 4146SOL    HW224072   2.853   1.202   3.104  0.2392 -0.0984 -0.0825
 4147SOL     OW24073   2.792   1.000  12.207  0.0882  0.2752 -0.1903
 4147SOL    HW124074   2.848   0.958  12.272  0.1434 -0.1062 -0.4853
 4147SOL    HW224075   2.812   0.948  12.129 -0.5564  0.5231 -0.5269
 4148SOL     OW24076   1.415   3.863  12.072  0.2278  0.1628 -0.6679
 4148SOL    HW124077   1.341   3.914  12.105  1.4737  2.5270 -1.5919
 4148SOL    HW224078   1.471   3.940  12.063  0.3466  0.2688  0.9021
 4149SOL     OW24079   3.764   1.229   7.549 -0.2031  0.2139 -0.6124
 4149SOL    HW124080   3.766   1.171   7.473 -0.5946 -0.3573 -0.1851
 4149SOL    HW224081   3.838   1.199   7.602 -1.0681 -1.0371 -0.0997
 4150SOL     OW24082   4.071   0.457  15.911 -0.1198  0.5159  0.6087
 4150SOL    HW124083   4.090   0.454  15.817 -1.3036  1.1257  0.3524
 4150SOL    HW224084   3.980   0.486  15.915 -0.1060  0.5469  0.7097
 4151SOL     OW24085   4.238   2.405   6.235  0.1620 -1.2732  0.0535
 4151SOL    HW124086   4.318   2.454   6.213  0.1908 -0.7508  1.3255
 4151SOL    HW224087   4.164   2.431   6.180 -0.1294  0.5795  1.2988
 4152SOL     OW24088   2.124   2.780   4.230 -0.1940  0.0821 -0.0536
 4152SOL    HW124089   2.209   2.736   4.232 -1.1708 -1.8697 -1.7529
 4152SOL    HW224090   2.144   2.855   4.174  0.2925  0.8415  1.1275
 4153SOL     OW24091   1.706   4.320   3.976 -0.0936  0.1381  0.4321
 4153SOL    HW124092   1.769   4.392   3.966 -0.6964  0.7910  1.2576
 4153SOL    HW224093   1.690   4.309   3.882 -0.9534 -0.4672  0.6509
 4154SOL     OW24094   1.823   1.286   3.847 -0.0564  0.4746  0.1626
 4154SOL    HW124095   1.917   1.270   3.850 -0.4769 -1.8283  1.2003
 4154SOL    HW224096   1.792   1.202   3.811  3.0022 -0.9671  0.9172
 4155SOL     OW24097   1.340   2.048   9.466 -0.2100  0.3633 -0.3358
 4155SOL    HW124098   1.354   1.954   9.478 -0.1203  0.4797  0.5367
 4155SOL    HW224099   1.424   2.072   9.429  0.4941 -0.0593  0.9776
 4156SOL     OW24100   0.256   1.964   7.942 -0.0638  0.0069  0.3710
 4156SOL    HW124101   0.244   1.897   7.875  1.9645 -0.8979  0.8862
 4156SOL    HW224102   0.326   2.019   7.904  0.7818 -0.2110  1.6282
 4157SOL     OW24103   4.217   0.189  14.600  0.3942  0.3455  0.2057
 4157SOL    HW124104   4.158   0.154  14.667  0.7004  0.1646  0.3793
 4157SOL    HW224105   4.167   0.259  14.558  0.4897 -0.1213 -0.6978
 4158SOL     OW24106   3.980   2.594   7.864  0.0209  0.2598 -0.4329
 4158SOL    HW124107   4.048   2.625   7.803  0.1568  0.8002 -0.0048
 4158SOL    HW224108   3.910   2.586   7.799  0.0001  0.2150 -0.4047
 4159SOL     OW24109   0.991   1.729   7.382  0.1363 -0.4929  0.5553
 4159SOL    HW124110   1.081   1.760   7.373  0.1182 -0.6612 -0.2452
 4159SOL    HW224111   0.986   1.733   7.478 -0.2172  1.0065  0.4656
 4160SOL     OW24112   2.245   2.304  15.097  0.1021  0.3080  0.6737
 4160SOL    HW124113   2.181   2.267  15.157  1.0359 -2.2719  0.0972
 4160SOL    HW224114   2.330   2.270  15.125  0.5764  2.0010  1.2684
 4161SOL     OW24115   1.009   2.059  14.571  0.3711  0.5003 -0.2925
 4161SOL    HW124116   0.964   2.132  14.529  0.4491  0.6608 -0.0983
 4161SOL    HW224117   1.098   2.096  14.572  0.2486  0.7941 -0.0915
 4162SOL     OW24118   0.637   3.233   3.975  0.5028 -0.5577 -0.1173
 4162SOL    HW124119   0.603   3.243   4.064 -0.8182  0.9562 -0.7773
 4162SOL    HW224120   0.586   3.300   3.929  1.1868 -0.2425 -0.4225
 4163SOL     OW24121   1.560   0.293   4.048  0.5517  0.1684  0.3942
 4163SOL    HW124122   1.597   0.234   4.113  1.8456  0.0803 -0.4359
 4163SOL    HW224123   1.468   0.293   4.076 -0.3330 -0.4743 -2.4867
 4164SOL     OW24124   1.848   1.646   3.178  0.4202  0.2109 -0.2163
 4164SOL    HW124125   1.827   1.681   3.265  1.6467 -0.4567  0.3653
 4164SOL    HW224126   1.895   1.567   3.207  0.0012 -0.4891 -1.4644
 4165SOL     OW24127   2.654   4.700   1.638  0.8669  0.1656  0.1019
 4165SOL    HW124128   2.568   4.716   1.676  0.6774  1.1355 -0.7564
 4165SOL    HW224129   2.670   4.613   1.675 -2.7469 -0.1238  0.9541
 4166SOL     OW24130   3.698   3.970   3.938  0.2485 -0.3951 -0.1876
 4166SOL    HW124131   3.687   3.924   3.855  0.2607 -0.2598 -0.2657
 4166SOL    HW224132   3.640   4.044   3.917  0.4980  0.4942  2.3602
 4167SOL     OW24133   3.995   3.050   0.411  0.7823  0.2297  0.1474
 4167SOL    HW124134   3.993   3.095   0.326  0.8499  0.1549  0.1051
 4167SOL    HW224135   3.932   3.109   0.452  0.8337  0.5280 -0.2063
 4168SOL     OW24136   4.388   1.547   7.531 -0.7870  0.3502  0.7006
 4168SOL    HW124137   4.374   1.531   7.438 -2.7651  3.8450  0.4201
 4168SOL    HW224138   4.319   1.497   7.574  1.3177 -0.4290  3.2243
 4169SOL     OW24139   0.763   0.003   6.384 -0.4093 -0.2066 -0.1463
 4169SOL    HW124140   0.706   4.720   6.311  0.0204 -1.0096 -0.2315
 4169SOL    HW224141   0.783   4.659   6.426 -0.2290 -0.3681 -0.5547
 4170SOL     OW24142   3.333   2.838   5.315  0.0716 -0.0533 -0.6145
 4170SOL    HW124143   3.274   2.877   5.251 -0.7134  0.6143  0.5440
 4170SOL    HW224144   3.348   2.752   5.273  0.9804  0.6830 -1.8072
 4171SOL     OW24145   3.198   2.579   6.601  0.4806 -0.1130  0.2296
 4171SOL    HW124146   3.225   2.525   6.527  0.5549 -1.7857  1.4611
 4171SOL    HW224147   3.104   2.560   6.607  0.4482  0.5245  1.7353
 4172SOL     OW24148   4.258   1.819   4.727 -0.1367 -0.2019  0.0005
 4172SOL    HW124149   4.232   1.907   4.755 -1.5726 -0.7482  0.3848
 4172SOL    HW224150   4.293   1.830   4.639 -1.5466  1.0361 -0.4111
 4173SOL     OW24151   1.146   4.374   7.258  0.2345 -0.1421  0.1847
 4173SOL    HW124152   1.154   4.281   7.277 -0.3245 -0.3776 -0.7176
 4173SOL    HW224153   1.237   4.398   7.241  0.4582 -0.1902  1.3516
 4174SOL     OW24154   4.076   2.489   4.827  0.3757  0.2575 -0.1417
 4174SOL    HW124155   4.131   2.432   4.773  0.1816 -0.3308  0.2758
 4174SOL    HW224156   4.028   2.524   4.753  3.6431 -2.8114 -3.7534
 4175SOL     OW24157   3.408   2.308   8.335  0.3203  0.1646  0.5185
 4175SOL    HW124158   3.370   2.260   8.408  0.5121 -1.4823 -0.4620
 4175SOL    HW224159   3.502   2.289   8.336  0.9019  2.7876 -1.7549
 4176SOL     OW24160   0.654   2.725   5.076  0.1990 -0.1172 -0.1853
 4176SOL    HW124161   0.649   2.687   4.989  1.9060  1.5376 -1.0157
 4176SOL    HW224162   0.602   2.805   5.067  1.5722  0.8134  0.0653
 4177SOL     OW24163   2.003   0.251   1.015  0.2098 -0.3767  0.5055
 4177SOL    HW124164   2.056   0.309   1.071 -1.6324  3.0786 -1.2897
 4177SOL    HW224165   1.916   0.291   1.005  0.2984 -0.5298 -0.8917
 4178SOL     OW24166   1.400   0.797   4.431 -0.0842 -0.1820  0.0800
 4178SOL    HW124167   1.355   0.734   4.375  1.3521 -0.4061 -0.7921
 4178SOL    HW224168   1.414   0.865   4.366 -0.4045  1.0253  1.2758
 4179SOL     OW24169   3.265   3.437  11.905  0.1369 -0.1639  0.5557
 4179SOL    HW124170   3.238   3.352  11.870  0.3149  0.1055 -0.2307
 4179SOL    HW224171   3.238   3.424  11.996  0.5541 -1.5996  0.4768
 4180SOL     OW24172   3.762   2.891   7.619  0.2045  0.3007  0.0202
 4180SOL    HW124173   3.670   2.913   7.635  0.6155  0.9829  1.5325
 4180SOL    HW224174   3.803   2.973   7.592  0.1794  0.6540  1.0221
 4181SOL     OW24175   1.728   3.131   8.298 -0.1828 -0.5782  0.1675
 4181SOL    HW124176   1.742   3.214   8.252 -0.8854 -0.2380  0.5633
 4181SOL    HW224177   1.693   3.165   8.381  1.0451 -1.9491  1.2393
 4182SOL     OW24178   2.843   3.611   4.781 -0.4564  0.2211 -0.4559
 4182SOL    HW124179   2.881   3.525   4.803  0.3770  0.9546  0.9704
 4182SOL    HW224180   2.792   3.639   4.857 -0.4480 -0.3117 -0.2522
 4183SOL     OW24181   4.723   0.562  15.162  0.4756 -0.1700 -0.6005
 4183SOL    HW124182   4.644   0.559  15.108 -0.0490  1.1752  0.1006
 4183SOL    HW224183   4.722   0.471  15.191  1.9111 -0.9425 -2.9460
 4184SOL     OW24184   4.151   3.096   2.877  0.7697  0.6493  0.2238
 4184SOL    HW124185   4.059   3.081   2.899  0.0168  1.8241 -2.0351
 4184SOL    HW224186   4.150   3.077   2.783 -2.5581  0.0437  0.3694
 4185SOL     OW24187   4.030   0.935   6.957  0.2661 -0.0549  0.6201
 4185SOL    HW124188   3.970   1.008   6.944 -1.4609 -1.5362  0.3041
 4185SOL    HW224189   4.101   0.961   6.898 -0.3531 -1.0495 -0.5744
 4186SOL     OW24190   3.310   4.633   0.180  0.6436  0.9206 -0.3818
 4186SOL    HW124191   3.394   4.591   0.199  0.8944  1.4020 -0.4319
 4186SOL    HW224192   3.282   4.582   0.104  0.3386  0.6327 -0.0733
 4187SOL     OW24193   2.954   3.607   8.478  0.2264  0.1014  0.2386
 4187SOL    HW124194   3.034   3.657   8.465  0.9881 -0.8709  1.1702
 4187SOL    HW224195   2.928   3.645   8.563  0.5807 -0.2389  0.5015
 4188SOL     OW24196   1.119   1.074  11.442 -0.3715  0.4601 -0.6510
 4188SOL    HW124197   1.031   1.106  11.423 -0.6042  1.4540  2.1002
 4188SOL    HW224198   1.150   1.083  11.351 -0.1858  0.9755 -0.5376
 4189SOL     OW24199   3.713   3.087   6.865 -0.0290 -0.2849 -0.7963
 4189SOL    HW124200   3.787   3.028   6.881  0.4997  0.3092 -1.0387
 4189SOL    HW224201   3.754   3.144   6.800  0.9091 -0.8343 -0.6877
 4190SOL     OW24202   0.707   2.338   2.358 -0.1282  0.6528 -0.1455
 4190SOL    HW124203   0.614   2.324   2.374  0.1660 -0.4698  0.6184
 4190SOL    HW224204   0.704   2.411   2.296 -0.0933  0.8197  0.0518
 4191SOL     OW24205   1.525   0.571   4.628  0.3338  0.1196 -0.0254
 4191SOL    HW124206   1.518   0.479   4.653 -0.7636  0.0562 -0.5573
 4191SOL    HW224207   1.598   0.583   4.568 -0.4410 -0.6891 -1.1274
 4192SOL     OW24208   0.050   2.656   8.769 -0.5316 -0.0440  1.0829
 4192SOL    HW124209   0.093   2.571   8.774  2.0383  1.1417 -0.5277
 4192SOL    HW224210   4.725   2.643   8.839 -1.0830 -1.6936  0.2735
 4193SOL     OW24211   0.973   0.061  14.987  0.9308 -0.4216  0.3477
 4193SOL    HW124212   0.887   0.103  14.985  2.0523  1.7857 -1.5749
 4193SOL    HW224213   0.954   4.712  15.016  0.1829 -0.7259 -1.0439
 4194SOL     OW24214   4.168   4.427   5.679  0.1149  0.0934  0.4346
 4194SOL    HW124215   4.209   4.493   5.735 -0.7952  1.2087 -0.2306
 4194SOL    HW224216   4.233   4.427   5.609  0.2534 -0.5888  0.5620
 4195SOL     OW24217   0.657   4.394   1.968  0.6845 -0.8510 -0.3672
 4195SOL    HW124218   0.682   4.364   1.880  3.9938 -0.7807  0.5500
 4195SOL    HW224219   0.702   4.478   1.974 -1.1315  0.1391 -0.5699
 4196SOL     OW24220   1.083   1.688  12.860 -0.1100  0.3892 -0.1928
 4196SOL    HW124221   1.131   1.769  12.843  4.5964 -2.4562 -0.8201
 4196SOL    HW224222   1.034   1.687  12.778 -1.3367 -0.0158  0.5501
 4197SOL     OW24223   4.630   2.316   5.968 -0.3543  0.4601  0.5820
 4197SOL    HW124224   4.556   2.258   5.983  0.3509 -0.2556  1.3081
 4197SOL    HW224225   4.634   2.364   6.051 -2.0465  1.5733  0.0031
 4198SOL     OW24226   0.268   2.872   8.165 -0.0315 -0.0125 -0.1684
 4198SOL    HW124227   0.257   2.967   8.173 -0.3722 -0.1547  1.0260
 4198SOL    HW224228   0.258   2.869   8.070  1.2901 -0.2647 -0.3011
 4199SOL     OW24229   0.882   4.067   3.284  0.1513 -0.0745 -0.2672
 4199SOL    HW124230   0.933   4.014   3.223 -2.0254 -1.4289 -0.9231
 4199SOL    HW224231   0.921   4.055   3.370  3.0216 -1.8127 -1.8187
 4200SOL     OW24232   0.686   3.640   6.926  0.0548 -0.2765 -0.6576
 4200SOL    HW124233   0.598   3.604   6.924 -1.3086  3.0629 -0.5986
 4200SOL    HW224234   0.736   3.562   6.902 -1.2638 -0.9194 -1.3175
 4201SOL     OW24235   3.943   3.998   8.291 -0.4097  0.4785 -0.0579
 4201SOL    HW124236   3.917   3.952   8.212 -2.8629  1.1188  0.3940
 4201SOL    HW224237   3.985   3.923   8.334 -2.1888  0.3340  1.4142
 4202SOL     OW24238   2.343   4.333   2.238 -0.3663 -0.4605  0.4591
 4202SOL    HW124239   2.301   4.414   2.265 -1.2100 -0.6713 -0.2416
 4202SOL    HW224240   2.306   4.277   2.307 -0.7485 -0.8826 -0.0909
 4203SOL     OW24241   3.563   2.254   7.573 -0.1234  0.2461 -0.0680
 4203SOL    HW124242   3.646   2.286   7.537  0.6844 -3.0597 -1.1792
 4203SOL    HW224243   3.535   2.328   7.627 -2.7164 -0.3028 -0.6975
 4204SOL     OW24244   3.490   0.092  13.684  0.6108  0.1987  0.4094
 4204SOL    HW124245   3.558   0.044  13.731  1.3202  0.6409 -0.1679
 4204SOL    HW224246   3.510   0.182  13.709 -3.2219  0.3237  2.9343
 4205SOL     OW24247   0.544   2.841   6.652 -0.3010  0.1002  0.1291
 4205SOL    HW124248   0.551   2.892   6.732  0.8418  0.5980 -0.2788
 4205SOL    HW224249   0.470   2.880   6.605  0.1271  0.5063 -0.2065
 4206SOL     OW24250   2.402   0.763  14.084 -0.3099 -0.2022 -0.2662
 4206SOL    HW124251   2.410   0.809  14.001  1.5452  2.8908  1.6341
 4206SOL    HW224252   2.403   0.672  14.055 -0.7879 -0.0685 -0.6991
 4207SOL     OW24253   1.973   0.744  10.660 -0.4894  0.2140 -0.3597
 4207SOL    HW124254   1.995   0.823  10.710 -0.9457  0.4956 -0.6043
 4207SOL    HW224255   1.948   0.785  10.577 -0.5389  1.0467  0.0610
 4208SOL     OW24256   4.073   2.804  16.605 -0.0517 -0.0565  0.0003
 4208SOL    HW124257   4.095   2.718  16.571  2.2003  0.2663  0.6256
 4208SOL    HW224258   4.114   2.809  16.691  0.2163 -0.2520 -0.1189
 4209SOL     OW24259   3.071   0.660   1.427  0.2842 -0.2356 -0.1948
 4209SOL    HW124260   3.148   0.668   1.483  0.5319 -0.2519 -0.5314
 4209SOL    HW224261   3.109   0.703   1.350 -1.5943  0.6619 -0.6030
 4210SOL     OW24262   2.586   2.900   5.663 -0.2442  0.1457  0.9502
 4210SOL    HW124263   2.586   2.982   5.712 -2.6912  1.5957 -1.5019
 4210SOL    HW224264   2.651   2.849   5.713  0.9459 -0.4051 -1.1558
 4211SOL     OW24265   3.307   1.267   4.735 -1.1601  0.2739  0.2771
 4211SOL    HW124266   3.293   1.182   4.777  1.2013 -1.3293 -2.2249
 4211SOL    HW224267   3.216   1.296   4.741 -0.6234  1.7959  1.1132
 4212SOL     OW24268   3.324   0.287   3.249  0.2652 -0.2541  0.0779
 4212SOL    HW124269   3.324   0.194   3.272  2.0966 -0.3234 -0.1799
 4212SOL    HW224270   3.417   0.292   3.228  0.2640 -0.4206  0.0320
 4213SOL     OW24271   2.682   1.776  12.079  0.6740 -0.4521  0.3811
 4213SOL    HW124272   2.696   1.862  12.119  4.1052  0.2146 -2.2734
 4213SOL    HW224273   2.766   1.750  12.042  0.6348 -0.4608  0.2991
 4214SOL     OW24274   1.207   4.173   2.643 -0.1620 -0.3817  0.4676
 4214SOL    HW124275   1.123   4.161   2.599 -0.2155  0.7526  0.2636
 4214SOL    HW224276   1.182   4.164   2.735 -0.8739  0.0290  0.3137
 4215SOL     OW24277   2.957   2.791   6.790 -0.1070  0.2293 -0.1525
 4215SOL    HW124278   3.038   2.787   6.841 -1.1751 -1.0226  1.4646
 4215SOL    HW224279   2.889   2.836   6.841 -0.8365 -0.4151 -0.5433
 4216SOL     OW24280   2.390   3.856  15.813  0.0923  0.0423 -0.6147
 4216SOL    HW124281   2.324   3.872  15.881  0.3126 -0.6077 -0.2482
 4216SOL    HW224282   2.334   3.880  15.739  0.4582  0.7526 -0.6620
 4217SOL     OW24283   3.312   2.668   9.617  0.3137 -0.2490  0.3112
 4217SOL    HW124284   3.291   2.699   9.705  0.3230  1.1416 -0.1780
 4217SOL    HW224285   3.365   2.742   9.589  0.6953 -0.7158 -0.1906
 4218SOL     OW24286   1.200   0.747   5.821 -0.4980  0.1854  0.2373
 4218SOL    HW124287   1.191   0.770   5.729 -0.9659  1.5803  0.6389
 4218SOL    HW224288   1.285   0.703   5.819 -0.1676  0.6785  2.7814
 4219SOL     OW24289   4.559   0.134   0.734  0.0862  0.0530  0.4280
 4219SOL    HW124290   4.465   0.119   0.743  0.3010  0.3409  3.2223
 4219SOL    HW224291   4.587   0.043   0.722 -0.2878  0.2066 -1.6458
 4220SOL     OW24292   0.671   0.673   4.649  0.2721  0.4565  0.1062
 4220SOL    HW124293   0.673   0.768   4.637  1.6678  0.4447  0.2554
 4220SOL    HW224294   0.651   0.639   4.562 -0.0271  0.3522  0.2154
 4221SOL     OW24295   4.440   0.523   8.719  0.6097  0.1282 -0.2849
 4221SOL    HW124296   4.400   0.447   8.760  2.9393 -0.2012  1.3693
 4221SOL    HW224297   4.444   0.588   8.789  1.1921  0.2710 -0.4472
 4222SOL     OW24298   3.361   1.250   2.968  0.5451  0.3274  0.4361
 4222SOL    HW124299   3.379   1.343   2.974 -1.4255  0.5322  2.8986
 4222SOL    HW224300   3.442   1.206   2.943 -1.2652 -1.3218 -2.5872
 4223SOL     OW24301   1.419   3.842   0.776  0.0882  0.4784 -0.0245
 4223SOL    HW124302   1.388   3.928   0.806  0.7901  0.7913 -0.1917
 4223SOL    HW224303   1.398   3.840   0.683 -3.3425  0.1526  0.7809
 4224SOL     OW24304   3.067   3.640   6.667 -0.0073  0.2148 -0.1005
 4224SOL    HW124305   3.011   3.701   6.715 -0.2001 -0.2947  0.3313
 4224SOL    HW224306   3.017   3.558   6.661  0.3739 -0.0938  0.8158
 4225SOL     OW24307   1.456   3.477   8.769  0.0478 -0.3594 -0.0363
 4225SOL    HW124308   1.541   3.494   8.727 -0.0108 -0.5065 -0.2131
 4225SOL    HW224309   1.417   3.562   8.749  1.1395  0.7446  2.5536
 4226SOL     OW24310   2.329   1.237   5.685 -0.1136  0.3047 -0.6128
 4226SOL    HW124311   2.312   1.165   5.745  2.2647 -0.2278 -0.5929
 4226SOL    HW224312   2.297   1.318   5.725 -1.8230 -0.7924  0.2528
 4227SOL     OW24313   3.317   1.902   3.222  0.2432  0.3624 -0.0988
 4227SOL    HW124314   3.400   1.949   3.233  1.1825 -0.5518 -3.2911
 4227SOL    HW224315   3.332   1.878   3.131 -2.0833 -0.3991 -0.2663
 4228SOL     OW24316   0.859   1.136  11.353 -0.2172 -0.6259 -0.3690
 4228SOL    HW124317   0.772   1.122  11.390 -1.0205  1.0754 -1.6362
 4228SOL    HW224318   0.843   1.197  11.281 -1.3935 -1.7792 -1.0977
 4229SOL     OW24319   1.331   4.185  14.311 -0.4277  0.0222  0.1040
 4229SOL    HW124320   1.262   4.247  14.288  0.4305 -0.1623 -3.0559
 4229SOL    HW224321   1.366   4.168  14.223 -0.5526 -2.1266  0.4719
 4230SOL     OW24322   1.841   0.698   8.459 -0.1376 -0.4676 -0.0881
 4230SOL    HW124323   1.842   0.673   8.367 -0.5353 -1.5729  0.2043
 4230SOL    HW224324   1.753   0.681   8.494 -0.3296  1.1829  0.2172
 4231SOL     OW24325   3.199   0.424   2.200  0.8531 -0.0251 -0.5143
 4231SOL    HW124326   3.286   0.430   2.239  0.8138  1.7948 -0.7180
 4231SOL    HW224327   3.173   0.516   2.203 -1.7993 -0.8117  0.7553
 4232SOL     OW24328   3.517   1.837  11.587  0.3852  0.0179  0.8691
 4232SOL    HW124329   3.592   1.895  11.574  0.5754  0.0656  2.1271
 4232SOL    HW224330   3.444   1.886  11.549 -0.6410 -1.6429  0.6787
 4233SOL     OW24331   2.304   1.050   1.962 -0.1328 -0.4845  0.0612
 4233SOL    HW124332   2.361   1.123   1.986 -1.4799  0.9194 -1.1007
 4233SOL    HW224333   2.307   1.043   1.867 -0.7839 -3.1860  0.2206
 4234SOL     OW24334   2.593   0.032   5.814 -0.3795 -0.3547  0.2685
 4234SOL    HW124335   2.617   0.122   5.836 -2.7735  0.1352  0.9384
 4234SOL    HW224336   2.608   4.722   5.895  1.2236  1.0852  0.8517
 4235SOL     OW24337   1.215   3.689   9.655  0.2159 -0.0355 -0.2270
 4235SOL    HW124338   1.243   3.692   9.563 -1.1675 -0.8724 -0.6668
 4235SOL    HW224339   1.299   3.649   9.680  0.9832  0.7684 -1.5331
 4236SOL     OW24340   2.980   0.062   0.818 -0.3211 -0.4839  0.3668
 4236SOL    HW124341   3.051   0.037   0.760 -0.4735  1.9769 -0.8869
 4236SOL    HW224342   2.910   0.051   0.753  0.6138  4.5026 -1.4420
 4237SOL     OW24343   1.466   1.227   3.936 -0.1108 -0.3298  0.1635
 4237SOL    HW124344   1.381   1.215   3.979 -0.7342  3.1707 -0.0418
 4237SOL    HW224345   1.501   1.139   3.947 -0.2240 -0.5404 -1.2023
 4238SOL     OW24346   0.030   1.307   5.153  0.0229  0.3848 -0.5379
 4238SOL    HW124347   0.064   1.247   5.220 -0.5531  0.1498 -0.4575
 4238SOL    HW224348   4.680   1.279   5.134 -0.2141  0.2751  0.7426
 4239SOL     OW24349   2.760   2.712   5.184 -0.2957 -0.0767  0.8166
 4239SOL    HW124350   2.732   2.740   5.271  0.3053  0.9138  0.6953
 4239SOL    HW224351   2.701   2.638   5.174 -0.0457 -0.0917 -0.5384
 4240SOL     OW24352   3.072   4.636  10.906 -0.0930  0.2587 -0.1658
 4240SOL    HW124353   3.004   4.700  10.928 -1.2935 -1.4833  1.2290
 4240SOL    HW224354   3.149   4.688  10.927  0.7842 -0.7297 -0.9096
 4241SOL     OW24355   0.414   3.135   2.636  0.1579  0.0094 -0.0043
 4241SOL    HW124356   0.370   3.219   2.627  0.9072  0.6396  2.1920
 4241SOL    HW224357   0.501   3.162   2.666  0.3823  0.4732 -1.0713
 4242SOL     OW24358   3.595   1.023  17.324 -0.0547 -0.0930  0.4144
 4242SOL    HW124359   3.685   1.046  17.344  0.3506 -0.1805 -1.3251
 4242SOL    HW224360   3.574   1.078  17.248 -1.0623  1.0910  1.5627
 4243SOL     OW24361   2.574   3.035   7.575  0.6077  0.2027 -0.0118
 4243SOL    HW124362   2.574   3.072   7.663  1.9739 -1.6219  0.7507
 4243SOL    HW224363   2.665   3.013   7.555  0.0144  0.0530 -2.5001
 4244SOL     OW24364   2.810   2.839  14.328  0.1759  0.1145 -0.2708
 4244SOL    HW124365   2.748   2.768  14.343 -1.2856  0.7708 -3.1583
 4244SOL    HW224366   2.758   2.919  14.330 -0.6234 -0.4083 -0.1550
 4245SOL     OW24367   3.174   3.886  13.115 -0.2304  0.4006  0.3099
 4245SOL    HW124368   3.082   3.899  13.093  0.0316  2.9057  0.7310
 4245SOL    HW224369   3.191   3.796  13.084 -0.2098  0.1283  1.1137
 4246SOL     OW24370   0.129   0.115   2.122  0.0166  0.1308  0.2600
 4246SOL    HW124371   0.148   0.022   2.137 -1.3494 -0.5383 -2.1752
 4246SOL    HW224372   0.218   0.147   2.137  0.1613  0.3702 -1.1413
 4247SOL     OW24373   4.350   2.704   5.577  0.3533  0.1907  0.8565
 4247SOL    HW124374   4.277   2.766   5.584  0.2892  0.3717 -1.2151
 4247SOL    HW224375   4.424   2.764   5.588  1.5657 -0.7934 -1.9861
 4248SOL     OW24376   4.412   0.104   3.245  0.4695 -0.3860 -0.4679
 4248SOL    HW124377   4.455   0.078   3.327 -0.0858  0.4677  0.0978
 4248SOL    HW224378   4.334   0.049   3.246 -1.9406  3.0559  1.3752
 4249SOL     OW24379   0.569   4.113   0.815 -0.8470 -0.2029 -0.2825
 4249SOL    HW124380   0.629   4.038   0.813  3.0482  2.8694  2.0558
 4249SOL    HW224381   0.598   4.165   0.741  1.1174  0.6270  1.0581
 4250SOL     OW24382   2.865   1.590   2.966  0.3637 -0.3412 -0.4886
 4250SOL    HW124383   2.887   1.535   2.891  1.3184 -1.4215  0.5600
 4250SOL    HW224384   2.875   1.537   3.046  0.9629  1.3301  0.5413
 4251SOL     OW24385   0.975   2.346   6.336  0.2548  0.0844 -0.1544
 4251SOL    HW124386   0.993   2.280   6.402 -0.6952 -0.8964 -0.8600
 4251SOL    HW224387   0.921   2.295   6.276  1.7790 -1.6488 -0.0311
 4252SOL     OW24388   2.557   3.128   6.067 -0.4860 -0.2725  0.7680
 4252SOL    HW124389   2.549   3.220   6.092 -3.4842 -0.2097 -0.5526
 4252SOL    HW224390   2.537   3.123   5.974  0.4684  0.3551  0.5234
 4253SOL     OW24391   3.180   0.073   1.549  0.3201  0.4357  0.1370
 4253SOL    HW124392   3.158   0.080   1.456  2.7826 -1.1450 -0.5585
 4253SOL    HW224393   3.099   0.097   1.594 -0.9243 -1.7429 -0.9309
 4254SOL     OW24394   3.784   1.608   1.755  0.1663 -0.1018 -0.2310
 4254SOL    HW124395   3.809   1.591   1.664 -1.4806 -1.1034 -0.5085
 4254SOL    HW224396   3.802   1.522   1.794  1.0629  0.1272 -0.1494
 4255SOL     OW24397   3.417   1.709   7.738 -0.1500 -0.8081  0.1206
 4255SOL    HW124398   3.512   1.718   7.732 -0.1539  0.3062  1.8011
 4255SOL    HW224399   3.398   1.637   7.798  1.3409 -0.3969  1.0676
 4256SOL     OW24400   4.302   3.723   4.928 -0.7347 -0.4541  0.2951
 4256SOL    HW124401   4.261   3.670   4.860  0.1707 -0.4232 -0.2685
 4256SOL    HW224402   4.396   3.726   4.908 -0.7841 -0.1874  0.1074
 4257SOL     OW24403   0.583   3.318   4.892 -0.0105  0.2004 -0.2204
 4257SOL    HW124404   0.516   3.256   4.920 -0.4982  0.6074 -0.4741
 4257SOL    HW224405   0.619   3.345   4.976  1.8304  1.7797 -1.5188
 4258SOL     OW24406   3.430   0.106   9.654  0.0262 -0.1432 -0.2735
 4258SOL    HW124407   3.517   0.074   9.675 -0.3159 -0.5425  0.5325
 4258SOL    HW224408   3.447   0.197   9.677 -3.6383  0.4060  0.3708
 4259SOL     OW24409   0.770   0.326   5.848  0.5439  0.6044  0.2059
 4259SOL    HW124410   0.826   0.248   5.852 -1.5342 -0.9523 -1.1503
 4259SOL    HW224411   0.764   0.344   5.942 -1.5954  0.7840  0.0318
 4260SOL     OW24412   2.536   4.613   2.552  0.6152 -0.0932  0.3439
 4260SOL    HW124413   2.504   4.525   2.533  0.2898  0.3366 -1.1182
 4260SOL    HW224414   2.581   4.621   2.468 -0.0605 -0.7261 -0.0740
 4261SOL     OW24415   4.660   3.932   2.432  0.2063  0.6300  0.5072
 4261SOL    HW124416   4.661   4.023   2.460  0.6391  0.1685  1.9916
 4261SOL    HW224417   4.706   3.934   2.348  1.5349  1.3077  1.2466
 4262SOL     OW24418   2.899   3.306   5.236  0.1197  0.2936  0.3624
 4262SOL    HW124419   2.875   3.319   5.328  0.6755  0.0217  0.5437
 4262SOL    HW224420   2.930   3.395   5.220 -1.3785  0.3524 -2.2749
 4263SOL     OW24421   1.634   2.605  12.210  0.0655 -1.0286 -0.1493
 4263SOL    HW124422   1.610   2.516  12.236 -4.2209  0.2169  0.2082
 4263SOL    HW224423   1.718   2.609  12.256 -1.1154 -0.3113  1.9133
 4264SOL     OW24424   0.652   2.478  11.236 -0.2251  0.1094  0.3462
 4264SOL    HW124425   0.664   2.383  11.227  0.6240  0.4604 -2.3052
 4264SOL    HW224426   0.742   2.501  11.210 -0.0300  0.6257  1.5217
 4265SOL     OW24427   4.473   3.968  15.100  0.1289  0.4113 -0.1315
 4265SOL    HW124428   4.405   3.902  15.111 -0.9357  1.5095 -0.1167
 4265SOL    HW224429   4.546   3.908  15.081  0.8419  0.9947  0.7495
 4266SOL     OW24430   2.640   2.359   4.730 -0.4523 -0.4991  0.0101
 4266SOL    HW124431   2.622   2.266   4.737  0.1273 -0.5765  0.4589
 4266SOL    HW224432   2.619   2.367   4.637  0.8785  1.2881 -0.1558
 4267SOL     OW24433   4.677   2.827  17.302  0.3944 -0.6051 -0.2026
 4267SOL    HW124434   4.675   2.738  17.337  0.5877 -0.7143 -0.4639
 4267SOL    HW224435   4.639   2.808  17.216 -1.8905 -0.7688  0.8680
 4268SOL     OW24436   3.399   4.263   5.946 -0.5383  0.1476  0.1116
 4268SOL    HW124437   3.388   4.175   5.983 -2.0001  0.1412 -0.3577
 4268SOL    HW224438   3.464   4.234   5.882 -0.0123 -0.5038  0.9241
 4269SOL     OW24439   4.619   2.800   7.945  0.4898 -0.2738  0.1041
 4269SOL    HW124440   4.562   2.729   7.973 -1.1195 -0.0132 -2.4342
 4269SOL    HW224441   4.630   2.844   8.030 -2.1847 -0.6144  0.6363
 4270SOL     OW24442   3.399   3.695   1.914 -0.1250  0.0626 -0.3903
 4270SOL    HW124443   3.387   3.614   1.863 -0.7905  1.0628 -1.8098
 4270SOL    HW224444   3.486   3.681   1.951  0.1856  1.2781 -0.6870
 4271SOL     OW24445   4.488   2.226  16.622  0.4202 -0.4150 -0.2722
 4271SOL    HW124446   4.534   2.207  16.704 -1.3164  1.6177  1.1949
 4271SOL    HW224447   4.397   2.238  16.650  0.2020  2.8319 -2.3670
 4272SOL     OW24448   2.104   2.481  11.554 -0.3797 -0.2161 -0.1950
 4272SOL    HW124449   2.174   2.509  11.613 -1.0336  1.2459 -0.1371
 4272SOL    HW224450   2.038   2.445  11.613  1.1138 -0.3663  1.3865
 4273SOL     OW24451   1.137   0.353   3.004  0.1833 -0.2366  0.1638
 4273SOL    HW124452   1.085   0.306   2.939  1.2341 -1.0307 -0.1081
 4273SOL    HW224453   1.150   0.288   3.073  0.2946 -0.9072 -0.4867
 4274SOL     OW24454   4.051   0.134   6.140 -0.0784 -0.0289 -0.2309
 4274SOL    HW124455   4.097   0.059   6.176  0.3971  0.2406 -0.2776
 4274SOL    HW224456   3.970   0.085   6.126 -1.3452  1.1729  2.7392
 4275SOL     OW24457   3.885   2.474   4.418 -0.1435  0.3016  0.1405
 4275SOL    HW124458   3.980   2.486   4.413  0.0523 -1.3110 -0.3085
 4275SOL    HW224459   3.858   2.510   4.502  2.1432  0.7186  0.7059
 4276SOL     OW24460   2.944   4.135   4.525 -0.0171  0.1686 -0.4378
 4276SOL    HW124461   2.851   4.115   4.539  0.2121  0.9804  2.1107
 4276SOL    HW224462   2.979   4.113   4.611  0.5141  0.3064 -0.6158
 4277SOL     OW24463   0.249   2.794   4.900 -0.4733 -0.2348 -0.3398
 4277SOL    HW124464   0.220   2.871   4.949  0.6273 -0.6198  0.9016
 4277SOL    HW224465   0.169   2.744   4.885 -0.9995 -0.0583  1.9994
 4278SOL     OW24466   4.696   3.924   6.940  1.0403 -0.1935 -0.4433
 4278SOL    HW124467   4.669   3.850   6.884 -0.2068 -0.6162  0.7237
 4278SOL    HW224468   4.610   3.965   6.938  1.4716  0.7473  0.7523
 4279SOL     OW24469   3.684   0.552   5.668  0.2377  0.5634 -0.0165
 4279SOL    HW124470   3.610   0.492   5.667  0.2599  0.5493 -1.7970
 4279SOL    HW224471   3.696   0.579   5.577 -0.0460  0.1926 -0.1650
 4280SOL     OW24472   0.662   0.638   2.991  0.0445  0.0464  0.1029
 4280SOL    HW124473   0.570   0.616   2.974  1.0189 -3.7204 -0.4950
 4280SOL    HW224474   0.643   0.649   3.084 -2.8094 -0.9081 -0.3513
 4281SOL     OW24475   2.541   2.572  16.514  0.3751  0.3520 -0.3778
 4281SOL    HW124476   2.621   2.581  16.567  0.0145 -1.6140  0.5000
 4281SOL    HW224477   2.473   2.586  16.581 -1.4588  0.5724 -2.2855
 4282SOL     OW24478   3.561   2.511   2.733 -0.1029 -0.3085  0.2590
 4282SOL    HW124479   3.492   2.480   2.674  0.5394 -1.5811  0.1797
 4282SOL    HW224480   3.627   2.444   2.717  0.8735  0.9336 -0.9495
 4283SOL     OW24481   0.714   2.311   5.734 -0.4508  0.6144  0.5670
 4283SOL    HW124482   0.801   2.274   5.724 -1.4270 -1.6891  0.5317
 4283SOL    HW224483   0.697   2.272   5.820 -0.6423 -1.2438 -0.3270
 4284SOL     OW24484   2.286   2.398   0.529 -0.7894 -0.5401 -0.1772
 4284SOL    HW124485   2.329   2.386   0.445 -0.9861 -0.9588 -0.2176
 4284SOL    HW224486   2.251   2.485   0.508 -2.1289 -0.9962  0.1611
 4285SOL     OW24487   0.600   0.540   6.246  0.0567  0.4042  0.4403
 4285SOL    HW124488   0.658   0.610   6.275 -0.6422  1.1200  0.1235
 4285SOL    HW224489   0.576   0.496   6.327 -0.8364 -1.4440 -0.8232
 4286SOL     OW24490   0.401   0.175   7.169  0.3686 -0.1991  0.2509
 4286SOL    HW124491   0.460   0.159   7.095  0.2301  1.1656 -0.1486
 4286SOL    HW224492   0.315   0.189   7.130  1.2403  2.1203 -0.8279
 4287SOL     OW24493   1.217   3.522   5.738 -0.4061 -0.0310 -0.4219
 4287SOL    HW124494   1.206   3.534   5.643 -1.7065 -2.0733 -0.5304
 4287SOL    HW224495   1.132   3.482   5.752 -0.9636  0.6409 -1.8710
 4288SOL     OW24496   0.220   3.440  14.488 -0.2348  0.3655  0.3127
 4288SOL    HW124497   0.223   3.432  14.393  3.2577 -0.7322  0.4916
 4288SOL    HW224498   0.133   3.406  14.509  0.3792 -1.3199  0.1906
 4289SOL     OW24499   2.108   3.516   0.862  0.1930 -0.3147  0.8535
 4289SOL    HW124500   2.093   3.609   0.877  1.4706 -0.0361  0.3334
 4289SOL    HW224501   2.150   3.514   0.776 -1.0429  1.1795  0.2158
 4290SOL     OW24502   3.278   0.994  14.139  0.2174  0.0183 -0.0006
 4290SOL    HW124503   3.315   1.064  14.193 -0.2609  0.5247 -0.3254
 4290SOL    HW224504   3.236   1.040  14.066 -0.8296  0.8323  1.1224
 4291SOL     OW24505   3.645   4.600   9.580 -0.2571 -0.6823  0.2066
 4291SOL    HW124506   3.656   4.652   9.660 -0.9797 -1.2270  0.6574
 4291SOL    HW224507   3.735   4.567   9.578  0.7871  2.2381 -0.7251
 4292SOL     OW24508   2.808   4.717   0.577 -0.6848 -0.4460 -0.3258
 4292SOL    HW124509   2.892   4.671   0.576 -0.5600 -0.2620  1.3000
 4292SOL    HW224510   2.811   0.015   0.489  0.2674 -1.2915 -0.6556
 4293SOL     OW24511   3.951   2.480  10.810 -0.2261 -0.2987  0.3563
 4293SOL    HW124512   4.029   2.527  10.840  0.8948 -1.3606 -0.8654
 4293SOL    HW224513   3.980   2.465  10.720  1.7708  2.3300  0.5487
 4294SOL     OW24514   0.337   0.434  11.166 -0.0371 -1.0286  0.8174
 4294SOL    HW124515   0.396   0.448  11.092 -1.9089  0.5340 -0.3847
 4294SOL    HW224516   0.370   0.346  11.187  0.6461 -1.0885 -0.4620
 4295SOL     OW24517   2.127   2.810  12.284 -0.5000 -0.0636 -0.0023
 4295SOL    HW124518   2.062   2.788  12.351  0.0603 -1.2927  0.1415
 4295SOL    HW224519   2.201   2.825  12.342 -0.1521  3.0643 -1.2506
 4296SOL     OW24520   3.693   0.831   8.023 -0.0212  0.6389 -0.2286
 4296SOL    HW124521   3.610   0.863   8.058 -0.0035  1.1088 -0.6160
 4296SOL    HW224522   3.735   0.808   8.106 -0.3609 -0.6773 -0.4227
 4297SOL     OW24523   2.812   0.758   6.866 -0.2590  0.1978  0.5352
 4297SOL    HW124524   2.749   0.787   6.800 -0.4385  1.4090  1.2431
 4297SOL    HW224525   2.899   0.788   6.839 -1.0411  0.7797 -1.3418
 4298SOL     OW24526   4.683   2.455   3.908  0.1900 -0.1436 -0.4482
 4298SOL    HW124527   0.022   2.477   3.958 -1.1149 -0.8455  1.9253
 4298SOL    HW224528   4.656   2.546   3.892 -0.9826 -0.8271 -2.2897
 4299SOL     OW24529   0.873   3.159   9.649 -0.2817 -0.0444  0.5852
 4299SOL    HW124530   0.865   3.225   9.580 -2.0448 -0.0857  0.7278
 4299SOL    HW224531   0.904   3.208   9.725  0.5490 -2.1624  1.5928
 4300SOL     OW24532   2.043   1.021   5.997  0.5317 -0.5838 -0.3652
 4300SOL    HW124533   1.954   0.988   6.011  0.6759 -0.2802  1.2584
 4300SOL    HW224534   2.013   1.104   5.961 -1.9009 -0.7486  1.2178
 4301SOL     OW24535   3.033   1.716   6.473  0.2924 -0.0656 -0.3859
 4301SOL    HW124536   3.080   1.639   6.504  0.7551 -0.4857 -2.1547
 4301SOL    HW224537   3.104   1.781   6.473  0.1913  0.0491  0.3300
 4302SOL     OW24538   0.551   1.982   5.898  0.2362  0.0246  0.4672
 4302SOL    HW124539   0.457   1.985   5.880  0.2671 -0.1661  0.2680
 4302SOL    HW224540   0.570   1.923   5.825 -0.4965 -0.7612  0.9211
 4303SOL     OW24541   3.319   1.496  14.975  0.1740 -0.1203  0.6389
 4303SOL    HW124542   3.247   1.438  14.999  0.0757 -0.5352 -0.6330
 4303SOL    HW224543   3.389   1.430  14.978  3.0038  2.7627 -1.6754
 4304SOL     OW24544   4.031   1.901  11.077 -0.0371  0.3145 -0.1676
 4304SOL    HW124545   4.078   1.842  11.017  0.0168  0.9764 -0.7740
 4304SOL    HW224546   3.965   1.935  11.016  1.6563  1.7770 -1.1535
 4305SOL     OW24547   1.516   0.853   3.528  0.7445 -0.3197 -0.3761
 4305SOL    HW124548   1.529   0.808   3.444  0.2481 -1.8547  0.3706
 4305SOL    HW224549   1.509   0.946   3.509  1.0698 -0.5757 -1.7411
 4306SOL     OW24550   4.019   0.866  12.764 -0.0782  0.4296  0.3145
 4306SOL    HW124551   4.026   0.936  12.699  0.7101 -0.4681 -0.5671
 4306SOL    HW224552   4.110   0.838  12.756 -0.1158  0.3908  0.0455
 4307SOL     OW24553   3.345   2.040  17.372  0.4640 -0.7591 -0.0356
 4307SOL    HW124554   3.296   2.119  17.396  0.0329 -1.1635  0.4347
 4307SOL    HW224555   3.355   2.005  17.461 -0.9248  0.0247  0.4373
 4308SOL     OW24556   3.570   0.295   1.271  0.0214 -0.3538 -0.1672
 4308SOL    HW124557   3.562   0.352   1.348  0.8521 -0.4362 -0.0209
 4308SOL    HW224558   3.530   0.214   1.303 -2.3228 -0.1053 -2.4875
 4309SOL     OW24559   2.629   0.496   4.679 -0.0184 -0.5916  0.3652
 4309SOL    HW124560   2.718   0.527   4.660 -0.5675  0.8195  0.1080
 4309SOL    HW224561   2.627   0.527   4.769 -1.2673 -3.0971  1.2154
 4310SOL     OW24562   2.908   4.549   7.753 -1.0190  0.2283 -0.5020
 4310SOL    HW124563   2.893   4.462   7.792  0.7903  0.5671  0.9513
 4310SOL    HW224564   2.822   4.568   7.716 -0.9693 -0.1413 -0.8086
 4311SOL     OW24565   4.732   3.798   7.887 -0.5783 -0.4981  0.2220
 4311SOL    HW124566   4.693   3.712   7.898  2.1571 -1.8579 -0.8168
 4311SOL    HW224567   4.663   3.859   7.913  1.1356  1.1838  0.7889
 4312SOL     OW24568   0.171   2.455  17.331 -0.4697 -0.1483 -0.1337
 4312SOL    HW124569   0.095   2.499  17.370 -2.0153 -3.8180  0.9940
 4312SOL    HW224570   0.162   2.494  17.244  2.2757  0.1149 -0.2892
 4313SOL     OW24571   1.100   3.409   9.805  0.3571 -0.3932 -0.3938
 4313SOL    HW124572   1.100   3.323   9.846  0.1367  0.4921  1.4637
 4313SOL    HW224573   1.192   3.430   9.822  0.1515 -1.1728  1.6485
 4314SOL     OW24574   0.248   3.404   8.497 -0.1133 -0.4144  0.2739
 4314SOL    HW124575   0.251   3.335   8.562  1.8893  0.3774  1.0023
 4314SOL    HW224576   0.316   3.462   8.531  0.2018 -0.9110  0.4821
 4315SOL     OW24577   4.106   0.023   0.953  0.5405  0.0649  0.5331
 4315SOL    HW124578   4.151   0.082   0.893 -2.0063 -0.4246 -1.8551
 4315SOL    HW224579   4.016   0.051   0.940  0.3833  0.8287  3.2203
 4316SOL     OW24580   2.864   1.900   6.579 -0.1342  0.5935  0.1878
 4316SOL    HW124581   2.919   1.936   6.649  0.1121  1.3645 -0.4007
 4316SOL    HW224582   2.929   1.843   6.538 -1.3189 -0.7122  0.1591
 4317SOL     OW24583   1.712   1.291   7.493 -0.0659 -0.5474 -0.0770
 4317SOL    HW124584   1.653   1.277   7.568  0.7590  1.3928  0.9233
 4317SOL    HW224585   1.686   1.235   7.420  0.4787 -0.1180 -0.5883
 4318SOL     OW24586   1.885   0.537  12.447 -0.7405  0.0835 -0.1891
 4318SOL    HW124587   1.891   0.527  12.352 -1.7695  1.1060 -0.3613
 4318SOL    HW224588   1.827   0.612  12.459 -0.4934  0.1155  0.7980
 4319SOL     OW24589   0.317   2.257  10.063  0.1058  0.8052 -0.1321
 4319SOL    HW124590   0.410   2.260  10.088  0.0802  2.3825 -0.2379
 4319SOL    HW224591   0.303   2.348  10.038  2.2407  1.3963  0.8303
 4320SOL     OW24592   2.709   2.763   3.120 -0.2764  0.3949  0.0822
 4320SOL    HW124593   2.679   2.834   3.176 -0.7852  0.7216 -0.6092
 4320SOL    HW224594   2.621   2.750   3.085 -0.1256  0.5240 -0.3515
 4321SOL     OW24595   3.828   1.778  12.950  0.4701  0.0067  0.2335
 4321SOL    HW124596   3.757   1.743  13.003  2.9759 -1.5705  2.5491
 4321SOL    HW224597   3.790   1.770  12.863  0.7967  2.8653 -0.1688
 4322SOL     OW24598   3.609   2.558   5.523  0.6488 -0.0132 -0.8000
 4322SOL    HW124599   3.607   2.572   5.428 -2.2277  0.6033 -0.6425
 4322SOL    HW224600   3.544   2.625   5.544  0.6333 -0.1751 -0.3378
 4323SOL     OW24601   3.717   2.111   5.759  0.1818 -0.0676 -0.6146
 4323SOL    HW124602   3.652   2.069   5.703 -0.9457 -0.0748  0.7028
 4323SOL    HW224603   3.733   2.189   5.705 -0.3399  0.5863  0.1656
 4324SOL     OW24604   1.018   2.849   6.016 -0.1517  0.5285 -0.0013
 4324SOL    HW124605   1.110   2.858   5.993  0.4513  0.5435  2.4085
 4324SOL    HW224606   1.008   2.765   5.970  1.5117 -0.7663  2.0042
 4325SOL     OW24607   4.261   1.668   2.361 -0.3780 -0.2584 -0.2206
 4325SOL    HW124608   4.177   1.625   2.346  0.7535 -1.9234 -1.7014
 4325SOL    HW224609   4.318   1.591   2.359  0.3084  0.2250  1.1668
 4326SOL     OW24610   2.601   1.076   7.188 -0.3021 -0.5379 -0.6906
 4326SOL    HW124611   2.609   1.024   7.108 -0.4665  0.0370 -1.0807
 4326SOL    HW224612   2.615   1.004   7.250  1.8915  1.3431  0.9704
 4327SOL     OW24613   1.519   0.230   3.767  0.0393  0.0824  0.5345
 4327SOL    HW124614   1.539   0.219   3.860  0.0354 -1.3802  0.3616
 4327SOL    HW224615   1.540   0.146   3.725  0.4620 -0.3059  1.5278
 4328SOL     OW24616   2.844   4.044   1.483 -0.3169 -0.0770  0.3466
 4328SOL    HW124617   2.750   4.054   1.474 -0.6283 -0.2713  3.2246
 4328SOL    HW224618   2.861   4.007   1.570  2.6353 -1.4190 -0.7890
 4329SOL     OW24619   2.769   3.180  12.521  0.1388 -0.6833  0.4375
 4329SOL    HW124620   2.826   3.135  12.459  2.0082  1.1666  0.8011
 4329SOL    HW224621   2.687   3.137  12.495 -1.2437  2.1437  0.0906
 4330SOL     OW24622   0.133   3.897   5.210  0.2405  0.2976 -0.9720
 4330SOL    HW124623   0.192   3.895   5.286  0.8704  1.0422 -1.4383
 4330SOL    HW224624   0.173   3.833   5.152  0.3384  0.6866 -1.3375
 4331SOL     OW24625   3.086   4.290   6.967 -0.8400 -0.1747 -0.1759
 4331SOL    HW124626   3.131   4.256   7.044 -0.3918 -1.1520 -0.8792
 4331SOL    HW224627   2.995   4.297   6.997 -1.7904  1.3265 -3.3023
 4332SOL     OW24628   1.545   1.643   1.896  0.1909 -0.2323  0.0581
 4332SOL    HW124629   1.513   1.575   1.837 -0.1098 -0.2621  0.2589
 4332SOL    HW224630   1.508   1.623   1.982  0.9418  2.3341  0.9779
 4333SOL     OW24631   3.622   4.420   6.105  0.0261 -0.6662 -0.0945
 4333SOL    HW124632   3.668   4.360   6.163 -1.2474  0.1441  1.7550
 4333SOL    HW224633   3.651   4.505   6.137 -0.3504  0.3853 -2.5175
 4334SOL     OW24634   3.498   1.216   8.613  0.5676 -0.1159 -0.5549
 4334SOL    HW124635   3.558   1.283   8.581  0.9943 -0.8325 -1.2717
 4334SOL    HW224636   3.540   1.139   8.573  1.2429 -0.1004  0.1240
 4335SOL     OW24637   2.060   4.404   5.922 -0.0817  0.8318 -0.0312
 4335SOL    HW124638   2.147   4.444   5.927 -0.4679  1.3948  2.6179
 4335SOL    HW224639   2.007   4.484   5.917  0.2148  0.9676 -0.9446
 4336SOL     OW24640   1.130   0.815  10.348  0.3682 -0.2474 -0.5092
 4336SOL    HW124641   1.058   0.854  10.299 -0.4047 -1.8579 -0.6413
 4336SOL    HW224642   1.112   0.723  10.326  3.0752 -0.7310 -0.7221
 4337SOL     OW24643   3.558   2.293   8.916 -0.5955 -0.1321 -0.0197
 4337SOL    HW124644   3.595   2.206   8.900  1.0648  0.9610 -2.1953
 4337SOL    HW224645   3.467   2.267   8.931 -0.0032 -0.8208  2.2847
 4338SOL     OW24646   1.559   4.440  15.151 -0.4562  0.2139  0.2221
 4338SOL    HW124647   1.516   4.499  15.089 -2.4281  0.9134  2.2582
 4338SOL    HW224648   1.507   4.453  15.230  1.1347  1.0677  1.1487
 4339SOL     OW24649   2.351   1.315   3.055  0.2164  0.1513 -0.3782
 4339SOL    HW124650   2.274   1.347   3.103 -0.1178 -0.6025 -0.4161
 4339SOL    HW224651   2.314   1.290   2.970 -2.3182  1.8097  0.2219
 4340SOL     OW24652   2.361   4.587   5.493  0.3077 -0.6085 -0.4363
 4340SOL    HW124653   2.403   4.501   5.490 -1.2153 -1.4152  1.1585
 4340SOL    HW224654   2.439   4.642   5.493 -0.2204  0.1426  0.0533
 4341SOL     OW24655   2.627   4.614   2.292  0.0577 -0.2675  0.3013
 4341SOL    HW124656   2.552   4.654   2.248  0.5193  1.4478  1.0718
 4341SOL    HW224657   2.630   4.523   2.264 -3.5951 -0.2932 -0.0289
 4342SOL     OW24658   0.698   3.515  12.545 -0.1739 -0.9941  0.0206
 4342SOL    HW124659   0.673   3.426  12.574 -1.0208 -0.8258 -0.1883
 4342SOL    HW224660   0.620   3.557  12.509 -0.7106 -1.0838  1.0532
 4343SOL     OW24661   3.858   3.544   7.412  0.6093  0.1971 -0.0479
 4343SOL    HW124662   3.766   3.540   7.437  0.3314 -1.7571 -1.4297
 4343SOL    HW224663   3.843   3.545   7.317  0.9820  0.9671 -0.1019
 4344SOL     OW24664   0.653   3.096   0.727  0.7916  0.6583  0.2207
 4344SOL    HW124665   0.704   3.168   0.690  0.9152  0.1566 -0.6034
 4344SOL    HW224666   0.675   3.018   0.675 -1.1341  0.6898 -0.6673
 4345SOL     OW24667   2.784   0.710   9.218 -0.1944 -0.4701  0.0674
 4345SOL    HW124668   2.837   0.768   9.163 -0.7617 -0.7449 -0.7816
 4345SOL    HW224669   2.833   0.727   9.298 -0.2336  1.6371 -0.3526
 4346SOL     OW24670   1.605   1.297   2.158  0.2590 -0.9307  0.2718
 4346SOL    HW124671   1.623   1.287   2.252  1.0239 -0.1755  0.2083
 4346SOL    HW224672   1.512   1.286   2.143  0.3003 -0.6895 -0.1429
 4347SOL     OW24673   1.466   4.735  17.573  0.0847 -0.3789  0.2719
 4347SOL    HW124674   1.388   0.041  17.541  0.5642  1.7766  2.1974
 4347SOL    HW224675   1.466   0.024  17.664 -0.0203 -1.2335  0.5353
 4348SOL     OW24676   1.185   0.794   6.383  0.0705  0.5960  0.0589
 4348SOL    HW124677   1.157   0.761   6.297 -0.3273  1.3633 -0.1055
 4348SOL    HW224678   1.153   0.882   6.365  0.6498  0.6936 -0.4989
 4349SOL     OW24679   0.906   3.438   2.119  0.3500  0.8236  0.5087
 4349SOL    HW124680   0.882   3.356   2.162  0.3440 -0.3196 -1.6706
 4349SOL    HW224681   0.844   3.492   2.169  0.2387  0.1330  1.1131
 4350SOL     OW24682   1.037   2.688   8.654  0.3282 -0.4212 -0.0334
 4350SOL    HW124683   1.042   2.635   8.575 -1.5527 -0.4034 -0.1727
 4350SOL    HW224684   1.128   2.702   8.681  0.6311 -1.5999 -0.4731
 4351SOL     OW24685   4.195   0.051   8.135  0.3672 -0.0326 -0.2400
 4351SOL    HW124686   4.226   0.139   8.157  0.7881 -0.2245 -0.0774
 4351SOL    HW224687   4.107   0.046   8.172  1.0805 -1.9522  1.1879
 4352SOL     OW24688   0.924   2.859   3.760 -0.2913 -0.0882 -0.6022
 4352SOL    HW124689   0.847   2.891   3.808  1.7653  2.3037  1.1109
 4352SOL    HW224690   0.883   2.820   3.683  2.8616 -2.0986 -1.2381
 4353SOL     OW24691   2.965   0.345   0.441  0.2913  0.3286  0.0940
 4353SOL    HW124692   2.921   0.405   0.380  0.9892  1.6238  0.8875
 4353SOL    HW224693   3.050   0.347   0.397  0.5180 -0.7590  0.4956
 4354SOL     OW24694   3.053   1.891   5.060  0.0112 -0.1005  0.0730
 4354SOL    HW124695   3.103   1.831   5.115 -2.9216 -0.7624  2.0629
 4354SOL    HW224696   3.001   1.948   5.116 -0.9105  1.6851 -2.5868
 4355SOL     OW24697   0.429   4.124   6.943  0.2469 -0.0082 -0.3749
 4355SOL    HW124698   0.339   4.125   6.976  0.5504 -1.5248  0.5101
 4355SOL    HW224699   0.444   4.030   6.936 -0.5775 -0.1214 -0.6226
 4356SOL     OW24700   1.456   2.043  10.779  0.3365 -0.6414 -0.0450
 4356SOL    HW124701   1.532   1.993  10.806  0.0096 -0.2299  1.6869
 4356SOL    HW224702   1.429   2.067  10.868  1.3229  2.5900 -0.6027
 4357SOL     OW24703   2.229   4.208   3.756 -0.3037  0.5886 -0.9014
 4357SOL    HW124704   2.152   4.265   3.748  1.1487  2.6751  0.0255
 4357SOL    HW224705   2.236   4.211   3.851 -1.1369  0.2023 -0.8255
 4358SOL     OW24706   2.240   2.813  10.449 -0.3876  0.1854 -0.1698
 4358SOL    HW124707   2.276   2.726  10.462 -2.3870 -0.5653  0.3730
 4358SOL    HW224708   2.247   2.834  10.356 -1.5495  0.3973 -0.2120
 4359SOL     OW24709   2.973   0.528  12.324  0.2562 -0.9355 -0.0170
 4359SOL    HW124710   2.938   0.498  12.408  0.3772  0.4124  0.5245
 4359SOL    HW224711   3.065   0.546  12.347  1.5260 -1.8150 -4.5692
 4360SOL     OW24712   4.654   0.025  16.865  0.1567  0.4276 -0.7757
 4360SOL    HW124713   4.715   4.729  16.930 -0.1127 -0.0286 -0.7703
 4360SOL    HW224714   4.626   0.104  16.912 -0.3872 -0.1653 -0.1094
 4361SOL     OW24715   4.461   2.480   4.666 -0.1665  0.1649  0.7952
 4361SOL    HW124716   4.492   2.417   4.602 -0.0964  0.7439  0.2544
 4361SOL    HW224717   4.463   2.425   4.744 -1.7212  0.6817  1.2201
 4362SOL     OW24718   1.777   4.184   6.341 -0.0991 -0.1095  0.0189
 4362SOL    HW124719   1.787   4.278   6.350  1.1219 -0.4384  2.1459
 4362SOL    HW224720   1.859   4.173   6.293  0.9461  0.9770  1.5705
 4363SOL     OW24721   3.373   4.030  13.512  0.2143 -0.1953 -0.7430
 4363SOL    HW124722   3.290   4.074  13.529  0.3296 -0.5409  0.7409
 4363SOL    HW224723   3.388   3.984  13.595 -0.4514  1.1102  0.0866
 4364SOL     OW24724   2.524   4.720  15.764  0.1310 -0.4027  0.1643
 4364SOL    HW124725   2.532   4.629  15.733  2.3251 -0.1864  0.0741
 4364SOL    HW224726   2.453   4.709  15.827 -0.1934 -1.2589 -0.3345
 4365SOL     OW24727   3.248   0.107   5.947  0.6204 -0.2266  0.7218
 4365SOL    HW124728   3.156   0.083   5.941  0.8113 -0.9170  0.5779
 4365SOL    HW224729   3.246   0.199   5.920 -2.2334 -0.8004 -1.0127
 4366SOL     OW24730   4.058   3.481   7.964 -0.0913 -0.4373 -0.0149
 4366SOL    HW124731   4.012   3.504   7.883  0.5339 -0.0875 -0.2622
 4366SOL    HW224732   3.974   3.459   8.005  1.1701 -1.0057  2.1982
 4367SOL     OW24733   1.710   1.644   5.733  0.1977  0.0537  0.0062
 4367SOL    HW124734   1.718   1.737   5.754  2.0616 -0.4483  1.4953
 4367SOL    HW224735   1.789   1.625   5.682  1.3848 -0.4778  2.0544
 4368SOL     OW24736   1.839   4.107   2.349  0.0059  0.2757 -0.1561
 4368SOL    HW124737   1.800   4.146   2.427  2.2994 -0.4467  1.3633
 4368SOL    HW224738   1.928   4.142   2.356  0.3720 -0.6348 -0.3099
 4369SOL     OW24739   1.793   3.583   1.967  0.4887 -0.1383 -0.4806
 4369SOL    HW124740   1.745   3.615   2.043  0.6906  0.5856 -0.6547
 4369SOL    HW224741   1.718   3.555   1.914 -0.6909 -2.1297  2.2234
 4370SOL     OW24742   4.556   4.213   9.034 -0.2672  0.4104 -0.7900
 4370SOL    HW124743   4.628   4.206   8.972  0.2415 -1.2817 -0.0177
 4370SOL    HW224744   4.493   4.141   9.025 -1.0048  1.1518 -1.5283
 4371SOL     OW24745   3.947   4.439   9.352 -0.2272  0.2598 -0.5416
 4371SOL    HW124746   3.953   4.345   9.368 -0.8391  0.4871  1.0871
 4371SOL    HW224747   3.934   4.466   9.443  2.7851 -3.0617  0.8536
 4372SOL     OW24748   3.217   2.190   6.893  0.1419 -0.2422  0.4911
 4372SOL    HW124749   3.228   2.284   6.878  1.9689 -0.3569  1.1105
 4372SOL    HW224750   3.308   2.160   6.881 -0.4026 -1.8015  0.2079
 4373SOL     OW24751   4.503   1.050   3.498  0.1286 -0.1250 -0.5564
 4373SOL    HW124752   4.570   1.107   3.534 -0.1350 -1.0652  1.3946
 4373SOL    HW224753   4.471   1.119   3.440 -1.7385  0.9448  1.7274
 4374SOL     OW24754   2.101   3.338   5.954 -0.5699 -0.2547  0.1451
 4374SOL    HW124755   2.057   3.383   5.882  0.6309 -0.8592 -0.9577
 4374SOL    HW224756   2.188   3.377   5.943  0.3577 -1.6763  2.2900
 4375SOL     OW24757   3.887   3.077   8.562  0.0974  0.4199 -0.1386
 4375SOL    HW124758   3.902   3.021   8.486  1.7083 -0.3914  0.7753
 4375SOL    HW224759   3.825   3.140   8.524 -2.5668 -1.5274  0.9414
 4376SOL     OW24760   1.612   0.288   3.416  0.2059  0.0048 -0.0192
 4376SOL    HW124761   1.561   0.222   3.369 -0.0680 -0.2993  0.6991
 4376SOL    HW224762   1.588   0.265   3.506  0.4190  0.6228  0.1947
 4377SOL     OW24763   2.055   2.263   1.634 -0.6049 -0.0715 -0.4541
 4377SOL    HW124764   1.976   2.242   1.584 -0.8995 -0.3829  0.1475
 4377SOL    HW224765   2.096   2.325   1.574 -0.9377 -0.4336 -1.0597
 4378SOL     OW24766   1.467   0.052  12.873  0.2926  0.2196  0.4428
 4378SOL    HW124767   1.397   0.043  12.808 -0.0162 -1.6633  1.0439
 4378SOL    HW224768   1.540   0.005  12.833 -1.1438 -0.1756 -1.6880
 4379SOL     OW24769   1.114   2.507  15.627  0.1681 -0.0575  1.0361
 4379SOL    HW124770   1.069   2.439  15.576  1.0801 -0.5098  0.8292
 4379SOL    HW224771   1.205   2.483  15.608  0.4484  2.4554 -0.8104
 4380SOL     OW24772   1.957   4.202   7.381  0.0651 -0.2623 -0.2353
 4380SOL    HW124773   1.970   4.149   7.302  1.7978  1.7656 -1.3226
 4380SOL    HW224774   1.863   4.214   7.366  0.4435  1.6942 -0.9514
 4381SOL     OW24775   4.454   1.234  12.093 -0.0828  0.6542 -0.3519
 4381SOL    HW124776   4.480   1.151  12.054 -2.3475  0.6629 -1.8579
 4381SOL    HW224777   4.371   1.198  12.124  0.9994 -0.8299  0.8096
 4382SOL     OW24778   4.259   3.796  10.927 -0.0054 -0.3032 -0.3126
 4382SOL    HW124779   4.171   3.788  10.964 -0.2081 -0.7475 -0.8984
 4382SOL    HW224780   4.246   3.860  10.857 -1.6574 -0.2829  0.0255
 4383SOL     OW24781   0.712   3.536  17.013 -0.2027  0.2861  0.1683
 4383SOL    HW124782   0.657   3.468  17.053  2.3205 -1.3306  0.8303
 4383SOL    HW224783   0.660   3.609  17.046 -0.1183  0.1042  0.6993
 4384SOL     OW24784   4.513   4.449  12.409  0.5715  0.3243  0.3756
 4384SOL    HW124785   4.483   4.537  12.388 -0.7361 -0.3186 -0.4941
 4384SOL    HW224786   4.435   4.408  12.447  0.1005 -0.4873 -1.4570
 4385SOL     OW24787   3.265   3.521   5.520 -0.6290  0.4736  0.1908
 4385SOL    HW124788   3.267   3.614   5.500 -1.0047  0.4284 -0.0575
 4385SOL    HW224789   3.357   3.513   5.544 -0.9478 -0.8986  0.9534
 4386SOL     OW24790   0.266   3.227   9.476 -0.5092  0.3369  0.4879
 4386SOL    HW124791   0.301   3.172   9.545 -1.7733 -1.4058 -0.2760
 4386SOL    HW224792   0.342   3.280   9.452 -1.8069  1.7449 -0.5903
 4387SOL     OW24793   4.551   4.013   6.360 -0.2401  0.3814 -0.5003
 4387SOL    HW124794   4.624   3.965   6.320  1.6287  3.5143 -0.8287
 4387SOL    HW224795   4.477   3.971   6.316 -0.9709 -0.5351  1.6037
 4388SOL     OW24796   3.496   3.539   7.077 -0.0008  0.2577 -0.1175
 4388SOL    HW124797   3.566   3.604   7.084  0.9501 -0.6957 -0.8791
 4388SOL    HW224798   3.507   3.508   6.987 -0.4933 -0.8438  0.2090
 4389SOL     OW24799   4.645   1.012  15.940  0.2095 -0.2628 -0.1373
 4389SOL    HW124800   4.584   1.031  15.869  1.9516  0.2281 -1.5200
 4389SOL    HW224801   4.595   1.042  16.015  0.1901  0.4038 -0.4194
 4390SOL     OW24802   0.291   3.392   9.108 -0.0512  0.8393 -0.5224
 4390SOL    HW124803   0.361   3.396   9.173  0.5490 -1.2820 -1.0161
 4390SOL    HW224804   0.245   3.474   9.123  1.1576  1.6556 -1.2762
 4391SOL     OW24805   0.474   2.099   9.364  0.1008  0.4877 -0.2018
 4391SOL    HW124806   0.415   2.109   9.439 -0.0177  1.0639 -0.3720
 4391SOL    HW224807   0.495   2.006   9.370 -3.1744 -0.2661 -0.2082
 4392SOL     OW24808   4.707   1.157   5.421 -0.0893 -0.0121  0.1813
 4392SOL    HW124809   4.655   1.079   5.405  0.4263 -0.1390 -0.8605
 4392SOL    HW224810   0.050   1.112   5.438  0.1054  0.6180  0.9296
 4393SOL     OW24811   2.958   4.156   1.235  0.3948 -0.0720 -0.2369
 4393SOL    HW124812   2.906   4.124   1.309  0.4155 -0.1012 -0.2349
 4393SOL    HW224813   2.905   4.231   1.207  1.0958  0.3166 -0.5167
 4394SOL     OW24814   3.898   1.973   9.245  0.0527 -0.0377  0.1450
 4394SOL    HW124815   3.934   1.885   9.233 -0.3461 -0.3896  1.6123
 4394SOL    HW224816   3.914   2.009   9.157 -4.0898  2.3216  0.3605
 4395SOL     OW24817   1.760   2.244  11.662 -0.0206 -0.0788  0.3221
 4395SOL    HW124818   1.805   2.325  11.685  0.1120 -0.7062  2.2810
 4395SOL    HW224819   1.793   2.176  11.721 -0.4397  1.8378  2.7778
 4396SOL     OW24820   4.441   0.696   4.898  0.3086 -0.0938  0.4086
 4396SOL    HW124821   4.507   0.645   4.851  0.4259  0.6923 -0.2638
 4396SOL    HW224822   4.484   0.773   4.933  1.9736 -0.6732 -0.3710
 4397SOL     OW24823   0.384   3.402   3.091  0.1717  0.1635  0.2388
 4397SOL    HW124824   0.422   3.318   3.063  0.1213  0.2636 -0.1219
 4397SOL    HW224825   0.315   3.411   3.025  1.4268  0.6396 -0.9942
 4398SOL     OW24826   1.279   1.506   0.943 -0.0608  0.8730 -0.8764
 4398SOL    HW124827   1.375   1.504   0.947 -0.1338  0.0250  0.5942
 4398SOL    HW224828   1.272   1.591   0.900 -0.2829  0.9364 -0.7135
 4399SOL     OW24829   0.524   1.885   7.272 -0.2630 -0.0298 -0.2449
 4399SOL    HW124830   0.561   1.973   7.273  0.9075 -0.5506  1.6458
 4399SOL    HW224831   0.446   1.903   7.324 -1.2147  0.4261 -1.8203
 4400SOL     OW24832   0.003   2.187   2.074  0.1409  0.1601 -0.1046
 4400SOL    HW124833   4.700   2.130   2.138 -1.6647  2.7917  1.0425
 4400SOL    HW224834   0.019   2.130   1.999 -0.3179 -0.6291  0.4005
 4401SOL     OW24835   1.251   4.311   4.164 -0.6780 -0.1683 -0.1878
 4401SOL    HW124836   1.219   4.314   4.073 -0.5400 -0.1080 -0.2343
 4401SOL    HW224837   1.165   4.323   4.204 -0.7811 -3.3527  0.5559
 4402SOL     OW24838   0.834   2.622   3.919 -0.3368  0.6169 -0.3373
 4402SOL    HW124839   0.911   2.608   3.974 -1.3464  2.2739  1.5115
 4402SOL    HW224840   0.863   2.694   3.863  2.5933 -0.3011  0.0420
 4403SOL     OW24841   3.417   0.933  17.506 -0.5716 -0.4240 -0.1097
 4403SOL    HW124842   3.473   0.960  17.433  1.4783 -0.5861  1.4108
 4403SOL    HW224843   3.462   0.854  17.536  1.8178  0.7753 -0.5852
 4404SOL     OW24844   2.993   3.085   3.111 -0.4026  0.3241  0.6620
 4404SOL    HW124845   3.008   2.997   3.146  0.4269  0.5775  0.9571
 4404SOL    HW224846   3.076   3.099   3.064 -0.5100 -0.5671  0.2249
 4405SOL     OW24847   0.930   0.988   2.225 -0.1768 -0.3682  0.3256
 4405SOL    HW124848   0.854   1.024   2.180  0.6329  3.3071  1.9258
 4405SOL    HW224849   0.982   0.952   2.153 -0.4440  0.6201 -0.3525
 4406SOL     OW24850   1.281   0.546  17.267  0.1802  0.4695 -0.4199
 4406SOL    HW124851   1.210   0.519  17.209 -0.1472  1.2789 -0.3919
 4406SOL    HW224852   1.344   0.580  17.204  2.0968 -2.4466 -0.1088
 4407SOL     OW24853   3.000   3.095   2.671  0.1076 -0.3720  0.3363
 4407SOL    HW124854   2.926   3.036   2.688 -1.1415  1.0407 -0.1374
 4407SOL    HW224855   3.044   3.046   2.602  1.0917 -0.6958  1.1994
 4408SOL     OW24856   0.785   1.362   8.228  0.3395 -0.0170 -0.1258
 4408SOL    HW124857   0.851   1.398   8.169 -0.8477  3.2443  0.5616
 4408SOL    HW224858   0.835   1.334   8.306  0.2817 -0.9681 -0.4260
 4409SOL     OW24859   0.148   2.322   8.286 -0.3188  0.7724 -0.1044
 4409SOL    HW124860   0.239   2.294   8.276 -0.7252 -0.0799 -1.3598
 4409SOL    HW224861   0.107   2.268   8.218 -0.1352 -0.1844  0.5384
 4410SOL     OW24862   4.169   3.029   5.212 -0.4354  0.1798 -0.4114
 4410SOL    HW124863   4.221   3.008   5.134 -0.6482 -4.0313  0.5820
 4410SOL    HW224864   4.093   3.066   5.167 -3.2654 -0.3891  3.9920
 4411SOL     OW24865   4.444   0.988   7.901 -0.1026  0.1623  0.2317
 4411SOL    HW124866   4.471   1.072   7.936  0.4767 -0.3316  0.9688
 4411SOL    HW224867   4.524   0.969   7.853 -1.8293 -2.3614 -1.6917
 4412SOL     OW24868   2.262   0.687   3.454 -0.2884 -0.4692 -0.8975
 4412SOL    HW124869   2.306   0.602   3.449  0.0124 -0.4423  1.3262
 4412SOL    HW224870   2.180   0.667   3.409  0.4099 -1.2665 -1.8066
 4413SOL     OW24871   3.131   2.638  11.922 -0.2028  0.6429 -0.0288
 4413SOL    HW124872   3.063   2.593  11.873 -1.2630  1.3908  0.7383
 4413SOL    HW224873   3.073   2.654  11.997  0.6340  1.2310  0.4947
 4414SOL     OW24874   3.350   2.005  12.028 -0.1998  0.5622 -0.7765
 4414SOL    HW124875   3.411   2.055  12.082  0.2171 -0.2249 -0.5206
 4414SOL    HW224876   3.398   1.922  12.029 -0.6622  0.2958 -0.8074
 4415SOL     OW24877   3.766   1.374   4.697 -0.2502 -0.1745  0.3572
 4415SOL    HW124878   3.847   1.360   4.649 -0.5758 -0.0541 -0.2218
 4415SOL    HW224879   3.702   1.314   4.658 -0.7937  1.7234 -1.6460
 4416SOL     OW24880   4.115   2.495   2.584 -0.0097  0.1654  0.2077
 4416SOL    HW124881   4.140   2.406   2.557  0.2085  0.0505  0.8011
 4416SOL    HW224882   4.087   2.538   2.503  0.6516 -0.0257 -0.1294
 4417SOL     OW24883   1.917   2.494   0.274 -0.2297 -0.3271  0.0910
 4417SOL    HW124884   1.858   2.422   0.251 -0.7892  0.6537 -1.4989
 4417SOL    HW224885   1.921   2.477   0.369  0.9258  1.0524  0.2763
 4418SOL     OW24886   3.328   4.120  15.000 -0.1778 -0.1840 -0.3988
 4418SOL    HW124887   3.292   4.031  14.995  0.9455 -0.6341 -0.3645
 4418SOL    HW224888   3.419   4.101  14.980 -1.1762 -0.8630 -4.3296
 4419SOL     OW24889   3.253   1.752  15.296 -0.7887  0.3190  0.3445
 4419SOL    HW124890   3.231   1.772  15.205 -2.6920  0.0544  0.7423
 4419SOL    HW224891   3.175   1.792  15.334  0.7956  1.9924  1.8132
 4420SOL     OW24892   4.215   2.637  11.081  0.1098 -0.0958 -0.5115
 4420SOL    HW124893   4.128   2.651  11.118 -0.3347 -2.0484 -0.8195
 4420SOL    HW224894   4.269   2.699  11.130 -0.0500  0.1181 -0.6045
 4421SOL     OW24895   1.073   2.375   9.174  0.6407 -0.5941  0.2093
 4421SOL    HW124896   1.086   2.298   9.229  2.3708 -1.8585 -1.9653
 4421SOL    HW224897   0.997   2.417   9.212 -0.1872 -1.1511 -0.8409
 4422SOL     OW24898   0.522   0.990   7.918 -0.4114 -0.4673  0.0117
 4422SOL    HW124899   0.583   1.060   7.940  2.5224 -2.4077 -1.7216
 4422SOL    HW224900   0.463   0.985   7.993 -0.4533  0.9832  0.0654
 4423SOL     OW24901   2.536   4.383   3.754 -0.1271  0.0762  0.0841
 4423SOL    HW124902   2.547   4.377   3.849  0.3569 -0.8593 -0.0292
 4423SOL    HW224903   2.453   4.430   3.747 -1.2263 -1.7565  0.9083
 4424SOL     OW24904   0.224   4.230   5.261 -0.7150 -0.0007 -0.5527
 4424SOL    HW124905   0.142   4.225   5.310 -0.6726 -0.9695 -0.5652
 4424SOL    HW224906   0.253   4.141   5.240 -0.3016  0.4777 -2.0276
 4425SOL     OW24907   3.270   0.541   8.500 -0.1804 -0.1095 -0.3180
 4425SOL    HW124908   3.178   0.529   8.524  0.0169 -1.4602 -0.1968
 4425SOL    HW224909   3.284   0.632   8.526 -1.3819  0.1425 -0.5648
 4426SOL     OW24910   1.741   0.113   2.775 -0.2170 -0.2545 -0.0055
 4426SOL    HW124911   1.805   0.185   2.772 -0.5715  0.0803  0.4692
 4426SOL    HW224912   1.720   0.113   2.869 -1.6995  1.6490 -0.3287
 4427SOL     OW24913   3.877   2.395   6.372 -0.3530 -0.3949 -0.0090
 4427SOL    HW124914   3.867   2.354   6.458  0.0915 -1.6703 -0.5610
 4427SOL    HW224915   3.935   2.467   6.399 -1.3649 -0.0696  1.3346
 4428SOL     OW24916   4.651   4.566  16.158  0.2353 -0.1197 -0.0954
 4428SOL    HW124917   4.691   4.526  16.081 -1.4852  0.0062 -1.0629
 4428SOL    HW224918   4.560   4.569  16.127  0.1079 -0.3665  0.2627
 4429SOL     OW24919   1.944   1.352  12.942 -0.2006 -0.3765 -0.5319
 4429SOL    HW124920   1.892   1.417  12.989 -0.7904 -1.3208  0.1205
 4429SOL    HW224921   2.023   1.355  12.995 -0.0189 -0.2307 -0.8139
 4430SOL     OW24922   3.090   3.546   3.704 -0.8832  0.1343 -0.0499
 4430SOL    HW124923   3.025   3.493   3.750 -0.1581 -1.5591 -0.9856
 4430SOL    HW224924   3.038   3.573   3.628  0.2376 -1.9829 -1.5697
 4431SOL     OW24925   0.070   1.736   7.997 -0.6734  0.2859  0.9202
 4431SOL    HW124926   0.010   1.785   7.941 -2.1886  1.3229  3.4676
 4431SOL    HW224927   0.144   1.797   8.009 -1.7318  1.3641  1.9710
 4432SOL     OW24928   1.269   0.413   6.312  0.1273 -0.3906  0.7549
 4432SOL    HW124929   1.266   0.323   6.281 -0.2019  0.4255 -1.5821
 4432SOL    HW224930   1.291   0.461   6.232 -0.9064  1.3825  1.5266
 4433SOL     OW24931   1.085   1.048   3.818  0.0804 -0.3369  0.1320
 4433SOL    HW124932   1.091   1.128   3.767  3.5382  0.4953  1.8871
 4433SOL    HW224933   1.035   0.977   3.776 -0.5570  0.1673  0.0507
 4434SOL     OW24934   0.367   2.100  11.224 -0.3019 -0.2925 -0.5267
 4434SOL    HW124935   0.382   2.107  11.130 -2.7512  0.9648 -0.8313
 4434SOL    HW224936   0.376   2.187  11.264 -0.4983 -1.3210  1.7619
 4435SOL     OW24937   2.623   0.417   6.264  0.7450  0.2124  0.5955
 4435SOL    HW124938   2.630   0.432   6.358  1.3216 -0.4852  0.6666
 4435SOL    HW224939   2.544   0.364   6.254  2.2831 -2.1334  0.7842
 4436SOL     OW24940   1.915   3.185  16.175 -0.0394 -0.6395 -0.0319
 4436SOL    HW124941   1.964   3.255  16.219  1.0646 -0.1249 -2.0887
 4436SOL    HW224942   1.931   3.113  16.236 -2.3893 -1.6758 -0.6130
 4437SOL     OW24943   1.770   2.848   5.477  0.1144  0.2851 -0.8717
 4437SOL    HW124944   1.764   2.806   5.391 -0.6269 -0.3741 -0.5013
 4437SOL    HW224945   1.744   2.934   5.444 -0.1357  0.9272  0.9964
 4438SOL     OW24946   2.999   4.118   0.955  0.2986  0.1728 -0.6088
 4438SOL    HW124947   2.974   4.096   1.045 -0.9205 -0.2356 -1.0432
 4438SOL    HW224948   3.080   4.067   0.952 -0.1359 -0.5916  0.5443
 4439SOL     OW24949   0.140   2.651   5.810  0.2646 -0.0910 -0.4014
 4439SOL    HW124950   0.234   2.653   5.794  0.6240 -0.9235  1.5639
 4439SOL    HW224951   0.122   2.592   5.884 -2.3028  1.5264  0.2443
 4440SOL     OW24952   0.808   0.073   3.524 -0.3519  0.3216  0.1228
 4440SOL    HW124953   0.774   0.150   3.477  0.8990 -0.1982 -1.6265
 4440SOL    HW224954   0.883   0.109   3.570 -0.3747  0.7436 -0.1621
 4441SOL     OW24955   1.558   1.033  16.737  0.2273  0.4765  0.2816
 4441SOL    HW124956   1.573   1.127  16.730 -2.8300  1.0070  0.7318
 4441SOL    HW224957   1.647   0.998  16.741  0.4322  1.1633  1.7481
 4442SOL     OW24958   0.966   3.578   7.804  0.0518  0.0581  0.5782
 4442SOL    HW124959   0.900   3.647   7.802 -2.5788 -2.4768 -0.1113
 4442SOL    HW224960   1.037   3.619   7.855 -0.5146  0.9584  0.6360
 4443SOL     OW24961   0.182   3.570   9.354  0.4189  0.1559  0.6531
 4443SOL    HW124962   0.155   3.658   9.328  0.7291 -0.8612 -3.0715
 4443SOL    HW224963   0.243   3.590   9.425  0.3172 -1.2892  1.1535
 4444SOL     OW24964   3.912   0.592   3.441 -0.2335 -0.3897 -0.4743
 4444SOL    HW124965   3.965   0.658   3.397 -1.2326  1.6882  1.4312
 4444SOL    HW224966   3.970   0.517   3.428  0.5506  0.4778 -1.9795
 4445SOL     OW24967   1.346   3.048  12.140  0.6982  0.3067  0.2994
 4445SOL    HW124968   1.362   3.058  12.234  1.2587  1.7201  0.0663
 4445SOL    HW224969   1.430   3.018  12.107 -0.2208 -0.5483 -1.2155
 4446SOL     OW24970   0.851   4.634   5.833  0.1262 -0.7106 -0.0717
 4446SOL    HW124971   0.945   4.651   5.845  0.1300 -0.5144 -0.3857
 4446SOL    HW224972   0.829   4.569   5.900  0.9305 -1.2885 -0.3665
 4447SOL     OW24973   1.707   0.167   3.051 -0.3287 -0.3735 -0.6072
 4447SOL    HW124974   1.643   0.223   3.096 -2.3852 -0.6950 -3.2038
 4447SOL    HW224975   1.767   0.142   3.122 -1.7678  0.6959  1.0023
 4448SOL     OW24976   3.321   2.002  11.490  0.1015  0.2405  0.3708
 4448SOL    HW124977   3.295   2.092  11.473 -1.5063 -0.1566  0.7597
 4448SOL    HW224978   3.275   1.992  11.573 -1.0991  1.7652 -0.1249
 4449SOL     OW24979   3.172   1.453   7.658 -0.0672  0.1944  0.1870
 4449SOL    HW124980   3.194   1.455   7.565 -2.0345  0.7480 -0.2604
 4449SOL    HW224981   3.221   1.375   7.683  0.9020  0.6662 -0.2752
 4450SOL     OW24982   0.439   2.762   7.360 -0.5975  0.1836 -0.2704
 4450SOL    HW124983   0.384   2.839   7.372  2.1720  2.3873 -1.6322
 4450SOL    HW224984   0.514   2.809   7.324 -0.0232 -1.5311 -1.3076
 4451SOL     OW24985   0.384   0.787  13.223  0.3416  0.1110 -0.0515
 4451SOL    HW124986   0.462   0.757  13.176 -0.2444  1.0237 -1.5955
 4451SOL    HW224987   0.340   0.703  13.240  1.1200 -0.5003 -1.0023
 4452SOL     OW24988   4.566   0.488  13.312 -0.0930 -0.1319 -0.1958
 4452SOL    HW124989   4.533   0.440  13.236  1.0710 -0.3380 -0.5738
 4452SOL    HW224990   4.555   0.580  13.289 -1.4427 -0.1570  0.3504
 4453SOL     OW24991   3.015   4.602   1.763 -0.0953  0.5229 -0.3041
 4453SOL    HW124992   2.957   4.668   1.726 -0.9716  1.1186  2.0926
 4453SOL    HW224993   3.056   4.580   1.680  0.9554  0.8439  0.1324
 4454SOL     OW24994   3.128   0.461  15.334 -0.3651 -0.3241  0.2414
 4454SOL    HW124995   3.055   0.502  15.379 -0.1824  0.1476  0.1111
 4454SOL    HW224996   3.086   0.419  15.259 -0.4826 -1.5071  0.9639
 4455SOL     OW24997   2.690   1.243  12.252  0.0877 -0.0905  0.3411
 4455SOL    HW124998   2.780   1.261  12.281  0.5229  1.1401 -1.7730
 4455SOL    HW224999   2.691   1.150  12.231 -0.2827  0.1220 -0.6357
 4456SOL     OW25000   1.229   3.093   2.215 -0.0401 -0.0971  1.0979
 4456SOL    HW125001   1.212   3.031   2.144  0.7077 -0.2640  1.0662
 4456SOL    HW225002   1.277   3.041   2.280  2.4348 -1.8814 -2.1782
 4457SOL     OW25003   3.541   1.557   7.504 -0.4232  0.1662 -0.1268
 4457SOL    HW125004   3.537   1.640   7.551  0.8793  1.0883 -1.6672
 4457SOL    HW225005   3.615   1.577   7.447 -2.5091  2.6045 -1.9034
 4458SOL     OW25006   1.052   3.105  16.798 -0.0918 -0.6055  0.0680
 4458SOL    HW125007   0.993   3.101  16.873 -2.2523  1.2722 -1.5143
 4458SOL    HW225008   0.989   3.089  16.728  0.7801  0.4266 -0.9555
 4459SOL     OW25009   1.836   3.303   9.917  0.8309  0.5478 -0.4823
 4459SOL    HW125010   1.920   3.331   9.954  0.6448 -1.3182  1.3587
 4459SOL    HW225011   1.835   3.328   9.825  1.9396 -0.4492 -0.7622
 4460SOL     OW25012   4.359   3.479   1.969 -0.0807 -0.5197  0.8712
 4460SOL    HW125013   4.388   3.562   1.930 -0.9812  0.1950  1.7173
 4460SOL    HW225014   4.432   3.468   2.029 -0.0215 -1.2514  0.6582
 4461SOL     OW25015   3.778   1.775   2.556 -0.0566 -0.1349  0.5595
 4461SOL    HW125016   3.819   1.689   2.552 -0.1140 -0.2019  1.3558
 4461SOL    HW225017   3.730   1.767   2.639  1.7314  0.5400  1.6531
 4462SOL     OW25018   4.510   4.305   2.024 -0.0554  0.0426  0.3372
 4462SOL    HW125019   4.431   4.356   2.039  0.3160  0.3437  1.2705
 4462SOL    HW225020   4.544   4.300   2.113 -0.6397  1.2087  0.6246
 4463SOL     OW25021   4.709   2.156   3.862 -0.2383  0.2901 -0.1702
 4463SOL    HW125022   4.717   2.174   3.769  0.5916 -0.9549 -0.3480
 4463SOL    HW225023   4.725   2.242   3.901 -0.5919 -0.8364  2.4648
 4464SOL     OW25024   1.379   0.269   2.033  0.0405  0.1649 -0.1932
 4464SOL    HW125025   1.445   0.238   2.094  0.6077  0.9431 -0.4182
 4464SOL    HW225026   1.374   0.194   1.973 -2.2578 -0.3296  0.6254
 4465SOL     OW25027   2.339   3.195   5.364  0.2128 -0.4025 -0.3208
 4465SOL    HW125028   2.296   3.141   5.430 -2.4707 -0.7269 -2.3077
 4465SOL    HW225029   2.304   3.160   5.282 -1.0200 -1.9983  0.8814
 4466SOL     OW25030   4.558   2.889   6.432  0.1573 -0.8965  0.1040
 4466SOL    HW125031   4.524   2.862   6.517 -1.0750 -0.9859 -0.4101
 4466SOL    HW225032   4.492   2.954   6.407 -0.7162 -1.2816  1.3928
 4467SOL     OW25033   0.790   1.376   6.244 -0.4976  0.2865 -0.7095
 4467SOL    HW125034   0.796   1.345   6.335  0.4804  0.8229 -0.5890
 4467SOL    HW225035   0.720   1.315   6.221 -0.2662  0.1395 -1.0367
 4468SOL     OW25036   4.011   0.717   6.611  0.0210  0.2748  0.5661
 4468SOL    HW125037   3.971   0.728   6.525  1.3844  2.4910  0.2322
 4468SOL    HW225038   3.934   0.704   6.667  0.1811 -1.8179  0.3136
 4469SOL     OW25039   3.811   2.692   6.305 -0.3532 -0.1889  0.1065
 4469SOL    HW125040   3.739   2.638   6.274  0.1231 -1.7106  1.6799
 4469SOL    HW225041   3.777   2.782   6.296  0.2408 -0.3899 -4.2052
 4470SOL     OW25042   4.457   2.288  13.433 -0.2993  0.0689 -0.0277
 4470SOL    HW125043   4.415   2.334  13.506 -1.5896  1.3505 -1.5684
 4470SOL    HW225044   4.455   2.198  13.467  2.5972  0.1469  0.2736
 4471SOL     OW25045   2.889   0.973   2.279 -0.8381 -0.2027  0.5229
 4471SOL    HW125046   2.984   0.970   2.277 -0.9067 -0.4541 -1.7477
 4471SOL    HW225047   2.864   0.881   2.272  0.4123 -0.5284  0.4128
 4472SOL     OW25048   2.985   2.665  16.182 -1.1389  0.7629 -0.8803
 4472SOL    HW125049   2.911   2.624  16.138  0.9374 -2.2865 -1.5669
 4472SOL    HW225050   2.972   2.753  16.149 -0.5377  0.7230 -1.2206
 4473SOL     OW25051   1.836   2.794   4.283 -0.5713 -0.2731 -0.2289
 4473SOL    HW125052   1.931   2.793   4.273 -0.4184 -0.0789  1.1273
 4473SOL    HW225053   1.808   2.703   4.273  1.5029 -0.9408 -0.0918
 4474SOL     OW25054   0.615   2.214   1.486 -0.6286 -0.3983 -0.1165
 4474SOL    HW125055   0.648   2.262   1.563 -0.9343 -1.6959  0.8191
 4474SOL    HW225056   0.627   2.122   1.509 -2.0007 -0.4633  0.3154
 4475SOL     OW25057   0.102   3.081   8.362  0.4115 -0.4281  0.2229
 4475SOL    HW125058   0.034   3.146   8.344 -1.5990 -3.1960 -2.0356
 4475SOL    HW225059   0.171   3.120   8.308  0.1733 -0.3538 -0.0268
 4476SOL     OW25060   0.766   0.440   7.184 -0.4006  0.2710 -0.6678
 4476SOL    HW125061   0.816   0.503   7.133  1.2153 -0.4174  0.0852
 4476SOL    HW225062   0.693   0.430   7.123 -1.3709  2.9890  0.0386
 4477SOL     OW25063   3.796   3.156   4.906  0.0631 -0.7859 -0.2303
 4477SOL    HW125064   3.803   3.218   4.834  0.2844 -1.6708 -0.9639
 4477SOL    HW225065   3.702   3.138   4.906 -0.0160 -0.3611  0.5860
 4478SOL     OW25066   2.689   4.265   8.538  0.7186 -0.2619 -0.5746
 4478SOL    HW125067   2.723   4.354   8.541 -0.9443  0.2937  1.1199
 4478SOL    HW225068   2.642   4.264   8.454 -1.8089  2.3345  0.8258
 4479SOL     OW25069   3.145   1.243  14.065  1.1244 -0.5383  0.1386
 4479SOL    HW125070   3.192   1.320  14.097  0.9279  0.4987 -2.0398
 4479SOL    HW225071   3.080   1.249  14.134 -0.0062 -1.1386 -0.8695
 4480SOL     OW25072   3.592   2.350   0.191 -0.5868  0.9070  0.7401
 4480SOL    HW125073   3.615   2.302   0.112  1.1531  0.3329  1.5975
 4480SOL    HW225074   3.640   2.300   0.257 -0.7609  0.2384  0.3604
 4481SOL     OW25075   0.410   0.543   5.234 -0.2443 -0.1397 -0.0396
 4481SOL    HW125076   0.427   0.568   5.325 -1.3314 -1.9417  0.6610
 4481SOL    HW225077   0.316   0.528   5.241 -0.3294 -1.1300 -3.0630
 4482SOL     OW25078   4.583   3.733  15.524  0.2240 -0.0875  0.0352
 4482SOL    HW125079   4.666   3.780  15.519 -0.3677  1.0445  0.8668
 4482SOL    HW225080   4.610   3.642  15.540  0.7271  0.6396  3.4436
 4483SOL     OW25081   2.005   1.952   1.088  0.2469 -0.8177 -0.3558
 4483SOL    HW125082   2.052   1.869   1.092  1.6432  0.1900  3.3516
 4483SOL    HW225083   2.058   1.996   1.021 -0.2187  1.2134  0.6187
 4484SOL     OW25084   1.162   1.989   4.097 -0.1730 -0.6259 -0.3855
 4484SOL    HW125085   1.097   2.038   4.146 -0.1043 -1.1010  0.1749
 4484SOL    HW225086   1.157   2.031   4.011  1.2076  0.4592  0.0589
 4485SOL     OW25087   3.412   4.225  10.177  0.0625 -0.2282  0.4536
 4485SOL    HW125088   3.326   4.266  10.176 -0.5144 -1.4791 -0.1258
 4485SOL    HW225089   3.469   4.302  10.174 -0.4845  0.1890  0.7990
 4486SOL     OW25090   1.386   2.057   9.076 -0.2283  0.1489 -0.3605
 4486SOL    HW125091   1.429   2.081   9.158 -3.7086 -0.6816  1.6465
 4486SOL    HW225092   1.299   2.038   9.110  0.8628 -1.5836  1.4404
 4487SOL     OW25093   0.967   0.327   6.598 -0.2379  0.2205 -0.5716
 4487SOL    HW125094   0.987   0.297   6.687  0.8237 -1.4160 -1.3805
 4487SOL    HW225095   0.888   0.275   6.587  0.7530 -1.3991 -0.0249
 4488SOL     OW25096   3.225   3.163  11.784  0.2250 -0.1319  0.4867
 4488SOL    HW125097   3.167   3.100  11.827 -0.4825  0.7728  0.8548
 4488SOL    HW225098   3.243   3.108  11.707  0.0225  0.3081  0.1237
 4489SOL     OW25099   0.409   4.350   5.418  0.2729  0.4467  0.2067
 4489SOL    HW125100   0.350   4.303   5.359  0.5010 -0.4804  0.7036
 4489SOL    HW225101   0.359   4.384   5.492  0.3305 -0.2221  0.5551
 4490SOL     OW25102   3.453   2.623  16.961  0.3005 -0.3790 -0.1721
 4490SOL    HW125103   3.417   2.582  16.883 -1.6673  0.2618  0.4028
 4490SOL    HW225104   3.483   2.548  17.012 -1.2672  0.4873  2.0323
 4491SOL     OW25105   3.323   2.922   2.809  0.5064  0.4590 -0.1541
 4491SOL    HW125106   3.275   2.954   2.885  0.0949 -0.1194 -0.1614
 4491SOL    HW225107   3.349   2.835   2.841  1.5629 -0.0827 -2.4322
 4492SOL     OW25108   2.346   4.076   3.555 -0.3099  0.0861 -0.2847
 4492SOL    HW125109   2.304   4.125   3.625 -0.9696 -1.7816  0.6255
 4492SOL    HW225110   2.385   4.004   3.604  1.8429  0.3162 -1.6484
 4493SOL     OW25111   4.651   3.114  14.773  0.0990 -0.1876  0.6672
 4493SOL    HW125112   4.573   3.092  14.720  1.0903 -0.6943 -0.5954
 4493SOL    HW225113   4.621   3.192  14.818 -0.9778  0.4879 -1.2017
 4494SOL     OW25114   2.240   1.418   7.922  0.5809 -0.1962  0.1057
 4494SOL    HW125115   2.235   1.332   7.880  0.1566 -0.0887 -0.0644
 4494SOL    HW225116   2.169   1.430   7.985  0.3590 -2.2650  0.2407
 4495SOL     OW25117   3.896   0.047   1.941 -0.5548  0.1197  0.2079
 4495SOL    HW125118   3.810   0.006   1.927 -0.9007  0.3962  1.5883
 4495SOL    HW225119   3.956   4.720   1.907 -0.5105  0.3670 -0.2059
 4496SOL     OW25120   0.145   2.258   9.801  0.5778  0.6583 -0.0014
 4496SOL    HW125121   0.172   2.333   9.749  1.0832  0.7476  0.3961
 4496SOL    HW225122   0.220   2.268   9.858  0.9161  0.0627 -0.3399
 4497SOL     OW25123   1.929   2.904   9.681  0.1055 -0.0717  0.4002
 4497SOL    HW125124   1.931   2.894   9.586 -0.4422  2.3889  0.1391
 4497SOL    HW225125   1.836   2.895   9.704  0.2452 -1.0798  0.5412
 4498SOL     OW25126   4.236   2.476   9.962 -0.1744 -0.0422 -0.4271
 4498SOL    HW125127   4.304   2.514   9.907  2.3016 -0.7134  2.2128
 4498SOL    HW225128   4.252   2.382   9.963 -0.8063 -0.1600 -1.2224
 4499SOL     OW25129   1.042   1.091   5.770  0.1438  0.2460 -0.1670
 4499SOL    HW125130   1.036   1.077   5.676  0.5861 -0.2990 -0.1085
 4499SOL    HW225131   0.955   1.131   5.778 -0.1771 -0.3144 -0.8097
 4500SOL     OW25132   3.968   0.215  15.309 -0.3752  0.0002 -1.1699
 4500SOL    HW125133   3.912   0.138  15.312 -2.1893  1.3506 -0.5146
 4500SOL    HW225134   3.928   0.272  15.375  1.8218 -0.1384  0.2827
 4501SOL     OW25135   2.831   0.998  15.618  0.0929  0.3197  0.2087
 4501SOL    HW125136   2.891   0.957  15.681  1.2822  1.7592  0.0068
 4501SOL    HW225137   2.759   0.934  15.620 -0.6743  1.2044  1.0045
 4502SOL     OW25138   1.372   0.767   7.265  0.4808 -0.1736  0.2239
 4502SOL    HW125139   1.448   0.759   7.323  0.5070 -0.1288  0.1950
 4502SOL    HW225140   1.304   0.736   7.325 -1.2453  3.2164  0.0295
 4503SOL     OW25141   1.333   3.155   5.911  0.1747 -0.2791 -0.0707
 4503SOL    HW125142   1.299   3.232   5.866  1.4570 -0.0820 -0.7028
 4503SOL    HW225143   1.428   3.165   5.918  0.2860 -0.5901 -1.0713
 4504SOL     OW25144   4.049   2.310   9.035  0.2647  0.0831 -0.2860
 4504SOL    HW125145   4.130   2.269   9.008 -1.8122 -3.5501 -0.9297
 4504SOL    HW225146   3.987   2.238   9.028  0.4240 -0.1878  1.2839
 4505SOL     OW25147   1.682   3.568   8.650  0.7364 -0.0363 -0.0205
 4505SOL    HW125148   1.745   3.496   8.650  0.0404 -0.6454 -0.2868
 4505SOL    HW225149   1.667   3.578   8.556 -1.5328  1.0890  0.4620
 4506SOL     OW25150   1.198   3.270   7.693 -0.1440  0.7238  0.2230
 4506SOL    HW125151   1.228   3.283   7.783  0.1023  0.4183  0.1853
 4506SOL    HW225152   1.202   3.175   7.685 -0.2236  0.6708  0.8715
 4507SOL     OW25153   3.934   0.624   5.733  0.1561 -0.5413 -0.2165
 4507SOL    HW125154   3.848   0.601   5.697 -0.3631  3.5484 -1.6296
 4507SOL    HW225155   3.956   0.555   5.794 -0.1875 -0.4954 -0.0443
 4508SOL     OW25156   0.580   2.065   2.273  0.1638 -0.5697 -0.1158
 4508SOL    HW125157   0.643   1.995   2.259 -1.5617 -2.6236  2.4197
 4508SOL    HW225158   0.571   2.075   2.367  1.9417  0.9314 -0.1209
 4509SOL     OW25159   0.031   0.313  12.329 -0.3307  0.1929  0.6082
 4509SOL    HW125160   4.692   0.259  12.336  0.9920 -1.5481  2.1470
 4509SOL    HW225161   0.068   0.306  12.417  0.1270  0.0858  0.4072
 4510SOL     OW25162   1.716   1.058   3.724 -0.4126 -0.0357 -0.0105
 4510SOL    HW125163   1.709   0.973   3.768  0.6923  1.4023  2.9408
 4510SOL    HW225164   1.624   1.068   3.699 -1.1392  0.3733  2.9046
 4511SOL     OW25165   0.824   0.430   1.868 -0.2260  0.2062  0.4384
 4511SOL    HW125166   0.817   0.335   1.880  1.0190 -0.1105 -1.3404
 4511SOL    HW225167   0.789   0.438   1.780  1.0174 -3.0680 -0.3838
 4512SOL     OW25168   3.007   2.775  12.354  0.1798 -0.0634 -0.8676
 4512SOL    HW125169   2.986   2.711  12.286 -2.7712 -2.0499  1.9661
 4512SOL    HW225170   3.091   2.740  12.384 -0.4690 -0.4067  0.5383
 4513SOL     OW25171   1.538   2.921   8.781 -0.1631  0.2521 -0.4400
 4513SOL    HW125172   1.508   3.011   8.784 -2.1136 -0.3990 -0.2312
 4513SOL    HW225173   1.506   2.896   8.867  2.4065  1.6265  0.9036
 4514SOL     OW25174   2.926   1.701   1.672 -0.3846 -0.0428  0.2585
 4514SOL    HW125175   2.946   1.679   1.763  1.4746 -0.9727 -0.3737
 4514SOL    HW225176   3.008   1.740   1.642 -0.2216 -0.4662  0.1469
 4515SOL     OW25177   1.263   3.179  15.614  0.1457  0.1169  0.4994
 4515SOL    HW125178   1.215   3.260  15.596  1.6744  1.0361  0.5390
 4515SOL    HW225179   1.195   3.144  15.671 -0.0800 -0.6327 -0.2402
 4516SOL     OW25180   2.309   2.321   3.860  0.7501 -0.1866 -0.3446
 4516SOL    HW125181   2.278   2.302   3.771  2.5024  0.3492 -1.0618
 4516SOL    HW225182   2.352   2.405   3.842 -1.8420  1.1543 -0.2991
 4517SOL     OW25183   4.660   4.242   2.766 -0.7359 -0.1720 -0.1829
 4517SOL    HW125184   4.651   4.174   2.833 -3.2220  0.3331 -0.0375
 4517SOL    HW225185   4.581   4.293   2.778 -1.7464 -0.7622 -4.1372
 4518SOL     OW25186   2.820   1.543  17.583  0.2053  0.2506  0.1952
 4518SOL    HW125187   2.858   1.562  17.668 -0.4722  1.4267  0.2297
 4518SOL    HW225188   2.790   1.628  17.550 -0.9656 -0.0226  0.5632
 4519SOL     OW25189   0.067   4.505   5.003  0.3442 -0.6834  0.8388
 4519SOL    HW125190   0.082   4.599   4.992 -0.8604 -0.4517  1.0818
 4519SOL    HW225191   0.159   4.496   5.027  0.5816 -0.3515  0.0591
 4520SOL     OW25192   0.060   4.440   2.484 -0.1141  0.2875 -0.0196
 4520SOL    HW125193   0.091   4.427   2.394 -0.0451  1.1711 -0.1255
 4520SOL    HW225194   4.716   4.485   2.474  1.0316  3.0549  2.7935
 4521SOL     OW25195   1.044   0.531   1.976  0.2210 -0.2752  0.3842
 4521SOL    HW125196   1.060   0.516   1.882  0.5815  2.1321  0.0733
 4521SOL    HW225197   0.956   0.493   1.972  0.3358 -0.8409  3.2772
 4522SOL     OW25198   4.401   2.252  16.963 -0.7095  0.5454  0.3282
 4522SOL    HW125199   4.393   2.343  16.992 -0.8291 -0.1424  2.4172
 4522SOL    HW225200   4.485   2.250  16.917 -1.8767  0.9539 -1.8456
 4523SOL     OW25201   1.835   3.083   6.584 -0.1384 -0.2853  0.0904
 4523SOL    HW125202   1.769   3.015   6.576  0.0021 -0.3184 -0.7619
 4523SOL    HW225203   1.864   3.086   6.493  0.5851 -1.3629  0.2966
 4524SOL     OW25204   2.073   4.612  15.306  1.0397  0.1577  0.1330
 4524SOL    HW125205   2.078   4.706  15.317 -0.1895  0.3701 -1.0830
 4524SOL    HW225206   1.981   4.591  15.289  0.5029  2.5730  0.1540
 4525SOL     OW25207   0.828   0.209   3.072 -0.2493 -0.1719 -0.1557
 4525SOL    HW125208   0.801   0.265   3.146  2.4613 -0.4104  1.0155
 4525SOL    HW225209   0.797   0.249   2.991  2.2805  2.6650  0.2828
 4526SOL     OW25210   1.321   3.707   6.457  0.3881 -0.4878 -0.0817
 4526SOL    HW125211   1.365   3.662   6.385  3.5726 -0.7719  2.0651
 4526SOL    HW225212   1.372   3.679   6.533  1.4052  0.2272 -0.5123
 4527SOL     OW25213   1.238   1.366  10.836  0.5509  0.5650  0.0682
 4527SOL    HW125214   1.320   1.339  10.796  1.1806 -0.0342  1.7657
 4527SOL    HW225215   1.238   1.457  10.807  0.4970  0.3461 -0.6338
 4528SOL     OW25216   1.414   3.835   4.968 -0.3170  0.5961 -0.3409
 4528SOL    HW125217   1.499   3.879   4.962  1.0843 -2.1365 -0.7725
 4528SOL    HW225218   1.444   3.744   4.976  0.8661  1.0542  0.3729
 4529SOL     OW25219   1.688   0.462  13.925  0.3502 -0.0837  0.8087
 4529SOL    HW125220   1.653   0.473  14.013 -1.6481 -4.2734  0.5414
 4529SOL    HW225221   1.771   0.418  13.942  0.4178  0.4813  1.9116
 4530SOL     OW25222   3.016   0.716  12.098  0.5328  0.2525  0.3600
 4530SOL    HW125223   2.928   0.703  12.063  0.1996  0.1013  1.2440
 4530SOL    HW225224   3.007   0.657  12.173  0.6324  0.8842  0.8677
 4531SOL     OW25225   3.748   2.309   1.743 -0.3515  0.2713 -0.2457
 4531SOL    HW125226   3.696   2.248   1.795 -0.0362  0.1744 -0.0495
 4531SOL    HW225227   3.742   2.288   1.649  0.8992  0.1265 -0.2898
 4532SOL     OW25228   3.610   2.851   5.106  0.1904 -0.2424  0.4130
 4532SOL    HW125229   3.541   2.914   5.084  1.1359  1.1439  1.4430
 4532SOL    HW225230   3.556   2.784   5.149  0.7394 -0.6200  0.5153
 4533SOL     OW25231   0.343   3.623   4.259  0.2012 -0.1202  0.1789
 4533SOL    HW125232   0.415   3.677   4.225  0.5360 -0.6237  0.0975
 4533SOL    HW225233   0.295   3.608   4.178  0.7482  1.9467 -0.5319
 4534SOL     OW25234   4.325   0.366   8.927 -0.7852 -0.0412  0.0569
 4534SOL    HW125235   4.342   0.386   9.019  1.4046  0.3107 -0.4173
 4534SOL    HW225236   4.239   0.406   8.920 -0.1862  0.7882 -2.5837
 4535SOL     OW25237   1.271   2.318   4.991 -0.3265  0.0772 -0.0637
 4535SOL    HW125238   1.256   2.331   5.084 -1.9305  0.0346 -0.3182
 4535SOL    HW225239   1.361   2.350   4.991 -0.1653 -0.3762 -0.7408
 4536SOL     OW25240   1.672   0.007   3.688 -0.4465  0.2585  0.0546
 4536SOL    HW125241   1.753   4.721   3.732  0.1541 -0.0968 -1.2453
 4536SOL    HW225242   1.716   0.017   3.603 -1.4495 -0.0521 -0.4968
 4537SOL     OW25243   2.465   0.892  13.856 -0.3123 -0.9164  0.1946
 4537SOL    HW125244   2.396   0.917  13.794  1.5248 -0.7259 -1.7696
 4537SOL    HW225245   2.539   0.861  13.803 -0.5240 -1.3835  0.1774
 4538SOL     OW25246   3.261   3.215  15.361 -0.2665  0.1115 -0.1189
 4538SOL    HW125247   3.325   3.254  15.421  1.1703 -1.0523 -0.9066
 4538SOL    HW225248   3.294   3.130  15.332 -0.0716  0.4864 -0.9885
 4539SOL     OW25249   1.075   1.877   3.504 -0.3049  0.2920 -0.1764
 4539SOL    HW125250   1.111   1.965   3.498 -0.7572  0.4344 -0.8081
 4539SOL    HW225251   1.033   1.881   3.590  2.0057  0.9534  0.9044
 4540SOL     OW25252   4.617   4.448   3.644  0.2550 -0.2000 -0.7386
 4540SOL    HW125253   4.616   4.543   3.659  1.0795 -0.6677  2.3172
 4540SOL    HW225254   4.534   4.421   3.684  1.1853 -1.0056  0.6548
 4541SOL     OW25255   3.917   1.564   8.694 -0.1479  0.4521  0.5060
 4541SOL    HW125256   3.863   1.540   8.619 -0.0496  2.6358 -0.2581
 4541SOL    HW225257   4.000   1.590   8.653 -0.2721 -0.7454 -0.4959
 4542SOL     OW25258   2.028   4.107   8.410 -0.1617  0.2243  0.1096
 4542SOL    HW125259   1.997   4.021   8.436 -2.4410  0.5612 -1.5439
 4542SOL    HW225260   2.119   4.078   8.401 -0.2295  0.1968 -0.4770
 4543SOL     OW25261   4.318   2.562   4.018  0.1524  0.0733 -0.2774
 4543SOL    HW125262   4.356   2.488   4.065 -0.5012 -0.3736 -0.4543
 4543SOL    HW225263   4.255   2.518   3.962  1.1084  0.6263 -1.8044
 4544SOL     OW25264   0.039   4.404   2.197 -0.3831  0.4446 -0.2492
 4544SOL    HW125265   0.046   4.486   2.149 -0.7489  1.3328  1.2117
 4544SOL    HW225266   0.113   4.353   2.163 -0.1837  1.0805 -0.7624
 4545SOL     OW25267   2.674   3.946   9.320 -0.2515 -0.1509 -0.2439
 4545SOL    HW125268   2.624   3.898   9.387 -1.0012  2.3406  1.0002
 4545SOL    HW225269   2.694   3.874   9.261  2.5797  0.0094  0.5275
 4546SOL     OW25270   2.316   2.471  13.394  0.2955  0.2434  0.1457
 4546SOL    HW125271   2.281   2.529  13.461  1.4569 -1.6304  2.3872
 4546SOL    HW225272   2.239   2.448  13.341  0.1674  0.3263  0.2964
 4547SOL     OW25273   4.029   4.496   3.460 -0.4100 -0.4636 -0.3409
 4547SOL    HW125274   4.049   4.428   3.525  0.2350 -0.1547 -0.2098
 4547SOL    HW225275   4.017   4.577   3.510  0.0191 -0.8388  0.3767
 4548SOL     OW25276   1.975   0.141  11.780 -0.2233 -0.2086 -0.3606
 4548SOL    HW125277   2.052   0.119  11.728 -0.4915 -1.4726 -0.2274
 4548SOL    HW225278   1.938   0.056  11.804 -0.3496 -0.3049 -0.8937
 4549SOL     OW25279   3.765   3.343   5.572  0.2009  0.1812  0.0479
 4549SOL    HW125280   3.788   3.354   5.479 -1.4230 -1.4308 -0.5484
 4549SOL    HW225281   3.792   3.255   5.595 -1.6281 -0.6384 -0.9244
 4550SOL     OW25282   4.659   2.126   1.599  0.6413  0.4301 -0.6111
 4550SOL    HW125283   4.624   2.215   1.600 -0.2396  0.0851 -0.2017
 4550SOL    HW225284   0.007   2.135   1.561  0.6515  1.9890 -0.2133
 4551SOL     OW25285   0.295   1.507   6.003  0.3158  0.3726 -0.5380
 4551SOL    HW125286   0.378   1.483   5.963 -0.4596 -1.9752 -0.7533
 4551SOL    HW225287   0.322   1.488   6.093 -0.0008  2.2737 -0.0252
 4552SOL     OW25288   0.104   1.246   3.822 -0.5034 -0.0041 -0.4730
 4552SOL    HW125289   0.194   1.255   3.792 -1.0530  0.2843 -2.0358
 4552SOL    HW225290   0.120   1.211   3.910  0.0552  1.8769  0.1594
 4553SOL     OW25291   1.430   2.305   1.754 -0.0757  0.2826  0.3621
 4553SOL    HW125292   1.386   2.388   1.735  0.8690  0.8661  0.6679
 4553SOL    HW225293   1.435   2.302   1.850  0.8179  0.5632  0.3296
 4554SOL     OW25294   2.820   1.271   7.830 -0.1526  0.3281  0.1291
 4554SOL    HW125295   2.814   1.346   7.889  3.0088 -0.3635  1.3137
 4554SOL    HW225296   2.867   1.211   7.888 -0.4207 -0.6359 -0.6438
 4555SOL     OW25297   3.485   0.126  15.257  0.5626 -0.1172  0.1559
 4555SOL    HW125298   3.429   0.169  15.322 -0.5677  3.1917 -3.0465
 4555SOL    HW225299   3.573   0.126  15.295  0.0743 -0.3334  1.2762
 4556SOL     OW25300   3.160   3.177  12.708  0.2432 -0.3189  0.4402
 4556SOL    HW125301   3.236   3.147  12.759  0.5700 -4.4007 -2.4275
 4556SOL    HW225302   3.115   3.227  12.776  0.3453 -0.6590  0.7625
 4557SOL     OW25303   2.799   2.331  17.570  0.4458  0.2113 -0.4293
 4557SOL    HW125304   2.859   2.263  17.601  0.3451  0.4780  0.3633
 4557SOL    HW225305   2.798   2.315  17.476  0.5801 -0.1108 -0.3760
 4558SOL     OW25306   2.480   1.047   8.728 -0.5336  0.2671  0.0490
 4558SOL    HW125307   2.465   0.953   8.715  0.3259  0.1694 -0.2116
 4558SOL    HW225308   2.404   1.068   8.783 -0.0465  0.3087  0.7121
 4559SOL     OW25309   1.707   1.243   6.156 -0.0581  0.3658 -0.1856
 4559SOL    HW125310   1.678   1.324   6.113  0.0026  0.0423 -0.8298
 4559SOL    HW225311   1.775   1.279   6.213  2.0454 -2.5234 -0.8730
 4560SOL     OW25312   2.013   1.074  16.421 -0.2037  0.2667 -0.0334
 4560SOL    HW125313   2.058   1.158  16.409 -0.7063  0.4632 -0.5431
 4560SOL    HW225314   1.965   1.102  16.499 -1.8134 -1.2187 -0.4885
 4561SOL     OW25315   2.100   3.392   3.354 -0.0807 -0.3467 -0.3293
 4561SOL    HW125316   2.046   3.463   3.320 -1.8237 -1.3043  0.3628
 4561SOL    HW225317   2.051   3.373   3.435  1.8437  1.1247  1.1710
 4562SOL     OW25318   1.916   0.226  12.377 -0.2309  0.2412 -0.7165
 4562SOL    HW125319   1.845   0.161  12.370 -1.5946  1.6135  0.3078
 4562SOL    HW225320   1.898   0.252  12.467 -1.3705  0.7334 -1.0781
 4563SOL     OW25321   0.383   0.300   1.617  0.2120  0.1934 -0.0563
 4563SOL    HW125322   0.311   0.239   1.634  0.7127 -0.2452  0.4856
 4563SOL    HW225323   0.353   0.350   1.541  2.4713  1.1612 -0.3127
 4564SOL     OW25324   0.534   3.463  13.888  0.0590  0.5097 -0.2053
 4564SOL    HW125325   0.487   3.471  13.971  2.4709  0.4432  1.1867
 4564SOL    HW225326   0.612   3.415  13.915 -1.1904 -2.2781 -1.6229
 4565SOL     OW25327   1.815   4.618   3.019 -0.4171 -0.3554 -0.3388
 4565SOL    HW125328   1.849   4.573   3.096  0.3923  0.0800 -0.4464
 4565SOL    HW225329   1.728   4.645   3.049 -0.5614  0.0096 -1.0724
 4566SOL     OW25330   4.320   0.802  16.922 -0.3667 -0.1280 -0.1022
 4566SOL    HW125331   4.250   0.751  16.881 -1.1672 -1.2405  2.6195
 4566SOL    HW225332   4.270   0.883  16.932  0.2575  0.4726 -1.8338
 4567SOL     OW25333   1.669   4.144   8.040  0.3330  0.2680  0.6100
 4567SOL    HW125334   1.650   4.077   8.106  2.2204  0.4887  1.3577
 4567SOL    HW225335   1.614   4.117   7.966  0.6223  3.7319 -0.8347
 4568SOL     OW25336   3.969   3.885  11.410  0.1722  0.1704 -0.2445
 4568SOL    HW125337   3.987   3.948  11.340 -0.0542 -0.3025 -0.7237
 4568SOL    HW225338   4.048   3.834  11.428 -0.7489 -0.7846  1.1177
 4569SOL     OW25339   2.853   1.540   0.923 -0.2465  0.3457  0.5410
 4569SOL    HW125340   2.890   1.527   0.836  1.1523  0.0464  1.1783
 4569SOL    HW225341   2.763   1.549   0.891 -0.9260 -2.3636  1.7499
 4570SOL     OW25342   3.748   1.573  12.763 -0.2511 -0.0335  0.4128
 4570SOL    HW125343   3.838   1.548  12.740  0.6054  2.0238  1.5077
 4570SOL    HW225344   3.695   1.510  12.715 -0.8589  0.4926  0.3844
 4571SOL     OW25345   1.713   1.134   1.713  0.4283 -0.0765 -0.3019
 4571SOL    HW125346   1.738   1.215   1.758 -0.0109 -0.9501  1.5101
 4571SOL    HW225347   1.697   1.174   1.627  0.2832 -0.9082 -0.6578
 4572SOL     OW25348   1.499   1.461   1.109  0.4109  0.2835 -0.3801
 4572SOL    HW125349   1.556   1.386   1.090 -0.0413  0.8289 -4.0183
 4572SOL    HW225350   1.522   1.476   1.200  2.3793  1.1011 -1.0166
 4573SOL     OW25351   4.707   3.796   1.942 -0.4038  0.5331  0.0845
 4573SOL    HW125352   0.027   3.759   1.877 -0.9165 -1.9630  1.0204
 4573SOL    HW225353   4.648   3.844   1.884 -0.1695  0.5981 -0.0975
 4574SOL     OW25354   2.245   0.408   2.603 -0.0366  0.0329  0.5788
 4574SOL    HW125355   2.312   0.342   2.620  0.2142 -0.3921 -2.0368
 4574SOL    HW225356   2.293   0.470   2.549 -0.5552 -0.6907 -0.7396
 4575SOL     OW25357   1.100   3.514   6.995  0.2463 -0.1191 -0.0515
 4575SOL    HW125358   1.082   3.508   6.901  1.4725 -1.1046 -0.2120
 4575SOL    HW225359   1.195   3.503   6.995  0.1631 -0.8124 -0.0137
 4576SOL     OW25360   0.197   4.226   3.296  0.4569  0.4974  0.2142
 4576SOL    HW125361   0.180   4.309   3.340 -1.1096  0.6190 -0.6078
 4576SOL    HW225362   0.281   4.244   3.254 -0.0074  2.1390 -0.0210
 4577SOL     OW25363   2.049   3.280   2.920  0.4938 -0.3302  0.7793
 4577SOL    HW125364   1.964   3.262   2.960 -0.4716  2.6257  0.0975
 4577SOL    HW225365   2.023   3.270   2.829  2.4756 -0.1841  0.2086
 4578SOL     OW25366   0.333   2.292   7.000 -0.0754 -0.0596 -0.0403
 4578SOL    HW125367   0.405   2.352   7.023 -0.8111 -0.5021  3.4391
 4578SOL    HW225368   0.260   2.352   7.015  0.0338  0.0081  0.2286
 4579SOL     OW25369   2.749   0.420   4.359  0.6004  0.0150 -0.5746
 4579SOL    HW125370   2.800   0.464   4.427  0.0299 -1.9342  1.1236
 4579SOL    HW225371   2.714   0.350   4.415 -1.0760 -1.2256 -3.1948
 4580SOL     OW25372   4.397   1.659   2.931  0.1398  0.1684  0.0615
 4580SOL    HW125373   4.373   1.569   2.910  0.2868 -0.2249  1.5437
 4580SOL    HW225374   4.490   1.639   2.945 -0.1056 -0.0942  1.3379
 4581SOL     OW25375   3.795   1.725   8.904 -0.0513  0.3687  0.4057
 4581SOL    HW125376   3.811   1.815   8.876  2.7022 -0.0417  0.6577
 4581SOL    HW225377   3.839   1.675   8.835 -0.7602 -0.1839  0.3564
 4582SOL     OW25378   2.841   1.153   4.004  0.5917 -0.5670 -0.2313
 4582SOL    HW125379   2.891   1.170   3.924  1.2494  1.0465  0.5330
 4582SOL    HW225380   2.778   1.086   3.976 -0.1355  1.1181 -2.6488
 4583SOL     OW25381   4.093   3.742  13.768  0.8431  0.4144 -0.1370
 4583SOL    HW125382   4.077   3.732  13.675 -0.0007  1.8956 -0.1514
 4583SOL    HW225383   4.188   3.757  13.767  0.9842 -0.4565  0.1245
 4584SOL     OW25384   2.137   4.424   7.368  0.1940  0.6560  0.4438
 4584SOL    HW125385   2.192   4.437   7.446 -1.3458  3.0693  1.1166
 4584SOL    HW225386   2.088   4.345   7.391 -0.7454  1.1285  0.0619
 4585SOL     OW25387   0.023   4.603   6.992  0.2116  0.5480  0.2611
 4585SOL    HW125388   0.008   4.579   6.901 -2.2593 -3.3764  1.7105
 4585SOL    HW225389   0.068   4.687   6.983  1.0776  0.0458 -0.1037
 4586SOL     OW25390   3.609   0.036   8.009  0.0837  0.0283  0.0877
 4586SOL    HW125391   3.589   4.723   8.087  2.4080 -0.7927  0.1198
 4586SOL    HW225392   3.558   0.115   8.028  0.2622  0.5566 -1.6595
 4587SOL     OW25393   3.724   3.523   1.261 -0.1735  0.1808 -0.1684
 4587SOL    HW125394   3.801   3.472   1.285  0.7840 -0.0153 -3.5635
 4587SOL    HW225395   3.701   3.559   1.346  0.3723 -1.5259  0.6887
 4588SOL     OW25396   0.101   4.164   0.195 -0.2146 -0.4029 -0.1122
 4588SOL    HW125397   0.046   4.151   0.273  1.9287 -2.0002  1.1245
 4588SOL    HW225398   0.047   4.228   0.149 -0.0991 -0.3574 -0.1820
 4589SOL     OW25399   2.395   3.330  16.008 -0.1289 -0.1087  0.2159
 4589SOL    HW125400   2.369   3.376  16.088 -3.1990 -0.3035 -0.6571
 4589SOL    HW225401   2.471   3.380  15.981  0.0877 -0.4736  0.1414
 4590SOL     OW25402   1.271   2.846   6.720 -0.1152  0.0857  0.0639
 4590SOL    HW125403   1.321   2.809   6.647  2.5763 -1.0618  2.5117
 4590SOL    HW225404   1.323   2.814   6.794 -1.4738 -0.8375  0.6288
 4591SOL     OW25405   2.076   4.015   4.629 -0.0183  0.2275  0.3211
 4591SOL    HW125406   2.132   4.083   4.592  0.6002 -1.3098 -1.5763
 4591SOL    HW225407   2.097   3.953   4.558  0.4840  0.0748  0.6053
 4592SOL     OW25408   1.812   3.758   8.318  0.0879  0.4378 -0.1336
 4592SOL    HW125409   1.770   3.682   8.358  1.9149 -0.9223 -0.8094
 4592SOL    HW225410   1.834   3.731   8.229 -1.0077 -0.6428 -0.0775
 4593SOL     OW25411   2.902   0.833   3.044  0.3525 -0.3677 -0.0491
 4593SOL    HW125412   2.877   0.839   3.136 -1.1122  0.0767 -0.4718
 4593SOL    HW225413   2.911   0.737   3.045 -1.3753 -0.5540 -4.1785
 4594SOL     OW25414   2.798   3.894  14.538  0.0234 -0.6089  0.6007
 4594SOL    HW125415   2.858   3.883  14.464  1.5238 -0.1975  1.7380
 4594SOL    HW225416   2.754   3.977  14.520  0.4660 -0.1976  1.4008
 4595SOL     OW25417   1.038   2.950   8.536 -0.3806 -0.4036 -0.0911
 4595SOL    HW125418   1.112   2.953   8.475 -1.1005 -1.2252 -1.0058
 4595SOL    HW225419   1.039   2.860   8.567 -1.7075 -1.2193 -2.3841
 4596SOL     OW25420   1.382   2.406  14.688  0.1765  0.2841  0.3976
 4596SOL    HW125421   1.377   2.498  14.716  1.1550 -0.1921  2.1460
 4596SOL    HW225422   1.476   2.394  14.702  0.5409  2.9483  0.2311
 4597SOL     OW25423   0.408   2.410  16.989  0.2003  0.3914 -0.1499
 4597SOL    HW125424   0.463   2.489  16.989  0.3382  0.2935 -0.5668
 4597SOL    HW225425   0.466   2.340  16.960  1.1909  1.2326 -0.1956
 4598SOL     OW25426   1.215   2.381  11.151  0.4616  0.0923  0.5325
 4598SOL    HW125427   1.257   2.356  11.069 -0.1546 -1.0239  0.5589
 4598SOL    HW225428   1.273   2.441  11.197 -2.4399  3.7361 -0.5278
 4599SOL     OW25429   4.722   4.162   5.373  0.4508 -0.1615  0.2199
 4599SOL    HW125430   4.680   4.080   5.344 -1.6102  1.5894 -1.7486
 4599SOL    HW225431   4.695   4.216   5.299  2.1160 -0.3587 -0.5443
 4600SOL     OW25432   3.879   2.077   8.994  0.0780 -0.1105  0.3547
 4600SOL    HW125433   3.892   2.035   8.909 -2.5345  0.1110 -0.1652
 4600SOL    HW225434   3.783   2.080   8.992  0.0417 -0.3848  1.4317
 4601SOL     OW25435   0.611   1.239  13.887 -0.1934  0.0510  0.0779
 4601SOL    HW125436   0.545   1.170  13.895 -0.2707 -0.1307 -2.0597
 4601SOL    HW225437   0.656   1.227  13.971 -0.7597  0.6505  0.4690
 4602SOL     OW25438   3.035   0.173   3.293 -0.5001  0.5011 -0.0481
 4602SOL    HW125439   3.042   0.085   3.330 -0.5886  0.5972  0.1949
 4602SOL    HW225440   3.102   0.172   3.224  0.5670 -3.2506  1.0517
 4603SOL     OW25441   1.311   1.292   2.854 -0.0341 -0.1324  0.2091
 4603SOL    HW125442   1.387   1.348   2.833 -0.8504  0.0659 -2.1491
 4603SOL    HW225443   1.259   1.358   2.900  1.2691  3.0239 -2.8115
 4604SOL     OW25444   4.684   4.710   3.671 -0.0624 -0.0679 -0.3273
 4604SOL    HW125445   4.702   4.686   3.762 -0.1244 -0.0644 -0.3138
 4604SOL    HW225446   0.031   4.705   3.632 -1.1413 -0.0796 -2.7214
 4605SOL     OW25447   0.861   2.730   8.259  0.2312 -0.2458 -0.2067
 4605SOL    HW125448   0.924   2.668   8.297 -0.0686 -0.7000 -0.4526
 4605SOL    HW225449   0.829   2.677   8.187  1.4879 -0.2715 -0.7436
 4606SOL     OW25450   0.185   3.467   2.914  0.1092 -0.4023  0.6276
 4606SOL    HW125451   0.211   3.413   2.840  3.8626  0.8904  0.9869
 4606SOL    HW225452   0.161   3.552   2.877 -2.4608 -0.6506  1.6956
 4607SOL     OW25453   3.876   2.817  17.575  0.1168 -0.2998  0.0743
 4607SOL    HW125454   3.901   2.821  17.482 -0.7031  1.3875 -0.0702
 4607SOL    HW225455   3.825   2.898  17.583 -0.6041 -0.6204 -1.1111
 4608SOL     OW25456   0.964   2.875   1.805 -0.0319  0.5509  0.1843
 4608SOL    HW125457   0.881   2.913   1.835 -0.5486 -1.7237  1.6214
 4608SOL    HW225458   0.934   2.847   1.718  2.4063  1.2412 -0.8981
 4609SOL     OW25459   1.696   4.477   1.322 -0.0077  0.3808 -0.4600
 4609SOL    HW125460   1.662   4.392   1.293 -0.9007  0.7570 -0.5056
 4609SOL    HW225461   1.612   4.522   1.333 -0.2215  0.1972 -1.3160
 4610SOL     OW25462   4.600   1.681   5.723 -0.2802 -0.0736 -0.4774
 4610SOL    HW125463   4.683   1.721   5.701  0.9656 -1.8163  1.0732
 4610SOL    HW225464   4.539   1.739   5.676 -1.8695 -0.0935  1.5730
 4611SOL     OW25465   2.529   3.064   2.548  0.0049  0.4788 -0.3340
 4611SOL    HW125466   2.559   2.978   2.577 -0.2813  0.8888  1.1916
 4611SOL    HW225467   2.602   3.106   2.502 -0.3417 -1.5184 -2.6824
 4612SOL     OW25468   0.247   1.141  11.118 -0.0652 -0.6817 -0.2319
 4612SOL    HW125469   0.225   1.057  11.159  2.3320 -1.5127 -0.6714
 4612SOL    HW225470   0.224   1.199  11.190  4.1910 -0.3712  0.8361
 4613SOL     OW25471   2.592   1.869   6.573 -0.5389 -0.4737  0.6997
 4613SOL    HW125472   2.568   1.778   6.588 -2.2420 -0.3409 -1.2184
 4613SOL    HW225473   2.687   1.875   6.582 -0.5394 -1.9182  1.7086
 4614SOL     OW25474   3.363   2.042   4.315 -0.1994 -0.6513 -0.3979
 4614SOL    HW125475   3.275   2.079   4.325  0.4509  0.8639 -0.3467
 4614SOL    HW225476   3.380   2.078   4.228 -1.0779 -2.1024 -1.1626
 4615SOL     OW25477   2.911   2.094   5.183  0.4555 -0.3173  0.8566
 4615SOL    HW125478   2.854   2.155   5.230 -0.8015  0.6944 -1.9948
 4615SOL    HW225479   2.998   2.133   5.188 -0.1875  1.2355 -0.1930
 4616SOL     OW25480   2.055   1.816   4.626  0.1382  0.7806 -0.3584
 4616SOL    HW125481   2.001   1.756   4.678  0.9847  2.2032  2.1701
 4616SOL    HW225482   2.007   1.822   4.543 -1.8950  1.1711  0.8538
 4617SOL     OW25483   3.958   1.379   9.975  0.0950 -0.5256  0.6197
 4617SOL    HW125484   3.898   1.451   9.993 -1.0134 -1.5129  0.8798
 4617SOL    HW225485   4.043   1.421   9.960 -0.0848 -0.6883 -0.9029
 4618SOL     OW25486   0.154   2.689   5.413 -0.3324 -0.1604 -0.1806
 4618SOL    HW125487   0.102   2.677   5.334 -1.6110  1.3728  0.4325
 4618SOL    HW225488   0.217   2.756   5.389  0.1334 -0.0303  1.3967
 4619SOL     OW25489   4.050   3.857   9.519  0.3899  0.2250 -0.3481
 4619SOL    HW125490   4.132   3.887   9.479  1.2863 -1.9150 -0.1565
 4619SOL    HW225491   4.019   3.938   9.559 -1.6535 -1.1742  0.9025
 4620SOL     OW25492   1.676   0.855   8.215  0.0196  0.5005  0.0148
 4620SOL    HW125493   1.724   0.843   8.133 -0.7321  1.3624 -0.5530
 4620SOL    HW225494   1.621   0.932   8.201 -0.9035 -0.0541  0.6206
 4621SOL     OW25495   3.498   0.461   8.723  0.1974  0.5828  0.0119
 4621SOL    HW125496   3.515   0.390   8.661 -3.6808 -1.9103  1.7822
 4621SOL    HW225497   3.502   0.535   8.662 -1.1281  0.2847 -0.4374
 4622SOL     OW25498   1.355   4.601  12.251 -0.6877  0.0074 -0.0289
 4622SOL    HW125499   1.340   4.522  12.198  1.6371 -0.6036  0.2592
 4622SOL    HW225500   1.346   4.666  12.181  0.9928  0.8398  0.5430
 4623SOL     OW25501   4.487   3.472   0.611  0.3625  0.1794  0.2383
 4623SOL    HW125502   4.476   3.526   0.534 -1.6957 -0.5901 -0.0187
 4623SOL    HW225503   4.420   3.405   0.598  1.4429 -0.4575 -2.0094
 4624SOL     OW25504   1.507   4.173  11.375 -0.5347 -0.8089  0.1655
 4624SOL    HW125505   1.446   4.243  11.350  0.1477 -0.6305 -0.9754
 4624SOL    HW225506   1.593   4.210  11.356 -0.7009 -0.7867 -0.5668
 4625SOL     OW25507   0.967   0.132   5.787 -0.1382  0.2038 -0.0978
 4625SOL    HW125508   0.901   0.064   5.797 -0.1576  0.0934 -0.9688
 4625SOL    HW225509   1.042   0.088   5.747  0.6606  1.9246 -0.4731
 4626SOL     OW25510   1.846   0.221   6.865 -0.5042 -0.0141 -0.1946
 4626SOL    HW125511   1.809   0.168   6.794  0.3015 -1.1107  0.2015
 4626SOL    HW225512   1.939   0.201   6.866 -0.4465  0.2554 -0.3991
 4627SOL     OW25513   0.357   2.409  12.739  0.6867 -0.4018  0.4767
 4627SOL    HW125514   0.394   2.436  12.655 -1.3315 -0.5031 -0.4405
 4627SOL    HW225515   0.435   2.423  12.792  1.3389  0.2689 -0.6525
 4628SOL     OW25516   2.233   1.577  16.366  0.4258 -0.1637  0.1635
 4628SOL    HW125517   2.159   1.516  16.374 -0.7759  1.2491 -0.1874
 4628SOL    HW225518   2.272   1.565  16.452 -0.2457 -1.9301  0.2237
 4629SOL     OW25519   0.856   3.920   9.157 -0.8191  0.3145 -0.0345
 4629SOL    HW125520   0.912   3.953   9.228  0.3445 -0.9124 -0.3851
 4629SOL    HW225521   0.906   3.843   9.132 -0.8471 -0.1164  1.2394
 4630SOL     OW25522   3.465   2.862   5.955 -0.0221 -0.1659  0.3365
 4630SOL    HW125523   3.423   2.870   5.869  1.2851 -2.5476 -0.5199
 4630SOL    HW225524   3.554   2.891   5.939  1.4613 -3.1069  3.4185
 4631SOL     OW25525   3.808   2.118   6.798  0.4818 -0.4114  0.0898
 4631SOL    HW125526   3.747   2.049   6.772  0.7852 -0.0564 -1.5845
 4631SOL    HW225527   3.890   2.071   6.781  0.9542 -0.1124  1.6034
 4632SOL     OW25528   3.797   1.445   3.231 -0.4495  0.1796 -0.1874
 4632SOL    HW125529   3.840   1.368   3.268 -0.2322 -0.4203 -1.6869
 4632SOL    HW225530   3.872   1.504   3.236  0.6559 -1.2944  0.6812
 4633SOL     OW25531   4.517   4.373   9.555 -0.0889 -0.5086  0.1622
 4633SOL    HW125532   4.437   4.324   9.539 -0.2883 -0.5226  1.2016
 4633SOL    HW225533   4.553   4.336   9.475  1.8668  1.1535  0.2709
 4634SOL     OW25534   4.316   2.458   5.168  0.7240  0.2462  0.1906
 4634SOL    HW125535   4.349   2.484   5.254  2.0916 -1.1834  0.1088
 4634SOL    HW225536   4.271   2.533   5.129  0.3755  0.2263  0.5504
 4635SOL     OW25537   1.059   1.545   4.830  0.5748  0.1669 -0.0313
 4635SOL    HW125538   1.106   1.494   4.896  0.5461 -1.3102 -1.1563
 4635SOL    HW225539   0.979   1.565   4.879 -1.3199 -1.6383 -2.3879
 4636SOL     OW25540   4.669   0.910   7.758 -0.1969  0.2447  0.7060
 4636SOL    HW125541   4.628   0.958   7.686  0.8469 -1.1512 -0.8253
 4636SOL    HW225542   4.657   0.820   7.726  0.4250  0.3523  0.1882
 4637SOL     OW25543   1.215   3.070   1.768 -0.0922  0.1140  0.2049
 4637SOL    HW125544   1.250   2.986   1.737  0.6646 -0.3050  2.1702
 4637SOL    HW225545   1.207   3.048   1.861  1.5729  0.6840  0.4910
 4638SOL     OW25546   3.628   0.038  11.292 -0.0750  0.1076 -0.0465
 4638SOL    HW125547   3.715   0.029  11.252  0.9273  1.8296  1.7005
 4638SOL    HW225548   3.637   4.716  11.365 -0.2358 -2.2511 -2.0039
 4639SOL     OW25549   3.334   3.088   2.351  0.1820 -0.2113  0.0214
 4639SOL    HW125550   3.326   3.048   2.264  2.4774  0.4123 -0.4849
 4639SOL    HW225551   3.244   3.110   2.371 -0.1536 -1.4304 -0.1509
 4640SOL     OW25552   4.418   0.976  13.480  0.2974  0.2907  0.4984
 4640SOL    HW125553   4.426   0.938  13.567  0.8317  0.3208  0.4652
 4640SOL    HW225554   4.333   0.947  13.448  0.1433 -0.2989  1.4375
 4641SOL     OW25555   0.849   3.298   8.943  0.2771 -0.1969 -0.6735
 4641SOL    HW125556   0.852   3.320   9.036  2.2846 -2.5473 -0.1946
 4641SOL    HW225557   0.756   3.305   8.920  0.9803  2.4120 -2.6800
 4642SOL     OW25558   4.118   0.932   3.640  0.2167 -0.3700  0.1898
 4642SOL    HW125559   4.183   0.885   3.587  1.0407 -0.5312  1.3441
 4642SOL    HW225560   4.168   0.992   3.696 -1.8219 -0.4897  2.1269
 4643SOL     OW25561   2.580   0.551   8.500  0.0783 -0.4173 -0.0279
 4643SOL    HW125562   2.561   0.561   8.593 -3.2355 -1.3794 -0.5701
 4643SOL    HW225563   2.548   0.632   8.461  1.1113  0.5090  1.0400
 4644SOL     OW25564   0.838   3.140   0.011 -0.3201  0.3106  0.2328
 4644SOL    HW125565   0.786   3.152  17.688 -2.4644 -2.0744  1.2902
 4644SOL    HW225566   0.905   3.075  17.742 -0.7392  0.0583 -0.2461
 4645SOL     OW25567   2.915   0.862   4.951  0.2735 -0.2663  0.2311
 4645SOL    HW125568   2.869   0.938   4.917  0.1914 -1.2188 -1.8079
 4645SOL    HW225569   2.885   0.871   5.042 -1.7052  0.6064 -0.5142
 4646SOL     OW25570   2.501   3.427   5.344 -0.1187 -0.2340 -0.2263
 4646SOL    HW125571   2.448   3.348   5.356  1.6661 -1.4502 -0.4376
 4646SOL    HW225572   2.514   3.458   5.433 -1.6030  0.3976 -0.2340
 4647SOL     OW25573   3.951   0.203  10.915  0.0404 -0.2471  0.2664
 4647SOL    HW125574   3.882   0.152  10.959 -0.6723  0.5255  0.0379
 4647SOL    HW225575   4.012   0.216  10.988  0.7141 -0.2917 -0.2945
 4648SOL     OW25576   2.869   4.192  11.779  0.3798  0.3763 -0.5114
 4648SOL    HW125577   2.934   4.123  11.786 -1.0006 -0.7288  1.4208
 4648SOL    HW225578   2.858   4.216  11.871 -0.7993  0.5517 -0.6924
 4649SOL     OW25579   2.614   2.743   6.339 -0.4913  0.0510  0.5349
 4649SOL    HW125580   2.660   2.726   6.421  0.2059 -1.0738 -0.0852
 4649SOL    HW225581   2.668   2.694   6.277 -1.1774 -1.7174  1.3289
 4650SOL     OW25582   0.279   3.640   6.593 -0.2125 -0.0988 -0.1173
 4650SOL    HW125583   0.316   3.554   6.613  0.3928  0.0647 -0.5263
 4650SOL    HW225584   0.356   3.692   6.568 -0.4159  0.3120  0.1269
 4651SOL     OW25585   3.701   4.483   7.525  0.6493  0.6632 -0.3051
 4651SOL    HW125586   3.698   4.470   7.431  1.1449  0.4186 -0.2867
 4651SOL    HW225587   3.610   4.502   7.549  0.7054  2.3856 -1.5169
 4652SOL     OW25588   0.643   3.875   2.015 -0.1443  0.1861  0.3889
 4652SOL    HW125589   0.558   3.916   2.002  1.0146  2.8152  1.1135
 4652SOL    HW225590   0.667   3.841   1.928 -0.3093  0.4353  0.2456
 4653SOL     OW25591   0.946   2.916   2.866 -0.6106  0.0394 -0.4208
 4653SOL    HW125592   0.925   2.826   2.890 -1.3755  0.8045  1.7523
 4653SOL    HW225593   0.929   2.960   2.949  0.3319  2.2287 -1.4100
 4654SOL     OW25594   0.720   0.474  10.102 -0.4831  0.0584 -0.1192
 4654SOL    HW125595   0.637   0.518  10.083 -0.2308  0.2707 -0.7291
 4654SOL    HW225596   0.778   0.548  10.118 -0.2243 -0.3305  0.7598
 4655SOL     OW25597   0.069   4.201   6.818  0.6915  0.6182  0.3993
 4655SOL    HW125598   0.018   4.123   6.838 -0.0617  0.3882 -2.4134
 4655SOL    HW225599   0.134   4.182   6.885 -0.3538  2.6536  1.9889
 4656SOL     OW25600   4.686   0.570   7.820 -0.1193  0.3621 -0.1857
 4656SOL    HW125601   4.632   0.506   7.773  0.7631 -0.0219 -0.6663
 4656SOL    HW225602   0.033   0.531   7.805 -1.0947 -2.0278  0.3367
 4657SOL     OW25603   2.950   1.667  15.447  0.0047 -0.0249  0.2381
 4657SOL    HW125604   2.912   1.616  15.376 -0.2187 -0.0854  0.4013
 4657SOL    HW225605   2.885   1.737  15.455  0.5893  0.4314  1.0520
 4658SOL     OW25606   0.275   1.218   7.797  0.1895 -0.6231  0.5255
 4658SOL    HW125607   0.370   1.214   7.808  0.4862 -1.3716 -2.3267
 4658SOL    HW225608   0.246   1.139   7.842  1.0118 -0.6658  0.9843
 4659SOL     OW25609   4.010   4.388   6.157  0.4406  0.3115 -0.2656
 4659SOL    HW125610   4.001   4.395   6.062 -1.1266 -1.1927 -0.2193
 4659SOL    HW225611   3.920   4.377   6.187 -0.2737  2.4419 -1.6848
 4660SOL     OW25612   2.145   0.650   1.987  0.3816  0.4673  0.2188
 4660SOL    HW125613   2.078   0.588   2.019 -0.3866  1.1146 -0.1323
 4660SOL    HW225614   2.169   0.606   1.906 -1.0615  1.9790 -1.0161
 4661SOL     OW25615   1.513   4.142  15.709  0.0573  0.5847  0.1792
 4661SOL    HW125616   1.476   4.148  15.621 -0.1533  0.3824  0.2537
 4661SOL    HW225617   1.585   4.080  15.697  1.4761  1.8272  2.3092
 4662SOL     OW25618   2.691   2.036   5.019  0.3887 -0.0196  0.1492
 4662SOL    HW125619   2.755   2.032   5.090 -1.1695  0.2705  1.5609
 4662SOL    HW225620   2.654   1.950   5.037  0.3520  0.0831  0.5488
 4663SOL     OW25621   3.249   3.280   3.019 -0.4071  0.4221  0.6520
 4663SOL    HW125622   3.333   3.324   3.008 -0.5844  0.7779  0.7276
 4663SOL    HW225623   3.235   3.279   3.113 -0.6450 -2.6163  0.5960
 4664SOL     OW25624   4.057   2.640  12.686  0.2144  0.0993 -0.1840
 4664SOL    HW125625   4.106   2.578  12.739  2.1108  0.1845 -1.7876
 4664SOL    HW225626   4.008   2.678  12.759 -0.2594  0.8376 -0.8819
 4665SOL     OW25627   4.027   2.913  16.247  0.5154 -0.4286 -0.4232
 4665SOL    HW125628   3.973   2.907  16.325 -0.7324  2.2245 -1.0603
 4665SOL    HW225629   4.049   3.005  16.230 -1.6245 -0.2332 -2.2467
 4666SOL     OW25630   0.130   1.315   6.423  0.0056 -0.0471 -0.5714
 4666SOL    HW125631   0.107   1.233   6.467 -0.4317  0.2568 -0.2355
 4666SOL    HW225632   0.215   1.290   6.385 -0.0595 -2.0550  0.5829
 4667SOL     OW25633   2.687   3.012  14.849 -0.6524  0.0124 -0.1144
 4667SOL    HW125634   2.724   3.093  14.813  0.6406  0.2099  1.6527
 4667SOL    HW225635   2.762   2.972  14.893  0.6868  1.2097 -1.3162
 4668SOL     OW25636   0.059   1.491   3.639 -0.1688 -0.0686 -0.3839
 4668SOL    HW125637   4.733   1.422   3.635 -0.8210  0.4928  0.4527
 4668SOL    HW225638   0.090   1.491   3.730  0.9952  1.6551 -0.7958
 4669SOL     OW25639   1.572   2.708   3.557  0.4684 -0.1063 -0.2387
 4669SOL    HW125640   1.501   2.648   3.538  1.8306 -1.4639 -1.0524
 4669SOL    HW225641   1.555   2.765   3.483 -4.0284 -1.2875 -0.0727
 4670SOL     OW25642   3.443   1.882  15.458 -0.0391 -0.2444 -0.5613
 4670SOL    HW125643   3.419   1.790  15.468  0.7909 -0.2418  1.3590
 4670SOL    HW225644   3.529   1.897  15.498 -0.3898  1.7637 -0.5470
 4671SOL     OW25645   0.843   4.501   3.483  0.0174 -0.2977  0.3338
 4671SOL    HW125646   0.932   4.472   3.461 -0.8740 -0.6250 -2.7917
 4671SOL    HW225647   0.844   4.596   3.471 -3.2872  0.3508  5.2831
 4672SOL     OW25648   0.649   4.351   8.617  0.4600 -0.6063 -0.2744
 4672SOL    HW125649   0.604   4.338   8.533 -0.9288 -1.2592  0.5739
 4672SOL    HW225650   0.615   4.281   8.672  1.4533  0.9504  2.2964
 4673SOL     OW25651   0.591   2.061   2.894  0.1198 -0.0260  0.1545
 4673SOL    HW125652   0.609   2.152   2.872  1.3828 -0.1225  0.7873
 4673SOL    HW225653   0.540   2.027   2.820 -0.7950 -2.5569  1.9456
 4674SOL     OW25654   2.870   0.793   7.634 -0.1387 -0.1631  0.0275
 4674SOL    HW125655   2.827   0.801   7.719  2.1333 -1.9762  1.3784
 4674SOL    HW225656   2.821   0.723   7.590  0.5748 -1.3602  1.1257
 4675SOL     OW25657   4.333   2.236   1.847  0.4268 -0.0958 -0.2517
 4675SOL    HW125658   4.332   2.223   1.942 -1.7038 -1.5212 -0.4787
 4675SOL    HW225659   4.398   2.306   1.841  2.1361 -1.7585 -1.2609
 4676SOL     OW25660   4.712   1.501  10.505  0.5005 -0.0105  0.9514
 4676SOL    HW125661   0.055   1.546  10.521  1.3867 -1.0597 -0.6802
 4676SOL    HW225662   4.694   1.521  10.413 -1.2774 -1.4776  0.9898
 4677SOL     OW25663   3.244   0.781   1.005 -0.3324  0.2499 -0.4740
 4677SOL    HW125664   3.296   0.700   1.002 -0.4527  0.0985  1.5645
 4677SOL    HW225665   3.299   0.836   0.949 -1.4441  2.0590  0.2018
 4678SOL     OW25666   2.387   0.924   5.155  0.2254 -0.1579 -0.0581
 4678SOL    HW125667   2.400   0.848   5.211 -1.1101 -0.0953  0.3541
 4678SOL    HW225668   2.312   0.893   5.103 -1.0649  1.2074  0.9858
 4679SOL     OW25669   1.352   3.842   8.081  0.1530 -0.6572 -0.3394
 4679SOL    HW125670   1.313   3.773   8.135 -1.1478  2.2556  2.4241
 4679SOL    HW225671   1.295   3.916   8.101  2.7919  1.6172 -1.2530
 4680SOL     OW25672   0.512   4.421   6.060 -0.1110 -0.1317 -0.0159
 4680SOL    HW125673   0.456   4.430   6.137 -0.5867 -1.2519 -0.2367
 4680SOL    HW225674   0.592   4.466   6.088  0.5011 -1.6900  0.7530
 4681SOL     OW25675   3.396   2.570   0.730 -0.1847  0.1641  0.1363
 4681SOL    HW125676   3.445   2.529   0.800  3.1884  0.1585 -2.2326
 4681SOL    HW225677   3.315   2.601   0.772  0.8325  0.1517  2.0515
 4682SOL     OW25678   2.677   4.196  11.563  0.3170 -0.3567  0.7174
 4682SOL    HW125679   2.704   4.244  11.642  2.1853  1.0900 -0.8230
 4682SOL    HW225680   2.598   4.243  11.539 -0.0437 -0.6704  1.2899
 4683SOL     OW25681   1.599   4.270   6.879 -0.4493 -0.1103 -0.3347
 4683SOL    HW125682   1.642   4.319   6.808 -1.3385  0.2927 -0.5898
 4683SOL    HW225683   1.656   4.281   6.955  0.7941 -1.9979 -0.9970
 4684SOL     OW25684   4.704   3.306   2.508  0.5802 -0.0904  0.1013
 4684SOL    HW125685   0.022   3.291   2.433  2.8153  2.5447  1.3147
 4684SOL    HW225686   4.630   3.352   2.469  0.1525 -0.2008  0.7772
 4685SOL     OW25687   1.808   2.539   4.234  0.5774  0.8399 -0.4739
 4685SOL    HW125688   1.815   2.472   4.302 -0.8221  1.6170  0.4393
 4685SOL    HW225689   1.845   2.498   4.156  0.1344 -0.0829 -0.1918
 4686SOL     OW25690   4.455   0.557   5.640 -0.6150 -0.0843 -0.4970
 4686SOL    HW125691   4.526   0.615   5.612  0.4060 -1.7854 -1.4069
 4686SOL    HW225692   4.493   0.471   5.653 -0.5087 -0.0469 -0.5656
 4687SOL     OW25693   2.187   3.679   8.423 -0.3339  0.1900  0.3921
 4687SOL    HW125694   2.255   3.632   8.472  1.3132 -2.2206 -4.1354
 4687SOL    HW225695   2.149   3.607   8.373  2.4939 -1.3104  0.3809
 4688SOL     OW25696   0.785   1.821   0.489 -0.1544 -0.6168  0.9900
 4688SOL    HW125697   0.819   1.801   0.576  0.4110  1.7498  1.3062
 4688SOL    HW225698   0.808   1.749   0.430  2.5223  0.5679  0.5720
 4689SOL     OW25699   2.025   0.148  15.693 -0.2527 -0.5437  0.3089
 4689SOL    HW125700   2.046   0.238  15.721  1.1963 -0.8555  0.2394
 4689SOL    HW225701   2.036   0.160  15.599 -1.3724  0.7418  0.3355
 4690SOL     OW25702   0.410   2.642   3.591 -0.3387  0.4838  0.3742
 4690SOL    HW125703   0.365   2.664   3.509  1.9951 -0.0331 -1.0433
 4690SOL    HW225704   0.333   2.643   3.648 -1.5642 -1.0015 -1.2747
 4691SOL     OW25705   4.103   2.098  13.669 -0.0151 -0.0599  0.1872
 4691SOL    HW125706   4.159   2.175  13.676 -0.9804  0.6996 -0.2953
 4691SOL    HW225707   4.045   2.138  13.604  2.1737  3.8027  0.6587
 4692SOL     OW25708   0.049   2.347   9.496 -0.9285 -0.0912 -0.4923
 4692SOL    HW125709   4.703   2.310   9.520 -0.9533  0.5603  0.4082
 4692SOL    HW225710   0.053   2.325   9.403  0.8389 -1.9937  0.0483
 4693SOL     OW25711   1.841   2.338   5.662  0.1282  0.9038  0.7006
 4693SOL    HW125712   1.813   2.314   5.574  2.8176  1.7361 -0.3584
 4693SOL    HW225713   1.809   2.428   5.662 -1.6589  0.2819  0.7496
 4694SOL     OW25714   2.995   0.272   6.239  0.0360  0.0226  0.1667
 4694SOL    HW125715   3.006   0.211   6.167 -2.1850 -3.3625  2.6976
 4694SOL    HW225716   2.973   0.200   6.298 -0.2421  0.3104  0.4166
 4695SOL     OW25717   1.566   0.063   6.504  0.3256 -0.3894 -0.3163
 4695SOL    HW125718   1.596   0.152   6.523  1.6634 -0.5194 -1.8524
 4695SOL    HW225719   1.491   0.065   6.564 -0.1475  1.2304 -0.9476
 4696SOL     OW25720   4.271   2.957   3.299 -0.1562  0.3474 -0.0663
 4696SOL    HW125721   4.244   3.049   3.296 -0.8089  0.1644  0.3717
 4696SOL    HW225722   4.281   2.927   3.208  1.6184  1.6977 -0.3234
 4697SOL     OW25723   2.331   3.658  10.218 -0.2718  0.5218  0.2621
 4697SOL    HW125724   2.303   3.739  10.261  1.8463  1.5347 -0.2614
 4697SOL    HW225725   2.253   3.610  10.192  1.4070 -0.5552 -2.7648
 4698SOL     OW25726   3.177   1.819  16.670  0.3938  0.5617  0.2780
 4698SOL    HW125727   3.095   1.867  16.661  0.1854  0.0247 -0.7006
 4698SOL    HW225728   3.151   1.781  16.753  0.8722  0.1158  0.2271
 4699SOL     OW25729   3.405   4.661   5.813 -0.0311 -0.1182  0.1572
 4699SOL    HW125730   3.349   4.589   5.842 -0.3704 -0.2621 -0.8702
 4699SOL    HW225731   3.348   4.728   5.849  0.1410 -0.6822  1.5173
 4700SOL     OW25732   2.444   1.785   6.833  0.0024 -0.2093 -0.4508
 4700SOL    HW125733   2.478   1.715   6.777  0.7227  0.2225 -0.5552
 4700SOL    HW225734   2.356   1.796   6.796 -0.1038  0.5924  0.0402
 4701SOL     OW25735   3.514   4.735   1.414  0.1955  0.1189  0.5612
 4701SOL    HW125736   3.554   4.654   1.383  0.3380  0.5661 -0.4298
 4701SOL    HW225737   3.424   4.703   1.418 -0.0618  0.5047 -2.1600
 4702SOL     OW25738   2.298   2.697   6.880 -0.6321 -0.1194 -0.2094
 4702SOL    HW125739   2.255   2.653   6.806 -2.2336  1.5527 -0.2762
 4702SOL    HW225740   2.318   2.779   6.835  2.3070  0.5000  2.2797
 4703SOL     OW25741   0.057   1.696   1.977 -0.2999 -0.3292  1.4547
 4703SOL    HW125742   0.123   1.655   2.033  3.7678  1.8130 -1.7257
 4703SOL    HW225743   0.063   1.648   1.894 -2.4248  2.9535 -0.5952
 4704SOL     OW25744   0.500   1.736   5.463  0.1610  0.6295  0.4236
 4704SOL    HW125745   0.436   1.673   5.495 -1.1664  0.0787 -3.3807
 4704SOL    HW225746   0.490   1.732   5.368  2.0778 -1.9182  0.3351
 4705SOL     OW25747   4.112   4.210   4.797 -0.1795  0.4617  0.2790
 4705SOL    HW125748   4.127   4.134   4.742 -0.7670 -0.6327  1.6207
 4705SOL    HW225749   4.172   4.269   4.751 -1.5415  2.5665  1.2125
 4706SOL     OW25750   1.412   2.258   8.376 -0.4985  0.1494  0.8967
 4706SOL    HW125751   1.411   2.352   8.396  1.9169  0.5181 -0.6331
 4706SOL    HW225752   1.504   2.237   8.390 -0.8712 -2.6452 -0.8475
 4707SOL     OW25753   2.555   1.098  10.269 -0.6090  0.3610 -0.5350
 4707SOL    HW125754   2.486   1.147  10.223  1.3279  3.3962 -0.1940
 4707SOL    HW225755   2.620   1.167  10.256 -0.2687  0.2506  0.5846
 4708SOL     OW25756   2.388   0.515   0.076  0.5436  0.5666 -0.1034
 4708SOL    HW125757   2.302   0.503   0.036  0.4212 -0.2375  0.3972
 4708SOL    HW225758   2.366   0.576   0.146 -3.0196  1.3786 -1.9368
 4709SOL     OW25759   2.079   3.703  16.060  0.5965  0.1555 -0.3715
 4709SOL    HW125760   2.101   3.793  16.037 -0.7756  0.4901 -0.3959
 4709SOL    HW225761   2.119   3.688  16.146  0.3131 -1.2647 -0.4750
 4710SOL     OW25762   4.701   4.137   4.160 -0.1061 -0.1826  0.1145
 4710SOL    HW125763   4.722   4.230   4.157 -0.3749 -0.0709  1.6569
 4710SOL    HW225764   0.044   4.097   4.131 -0.3884 -0.6901  0.0064
 4711SOL     OW25765   1.759   1.381   8.149  0.1565 -0.7210 -0.0712
 4711SOL    HW125766   1.794   1.302   8.190 -2.0968 -2.1499 -0.9199
 4711SOL    HW225767   1.664   1.369   8.148  0.1011 -0.0752 -2.6635
 4712SOL     OW25768   1.629   1.752   8.690 -0.4168  0.0927  0.2543
 4712SOL    HW125769   1.658   1.749   8.781  1.5029  0.6102 -0.3396
 4712SOL    HW225770   1.608   1.845   8.688  0.1100  0.1914 -0.6235
 4713SOL     OW25771   4.281   3.440   5.625  0.3406  0.0290  0.3380
 4713SOL    HW125772   4.358   3.479   5.664  1.3087  0.3666 -1.8900
 4713SOL    HW225773   4.314   3.351   5.611 -0.8049  0.1257 -3.2254
 4714SOL     OW25774   3.653   3.488   3.699  0.0394 -0.2770  0.3147
 4714SOL    HW125775   3.643   3.450   3.612 -1.7767 -0.2855  0.5176
 4714SOL    HW225776   3.562   3.507   3.723  0.0394 -0.0774  0.1502
 4715SOL     OW25777   2.502   2.535   6.828  0.8535 -0.0883 -0.2830
 4715SOL    HW125778   2.570   2.566   6.888 -1.1941 -0.0207  1.9784
 4715SOL    HW225779   2.418   2.573   6.852  0.7464 -0.8602  0.5597
 4716SOL     OW25780   4.600   1.719   5.328 -0.1677 -0.3560 -0.5762
 4716SOL    HW125781   4.648   1.649   5.373 -0.3718  0.1521  0.4379
 4716SOL    HW225782   4.663   1.789   5.310  1.8990 -2.3030 -0.9683
 4717SOL     OW25783   2.783   0.278   2.584 -0.5370  0.0652  0.0223
 4717SOL    HW125784   2.791   0.242   2.496 -0.8446  0.6573 -0.2498
 4717SOL    HW225785   2.872   0.314   2.593 -0.1624 -1.3569  2.0079
 4718SOL     OW25786   2.229   3.871   5.013  0.4160  0.1953 -0.1767
 4718SOL    HW125787   2.310   3.837   4.974 -0.2639 -2.3890  0.6795
 4718SOL    HW225788   2.180   3.789   5.003  0.8462 -0.0181 -0.5675
 4719SOL     OW25789   1.439   1.712  11.707  0.3607 -0.4238 -0.6624
 4719SOL    HW125790   1.464   1.685  11.795  0.5695 -1.7582 -1.1245
 4719SOL    HW225791   1.453   1.633  11.654  1.7221  0.7021 -2.0126
 4720SOL     OW25792   2.551   4.458  15.613 -0.0583 -0.3714 -0.7989
 4720SOL    HW125793   2.513   4.446  15.525  0.9012  0.2834 -1.3043
 4720SOL    HW225794   2.626   4.509  15.583  0.2758 -0.2438  0.2825
 4721SOL     OW25795   1.181   0.105  14.820  0.0642 -0.6137  0.0371
 4721SOL    HW125796   1.099   0.106  14.869  0.0971 -0.0382  0.0750
 4721SOL    HW225797   1.173   0.168  14.749 -1.7366  0.7019  1.4099
 4722SOL     OW25798   4.715   1.995  16.570 -0.2568  0.0961  0.3301
 4722SOL    HW125799   4.628   1.982  16.531 -0.2932  1.6127 -0.0932
 4722SOL    HW225800   0.031   1.972  16.495  0.4191  1.9265  0.2508
 4723SOL     OW25801   3.714   4.168   9.989  0.3860  0.1771 -0.5183
 4723SOL    HW125802   3.765   4.097  10.028 -0.7226  0.4915  1.5325
 4723SOL    HW225803   3.661   4.107   9.937  2.2397 -1.4598 -0.4702
 4724SOL     OW25804   1.908   0.573   0.447 -0.1632 -0.6680 -0.1879
 4724SOL    HW125805   1.823   0.613   0.428  0.3121 -0.2853 -1.4720
 4724SOL    HW225806   1.895   0.497   0.390 -1.1827 -1.4213  1.0279
 4725SOL     OW25807   3.170   2.610   5.566 -0.2675 -0.2890 -0.0635
 4725SOL    HW125808   3.197   2.528   5.523  0.3000  1.0220 -2.1959
 4725SOL    HW225809   3.112   2.649   5.501 -0.4503  1.8416  1.4035
 4726SOL     OW25810   0.717   2.087   1.225  0.0090 -0.2751 -0.1786
 4726SOL    HW125811   0.790   2.139   1.191 -0.2427 -0.7077 -1.4147
 4726SOL    HW225812   0.689   2.128   1.306 -1.3008  0.5872 -1.0619
 4727SOL     OW25813   1.229   0.669   4.204 -0.3131 -0.4639 -0.5989
 4727SOL    HW125814   1.239   0.647   4.111 -2.3408 -0.5239 -0.7919
 4727SOL    HW225815   1.256   0.592   4.254 -2.2694 -0.1628  0.8936
 4728SOL     OW25816   1.689   0.307   7.051 -0.4373 -0.0317 -0.2995
 4728SOL    HW125817   1.746   0.284   7.124 -0.0544  1.1039 -0.2325
 4728SOL    HW225818   1.736   0.283   6.971 -0.6152 -0.5792 -0.2433
 4729SOL     OW25819   3.834   3.940   2.505 -0.2679  0.0765 -0.0557
 4729SOL    HW125820   3.790   3.893   2.434  1.9600 -0.9077 -0.7763
 4729SOL    HW225821   3.887   3.865   2.529 -3.0778 -1.0904  2.5600
 4730SOL     OW25822   0.139   2.223   4.870  0.8510  0.0224  1.2501
 4730SOL    HW125823   0.139   2.138   4.915  1.3458  0.4207  1.9896
 4730SOL    HW225824   0.227   2.222   4.832  0.7306  0.8091  0.9474
 4731SOL     OW25825   4.738   0.820   8.829 -0.5268 -0.4535  0.0148
 4731SOL    HW125826   0.046   0.771   8.896  0.5122  1.5690  0.7484
 4731SOL    HW225827   0.060   0.823   8.755 -1.2721  1.8412 -0.5201
 4732SOL     OW25828   3.415   3.924  12.287 -0.2140  0.3342 -0.2922
 4732SOL    HW125829   3.352   3.872  12.236 -0.6543  1.0218 -0.4477
 4732SOL    HW225830   3.358   3.974  12.345 -0.4824 -0.9009  0.5194
 4733SOL     OW25831   2.728   2.931   3.638  0.3774  0.2550  0.5435
 4733SOL    HW125832   2.634   2.922   3.656  0.5842  0.3228  1.6794
 4733SOL    HW225833   2.747   3.024   3.622 -1.9061  0.7597  0.7160
 4734SOL     OW25834   1.053   1.769   2.173 -0.0529 -0.4402 -0.0174
 4734SOL    HW125835   0.979   1.725   2.214 -0.5766 -0.6885 -1.2316
 4734SOL    HW225836   1.093   1.790   2.258  1.0608 -0.2908 -0.5697
 4735SOL     OW25837   0.741   4.008   8.549  0.7955  0.5739  0.2406
 4735SOL    HW125838   0.795   3.942   8.592 -0.9369 -1.4113 -0.6459
 4735SOL    HW225839   0.799   4.031   8.476  1.4267 -3.1443 -0.4510
 4736SOL     OW25840   1.348   2.779   3.923  0.4680 -0.4452 -0.1418
 4736SOL    HW125841   1.290   2.854   3.938  0.2455 -0.4130 -1.1267
 4736SOL    HW225842   1.430   2.821   3.896  0.2892 -0.4263 -0.6591
 4737SOL     OW25843   0.020   3.384   6.007  0.4301 -0.1174 -0.6620
 4737SOL    HW125844   4.716   3.419   6.084  1.1457  0.6903 -0.6206
 4737SOL    HW225845   0.040   3.297   6.042 -2.1949 -0.1772  0.6597
 4738SOL     OW25846   2.850   3.722   2.389  0.5359 -0.0954  0.1887
 4738SOL    HW125847   2.867   3.651   2.326 -1.4276 -0.1897 -0.2595
 4738SOL    HW225848   2.836   3.676   2.472 -0.8251 -2.1915 -1.1812
 4739SOL     OW25849   1.184   0.816   3.499  0.2037  0.5418 -0.3239
 4739SOL    HW125850   1.190   0.723   3.475 -2.0933  0.3956 -0.2997
 4739SOL    HW225851   1.269   0.830   3.540  0.0491  0.9253 -0.1357
 4740SOL     OW25852   4.644   3.068   6.714 -0.4448  0.5541  0.3560
 4740SOL    HW125853   4.630   3.011   6.789  2.3381 -0.1092  0.3646
 4740SOL    HW225854   4.714   3.018   6.671 -1.5306 -1.7268  1.2536
 4741SOL     OW25855   3.823   4.573  15.757  0.0497  0.0787  0.0310
 4741SOL    HW125856   3.798   4.657  15.719 -3.0645  0.1451  2.2563
 4741SOL    HW225857   3.905   4.599  15.798  1.1096 -1.1633 -1.3159
 4742SOL     OW25858   3.507   3.480  16.686 -0.1129 -0.3266 -0.1457
 4742SOL    HW125859   3.565   3.531  16.742  0.9378 -1.1550 -0.4849
 4742SOL    HW225860   3.458   3.428  16.750 -1.1413 -0.1715 -0.8005
 4743SOL     OW25861   0.718   4.500   2.968 -0.0437 -0.0997  0.1424
 4743SOL    HW125862   0.740   4.454   3.048 -0.2083 -0.7177 -0.1709
 4743SOL    HW225863   0.675   4.576   3.009 -0.8851 -0.3634 -0.2477
 4744SOL     OW25864   3.572   3.227   9.854  0.0709  0.5080  0.3531
 4744SOL    HW125865   3.518   3.210   9.776  1.7235  0.2161 -0.7148
 4744SOL    HW225866   3.634   3.293   9.825  1.9588 -1.3785  0.1056
 4745SOL     OW25867   1.142   2.093   7.015 -0.0828  0.2946  0.2585
 4745SOL    HW125868   1.169   2.035   7.086  0.3846  0.0724 -0.1037
 4745SOL    HW225869   1.065   2.048   6.980  2.2325 -1.6944 -2.1444
 4746SOL     OW25870   2.009   0.566   6.480 -0.7633 -0.0452  0.1210
 4746SOL    HW125871   1.936   0.601   6.429 -1.3859 -1.5203 -0.0069
 4746SOL    HW225872   2.053   0.651   6.483 -0.1905 -0.3520  0.2877
 4747SOL     OW25873   2.241   2.619   3.963 -0.3180  0.2557  0.7712
 4747SOL    HW125874   2.234   2.713   3.980 -0.4175  0.5525 -0.9412
 4747SOL    HW225875   2.327   2.598   3.928 -0.1266  1.5635  0.4451
 4748SOL     OW25876   2.103   1.007   9.027  0.6468  0.1136  0.6454
 4748SOL    HW125877   2.036   0.981   9.090  1.0355 -0.6329  0.7615
 4748SOL    HW225878   2.129   1.094   9.057  1.5044  0.1227 -0.1120
 4749SOL     OW25879   2.118   1.949   1.693 -0.6475 -0.3328 -0.5225
 4749SOL    HW125880   2.107   2.044   1.691  3.0210  0.0816 -0.8138
 4749SOL    HW225881   2.050   1.924   1.756 -0.8267  0.5320 -0.3757
 4750SOL     OW25882   0.794   0.000  10.017 -0.0611  0.2335 -0.3934
 4750SOL    HW125883   0.813   4.654   9.979  0.6950 -0.4357  1.5430
 4750SOL    HW225884   0.774   0.049   9.937 -0.1456  2.1134  0.7706
 4751SOL     OW25885   4.248   0.233   1.254  0.1869 -0.2236 -0.2299
 4751SOL    HW125886   4.279   0.277   1.333 -0.0521 -0.3186 -0.0843
 4751SOL    HW225887   4.266   0.143   1.278  0.3184 -0.7022 -2.0777
 4752SOL     OW25888   1.525   4.426   0.715 -0.3823  0.1371 -0.1799
 4752SOL    HW125889   1.456   4.479   0.753 -1.1055 -1.4267  0.6800
 4752SOL    HW225890   1.580   4.410   0.792  0.3235 -1.2267 -0.9650
 4753SOL     OW25891   2.578   2.247  12.121  0.0350  0.4989  0.3696
 4753SOL    HW125892   2.580   2.158  12.087  0.4849 -0.2596  2.3983
 4753SOL    HW225893   2.554   2.239  12.213  0.3061  1.5164  0.5295
 4754SOL     OW25894   3.982   2.434   2.820 -0.1322  0.0848  0.2514
 4754SOL    HW125895   4.035   2.472   2.749  0.6308 -1.0279  0.2174
 4754SOL    HW225896   3.903   2.405   2.776  0.1708 -0.3232 -0.0227
 4755SOL     OW25897   2.946   3.869   8.060 -0.1934  0.1777 -0.1923
 4755SOL    HW125898   2.980   3.893   8.147  2.3302  0.7501 -1.3621
 4755SOL    HW225899   2.853   3.858   8.079 -0.5423  5.1035  1.0815
 4756SOL     OW25900   3.039   3.703   5.001  0.1347  0.4599  0.0313
 4756SOL    HW125901   3.039   3.750   4.918  1.0852  1.7276  0.7553
 4756SOL    HW225902   3.083   3.623   4.973 -2.2559 -0.6785 -0.5278
 4757SOL     OW25903   0.060   3.146   8.651 -0.4318 -0.3638  0.3261
 4757SOL    HW125904   0.062   3.129   8.557  0.7401 -1.7264  0.5909
 4757SOL    HW225905   0.061   3.055   8.680 -0.8681 -1.2548 -2.5131
 4758SOL     OW25906   1.270   2.528   3.193 -0.4759 -0.3555 -0.5217
 4758SOL    HW125907   1.296   2.435   3.193 -0.4867 -0.3588 -0.6321
 4758SOL    HW225908   1.238   2.531   3.283  1.1366  2.9644 -0.0491
 4759SOL     OW25909   2.795   2.548  16.676 -0.3472  0.0053  0.0742
 4759SOL    HW125910   2.761   2.547  16.766 -0.6021 -2.8248 -0.0680
 4759SOL    HW225911   2.841   2.632  16.676 -0.9525  0.3454 -1.7656
 4760SOL     OW25912   3.310   2.843  12.489  0.0925 -0.2882 -0.6822
 4760SOL    HW125913   3.295   2.754  12.459 -1.0842 -0.6343  0.9353
 4760SOL    HW225914   3.401   2.843  12.519 -0.1372 -1.9094 -0.0361
 4761SOL     OW25915   2.682   0.219   7.591 -0.7477  0.4471 -0.1185
 4761SOL    HW125916   2.729   0.146   7.549  0.4568  1.5326 -0.6602
 4761SOL    HW225917   2.677   0.185   7.680 -0.0430  0.4397 -0.0836
 4762SOL     OW25918   3.678   4.464   1.789  0.0780 -0.0613  0.1008
 4762SOL    HW125919   3.641   4.431   1.707 -0.5288  0.1139  0.3047
 4762SOL    HW225920   3.711   4.385   1.832  1.2637  0.2960 -0.1817
 4763SOL     OW25921   0.048   0.052  10.464  0.1513  0.0321 -0.1841
 4763SOL    HW125922   0.064   4.730  10.392 -0.0209 -2.2256  1.7087
 4763SOL    HW225923   4.725   0.003  10.517  0.5591  0.1331  0.3857
 4764SOL     OW25924   0.444   2.321   3.177  0.1464 -0.1311 -0.2029
 4764SOL    HW125925   0.428   2.415   3.179 -0.3559 -0.2016 -0.8732
 4764SOL    HW225926   0.540   2.315   3.181  0.1538  0.4586  0.4439
 4765SOL     OW25927   1.874   4.713   5.013  0.3120 -0.5073 -0.2925
 4765SOL    HW125928   1.947   4.689   5.071  0.0836  1.5766  0.8591
 4765SOL    HW225929   1.803   4.670   5.061 -1.0127 -0.2322 -2.0279
 4766SOL     OW25930   0.951   2.890   6.290 -0.2647  0.9348 -0.5652
 4766SOL    HW125931   1.037   2.875   6.327 -0.2260  1.3240 -0.5026
 4766SOL    HW225932   0.966   2.886   6.195  1.9753 -1.1108 -0.0942
 4767SOL     OW25933   3.408   3.087   1.796  0.1686 -0.2029 -0.7204
 4767SOL    HW125934   3.483   3.147   1.797 -1.7882  2.3276 -4.8490
 4767SOL    HW225935   3.403   3.081   1.700  0.0772 -1.0515 -0.6618
 4768SOL     OW25936   2.585   0.295   1.253  0.0088 -0.7465 -0.1660
 4768SOL    HW125937   2.678   0.307   1.235 -0.5293  3.1891 -0.3334
 4768SOL    HW225938   2.540   0.337   1.180 -2.7168 -1.8322  0.8860
 4769SOL     OW25939   3.694   3.964   2.812  0.6925 -0.6598 -0.1827
 4769SOL    HW125940   3.618   4.014   2.783 -0.5685 -1.1721  2.2607
 4769SOL    HW225941   3.699   3.902   2.740  0.6566 -0.7370 -0.1176
 4770SOL     OW25942   2.896   4.360   5.218  0.6233  1.2195 -0.5062
 4770SOL    HW125943   2.856   4.442   5.248 -1.8243  0.6377 -2.1179
 4770SOL    HW225944   2.959   4.335   5.286 -0.5625 -2.5174 -0.7387
 4771SOL     OW25945   1.115   1.898   8.564 -0.0409  0.1446 -0.5658
 4771SOL    HW125946   1.114   1.980   8.516  0.9291 -0.1896 -1.1605
 4771SOL    HW225947   1.183   1.905   8.631 -0.1463  1.3984 -0.5966
 4772SOL     OW25948   1.052   1.214   7.721 -0.4160  0.2933 -0.6182
 4772SOL    HW125949   1.041   1.206   7.626  0.4440 -1.0683 -0.5927
 4772SOL    HW225950   1.044   1.309   7.729 -0.0129  0.1101  1.7906
 4773SOL     OW25951   2.643   3.676   5.298  0.5395 -0.2066 -0.3074
 4773SOL    HW125952   2.592   3.596   5.313 -0.7172  0.8413  1.0009
 4773SOL    HW225953   2.672   3.704   5.384  1.4689  1.3509 -1.1305
 4774SOL     OW25954   1.056   2.396   5.458  0.0149  0.0588  0.0914
 4774SOL    HW125955   0.965   2.424   5.468 -0.4566 -1.1157 -0.9079
 4774SOL    HW225956   1.102   2.475   5.488  2.0984 -0.6956 -1.1144
 4775SOL     OW25957   1.213   0.083   4.997 -0.4671 -0.2424 -0.9802
 4775SOL    HW125958   1.117   0.084   4.994 -0.4326  1.9500 -1.7689
 4775SOL    HW225959   1.236   0.032   5.075 -3.7258  0.2762  0.3316
 4776SOL     OW25960   4.465   2.800  17.088  0.2014 -0.1494  0.2222
 4776SOL    HW125961   4.480   2.871  17.025  0.4568 -1.7974 -1.5930
 4776SOL    HW225962   4.380   2.818  17.128  1.9509 -0.2841  3.9282
 4777SOL     OW25963   3.915   2.236  17.654  0.6399 -0.4954  0.4596
 4777SOL    HW125964   3.967   2.277  17.584 -1.0396  1.6820  0.5048
 4777SOL    HW225965   3.864   2.171  17.605  0.9471 -0.6163  0.2986
 4778SOL     OW25966   0.098   3.742  12.626 -0.1342  0.0023 -0.2038
 4778SOL    HW125967   0.091   3.805  12.555  0.5625  1.7773  1.3087
 4778SOL    HW225968   0.069   3.664  12.579  1.5098 -0.1294 -0.9995
 4779SOL     OW25969   0.054   4.637   2.698 -0.1037 -0.2139 -0.0776
 4779SOL    HW125970   4.713   4.625   2.747 -0.7923  1.2343 -0.8496
 4779SOL    HW225971   0.066   4.560   2.642  0.2765  0.1819 -0.5470
 4780SOL     OW25972   1.628   1.993  16.895 -0.0496 -0.2180 -0.1595
 4780SOL    HW125973   1.624   1.930  16.823 -1.5290 -2.4408  1.8931
 4780SOL    HW225974   1.706   1.970  16.945  0.4398  1.3920 -0.1544
 4781SOL     OW25975   1.002   3.190   6.352  0.4200  0.3685 -0.3440
 4781SOL    HW125976   1.000   3.127   6.424 -0.1581 -0.5251 -1.1676
 4781SOL    HW225977   1.029   3.139   6.276 -1.3149  0.2050 -0.8334
 4782SOL     OW25978   1.265   1.806   1.801 -0.0553 -0.0545  0.0762
 4782SOL    HW125979   1.327   1.786   1.871  0.6548 -0.8796 -0.7834
 4782SOL    HW225980   1.261   1.899   1.823 -3.6742 -0.8560  2.8816
 4783SOL     OW25981   2.688   0.642   0.207 -0.0437  0.4922  0.5687
 4783SOL    HW125982   2.666   0.716   0.150 -0.6228 -1.1082 -1.2985
 4783SOL    HW225983   2.707   0.679   0.292  0.4382  0.0491  0.6561
 4784SOL     OW25984   4.462   2.044   3.774 -0.2502  0.1956  0.4556
 4784SOL    HW125985   4.510   2.007   3.701 -2.6245 -0.7714 -0.6086
 4784SOL    HW225986   4.535   2.088   3.818 -0.6459  1.3978 -0.0944
 4785SOL     OW25987   4.393   3.380  13.765 -0.8793  0.2241 -0.3143
 4785SOL    HW125988   4.459   3.412  13.703  1.3318 -0.3440  1.7450
 4785SOL    HW225989   4.331   3.453  13.768 -0.3715  0.5800  1.7829
 4786SOL     OW25990   0.338   1.324  10.881  0.2010 -0.1569 -0.0268
 4786SOL    HW125991   0.308   1.272  10.956 -3.0741  2.0270  0.1604
 4786SOL    HW225992   0.343   1.412  10.919 -2.4401 -0.6362  1.4769
 4787SOL     OW25993   0.808   3.441  11.953  0.1318 -0.3149  0.0215
 4787SOL    HW125994   0.827   3.533  11.932 -1.1642 -0.4305 -1.6824
 4787SOL    HW225995   0.898   3.410  11.950  0.2905  0.0736  0.9341
 4788SOL     OW25996   0.351   1.042   2.520  0.1565 -0.1098 -0.2683
 4788SOL    HW125997   0.381   1.120   2.565 -1.1963  0.3743 -0.2027
 4788SOL    HW225998   0.433   0.997   2.501 -0.3846 -0.1263 -2.5262
 4789SOL     OW25999   0.265   2.659   3.368  0.1710  0.5502  0.1321
 4789SOL    HW126000   0.321   2.650   3.290 -0.1455 -3.6241  0.3941
 4789SOL    HW226001   0.190   2.605   3.344 -0.3686  1.7445 -0.8862
 4790SOL     OW26002   0.930   1.722   5.443  0.2461  0.4534  0.6230
 4790SOL    HW126003   0.996   1.696   5.379 -0.6715 -0.7375  0.1761
 4790SOL    HW226004   0.878   1.642   5.449 -0.0315  0.5020 -1.2270
 4791SOL     OW26005   3.539   4.731   8.560  0.3396  0.2137  0.2524
 4791SOL    HW126006   3.498   4.688   8.485  0.5771  2.2095 -1.0259
 4791SOL    HW226007   3.477   4.706   8.629  0.1359  1.3270  0.4757
 4792SOL     OW26008   0.423   0.082  15.280 -0.0344  0.4468 -0.4365
 4792SOL    HW126009   0.331   0.057  15.274  0.8519 -3.0468  1.0292
 4792SOL    HW226010   0.420   0.153  15.344 -3.5655 -0.6850  0.6188
 4793SOL     OW26011   3.277   3.778   5.430  0.2239  0.1885  0.4805
 4793SOL    HW126012   3.302   3.870   5.421 -1.9931  0.7319 -0.2127
 4793SOL    HW226013   3.322   3.749   5.351 -0.2891  1.4285 -0.2661
 4794SOL     OW26014   1.049   4.628   1.312 -0.0941 -0.5695  0.3566
 4794SOL    HW126015   1.046   4.538   1.346 -2.5301 -0.6687 -0.0738
 4794SOL    HW226016   1.026   4.603   1.223 -1.6720 -1.8142  1.0942
 4795SOL     OW26017   3.237   1.643   6.141  0.5910  0.3472 -0.0854
 4795SOL    HW126018   3.300   1.595   6.194 -2.6765 -2.1100  1.5960
 4795SOL    HW226019   3.240   1.723   6.194  1.3414 -0.2293  0.7377
 4796SOL     OW26020   2.300   4.377  11.040 -0.6280 -0.2652 -0.1358
 4796SOL    HW126021   2.391   4.382  11.068 -1.2661  1.1553  1.7288
 4796SOL    HW226022   2.262   4.422  11.115  1.9027 -0.4111  1.2297
 4797SOL     OW26023   1.257   0.301   5.792  0.5448 -0.5011  0.5877
 4797SOL    HW126024   1.176   0.351   5.784  1.6235  0.7700 -2.6917
 4797SOL    HW226025   1.236   0.213   5.763 -0.7098 -0.8272  2.5158
 4798SOL     OW26026   3.791   3.345   6.973  0.2607 -0.0637 -0.1908
 4798SOL    HW126027   3.825   3.277   6.915  1.5843  0.3541  0.0973
 4798SOL    HW226028   3.707   3.363   6.929 -0.5329 -2.4800  0.3218
 4799SOL     OW26029   4.256   1.272   3.186 -0.0823  0.4086 -0.4522
 4799SOL    HW126030   4.334   1.219   3.168  0.1393  0.9243 -1.0256
 4799SOL    HW226031   4.233   1.290   3.094 -1.3217  1.3316  0.0437
 4800SOL     OW26032   4.635   4.694   9.002  0.4919 -0.1121 -0.2519
 4800SOL    HW126033   4.576   4.726   9.070 -1.6382 -1.2074 -1.5841
 4800SOL    HW226034   4.575   4.639   8.951 -1.2441  1.6519 -0.1157
 4801SOL     OW26035   1.453   4.197   3.969  0.4847 -0.0776 -0.0965
 4801SOL    HW126036   1.420   4.121   4.018  0.9050 -2.6294 -3.7264
 4801SOL    HW226037   1.534   4.207   4.019  1.1176 -2.3909 -0.6238
 4802SOL     OW26038   3.384   2.256  13.486 -0.3600 -0.0127 -0.3044
 4802SOL    HW126039   3.369   2.299  13.402 -0.8486  0.9244  0.2657
 4802SOL    HW226040   3.397   2.164  13.466  1.5271  0.2625 -0.3557
 4803SOL     OW26041   4.223   2.062   8.434  0.0938  0.3446 -0.2655
 4803SOL    HW126042   4.284   2.005   8.387  0.7055 -0.4952  1.5572
 4803SOL    HW226043   4.180   1.988   8.477  0.3085 -0.3374 -1.2262
 4804SOL     OW26044   0.804   3.561   3.375  0.0767 -0.1502 -0.3481
 4804SOL    HW126045   0.773   3.501   3.443 -1.3299  0.3994 -0.4979
 4804SOL    HW226046   0.742   3.546   3.304 -0.5208  0.5027  0.0324
 4805SOL     OW26047   2.287   0.156   1.931 -0.0045  0.0798 -0.2910
 4805SOL    HW126048   2.197   0.189   1.930 -0.9147 -2.4292 -0.4969
 4805SOL    HW226049   2.335   0.232   1.898  1.4490 -0.4396  0.6152
 4806SOL     OW26050   3.418   1.834   8.865 -0.2316  0.2706  0.1709
 4806SOL    HW126051   3.451   1.745   8.871  0.1601  0.3111 -1.3448
 4806SOL    HW226052   3.371   1.834   8.782  0.9174  3.1117 -0.4743
 4807SOL     OW26053   2.362   3.668   2.577 -0.1430 -0.4917  0.4115
 4807SOL    HW126054   2.322   3.622   2.651  1.3024 -1.0903  0.8290
 4807SOL    HW226055   2.422   3.608   2.534 -0.7321 -1.3474  0.7926
 4808SOL     OW26056   2.201   2.051   3.704 -0.9266 -0.2606  0.2413
 4808SOL    HW126057   2.226   2.127   3.651  0.1570  1.0565  2.6417
 4808SOL    HW226058   2.281   2.005   3.726  0.1446  1.6804  0.4392
 4809SOL     OW26059   1.559   2.620   9.826  0.5054 -0.5070  0.4997
 4809SOL    HW126060   1.638   2.568   9.846  1.8316  0.6708 -1.6704
 4809SOL    HW226061   1.539   2.650   9.914 -0.2494 -1.2454  0.5838
 4810SOL     OW26062   4.401   3.700   2.838 -0.0977  0.0112 -0.0487
 4810SOL    HW126063   4.340   3.626   2.845  0.2729 -0.2659  0.2731
 4810SOL    HW226064   4.432   3.693   2.747 -0.9482 -2.4904 -0.1536
 4811SOL     OW26065   2.612   4.540   7.633  0.0865 -0.0461  0.2549
 4811SOL    HW126066   2.547   4.503   7.572 -2.9324  2.6198  1.8399
 4811SOL    HW226067   2.611   4.480   7.709  0.5934 -0.5898 -0.1660
 4812SOL     OW26068   0.938   3.421   5.586 -0.1260 -0.7452 -0.0163
 4812SOL    HW126069   0.991   3.345   5.561  0.0812 -0.1953 -1.2404
 4812SOL    HW226070   0.948   3.411   5.680  2.9192  0.7082 -0.1706
 4813SOL     OW26071   3.873   3.793   9.331  0.2799  0.1243 -0.1390
 4813SOL    HW126072   3.929   3.812   9.406  1.3499 -0.0859 -0.8833
 4813SOL    HW226073   3.869   3.884   9.301 -0.2245 -0.2194 -1.1138
 4814SOL     OW26074   2.310   4.649   4.723 -0.2014 -0.1653  0.1861
 4814SOL    HW126075   2.322   4.563   4.682  0.3533  0.6169 -1.3046
 4814SOL    HW226076   2.215   4.652   4.730 -0.4126 -0.2629 -2.3830
 4815SOL     OW26077   4.400   1.028  15.224 -0.5281 -1.2231 -0.0927
 4815SOL    HW126078   4.434   1.092  15.162  0.2518 -1.9541 -0.4234
 4815SOL    HW226079   4.310   1.055  15.240 -0.2422  1.4254 -2.9577
 4816SOL     OW26080   1.275   0.471   2.189  0.1652 -0.3485 -0.5119
 4816SOL    HW126081   1.195   0.507   2.149 -1.5357 -2.1641  1.2699
 4816SOL    HW226082   1.300   0.410   2.120  2.8169 -1.4318  1.4305
 4817SOL     OW26083   2.700   4.055   8.697 -0.3513 -0.0332  0.2358
 4817SOL    HW126084   2.694   4.138   8.650  1.2727  0.4319  0.8423
 4817SOL    HW226085   2.746   4.076   8.778 -0.3257  0.4709  0.0882
 4818SOL     OW26086   3.108   2.899   5.160  0.3417 -0.2845  0.6023
 4818SOL    HW126087   3.043   2.838   5.194 -0.9739  0.2342 -0.9701
 4818SOL    HW226088   3.057   2.948   5.096  0.6747 -0.1338  0.4523
 4819SOL     OW26089   0.307   4.490   5.162 -0.6750 -0.5893 -0.5023
 4819SOL    HW126090   0.255   4.465   5.239  1.2210 -0.7428  0.7234
 4819SOL    HW226091   0.360   4.415   5.137 -0.2132 -1.1645  2.1286
 4820SOL     OW26092   1.671   2.093   4.940 -0.2748  0.0445  0.8719
 4820SOL    HW126093   1.712   2.142   5.011  1.3034  0.8449 -0.6123
 4820SOL    HW226094   1.630   2.168   4.897 -0.3968 -0.0991  0.7345
 4821SOL     OW26095   0.313   2.867   6.920  0.3603 -0.4384  0.1052
 4821SOL    HW126096   0.406   2.858   6.899  0.1996 -0.3014 -0.6473
 4821SOL    HW226097   0.287   2.782   6.957 -0.2057  0.3102  1.3980
 4822SOL     OW26098   0.099   1.095   4.720 -0.0884 -0.2597 -0.4454
 4822SOL    HW126099   0.074   1.011   4.758 -0.0169  0.5685  1.4327
 4822SOL    HW226100   0.131   1.147   4.794 -0.0937  0.4828 -0.9620
 4823SOL     OW26101   3.098   4.423   4.419 -0.3181  0.3771 -0.0830
 4823SOL    HW126102   3.092   4.372   4.500 -0.2331  0.9036  0.2580
 4823SOL    HW226103   3.091   4.354   4.354  0.4664 -0.2962  0.5502
 4824SOL     OW26104   2.638   3.878   6.135 -0.5088  0.5976  0.5221
 4824SOL    HW126105   2.595   3.935   6.071 -0.6456  0.3912  0.4303
 4824SOL    HW226106   2.663   3.941   6.203  0.5073  0.3822  0.3487
 4825SOL     OW26107   1.743   3.758   6.013  0.1639 -0.8863  0.4599
 4825SOL    HW126108   1.673   3.813   6.048  0.9053  0.1712  0.2798
 4825SOL    HW226109   1.819   3.811   6.039 -0.7166  1.5163 -1.9004
 4826SOL     OW26110   3.357   2.899   4.996  0.3847 -0.1161 -0.2396
 4826SOL    HW126111   3.264   2.916   5.006  0.5178  0.2025  0.5228
 4826SOL    HW226112   3.362   2.806   4.973 -2.7015  0.4115 -2.9062
 4827SOL     OW26113   2.935   0.710   7.232  0.2499  0.3611  0.0146
 4827SOL    HW126114   2.926   0.805   7.239 -2.4838  0.1368 -0.2668
 4827SOL    HW226115   2.871   0.696   7.302  1.0487  0.4237  0.7523
 4828SOL     OW26116   4.529   2.472   1.880 -0.2336  0.1352  0.4654
 4828SOL    HW126117   4.601   2.481   1.942 -0.5084 -1.5944  1.0165
 4828SOL    HW226118   4.484   2.555   1.898 -0.5582  0.2859 -1.0567
 4829SOL     OW26119   2.128   0.884   3.708 -0.6525  0.3753  0.3782
 4829SOL    HW126120   2.095   0.810   3.658  2.1200 -1.2458  0.9340
 4829SOL    HW226121   2.082   0.865   3.789 -0.2706 -1.6825  0.1276
 4830SOL     OW26122   4.117   0.447   6.428  0.0028  0.2574 -0.1467
 4830SOL    HW126123   4.041   0.449   6.486 -0.2203  0.1872 -0.4349
 4830SOL    HW226124   4.072   0.449   6.343 -1.4152  0.1543  0.6172
 4831SOL     OW26125   0.628   0.658   5.707  0.1491  0.0212 -0.4442
 4831SOL    HW126126   0.584   0.681   5.789 -1.8742 -1.5027 -1.0852
 4831SOL    HW226127   0.716   0.637   5.737 -0.4058 -2.2491 -0.3911
 4832SOL     OW26128   4.131   1.379  11.822  0.3863 -0.2385  0.3053
 4832SOL    HW126129   4.061   1.384  11.757  2.3590 -0.5269 -1.8723
 4832SOL    HW226130   4.076   1.414  11.891 -0.3980  0.4182 -0.6485
 4833SOL     OW26131   0.596   1.343  17.021 -0.6132 -0.0335 -0.3207
 4833SOL    HW126132   0.553   1.282  17.081  1.7585  0.6138  2.0219
 4833SOL    HW226133   0.532   1.414  17.026  1.6783  2.1193 -1.7106
 4834SOL     OW26134   3.000   3.156   6.887  0.1925  0.2927  0.3682
 4834SOL    HW126135   2.964   3.245   6.888  1.1266  0.6703  0.1759
 4834SOL    HW226136   2.919   3.108   6.904  0.0912 -1.0880 -3.8402
 4835SOL     OW26137   0.744   0.390   2.896 -0.5703  0.2951 -0.8147
 4835SOL    HW126138   0.713   0.480   2.883 -0.9537 -0.2073 -3.3558
 4835SOL    HW226139   0.769   0.365   2.807  0.4393  2.0797 -1.0441
 4836SOL     OW26140   1.941   4.726  17.670 -0.2438  0.2524 -0.0636
 4836SOL    HW126141   2.019   0.018  17.716 -0.7288  0.9829  0.2609
 4836SOL    HW226142   1.889   0.067  17.669 -1.2102 -0.3809 -1.1963
 4837SOL     OW26143   0.759   1.383   6.824 -0.4629  0.6899  0.0374
 4837SOL    HW126144   0.808   1.418   6.898 -0.5529  2.2464 -0.6391
 4837SOL    HW226145   0.822   1.320   6.789 -0.3244  0.6309  0.3952
 4838SOL     OW26146   0.132   2.175   7.682 -0.4959 -0.0809 -0.0846
 4838SOL    HW126147   0.213   2.164   7.731 -0.4819 -0.8051 -0.2751
 4838SOL    HW226148   0.115   2.090   7.642 -0.0183 -0.3807  0.3448
 4839SOL     OW26149   3.654   3.244   6.352 -0.4887  0.4392  0.3876
 4839SOL    HW126150   3.610   3.323   6.320  1.9132  2.7806  2.9394
 4839SOL    HW226151   3.678   3.267   6.441  2.3157 -0.5287 -0.1256
 4840SOL     OW26152   2.368   3.583   3.536 -0.4582 -0.2955  0.0971
 4840SOL    HW126153   2.420   3.577   3.456  0.6757 -2.4316  0.9718
 4840SOL    HW226154   2.335   3.493   3.538  0.8771 -0.7624  0.9423
 4841SOL     OW26155   0.594   4.468  11.243 -0.1694 -0.2992 -0.8429
 4841SOL    HW126156   0.689   4.481  11.244 -0.2437 -0.0228  1.2018
 4841SOL    HW226157   0.564   4.554  11.273  1.2111  0.4611 -1.6060
 4842SOL     OW26158   2.585   4.317  14.367 -0.3056  0.1501  0.5838
 4842SOL    HW126159   2.624   4.351  14.448 -0.1265  0.4675  0.3613
 4842SOL    HW226160   2.641   4.358  14.301  0.5951 -1.5273  0.2953
 4843SOL     OW26161   3.589   1.230   3.281  0.5089 -0.2997 -0.1389
 4843SOL    HW126162   3.632   1.226   3.195 -2.8064 -1.0679 -1.7520
 4843SOL    HW226163   3.666   1.226   3.338  2.2933 -0.4939 -2.5403
 4844SOL     OW26164   0.358   3.045  10.698  0.4753  0.2715  0.3550
 4844SOL    HW126165   0.311   3.103  10.757 -0.4477 -0.2383  0.1205
 4844SOL    HW226166   0.288   2.985  10.670  0.7848  0.3550 -0.6177
 4845SOL     OW26167   3.787   2.778   7.938  0.0456 -0.2860 -0.5168
 4845SOL    HW126168   3.872   2.734   7.933  0.4200  0.3830 -0.0627
 4845SOL    HW226169   3.813   2.865   7.906 -2.4291  0.9220  0.7634
 4846SOL     OW26170   0.902   3.156   3.698 -0.0450  0.4391  0.5073
 4846SOL    HW126171   0.992   3.176   3.673 -0.0406  0.5358  0.6037
 4846SOL    HW226172   0.918   3.143   3.791  0.5864 -0.5491  0.2566
 4847SOL     OW26173   2.390   3.608   4.419 -0.0444 -0.4967  0.7137
 4847SOL    HW126174   2.377   3.610   4.324 -0.0104 -0.4579  0.7098
 4847SOL    HW226175   2.486   3.599   4.423  0.2447  1.5884 -1.9200
 4848SOL     OW26176   3.848   3.232   8.799  0.0105  0.3027 -0.5934
 4848SOL    HW126177   3.897   3.207   8.877 -3.5245 -1.5208  1.0370
 4848SOL    HW226178   3.862   3.149   8.752  0.2071 -0.0827  0.1482
 4849SOL     OW26179   0.998   0.292   0.705  0.2809  0.1830  0.0734
 4849SOL    HW126180   0.965   0.371   0.748  0.7613 -0.2099  1.1606
 4849SOL    HW226181   0.920   0.279   0.652 -0.0974  1.4553  0.2966
 4850SOL     OW26182   3.892   1.358   5.114  0.1595 -0.2074 -0.0396
 4850SOL    HW126183   3.959   1.291   5.124  0.4172 -0.3222 -2.5765
 4850SOL    HW226184   3.938   1.440   5.096  0.1150  0.1169  1.3335
 4851SOL     OW26185   2.971   3.838   6.028 -0.3998 -0.2567  0.4192
 4851SOL    HW126186   2.958   3.898   6.102 -0.8226  0.9812 -0.6644
 4851SOL    HW226187   2.931   3.891   5.959  0.5174  0.1765  0.2196
 4852SOL     OW26188   3.343   0.744   6.488 -0.2271 -0.7190  0.0982
 4852SOL    HW126189   3.280   0.777   6.552  0.6130  0.2976  0.4161
 4852SOL    HW226190   3.362   0.658   6.525 -1.1534 -0.2395  1.6722
 4853SOL     OW26191   0.215   1.090   5.210  0.2171  0.7844 -0.1744
 4853SOL    HW126192   0.305   1.063   5.196 -0.0006  0.7023 -1.3800
 4853SOL    HW226193   0.166   1.070   5.130 -0.3987 -1.3156  0.7182
 4854SOL     OW26194   0.596   4.168   8.807 -1.1959  0.0348 -0.6962
 4854SOL    HW126195   0.575   4.143   8.897  0.5158 -1.4932 -0.7086
 4854SOL    HW226196   0.621   4.082   8.772  0.3564  0.7227 -1.2739
 4855SOL     OW26197   1.579   1.963   6.468 -0.2657 -0.4837  0.7214
 4855SOL    HW126198   1.528   2.041   6.492  1.4421  0.1887  2.1806
 4855SOL    HW226199   1.662   2.009   6.479 -0.4308  0.1722 -0.8454
 4856SOL     OW26200   3.655   2.009   4.526  0.0341 -0.4733  0.4582
 4856SOL    HW126201   3.594   1.960   4.581  0.8717 -1.7993  0.1862
 4856SOL    HW226202   3.629   2.096   4.558 -0.6282 -0.8772  1.0178
 4857SOL     OW26203   4.285   1.065  14.925  0.1598 -0.7138  0.4039
 4857SOL    HW126204   4.342   1.135  14.955  0.3833 -1.2000  1.1183
 4857SOL    HW226205   4.337   1.012  14.865 -0.7222 -1.6315  0.4361
 4858SOL     OW26206   0.333   4.603   9.380  0.2662 -0.4565  0.6254
 4858SOL    HW126207   0.248   4.561   9.389 -1.7507  3.5916  0.0826
 4858SOL    HW226208   0.398   4.532   9.390  1.3419  0.2023 -1.6764
 4859SOL     OW26209   4.674   1.642   4.148  0.4286 -0.1036 -0.3325
 4859SOL    HW126210   4.729   1.707   4.192  1.0083 -3.1994  3.5018
 4859SOL    HW226211   4.668   1.574   4.215  1.4073 -0.2183 -0.3590
 4860SOL     OW26212   2.479   4.156  14.972 -0.1205  0.0689 -0.0401
 4860SOL    HW126213   2.438   4.147  14.885 -0.9900 -1.2117  0.4932
 4860SOL    HW226214   2.430   4.098  15.030  1.8542 -0.1196  1.4108
 4861SOL     OW26215   4.409   0.934  17.629  0.4654 -0.2832 -0.2940
 4861SOL    HW126216   4.320   0.919  17.596  0.5681  2.0533 -1.6189
 4861SOL    HW226217   4.384   0.967  17.716  3.3214  0.4489  0.2332
 4862SOL     OW26218   0.275   2.001   6.666  0.3941  0.2807 -0.0663
 4862SOL    HW126219   0.350   1.957   6.627  0.4768  1.5235 -1.3099
 4862SOL    HW226220   0.290   2.005   6.760 -2.1989 -2.2407  0.4713
 4863SOL     OW26221   4.131   3.475  14.972 -0.6936  0.1979  0.1610
 4863SOL    HW126222   4.089   3.389  14.974  2.0862 -1.1436  0.1384
 4863SOL    HW226223   4.193   3.466  14.900 -0.2695 -2.4899  0.8520
 4864SOL     OW26224   1.124   1.098   7.208  0.2323  0.2367 -0.3424
 4864SOL    HW126225   1.121   1.012   7.166 -0.8354  0.9047 -1.6189
 4864SOL    HW226226   1.218   1.104   7.190  0.0300  0.4986 -1.3049
 4865SOL     OW26227   3.720   3.825   3.695 -0.5215  0.2777  0.4033
 4865SOL    HW126228   3.673   3.763   3.639  0.5926 -1.9027  1.8909
 4865SOL    HW226229   3.783   3.768   3.738 -1.4465  0.2357  1.7208
 4866SOL     OW26230   2.213   1.470  12.465  0.1512 -0.2426  0.0367
 4866SOL    HW126231   2.275   1.431  12.403 -0.1008  0.9695 -0.9803
 4866SOL    HW226232   2.218   1.562  12.438  0.5333 -0.3939 -0.4153
 4867SOL     OW26233   2.530   2.916   2.849 -0.6143  0.1816  0.0778
 4867SOL    HW126234   2.492   2.857   2.913  3.9110 -2.5098  0.2820
 4867SOL    HW226235   2.512   2.865   2.769  0.5131  0.2514 -0.2279
 4868SOL     OW26236   2.447   4.215   0.730 -0.2791 -0.2619  0.3788
 4868SOL    HW126237   2.392   4.186   0.803 -0.6525 -0.8372 -0.1385
 4868SOL    HW226238   2.375   4.264   0.691  0.5515  0.1268 -0.6696
 4869SOL     OW26239   0.486   3.688   3.773 -0.2955 -0.0347 -0.4891
 4869SOL    HW126240   0.575   3.706   3.741 -0.2098  1.8057  0.7774
 4869SOL    HW226241   0.436   3.717   3.697 -3.3256 -3.0503  0.3952
 4870SOL     OW26242   2.256   2.126   2.056  0.0720  0.1016 -0.4822
 4870SOL    HW126243   2.281   2.208   2.098  1.0935 -0.4716  0.0285
 4870SOL    HW226244   2.332   2.068   2.060  1.3024  1.7338 -0.4299
 4871SOL     OW26245   4.262   2.587   8.302  0.3619  0.1172  0.4577
 4871SOL    HW126246   4.291   2.647   8.371  1.7740  0.7716 -0.7090
 4871SOL    HW226247   4.246   2.515   8.363 -1.0503 -0.3715 -0.5062
 4872SOL     OW26248   0.985   0.764   5.319  0.1772  0.0234  0.1045
 4872SOL    HW126249   0.923   0.691   5.327  0.4617 -0.3812 -1.4150
 4872SOL    HW226250   1.061   0.712   5.292  0.0375  0.5866 -1.3623
 4873SOL     OW26251   2.855   2.758  14.634  0.2907 -0.3725  0.2812
 4873SOL    HW126252   2.923   2.695  14.610  0.4440  0.0096 -0.2741
 4873SOL    HW226253   2.864   2.813  14.557 -1.3461 -0.4427  0.0293
 4874SOL     OW26254   1.366   0.720   4.792  0.1070 -0.2891  0.4214
 4874SOL    HW126255   1.300   0.651   4.789  1.3304 -1.4215 -0.5425
 4874SOL    HW226256   1.420   0.670   4.731  0.7022  1.4597 -0.4701
 4875SOL     OW26257   1.624   3.848   6.905 -0.0522  0.2274  0.1385
 4875SOL    HW126258   1.684   3.809   6.841 -0.1278 -1.9410  1.4043
 4875SOL    HW226259   1.562   3.903   6.858 -2.0765  0.3563  2.9586
 4876SOL     OW26260   2.444   1.764   7.129  0.0593 -0.1020  0.3549
 4876SOL    HW126261   2.467   1.765   7.036  0.6223  0.2345  0.4975
 4876SOL    HW226262   2.522   1.799   7.172 -1.0777  1.9019  0.7461
 4877SOL     OW26263   1.693   3.907   5.783 -0.4410 -0.4103 -0.6012
 4877SOL    HW126264   1.728   3.846   5.848  3.1072  0.9428 -1.2285
 4877SOL    HW226265   1.634   3.960   5.836 -1.2120  0.1374 -2.0051
 4878SOL     OW26266   3.702   3.375   9.459  0.4012  0.4898 -0.0288
 4878SOL    HW126267   3.771   3.394   9.396  0.2469 -0.6437 -0.5261
 4878SOL    HW226268   3.720   3.289   9.496 -0.5897  0.1439 -0.3577
 4879SOL     OW26269   1.939   2.771  12.462 -0.1448 -0.0335 -0.1715
 4879SOL    HW126270   1.967   2.793  12.551 -0.8732 -3.1469  0.8349
 4879SOL    HW226271   1.856   2.818  12.458 -0.2169 -0.2909 -1.5272
 4880SOL     OW26272   0.546   0.364   2.614 -0.0738 -0.2636 -0.1450
 4880SOL    HW126273   0.508   0.277   2.624 -0.6044 -0.0934 -0.6921
 4880SOL    HW226274   0.639   0.345   2.626  0.2504  2.0473  1.0429
 4881SOL     OW26275   3.623   0.748   1.859 -0.2034 -0.4427  0.0484
 4881SOL    HW126276   3.554   0.793   1.907 -0.4227 -0.8905  0.1452
 4881SOL    HW226277   3.696   0.770   1.917  0.4568  1.9204 -1.6448
 4882SOL     OW26278   4.577   0.177   7.772 -0.3056 -0.1120  0.0189
 4882SOL    HW126279   4.643   0.176   7.703 -0.5708  1.7048 -0.2547
 4882SOL    HW226280   4.519   0.108   7.741 -0.1830  0.3681 -1.2672
 4883SOL     OW26281   1.800   2.158   9.220  0.2255  0.4054 -0.0455
 4883SOL    HW126282   1.883   2.126   9.253 -0.6236 -0.9258  0.7917
 4883SOL    HW226283   1.837   2.242   9.193 -0.8496  1.4811  1.8138
 4884SOL     OW26284   4.630   3.882   5.051 -0.4745 -0.2949 -0.1795
 4884SOL    HW126285   4.640   3.837   4.967 -1.4965 -2.8120  1.0723
 4884SOL    HW226286   4.722   3.892   5.077 -1.4547  0.2469  2.9692
 4885SOL     OW26287   0.334   3.977   7.260 -0.1712  0.2448  0.2256
 4885SOL    HW126288   0.391   4.023   7.322  0.0141 -1.1509  1.0845
 4885SOL    HW226289   0.401   3.930   7.211 -0.6845 -0.5220  0.2441
 4886SOL     OW26290   2.739   0.176   8.483 -0.0882 -0.5212 -0.3913
 4886SOL    HW126291   2.755   0.163   8.577  0.0343  1.7911 -0.0965
 4886SOL    HW226292   2.649   0.204   8.501  0.8048  0.9887  1.7218
 4887SOL     OW26293   1.500   1.448   8.323  0.4824  0.0623  0.0108
 4887SOL    HW126294   1.535   1.536   8.316  0.7209 -0.0547 -0.2513
 4887SOL    HW226295   1.546   1.409   8.397  3.1122  0.9373 -1.1493
 4888SOL     OW26296   0.695   4.464   9.662  0.0127  0.2722  0.0860
 4888SOL    HW126297   0.742   4.546   9.675  0.6983 -0.2860  1.0932
 4888SOL    HW226298   0.752   4.425   9.595 -2.0601 -0.0553 -1.5002
 4889SOL     OW26299   3.151   0.185   3.051 -0.0338  0.2113 -0.1142
 4889SOL    HW126300   3.093   0.241   2.999 -0.2550  0.2485  0.1680
 4889SOL    HW226301   3.220   0.244   3.079 -1.6498  1.9418  0.2024
 4890SOL     OW26302   1.068   3.837  13.282  0.0400  0.7755  0.0995
 4890SOL    HW126303   1.048   3.744  13.272 -0.8992  0.9443  0.4744
 4890SOL    HW226304   1.097   3.827  13.372 -0.8938  1.4538  0.4765
 4891SOL     OW26305   1.057   0.662  15.381  0.0669  0.7891  0.1099
 4891SOL    HW126306   1.073   0.727  15.312  0.1079 -0.9684 -1.5315
 4891SOL    HW226307   1.000   0.704  15.446  1.9210  0.9508  1.6381
 4892SOL     OW26308   3.638   2.368   3.865  0.2194  0.4013 -0.3585
 4892SOL    HW126309   3.594   2.410   3.792 -0.1122 -0.1267 -0.4657
 4892SOL    HW226310   3.572   2.373   3.934  1.6094  1.8713  0.8720
 4893SOL     OW26311   4.659   1.649  13.076  0.7276  0.2713  0.1048
 4893SOL    HW126312   4.671   1.696  13.158  0.4901  1.3150 -0.4564
 4893SOL    HW226313   4.700   1.564  13.094 -0.2290 -0.5312 -1.4304
 4894SOL     OW26314   3.277   1.413   6.736 -0.1048 -0.1656 -0.5340
 4894SOL    HW126315   3.220   1.452   6.669  0.4516  0.9288 -0.3761
 4894SOL    HW226316   3.361   1.397   6.692  0.6365  1.1388  0.4022
 4895SOL     OW26317   1.729   1.768   5.440  1.3056 -0.6560 -0.0636
 4895SOL    HW126318   1.745   1.736   5.351 -0.5561 -0.6277 -0.4153
 4895SOL    HW226319   1.758   1.694   5.492  1.4851 -0.2633  0.4011
 4896SOL     OW26320   0.442   0.796   8.554  0.5009 -0.0262 -0.2552
 4896SOL    HW126321   0.510   0.789   8.621 -0.3169  1.8643  0.7634
 4896SOL    HW226322   0.477   0.849   8.483  1.4116 -0.9932 -0.5329
 4897SOL     OW26323   3.184   0.057   5.532 -0.1505  0.3023 -0.1616
 4897SOL    HW126324   3.277   0.077   5.525  0.1640 -0.5277  1.7801
 4897SOL    HW226325   3.177   4.702   5.515  4.1276 -0.4162  2.1078
 4898SOL     OW26326   2.988   4.081  17.597  0.0529 -0.1256  0.5094
 4898SOL    HW126327   2.988   4.158  17.539  2.7995 -1.1331 -0.8440
 4898SOL    HW226328   2.982   4.007  17.537  2.9937 -0.1170  0.1868
 4899SOL     OW26329   4.305   1.732   1.700 -0.2692 -0.2368 -0.3305
 4899SOL    HW126330   4.300   1.827   1.708  2.5939 -0.0143 -1.1136
 4899SOL    HW226331   4.221   1.703   1.735  1.1608 -1.4617  2.1459
 4900SOL     OW26332   4.525   0.186  11.539 -0.0932  0.1046 -0.1597
 4900SOL    HW126333   4.497   0.267  11.580  0.2343  0.3144 -0.3494
 4900SOL    HW226334   4.603   0.164  11.590 -0.3446 -0.9155 -0.2058
 4901SOL     OW26335   2.659   4.737  10.509  0.4988 -0.0818  0.2589
 4901SOL    HW126336   2.599   4.696  10.571  0.8189  1.9539  1.8825
 4901SOL    HW226337   2.596   0.047  10.457 -2.9753 -3.7216  1.0073
 4902SOL     OW26338   2.710   1.309   7.205 -0.1056 -0.1882  0.7717
 4902SOL    HW126339   2.739   1.305   7.296 -0.4445 -0.5801  0.8619
 4902SOL    HW226340   2.665   1.226   7.192  0.4039 -0.4594  0.7271
 4903SOL     OW26341   3.406   1.254   9.909  0.3977  0.0174  0.2053
 4903SOL    HW126342   3.449   1.339   9.904  0.9673 -0.4168 -2.0046
 4903SOL    HW226343   3.461   1.206   9.848  1.6839 -1.3171  2.4126
 4904SOL     OW26344   4.395   1.496   0.757 -0.7875 -0.0174 -0.2416
 4904SOL    HW126345   4.456   1.450   0.815  1.2321  3.0832  0.0492
 4904SOL    HW226346   4.437   1.472   0.674  1.7406  0.5986  0.8700
 4905SOL     OW26347   0.055   2.818   2.466 -0.2430 -0.5643  0.6519
 4905SOL    HW126348   0.141   2.859   2.456 -0.8555  0.5673  0.0005
 4905SOL    HW226349   0.046   2.786   2.376  1.5651 -1.5652  0.8264
 4906SOL     OW26350   3.958   4.683   5.343 -0.0211  0.0420 -0.0662
 4906SOL    HW126351   4.048   4.677   5.312 -0.6515 -0.2208 -1.8206
 4906SOL    HW226352   3.931   4.591   5.343  1.9300 -0.5376  2.0856
 4907SOL     OW26353   2.983   3.390  12.035 -0.2108  0.1238 -0.1248
 4907SOL    HW126354   3.010   3.481  12.030  3.3222 -1.0116 -1.6689
 4907SOL    HW226355   3.062   3.345  12.064 -0.8940 -1.5460 -0.8448
 4908SOL     OW26356   4.031   3.431   4.556  0.0798 -0.4346 -0.3782
 4908SOL    HW126357   4.100   3.425   4.623  1.3982  1.5527 -1.5935
 4908SOL    HW226358   3.971   3.486   4.607  1.7018 -1.0006  2.1587
 4909SOL     OW26359   1.918   0.101  15.397 -0.7462  0.6496 -0.6717
 4909SOL    HW126360   1.840   0.107  15.452  1.4049  2.7610  2.1460
 4909SOL    HW226361   1.918   0.170  15.332  0.4511  1.5482  0.2853
 4910SOL     OW26362   0.191   0.183  14.045 -0.0115  0.4027  0.0431
 4910SOL    HW126363   0.240   0.251  14.091 -1.7044  0.0838  2.2856
 4910SOL    HW226364   0.239   0.176  13.962 -1.3348  2.1709 -0.8777
 4911SOL     OW26365   4.231   0.411   7.410 -0.0537 -0.9299  0.6329
 4911SOL    HW126366   4.245   0.495   7.453 -1.2967 -0.7229  0.6324
 4911SOL    HW226367   4.320   0.381   7.392  1.0711  2.4385  0.5328
 4912SOL     OW26368   2.600   3.500  15.988 -0.0759  0.0979 -0.0235
 4912SOL    HW126369   2.583   3.514  16.081  1.9444  0.5415  0.2638
 4912SOL    HW226370   2.611   3.586  15.948  0.4090  0.4955  0.9707
 4913SOL     OW26371   1.309   0.330  16.404  0.2991 -0.0207  0.0137
 4913SOL    HW126372   1.290   0.411  16.356 -1.1069 -0.8384 -0.8154
 4913SOL    HW226373   1.290   0.259  16.342  1.5850 -0.9246  0.6362
 4914SOL     OW26374   4.326   0.628   6.482 -0.2281 -0.4863  0.1100
 4914SOL    HW126375   4.278   0.709   6.495 -1.8389 -1.8244  2.3840
 4914SOL    HW226376   4.268   0.552   6.481  3.0953 -3.0427 -2.2388
 4915SOL     OW26377   0.493   0.995   3.210 -0.1798 -0.1867 -0.2023
 4915SOL    HW126378   0.456   1.067   3.158 -0.1415 -1.3350 -1.7972
 4915SOL    HW226379   0.577   0.978   3.168  0.1464 -0.3289  0.5030
 4916SOL     OW26380   4.518   3.231   4.410 -0.2399 -0.3075  0.3272
 4916SOL    HW126381   4.592   3.286   4.434 -0.4478  0.0886  0.0509
 4916SOL    HW226382   4.482   3.200   4.493  2.2807 -0.8975  1.1994
 4917SOL     OW26383   2.560   2.480  13.624 -0.6048 -0.3475  0.4380
 4917SOL    HW126384   2.566   2.514  13.535  2.0592 -0.2878  0.6510
 4917SOL    HW226385   2.632   2.418  13.616  0.0576  0.2143  2.2426
 4918SOL     OW26386   4.225   0.666   5.521  0.4625 -0.0645  0.5833
 4918SOL    HW126387   4.305   0.624   5.555 -0.5574 -0.0009  3.1213
 4918SOL    HW226388   4.171   0.672   5.600 -0.4872  2.0374 -0.2395
 4919SOL     OW26389   2.735   4.381  14.128  0.5606  0.0832 -0.2872
 4919SOL    HW126390   2.721   4.399  14.035  0.4952  3.4370  0.3667
 4919SOL    HW226391   2.793   4.305  14.119  1.8810  0.9300  1.1249
 4920SOL     OW26392   1.935   1.961   0.648 -0.2314  0.1458  0.5126
 4920SOL    HW126393   1.914   1.985   0.557  0.0713 -2.1100 -0.1352
 4920SOL    HW226394   2.005   2.022   0.670 -0.5897  0.4962  0.6966
 4921SOL     OW26395   1.610   2.786  15.769  0.4747 -0.0485 -0.0211
 4921SOL    HW126396   1.555   2.865  15.768  2.3400  1.2732  1.5406
 4921SOL    HW226397   1.674   2.819  15.833 -0.2235 -1.9216  1.6483
 4922SOL     OW26398   1.925   2.698   0.612 -0.0260  0.0176 -0.9261
 4922SOL    HW126399   2.012   2.688   0.573 -0.2519 -0.4152 -1.3295
 4922SOL    HW226400   1.930   2.650   0.695 -0.0884 -1.2556 -1.6517
 4923SOL     OW26401   3.932   1.594   6.740  0.0880  0.3215  0.1976
 4923SOL    HW126402   3.936   1.499   6.750  0.8445  0.2716 -0.6180
 4923SOL    HW226403   3.856   1.626   6.789  0.3039  1.0081  0.0892
 4924SOL     OW26404   1.111   1.286   3.699 -0.2471  0.4824 -0.1168
 4924SOL    HW126405   1.074   1.341   3.768 -1.6522 -0.9998  0.3261
 4924SOL    HW226406   1.185   1.340   3.671  0.0390  0.1689  0.0293
 4925SOL     OW26407   3.495   1.836   8.013 -0.8283  0.8157  0.1150
 4925SOL    HW126408   3.404   1.851   8.041 -1.0382  0.5758 -0.4354
 4925SOL    HW226409   3.492   1.754   7.964 -0.4785  0.3374  0.8907
 4926SOL     OW26410   4.230   3.778   6.347 -0.9050 -0.4050 -0.3353
 4926SOL    HW126411   4.184   3.694   6.342  0.0890 -0.8862 -1.5044
 4926SOL    HW226412   4.291   3.775   6.273  1.1195 -0.2521  1.3386
 4927SOL     OW26413   2.166   3.441   5.575 -0.0456 -0.6271 -0.2810
 4927SOL    HW126414   2.136   3.532   5.566 -0.6826 -0.5892  2.1064
 4927SOL    HW226415   2.260   3.453   5.565  0.0328 -0.2518  0.9174
 4928SOL     OW26416   2.772   3.714   7.399 -0.0078 -0.0001  0.2280
 4928SOL    HW126417   2.712   3.644   7.424  1.6024 -0.9411  1.4702
 4928SOL    HW226418   2.847   3.702   7.457  1.5988  0.2357 -1.7614
 4929SOL     OW26419   2.323   2.471   5.622  0.0695  0.0968 -0.7802
 4929SOL    HW126420   2.416   2.492   5.627 -0.1588  1.1905 -1.0463
 4929SOL    HW226421   2.332   2.378   5.604  2.3973  0.4197 -1.2506
 4930SOL     OW26422   3.163   1.503  14.686  0.4164 -0.2338  0.7263
 4930SOL    HW126423   3.189   1.481  14.775  0.2299 -1.2137  0.5360
 4930SOL    HW226424   3.231   1.563  14.657  0.6750 -1.0683 -0.3909
 4931SOL     OW26425   0.385   4.671   3.768 -0.4677  0.0931  0.4621
 4931SOL    HW126426   0.361   4.711   3.685  1.3439  0.8100  0.2857
 4931SOL    HW226427   0.324   4.710   3.831 -0.0610  0.1962  0.7893
 4932SOL     OW26428   0.382   0.301   5.382 -0.3148 -0.1608  0.3730
 4932SOL    HW126429   0.397   0.208   5.397  0.8664  0.0659  0.5658
 4932SOL    HW226430   0.439   0.347   5.444 -0.2885  0.7761 -0.3543
 4933SOL     OW26431   4.613   3.201  13.429  0.3373 -0.3076 -0.8664
 4933SOL    HW126432   4.655   3.146  13.496 -1.0623  1.1769  1.2533
 4933SOL    HW226433   4.669   3.164  13.361  0.9702 -2.6851  0.9517
 4934SOL     OW26434   2.088   2.160   3.963  0.4027 -0.2836  0.1799
 4934SOL    HW126435   2.121   2.097   3.898 -0.5002  0.4725 -1.0030
 4934SOL    HW226436   2.149   2.233   3.954 -0.4443  0.2652 -1.0935
 4935SOL     OW26437   3.244   0.749  11.944  0.4690 -0.0530  0.2222
 4935SOL    HW126438   3.169   0.711  11.990 -1.1196  0.7017 -1.7296
 4935SOL    HW226439   3.198   0.825  11.907  0.9439 -0.6200 -1.5085
 4936SOL     OW26440   1.927   1.652   8.398  0.1095  0.2561  1.1251
 4936SOL    HW126441   1.933   1.735   8.351  1.2111 -0.8214 -0.6400
 4936SOL    HW226442   1.842   1.630   8.362 -0.2262  2.4144  0.6112
 4937SOL     OW26443   4.457   3.047   7.575 -0.1587 -0.0331 -0.6560
 4937SOL    HW126444   4.410   3.118   7.619  2.4958  2.0089 -1.0605
 4937SOL    HW226445   4.528   3.030   7.638  0.7005 -2.6286 -2.3291
 4938SOL     OW26446   1.890   1.779   3.419  0.1491 -0.0146 -0.1688
 4938SOL    HW126447   1.897   1.717   3.492  2.0217  1.5966  1.0138
 4938SOL    HW226448   1.959   1.839   3.446  0.6595  0.2957 -2.1627
 4939SOL     OW26449   0.625   3.545   7.688 -0.2072  0.7076  0.0799
 4939SOL    HW126450   0.671   3.467   7.719  0.6381  1.4830  0.7830
 4939SOL    HW226451   0.539   3.518   7.719  0.2569 -0.5313  0.2886
 4940SOL     OW26452   3.389   4.712   6.748 -0.3102  0.0134  0.5500
 4940SOL    HW126453   3.464   4.736   6.694  0.3083 -0.2422  1.2991
 4940SOL    HW226454   3.415   4.624   6.774 -1.8542 -0.4890  0.3805
 4941SOL     OW26455   2.100   3.787   5.916  0.0707 -0.0559 -0.5423
 4941SOL    HW126456   2.134   3.715   5.969 -0.4441 -1.0838 -1.5874
 4941SOL    HW226457   2.042   3.825   5.981  1.6514 -0.2343  0.9601
 4942SOL     OW26458   3.636   4.727   5.916 -0.3159  0.3713  0.2892
 4942SOL    HW126459   3.631   4.699   6.007 -1.9349 -1.8278 -0.4818
 4942SOL    HW226460   3.552   4.699   5.879  1.5942  0.1483 -3.8793
 4943SOL     OW26461   3.924   1.262   4.299  0.1826  0.3660 -0.4824
 4943SOL    HW126462   3.843   1.314   4.304  0.3792  0.5712  0.5758
 4943SOL    HW226463   3.990   1.324   4.268  0.2608  0.1956 -0.6531
 4944SOL     OW26464   3.053   3.766   9.682  0.2235  0.3333  0.1063
 4944SOL    HW126465   3.082   3.718   9.760 -1.3118 -0.6996  0.0256
 4944SOL    HW226466   3.108   3.843   9.669  1.1044 -0.2959  0.1129
 4945SOL     OW26467   1.642   4.270   9.010  0.0134 -1.0918 -0.0818
 4945SOL    HW126468   1.655   4.231   8.924  0.2146  1.0441 -1.0292
 4945SOL    HW226469   1.553   4.240   9.024 -0.7508  2.5461  2.9074
 4946SOL     OW26470   2.745   0.425  10.100 -0.0782  0.3586 -0.1497
 4946SOL    HW126471   2.840   0.428  10.115  0.1670  1.6227 -1.9728
 4946SOL    HW226472   2.741   0.349  10.042 -0.4546  0.7508 -0.6233
 4947SOL     OW26473   0.861   2.465   4.223 -0.7110  0.1333  0.1729
 4947SOL    HW126474   0.938   2.416   4.192 -1.3083 -0.3239 -0.5936
 4947SOL    HW226475   0.903   2.551   4.210 -1.0987 -0.1205 -2.8116
 4948SOL     OW26476   1.131   2.660   1.913  0.5158 -0.0985  0.8875
 4948SOL    HW126477   1.100   2.749   1.901  1.2501  0.5074  3.4737
 4948SOL    HW226478   1.085   2.648   1.996 -1.9064  0.9482 -0.3123
 4949SOL     OW26479   3.727   3.791  14.892 -0.0904 -0.3013 -0.1350
 4949SOL    HW126480   3.815   3.756  14.909  0.1812  0.0391 -0.7996
 4949SOL    HW226481   3.672   3.713  14.893 -2.8158  1.6286  1.2044
 4950SOL     OW26482   0.096   1.931   7.573  0.1200  0.3821 -0.1950
 4950SOL    HW126483   0.111   1.856   7.630  1.1828  0.5310 -0.2827
 4950SOL    HW226484   0.016   1.910   7.525 -0.5912  0.4149  0.9823
 4951SOL     OW26485   0.879   1.224   8.430  0.2920  0.0926 -0.2903
 4951SOL    HW126486   0.946   1.251   8.493  1.4025  0.0969 -1.4577
 4951SOL    HW226487   0.805   1.182   8.474 -0.9138  1.6204 -0.8498
 4952SOL     OW26488   4.105   3.445   4.960  0.5806  0.5295 -0.2076
 4952SOL    HW126489   4.034   3.469   4.900  1.2616  2.7245 -0.1376
 4952SOL    HW226490   4.068   3.476   5.043  2.6056 -0.8666  1.2056
 4953SOL     OW26491   0.114   2.491   2.940  0.3160 -0.4186  0.1342
 4953SOL    HW126492   0.108   2.578   2.901  0.4639 -0.2220  0.5541
 4953SOL    HW226493   0.108   2.441   2.858  1.1594  0.7145 -0.6098
 4954SOL     OW26494   0.758   1.933  15.220  0.7025  0.1811  0.6904
 4954SOL    HW126495   0.838   1.908  15.173 -0.7368 -0.1105 -1.6323
 4954SOL    HW226496   0.742   1.859  15.278 -1.5703  1.4445  1.6761
 4955SOL     OW26497   3.516   3.100   8.172 -0.0953  0.7579  0.1231
 4955SOL    HW126498   3.583   3.037   8.199  0.2445  0.1559 -2.0823
 4955SOL    HW226499   3.437   3.065   8.214 -0.5635  0.1886 -1.2446
 4956SOL     OW26500   3.211   3.737   7.326 -0.0555 -0.2722  0.0693
 4956SOL    HW126501   3.200   3.811   7.267  1.7164 -0.2762 -0.2410
 4956SOL    HW226502   3.131   3.734   7.380  0.0550 -2.8942  0.0545
 4957SOL     OW26503   3.471   3.138   2.768  0.0535 -0.2222  0.4800
 4957SOL    HW126504   3.419   3.059   2.752 -0.5653  0.3835 -0.4724
 4957SOL    HW226505   3.404   3.205   2.787  0.2204 -0.7155  2.8116
 4958SOL     OW26506   2.162   2.391   1.028 -0.1155 -0.0446 -0.2448
 4958SOL    HW126507   2.248   2.432   1.018  1.3154 -2.4198  2.4326
 4958SOL    HW226508   2.131   2.443   1.103  1.0908  1.5434 -0.8280
 4959SOL     OW26509   3.861   2.875   0.132 -0.0034 -0.2645 -0.3307
 4959SOL    HW126510   3.857   2.785   0.167  0.2146  0.8072  2.4877
 4959SOL    HW226511   3.766   2.889   0.137  0.4945  2.1748  2.1136
 4960SOL     OW26512   1.524   0.525   6.995 -0.0570  0.0411  0.1463
 4960SOL    HW126513   1.552   0.435   7.013 -0.8339 -0.7652 -2.6807
 4960SOL    HW226514   1.611   0.564   7.002 -0.3824  0.5832  1.1337
 4961SOL     OW26515   1.446   2.061   7.921 -0.0501  0.0205 -0.2646
 4961SOL    HW126516   1.497   2.142   7.919  2.4672 -1.5409  0.8944
 4961SOL    HW226517   1.394   2.074   8.001  0.3466  1.5912 -0.2628
 4962SOL     OW26518   2.425   2.716   4.854  0.2316 -0.2289 -0.1291
 4962SOL    HW126519   2.378   2.667   4.921 -0.9261 -0.8363 -1.3983
 4962SOL    HW226520   2.455   2.793   4.902  0.4037 -1.0050  1.0114
 4963SOL     OW26521   3.811   2.365   6.687 -0.1259  0.6205 -0.0152
 4963SOL    HW126522   3.782   2.434   6.747 -0.1449  2.1936 -1.7956
 4963SOL    HW226523   3.837   2.292   6.742 -2.2563  0.0187  0.1919
 4964SOL     OW26524   4.018   1.372   5.749 -0.8451  0.0668 -0.0591
 4964SOL    HW126525   4.009   1.331   5.663 -0.6278  2.4320 -1.1892
 4964SOL    HW226526   3.956   1.444   5.743  1.5267  2.2149  1.1298
 4965SOL     OW26527   1.327   1.428   3.610 -0.3217 -0.2786  0.1344
 4965SOL    HW126528   1.375   1.496   3.658 -2.1038 -0.0867  1.6362
 4965SOL    HW226529   1.330   1.465   3.522  1.5591  2.1080  1.1952
 4966SOL     OW26530   4.630   2.335   8.348  0.2717  0.0595  0.4073
 4966SOL    HW126531   4.609   2.426   8.332 -0.0136  0.3060  2.1057
 4966SOL    HW226532   4.725   2.334   8.356  0.3812 -1.8988 -1.0638
 4967SOL     OW26533   2.192   3.200  15.869 -0.2605 -0.4983  0.5392
 4967SOL    HW126534   2.132   3.196  15.943 -0.4727 -2.5531  0.2675
 4967SOL    HW226535   2.264   3.252  15.905 -0.1527  0.8016 -1.5794
 4968SOL     OW26536   0.657   0.450   5.190 -0.1148  0.3627 -0.1850
 4968SOL    HW126537   0.654   0.440   5.095 -0.5613  1.5603 -0.2961
 4968SOL    HW226538   0.568   0.430   5.217  0.5428  1.5900  2.9604
 4969SOL     OW26539   0.090   3.981   9.215 -0.1746  0.0079  0.0789
 4969SOL    HW126540   0.131   4.065   9.231 -0.2564  0.0357  0.1458
 4969SOL    HW226541   0.114   3.967   9.124  1.2724  0.5843  0.3706
 4970SOL     OW26542   0.189   4.188   2.114 -0.5467 -0.2180  0.8600
 4970SOL    HW126543   0.102   4.180   2.075  0.9231 -3.0206 -1.8816
 4970SOL    HW226544   0.196   4.095   2.136 -2.4288 -0.3251  1.0351
 4971SOL     OW26545   1.287   0.357   8.882 -0.2321  0.3763  0.1774
 4971SOL    HW126546   1.317   0.448   8.886 -0.4908  0.4388  0.6008
 4971SOL    HW226547   1.344   0.322   8.812  0.5352  0.0269  0.9740
 4972SOL     OW26548   4.701   3.612   4.165 -0.5930 -0.2058 -0.0074
 4972SOL    HW126549   0.037   3.575   4.120 -0.0193  0.6461  0.2582
 4972SOL    HW226550   0.007   3.680   4.215  4.0378 -1.2653 -2.7210
 4973SOL     OW26551   3.017   0.300   0.997 -0.5781 -0.1212 -0.1550
 4973SOL    HW126552   3.000   0.228   0.937 -0.9224  0.5133 -0.8138
 4973SOL    HW226553   2.978   0.375   0.953  0.2622 -0.1516 -0.9603
 4974SOL     OW26554   2.329   2.211   2.742  0.2115 -0.6159 -0.1917
 4974SOL    HW126555   2.307   2.145   2.676  1.6707 -0.4487 -0.8573
 4974SOL    HW226556   2.247   2.261   2.737  0.6241  0.2252  1.3771
 4975SOL     OW26557   2.204   3.978   5.362  0.5525  0.1169  0.1483
 4975SOL    HW126558   2.110   3.966   5.369  0.5456  1.6816  2.6421
 4975SOL    HW226559   2.212   3.959   5.269  0.5424  0.1536  0.1398
 4976SOL     OW26560   1.471   1.510  16.493 -0.1962 -0.2109  0.0788
 4976SOL    HW126561   1.378   1.519  16.515 -1.0550 -0.4354 -3.2978
 4976SOL    HW226562   1.458   1.504  16.398 -0.4175  0.6181  0.0576
 4977SOL     OW26563   1.753   1.646  11.933 -0.3562 -0.3994  0.0719
 4977SOL    HW126564   1.848   1.636  11.925 -0.5646 -1.1506 -1.5074
 4977SOL    HW226565   1.732   1.728  11.888 -0.4035 -0.4926 -0.0759
 4978SOL     OW26566   4.323   0.257  16.751  0.4389  0.5278  0.5253
 4978SOL    HW126567   4.415   0.275  16.733  0.4070 -1.5045 -1.6630
 4978SOL    HW226568   4.284   0.279  16.666 -0.0132 -0.1546  0.5606
 4979SOL     OW26569   2.406   0.761   5.865 -0.7236  0.2988  0.1018
 4979SOL    HW126570   2.410   0.713   5.782 -0.7290 -0.1336  0.3511
 4979SOL    HW226571   2.498   0.773   5.890 -0.8750 -0.7886  1.1645
 4980SOL     OW26572   1.914   3.923   5.395 -0.1723  0.6526 -0.1860
 4980SOL    HW126573   1.837   3.970   5.429  0.7400  2.0355 -0.0391
 4980SOL    HW226574   1.886   3.878   5.316 -2.7371  2.5100 -0.3702
 4981SOL     OW26575   0.612   4.355   3.571  0.1087 -0.0111 -0.1385
 4981SOL    HW126576   0.685   4.417   3.578  0.2308 -0.1877  0.1954
 4981SOL    HW226577   0.653   4.278   3.531 -0.5084 -0.1727 -0.4624
 4982SOL     OW26578   2.901   0.472  10.780 -0.1989  0.4581  0.2324
 4982SOL    HW126579   2.983   0.436  10.815  0.5060  1.3797 -0.4803
 4982SOL    HW226580   2.928   0.561  10.758 -0.1538  0.8441  1.8698
 4983SOL     OW26581   0.512   4.642   5.258  0.4970  0.3055  0.2248
 4983SOL    HW126582   0.441   4.593   5.218  0.2831  0.9899 -0.2454
 4983SOL    HW226583   0.469   4.696   5.325 -0.3702  0.0091 -0.0926
 4984SOL     OW26584   2.633   4.535   3.131 -0.2085  0.3404  0.0076
 4984SOL    HW126585   2.598   4.516   3.044  1.3234 -0.1956 -0.4977
 4984SOL    HW226586   2.686   4.615   3.125 -0.1193  0.1564 -1.6974
 4985SOL     OW26587   1.976   1.447   7.755  0.0570 -0.7214 -0.1291
 4985SOL    HW126588   1.940   1.443   7.844  2.2972  2.3916  0.9272
 4985SOL    HW226589   2.060   1.492   7.765  0.1104 -0.9027  0.2520
 4986SOL     OW26590   3.148   2.369  17.687 -0.5994  0.1252 -0.3521
 4986SOL    HW126591   3.156   2.301  17.753  3.1826 -0.2330 -1.2033
 4986SOL    HW226592   3.142   2.444  17.746 -1.4235 -0.4652  0.3191
 4987SOL     OW26593   4.517   3.521   4.601  0.2927  0.7271  0.7867
 4987SOL    HW126594   4.581   3.526   4.672  0.6690 -1.5612  0.5998
 4987SOL    HW226595   4.572   3.498   4.526  1.0406  0.2915  1.4769
 4988SOL     OW26596   3.378   0.202  16.994  0.0314  1.2176  0.1860
 4988SOL    HW126597   3.446   0.195  16.927 -1.1690 -3.0662 -0.6098
 4988SOL    HW226598   3.343   0.113  16.997  0.2816  1.1407  0.7571
 4989SOL     OW26599   3.260   3.869  14.228 -0.6222  0.2337  0.0109
 4989SOL    HW126600   3.333   3.916  14.187 -0.2016 -0.3467  0.0882
 4989SOL    HW226601   3.253   3.915  14.312 -1.6246  1.5837 -0.8022
 4990SOL     OW26602   1.674   4.214   7.377  0.1283 -0.2453  0.5692
 4990SOL    HW126603   1.581   4.206   7.354  0.3276 -1.5915  0.2769
 4990SOL    HW226604   1.683   4.189   7.469  0.1417 -2.2220  0.0283
 4991SOL     OW26605   0.561   4.360  16.342 -0.2462 -0.1730  0.6441
 4991SOL    HW126606   0.647   4.327  16.315 -1.0780 -0.7753 -1.1766
 4991SOL    HW226607   0.555   4.453  16.322 -0.9776  0.0234  1.7315
 4992SOL     OW26608   3.793   1.970   0.948 -0.0766 -0.2616  0.2236
 4992SOL    HW126609   3.835   2.056   0.955 -0.0121 -0.0211 -2.8277
 4992SOL    HW226610   3.734   1.969   1.023  0.6945  0.2918  0.8373
 4993SOL     OW26611   3.040   3.393   5.628 -0.1224  0.4783 -0.3200
 4993SOL    HW126612   3.071   3.389   5.718 -1.2810  0.3039  0.0744
 4993SOL    HW226613   3.115   3.430   5.582 -2.5717  3.1446 -2.1953
 4994SOL     OW26614   0.142   3.322   3.562 -0.0066 -0.4381  0.2948
 4994SOL    HW126615   0.081   3.251   3.542 -1.1627  0.7424 -0.3733
 4994SOL    HW226616   0.175   3.332   3.473  0.9890 -0.8744  0.6161
 4995SOL     OW26617   2.250   3.517   4.971  0.8550 -0.7001 -0.0782
 4995SOL    HW126618   2.223   3.534   5.061 -0.0790  1.1636 -0.7077
 4995SOL    HW226619   2.326   3.461   4.984  0.9746 -0.1025  1.7314
 4996SOL     OW26620   1.059   3.914   3.132  0.0263 -0.0987  0.0351
 4996SOL    HW126621   1.147   3.944   3.154 -0.8084  0.9515  1.8537
 4996SOL    HW226622   1.068   3.821   3.153 -0.5132 -0.4285 -1.1338
 4997SOL     OW26623   3.398   1.388   0.495 -0.0321 -0.3598  0.2206
 4997SOL    HW126624   3.449   1.421   0.421 -0.8770 -0.2834 -0.3342
 4997SOL    HW226625   3.414   1.296   0.475  0.0792 -0.5853  1.3468
 4998SOL     OW26626   3.078   2.835   7.750  0.5231 -0.0446 -0.1400
 4998SOL    HW126627   3.123   2.878   7.822  1.2884 -0.9743 -0.0654
 4998SOL    HW226628   3.019   2.905   7.720  0.9678  0.6584  0.6235
 4999SOL     OW26629   1.205   2.054   5.820  0.6255  0.1910 -0.0094
 4999SOL    HW126630   1.210   2.112   5.744 -3.0130 -0.4094 -0.7249
 4999SOL    HW226631   1.281   2.084   5.869  1.1245 -0.5777 -0.3202
 5000SOL     OW26632   1.643   0.405   2.733  0.3423  0.2482  0.4748
 5000SOL    HW126633   1.681   0.334   2.681 -0.1215 -0.6990  1.4261
 5000SOL    HW226634   1.674   0.485   2.691  0.6778 -0.5623 -0.8121
 5001SOL     OW26635   4.467   3.500   4.069  0.5505 -0.6760  0.0086
 5001SOL    HW126636   4.402   3.530   4.133  0.7321 -0.5907  0.1531
 5001SOL    HW226637   4.549   3.516   4.116  0.3066 -2.0082  0.8649
 5002SOL     OW26638   1.113   0.687  12.844 -0.3438 -0.1395  0.0214
 5002SOL    HW126639   1.149   0.654  12.761 -0.3226  0.3290 -0.1565
 5002SOL    HW226640   1.167   0.637  12.906 -1.0514 -2.3207 -1.1112
 5003SOL     OW26641   4.551   2.906   3.044 -0.0828 -0.1866  0.1799
 5003SOL    HW126642   4.559   2.953   2.961 -0.0794  1.4418  1.0862
 5003SOL    HW226643   4.456   2.916   3.048 -0.4274 -3.0676 -0.7620
 5004SOL     OW26644   3.159   1.150  10.060  0.0171  0.2786 -0.3230
 5004SOL    HW126645   3.244   1.187  10.038  0.3424 -1.1322 -1.5044
 5004SOL    HW226646   3.145   1.096   9.981  0.1431  0.2461 -0.3233
 5005SOL     OW26647   3.348   0.874   7.820 -0.2864  0.1729 -0.1648
 5005SOL    HW126648   3.254   0.865   7.804 -0.5280 -0.1291  1.4489
 5005SOL    HW226649   3.361   0.904   7.910 -0.4153 -0.5948  0.1059
 5006SOL     OW26650   0.582   2.400   7.238  0.5055  0.3138 -0.1142
 5006SOL    HW126651   0.585   2.417   7.144 -0.1218  0.3488 -0.1283
 5006SOL    HW226652   0.492   2.427   7.255 -0.2659 -1.1864 -1.8122
 5007SOL     OW26653   2.444   0.018   7.302 -0.1297 -0.0226  0.1143
 5007SOL    HW126654   2.360   0.059   7.322  0.2441  0.9381 -0.2752
 5007SOL    HW226655   2.445   4.697   7.376 -1.5878 -0.0641  0.0850
 5008SOL     OW26656   0.888   2.713   8.889  0.0966  0.3974  0.2162
 5008SOL    HW126657   0.963   2.677   8.935  0.8619  0.2790 -1.1170
 5008SOL    HW226658   0.935   2.711   8.805  1.1562  0.6574  0.8107
 5009SOL     OW26659   2.199   1.365  12.714 -0.4019 -0.6754  0.1386
 5009SOL    HW126660   2.215   1.402  12.627  0.7109 -1.4915 -0.0075
 5009SOL    HW226661   2.111   1.332  12.697 -0.4443  1.0641 -3.0982
 5010SOL     OW26662   1.464   2.181  14.342  0.4360  0.2182  0.4576
 5010SOL    HW126663   1.527   2.108  14.343 -0.5182 -0.5787  2.0153
 5010SOL    HW226664   1.513   2.243  14.396 -0.3219  0.2149  1.1500
 5011SOL     OW26665   1.003   3.884   7.568  0.4433 -0.3556 -0.2311
 5011SOL    HW126666   1.008   3.831   7.489  1.4990 -1.3683  0.5311
 5011SOL    HW226667   1.098   3.894   7.568  0.6048 -2.0769  1.9979
 5012SOL     OW26668   4.007   0.262   3.488  0.5097  0.1649  0.5526
 5012SOL    HW126669   4.068   0.300   3.425 -0.7593  1.4812  0.1079
 5012SOL    HW226670   4.039   0.304   3.567  1.8109  1.1557 -0.5038
 5013SOL     OW26671   3.556   4.029   9.774 -0.1346 -0.2963 -0.8207
 5013SOL    HW126672   3.467   4.013   9.805 -0.3827 -0.6864 -1.7436
 5013SOL    HW226673   3.566   4.123   9.762 -0.9669 -0.0434  0.4702
 5014SOL     OW26674   1.070   1.970   9.749  0.3164  0.2655  0.7250
 5014SOL    HW126675   1.106   2.046   9.795 -0.8768  1.3557 -0.1245
 5014SOL    HW226676   1.088   1.908   9.819 -0.4709 -1.9667 -1.0406
 5015SOL     OW26677   4.687   4.455  15.879 -0.5214 -0.2609  0.5374
 5015SOL    HW126678   4.597   4.469  15.849 -0.7560 -2.2343  0.3081
 5015SOL    HW226679   4.724   4.531  15.835  2.3906 -2.9373 -1.6497
 5016SOL     OW26680   4.364   1.898   8.692 -0.5743  0.4608 -0.7362
 5016SOL    HW126681   4.276   1.883   8.659 -0.3216  0.8794 -1.6022
 5016SOL    HW226682   4.350   1.870   8.783 -0.5338  1.6969 -0.3443
 5017SOL     OW26683   1.847   4.424  16.630 -0.4751  0.3747 -0.5516
 5017SOL    HW126684   1.836   4.341  16.675  1.8709 -0.7324 -1.9875
 5017SOL    HW226685   1.833   4.398  16.539  1.0081 -0.8092 -0.4376
 5018SOL     OW26686   1.071   2.147   6.540 -0.5041 -0.1221  0.2368
 5018SOL    HW126687   1.075   2.053   6.526 -1.0693 -0.0858 -0.2019
 5018SOL    HW226688   1.161   2.163   6.567 -0.8428  1.6207  0.3471
 5019SOL     OW26689   2.253   2.620  13.651 -0.4634 -0.2125 -0.1186
 5019SOL    HW126690   2.337   2.658  13.623 -0.8882  0.5338 -0.3740
 5019SOL    HW226691   2.259   2.647  13.743  0.8463  0.4376 -0.3877
 5020SOL     OW26692   4.418   0.762   9.445 -0.1942  0.1018  0.3609
 5020SOL    HW126693   4.335   0.805   9.425  0.6520  1.0998 -1.0771
 5020SOL    HW226694   4.386   0.673   9.462  2.1869 -0.9421 -0.6410
 5021SOL     OW26695   1.302   2.868   2.385  0.0526 -0.0755 -0.1814
 5021SOL    HW126696   1.251   2.885   2.464 -0.0413 -1.0295 -0.0330
 5021SOL    HW226697   1.337   2.784   2.416  0.3208  0.1616  0.1459
 5022SOL     OW26698   0.275   4.432   7.166  0.7820 -0.3673  0.4750
 5022SOL    HW126699   0.348   4.422   7.105  1.4361  0.9358  1.0532
 5022SOL    HW226700   0.276   4.525   7.185  0.9208 -0.2544 -0.0749
 5023SOL     OW26701   1.247   4.651   2.705 -0.1882 -0.1895  0.1568
 5023SOL    HW126702   1.284   4.564   2.685  1.9575  1.0397 -1.2827
 5023SOL    HW226703   1.328   4.700   2.723  0.0146 -0.7905  0.8690
 5024SOL     OW26704   4.669   1.452   7.804 -0.4602  0.1668 -0.3696
 5024SOL    HW126705   4.702   1.401   7.731  1.8836  1.1040  0.0366
 5024SOL    HW226706   4.643   1.534   7.762 -0.6690 -1.0197 -2.5546
 5025SOL     OW26707   0.629   2.033   0.457  0.1175 -0.0219 -0.2920
 5025SOL    HW126708   0.706   1.980   0.480 -0.6949 -0.6616  0.9496
 5025SOL    HW226709   0.580   1.957   0.427 -0.0326 -0.8973  2.1639
 5026SOL     OW26710   3.208   4.000   0.188  0.8270 -0.1856 -0.6230
 5026SOL    HW126711   3.242   3.935   0.126 -0.3954 -1.5075  0.0825
 5026SOL    HW226712   3.254   3.990   0.271  0.2939  0.4084 -0.2647
 5027SOL     OW26713   3.064   2.354  16.732 -0.2791  0.6158  0.2331
 5027SOL    HW126714   2.992   2.347  16.795  0.2241  1.8452  0.9360
 5027SOL    HW226715   3.016   2.353  16.649  0.5611 -1.7034 -0.2244
 5028SOL     OW26716   4.495   0.985   4.921 -0.8141  0.0768 -0.2980
 5028SOL    HW126717   4.474   1.041   4.846  0.7689  0.0524 -0.7503
 5028SOL    HW226718   4.461   1.028   5.000  0.1569 -1.0252  0.7019
 5029SOL     OW26719   1.797   4.673   4.610 -0.1275 -0.3987  0.0390
 5029SOL    HW126720   1.884   4.677   4.570 -0.7814  0.1270 -1.3467
 5029SOL    HW226721   1.747   4.735   4.556 -0.0528 -0.1359  0.2677
 5030SOL     OW26722   3.027   1.114  15.047  0.4465 -0.0270  0.5903
 5030SOL    HW126723   3.074   1.033  15.066 -1.6452 -1.9594 -2.5305
 5030SOL    HW226724   3.037   1.117  14.952 -0.0876  0.7201  0.5610
 5031SOL     OW26725   2.764   1.150   9.270 -0.2396 -0.1584  0.1577
 5031SOL    HW126726   2.845   1.099   9.270  0.2756  0.6640  2.4961
 5031SOL    HW226727   2.700   1.080   9.254 -0.9156  0.2741  0.9676
 5032SOL     OW26728   3.541   2.954  13.347  0.2353  0.2719  0.5763
 5032SOL    HW126729   3.576   2.869  13.322  0.2777 -0.1359  2.0298
 5032SOL    HW226730   3.496   2.932  13.429 -0.1704  1.6812  0.7345
 5033SOL     OW26731   0.113   4.735   7.213  0.7461 -0.2263 -0.2706
 5033SOL    HW126732   0.064   4.663   7.174 -0.2185  1.2297 -1.7115
 5033SOL    HW226733   0.190   4.692   7.251 -0.5366 -0.8969  1.5458
 5034SOL     OW26734   2.510   2.418  11.888 -0.1276  0.1448  0.2889
 5034SOL    HW126735   2.528   2.371  11.970  0.2393  0.3650  0.3324
 5034SOL    HW226736   2.504   2.338  11.836  1.9751  0.6852 -0.7856
 5035SOL     OW26737   0.622   1.576   1.093  0.5129 -0.4125 -0.0009
 5035SOL    HW126738   0.610   1.568   1.188  3.2193 -1.7440  0.2594
 5035SOL    HW226739   0.676   1.655   1.091 -0.4336  0.2365  0.1118
 5036SOL     OW26740   1.196   1.588   5.887  0.5594  0.4705 -0.3315
 5036SOL    HW126741   1.190   1.646   5.963 -0.4300 -0.5760  0.3857
 5036SOL    HW226742   1.263   1.627   5.831 -0.9944  2.4047 -0.8342
 5037SOL     OW26743   3.301   3.166   9.063 -0.6047 -0.5632  0.0209
 5037SOL    HW126744   3.303   3.079   9.102  0.0171  0.2652  1.8192
 5037SOL    HW226745   3.374   3.208   9.108 -1.0347 -0.2923  0.4660
 5038SOL     OW26746   3.308   2.946   0.827  0.3042  0.2240  0.6240
 5038SOL    HW126747   3.261   2.863   0.838  0.0144  0.2835 -0.1356
 5038SOL    HW226748   3.375   2.924   0.762 -0.2949 -2.3796  0.8775
 5039SOL     OW26749   2.743   0.504   3.644  0.1925  0.2302 -0.1423
 5039SOL    HW126750   2.705   0.543   3.565  0.0826  0.8809  0.2344
 5039SOL    HW226751   2.777   0.581   3.688  0.3599 -0.6816  1.3300
 5040SOL     OW26752   3.364   4.443   5.197  0.2729 -0.4846  0.1937
 5040SOL    HW126753   3.343   4.536   5.192  0.8908 -0.2459  2.1652
 5040SOL    HW226754   3.452   4.438   5.158  1.0039  0.3737  1.7161
 5041SOL     OW26755   3.471   4.340   7.153 -0.0088 -0.6391  0.2561
 5041SOL    HW126756   3.448   4.338   7.246 -0.9507  0.7177  0.0446
 5041SOL    HW226757   3.433   4.259   7.120 -2.1646 -0.0538  1.3156
 5042SOL     OW26758   1.350   1.872   6.763  0.2957 -0.2409  0.5327
 5042SOL    HW126759   1.397   1.806   6.815  0.4631 -1.4840 -1.1922
 5042SOL    HW226760   1.424   1.884   6.703 -0.8831 -0.4970 -0.9706
 5043SOL     OW26761   0.340   3.679   0.869 -0.6368  0.1140 -0.3473
 5043SOL    HW126762   0.336   3.629   0.787  1.2809  0.6630 -0.7662
 5043SOL    HW226763   0.402   3.625   0.918 -2.7298  0.1487  2.3431
 5044SOL     OW26764   0.311   2.046  11.480  0.3045 -0.0798 -0.3129
 5044SOL    HW126765   0.301   2.140  11.496  0.4436 -0.3993  1.7470
 5044SOL    HW226766   0.343   2.044  11.390 -2.0346  0.3638 -1.1665
 5045SOL     OW26767   1.841   2.631   4.731  0.0432 -0.1573  0.0701
 5045SOL    HW126768   1.903   2.557   4.733  1.0843  0.6427 -1.8533
 5045SOL    HW226769   1.884   2.673   4.656  0.2240  2.0455  1.4455
 5046SOL     OW26770   2.931   2.461   8.274  0.3945  0.4438 -0.0987
 5046SOL    HW126771   2.856   2.417   8.234 -0.9231  2.8876 -0.3349
 5046SOL    HW226772   2.980   2.385   8.305  0.8461  1.3203  1.2982
 5047SOL     OW26773   2.246   3.065   3.484  0.2230  0.1752  0.2994
 5047SOL    HW126774   2.218   3.085   3.394 -1.3842 -1.6879  0.4055
 5047SOL    HW226775   2.171   3.098   3.532 -0.5453  0.3893 -1.0459
 5048SOL     OW26776   1.965   0.346   4.363 -0.4044 -0.9592 -0.3825
 5048SOL    HW126777   2.056   0.318   4.365  0.6182  2.3052 -1.1356
 5048SOL    HW226778   1.948   0.333   4.270 -1.8316 -0.4084 -0.2109
 5049SOL     OW26779   3.518   1.501  13.826  0.2671 -0.0927  0.1384
 5049SOL    HW126780   3.445   1.557  13.798  0.7876 -0.3167 -1.6027
 5049SOL    HW226781   3.522   1.438  13.754  1.1119 -1.6066  1.5000
 5050SOL     OW26782   2.634   4.112   9.605  0.7567  0.1430 -0.0352
 5050SOL    HW126783   2.666   4.094   9.693  1.1229  2.0245  0.2246
 5050SOL    HW226784   2.600   4.027   9.579  0.5280  0.2286 -0.0159
 5051SOL     OW26785   2.842   1.336   5.729  0.6810  0.3652  0.4954
 5051SOL    HW126786   2.804   1.396   5.793  2.1740 -2.5827  4.1198
 5051SOL    HW226787   2.820   1.367   5.641  1.6420  1.7418  0.7239
 5052SOL     OW26788   0.673   4.600   7.388 -0.6572  0.6622  0.2869
 5052SOL    HW126789   0.765   4.579   7.373 -0.0413  2.4574  1.5315
 5052SOL    HW226790   0.662   4.623   7.296 -0.2016  1.4231  0.4220
 5053SOL     OW26791   2.718   2.336   3.771 -0.3013  0.1723 -0.6937
 5053SOL    HW126792   2.681   2.277   3.706 -1.3883  1.7536 -1.5061
 5053SOL    HW226793   2.637   2.387   3.783 -2.0005 -2.5025 -0.9301
 5054SOL     OW26794   2.760   1.918   5.987 -1.0675 -0.4367  0.2382
 5054SOL    HW126795   2.787   1.827   6.004 -1.5177 -0.5659  0.2603
 5054SOL    HW226796   2.802   1.932   5.902 -0.4701 -0.8459  0.4592
 5055SOL     OW26797   1.766   3.070  14.584 -0.3977  0.0530 -0.1849
 5055SOL    HW126798   1.793   3.161  14.595  2.1737 -1.0816  2.9403
 5055SOL    HW226799   1.854   3.033  14.572 -0.4800 -0.4684  0.8364
 5056SOL     OW26800   4.109   1.653  10.944  0.0633 -0.0316 -0.1504
 5056SOL    HW126801   4.028   1.615  10.910 -0.6633 -0.5731  2.1360
 5056SOL    HW226802   4.180   1.607  10.901 -0.2076 -0.6055  0.0154
 5057SOL     OW26803   4.190   1.766   7.717  0.3922 -0.2634 -0.3469
 5057SOL    HW126804   4.155   1.841   7.668  0.9047  0.3973  0.3018
 5057SOL    HW226805   4.213   1.825   7.789  0.4808  1.1359 -1.5265
 5058SOL     OW26806   3.380   0.998   5.910  0.4128  0.3025  0.0057
 5058SOL    HW126807   3.382   1.081   5.957 -0.8522 -0.5725  1.6289
 5058SOL    HW226808   3.463   1.004   5.862  0.8832  1.1449  0.9340
 5059SOL     OW26809   1.562   2.314   0.106 -0.8384  0.2575 -0.1547
 5059SOL    HW126810   1.589   2.391   0.056 -1.7510  0.2337 -0.6839
 5059SOL    HW226811   1.520   2.261   0.039  0.5182  0.2361 -0.9749
 5060SOL     OW26812   2.038   0.081   4.033 -0.0195 -0.2134  0.5248
 5060SOL    HW126813   2.126   0.107   4.006  0.6902 -2.7847  0.3046
 5060SOL    HW226814   2.004   0.053   3.948 -0.2128  1.5131  0.0333
 5061SOL     OW26815   0.514   1.044  16.063 -0.1471 -0.0948  0.3330
 5061SOL    HW126816   0.453   1.105  16.023 -1.1059 -1.3476 -0.0999
 5061SOL    HW226817   0.595   1.063  16.015  0.1747  0.6113  1.1369
 5062SOL     OW26818   3.750   3.791   2.268  0.2567 -0.1486 -0.0980
 5062SOL    HW126819   3.666   3.786   2.313  0.6423 -1.5436  0.4641
 5062SOL    HW226820   3.764   3.704   2.230  0.6606 -0.6247  1.1365
 5063SOL     OW26821   1.590   2.025   8.737  0.1536 -0.2305 -0.1759
 5063SOL    HW126822   1.570   2.096   8.798  1.9255 -2.0017  2.4617
 5063SOL    HW226823   1.661   2.062   8.685  1.8992 -3.4060 -0.0888
 5064SOL     OW26824   1.108   3.582   8.508  0.2405  0.2993  0.3243
 5064SOL    HW126825   1.024   3.553   8.544  0.2132 -0.3976 -0.2941
 5064SOL    HW226826   1.091   3.667   8.469  0.2138  0.5555  0.8940
 5065SOL     OW26827   2.796   0.635   8.066 -0.4713  0.3186  0.1406
 5065SOL    HW126828   2.854   0.580   8.119  2.0059  1.4787 -1.3686
 5065SOL    HW226829   2.744   0.680   8.132 -1.6004 -0.6777 -0.0573
 5066SOL     OW26830   4.703   0.775  17.231 -0.2607  0.3843 -0.3298
 5066SOL    HW126831   4.657   0.806  17.153  0.4072  0.4076 -0.7154
 5066SOL    HW226832   0.005   0.694  17.202  1.4468  0.9836  0.3973
 5067SOL     OW26833   4.027   0.326   7.611 -0.1978 -0.5249  0.0113
 5067SOL    HW126834   4.095   0.374   7.564 -1.0042  1.3486  0.7721
 5067SOL    HW226835   3.950   0.332   7.555 -1.1009 -3.4116  0.9283
 5068SOL     OW26836   4.498   0.186   7.079 -0.1934  0.3813  0.0896
 5068SOL    HW126837   4.581   0.210   7.120 -0.6635 -0.9696  1.8316
 5068SOL    HW226838   4.491   0.091   7.083  1.8810  0.1715 -0.8223
 5069SOL     OW26839   1.688   2.309   0.360 -0.4117 -0.0877 -0.9610
 5069SOL    HW126840   1.642   2.325   0.443  1.2266 -0.3755  0.0013
 5069SOL    HW226841   1.625   2.297   0.289  1.2060 -2.5906 -1.9932
 5070SOL     OW26842   0.057   3.368   8.028  0.2370 -0.7410 -0.3827
 5070SOL    HW126843   0.127   3.418   8.070 -0.0767  0.2485 -1.0196
 5070SOL    HW226844   4.716   3.387   8.076  1.7628  2.0043  1.1048
 5071SOL     OW26845   3.867   2.625   5.848 -0.4100 -0.1432 -0.0137
 5071SOL    HW126846   3.786   2.587   5.881 -0.8445 -0.4967 -1.4573
 5071SOL    HW226847   3.914   2.548   5.816  1.1111  0.7654 -0.0021
 5072SOL     OW26848   3.751   0.469   5.087  0.4312 -0.2603 -0.0106
 5072SOL    HW126849   3.797   0.541   5.129 -0.1080 -0.7303  1.3701
 5072SOL    HW226850   3.729   0.516   5.006 -2.3038 -1.6333 -0.0431
 5073SOL     OW26851   0.157   2.987   2.121  0.2573  0.4829 -0.3321
 5073SOL    HW126852   0.176   2.991   2.027 -0.5372  0.0786 -0.5103
 5073SOL    HW226853   0.229   2.925   2.132 -0.9459 -1.1409 -1.5488
 5074SOL     OW26854   2.408   0.409  13.015 -0.0022 -1.0190 -0.3037
 5074SOL    HW126855   2.375   0.332  13.060 -0.8357 -2.1546 -2.8192
 5074SOL    HW226856   2.380   0.474  13.078 -1.9056 -0.3567 -1.8411
 5075SOL     OW26857   1.399   3.721   8.353 -0.0336  0.0746 -0.6694
 5075SOL    HW126858   1.422   3.779   8.425  1.8723 -0.0440 -1.1912
 5075SOL    HW226859   1.325   3.672   8.389  1.7922 -2.4832 -0.4063
 5076SOL     OW26860   1.776   2.842  11.897  0.0523 -0.1911 -0.0887
 5076SOL    HW126861   1.840   2.784  11.939  0.4739 -0.7941 -1.5779
 5076SOL    HW226862   1.765   2.793  11.815  0.5134 -0.0618 -0.2290
 5077SOL     OW26863   1.124   0.549   4.487  0.2743 -0.4619 -0.0405
 5077SOL    HW126864   1.077   0.468   4.467 -1.1960 -0.2683  2.5740
 5077SOL    HW226865   1.114   0.559   4.582  1.6760 -0.2457  0.0843
 5078SOL     OW26866   0.722   4.382   2.412 -0.5134 -0.1931 -0.1696
 5078SOL    HW126867   0.675   4.331   2.479 -1.0550  2.2867  1.3537
 5078SOL    HW226868   0.731   4.308   2.352 -0.0896 -1.3309  1.2974
 5079SOL     OW26869   1.988   1.011   7.670  0.1265  0.1500 -0.1713
 5079SOL    HW126870   2.057   1.073   7.697 -0.3556  0.8381 -0.5423
 5079SOL    HW226871   2.002   1.025   7.577  0.7328  0.5375 -0.0243
 5080SOL     OW26872   0.562   0.357   6.477 -0.6721 -0.2928 -0.4053
 5080SOL    HW126873   0.528   0.286   6.423 -0.2287 -1.1942  0.4875
 5080SOL    HW226874   0.616   0.305   6.536 -2.0342 -2.5717 -1.1718
 5081SOL     OW26875   0.237   1.949  13.043  0.5854 -0.4624 -0.0832
 5081SOL    HW126876   0.258   2.035  13.007  0.2762 -0.4773 -0.2953
 5081SOL    HW226877   0.329   1.924  13.053  0.5826 -1.1051 -1.6462
 5082SOL     OW26878   1.013   4.528   8.963 -0.1901 -0.2300 -0.2677
 5082SOL    HW126879   1.001   4.623   8.960 -0.8464 -0.3876 -2.2065
 5082SOL    HW226880   1.022   4.514   9.058 -0.6491  2.3914  0.1433
 5083SOL     OW26881   3.453   3.196   8.524  0.6609  0.3661 -0.2206
 5083SOL    HW126882   3.539   3.222   8.491  0.3899  1.0871 -0.3563
 5083SOL    HW226883   3.412   3.275   8.559 -0.5594 -0.3672  0.0195
 5084SOL     OW26884   2.357   3.830   2.150  0.2362  0.2680 -0.4570
 5084SOL    HW126885   2.314   3.912   2.177  1.4307  1.0951 -1.0475
 5084SOL    HW226886   2.291   3.767   2.179  0.0093 -0.0423 -1.6295
 5085SOL     OW26887   1.146   2.139   3.301 -0.0267 -0.6209  0.5113
 5085SOL    HW126888   1.164   2.056   3.258  1.7338  0.1111 -0.1790
 5085SOL    HW226889   1.052   2.144   3.286  0.4340  0.7588 -1.8838
 5086SOL     OW26890   0.455   0.538   8.025 -0.0933 -0.2647 -0.8926
 5086SOL    HW126891   0.545   0.558   8.050 -0.5345 -1.0415  1.3218
 5086SOL    HW226892   0.407   0.595   8.085  0.1464  1.8542 -2.7413
 5087SOL     OW26893   4.305   1.039  16.177 -0.4053  0.0646  0.2726
 5087SOL    HW126894   4.318   1.034  16.271  1.7337  1.6435  0.0776
 5087SOL    HW226895   4.265   1.125  16.166 -1.3683 -0.3422  0.5745
 5088SOL     OW26896   4.428   4.609  16.007 -0.4834  0.3057 -0.0381
 5088SOL    HW126897   4.400   4.561  15.929 -1.3628  0.8973 -0.0820
 5088SOL    HW226898   4.368   4.573  16.071  0.5296 -0.4211  0.5123
 5089SOL     OW26899   0.290   0.444  16.591  0.6471  0.5175 -0.0230
 5089SOL    HW126900   0.223   0.505  16.622 -0.1883 -1.1269  1.4176
 5089SOL    HW226901   0.236   0.380  16.544 -1.2500  0.3176  2.4112
 5090SOL     OW26902   1.481   3.459   3.215 -0.2143 -0.1234 -0.2348
 5090SOL    HW126903   1.495   3.490   3.304  0.0811 -0.9563  0.0073
 5090SOL    HW226904   1.393   3.421   3.217  0.9363 -2.7509  0.5490
 5091SOL     OW26905   2.931   1.069   1.062 -0.0541 -0.5405 -0.2066
 5091SOL    HW126906   2.916   0.982   1.024  1.2373 -2.2629  3.2761
 5091SOL    HW226907   2.889   1.126   0.998 -2.1986  0.4820  2.1438
 5092SOL     OW26908   2.182   0.813   7.467 -0.3881 -0.1279 -0.6362
 5092SOL    HW126909   2.178   0.780   7.378 -1.7044  2.4486 -1.5495
 5092SOL    HW226910   2.152   0.902   7.446  0.1019  0.4562  1.0901
 5093SOL     OW26911   2.591   1.832   2.733  0.1711  0.3155 -0.1281
 5093SOL    HW126912   2.562   1.883   2.808 -0.6849  1.2537 -1.0841
 5093SOL    HW226913   2.505   1.802   2.701  1.0549 -0.9595 -1.3295
 5094SOL     OW26914   1.161   4.607   5.512 -0.2287  0.2839 -0.1827
 5094SOL    HW126915   1.106   4.529   5.501  0.1702  0.3750 -2.9875
 5094SOL    HW226916   1.247   4.566   5.519 -0.2691  0.0236 -1.2260
 5095SOL     OW26917   0.051   3.756  12.901 -0.2662 -0.2643  0.0051
 5095SOL    HW126918   0.097   3.776  12.819 -1.2737 -0.8571 -0.6874
 5095SOL    HW226919   0.122   3.774  12.963 -1.1284 -0.1004  0.9216
 5096SOL     OW26920   0.246   3.712   2.148 -0.7444 -0.2098 -0.8472
 5096SOL    HW126921   0.263   3.693   2.055  1.0349  0.9883 -0.7719
 5096SOL    HW226922   0.332   3.748   2.169 -1.0796 -0.3429  0.7197
 5097SOL     OW26923   1.270   0.059  12.096 -0.1010 -0.5826 -0.0064
 5097SOL    HW126924   1.183   0.097  12.085 -0.0113  0.5754  3.0382
 5097SOL    HW226925   1.329   0.133  12.081 -1.0062 -0.2928 -2.1340
 5098SOL     OW26926   0.914   3.209   7.042  0.3301 -0.7222  0.0236
 5098SOL    HW126927   0.896   3.299   7.069 -1.8987 -0.7917 -1.2544
 5098SOL    HW226928   0.970   3.171   7.111 -0.0134 -2.8118 -0.8518
 5099SOL     OW26929   0.917   0.024   4.953 -0.3106  0.1530 -0.4684
 5099SOL    HW126930   0.958   4.703   4.891  0.4726  0.7056 -0.5037
 5099SOL    HW226931   0.837   4.722   4.985 -1.3969  2.2028 -0.5172
 5100SOL     OW26932   1.694   2.493  16.005 -0.3965  0.2774 -0.0364
 5100SOL    HW126933   1.599   2.484  16.012 -0.6211  0.8507 -2.2346
 5100SOL    HW226934   1.706   2.587  16.010  0.5290  0.2027 -0.8395
 5101SOL     OW26935   0.537   3.461  10.969  0.3378  0.0421 -0.1511
 5101SOL    HW126936   0.460   3.513  10.942 -0.3900 -1.5289 -1.0734
 5101SOL    HW226937   0.511   3.370  10.957 -0.6791  0.6585 -2.7725
 5102SOL     OW26938   0.778   2.179   6.194 -0.0659  0.5628 -0.2489
 5102SOL    HW126939   0.859   2.129   6.189  0.9725  2.4155 -2.0386
 5102SOL    HW226940   0.721   2.102   6.202 -0.6898  1.2822  2.1411
 5103SOL     OW26941   3.715   2.018   8.549 -0.1939  0.0905 -0.0902
 5103SOL    HW126942   3.620   2.026   8.549 -0.1458  0.6911  1.3294
 5103SOL    HW226943   3.740   1.999   8.459 -1.8644  0.6826 -0.6675
 5104SOL     OW26944   1.531   2.859   9.663 -0.1299  0.2723  0.1879
 5104SOL    HW126945   1.557   2.773   9.697 -1.6167 -0.4616 -0.5163
 5104SOL    HW226946   1.459   2.873   9.725  0.8813  2.5288  0.8254
 5105SOL     OW26947   4.029   0.235   5.766  0.1773  0.2150 -0.0722
 5105SOL    HW126948   4.097   0.190   5.816 -0.7667 -1.9385 -0.7402
 5105SOL    HW226949   3.992   0.160   5.719  0.2916  0.2867 -0.2753
 5106SOL     OW26950   1.005   2.315   6.745 -0.5866 -0.6480 -0.1156
 5106SOL    HW126951   1.009   2.379   6.674  1.2852 -0.7813 -0.1500
 5106SOL    HW226952   1.079   2.265   6.710  0.5752 -0.9698  2.8090
 5107SOL     OW26953   1.168   4.227   5.852 -0.0101  0.9725 -0.3338
 5107SOL    HW126954   1.105   4.159   5.873  1.7633 -0.1424  1.3584
 5107SOL    HW226955   1.187   4.267   5.937 -3.0117  0.8930  0.3537
 5108SOL     OW26956   3.000   3.150   9.298  0.0054  0.0016  0.0614
 5108SOL    HW126957   3.065   3.210   9.262  0.0093 -0.2042 -0.2689
 5108SOL    HW226958   2.956   3.201   9.367 -2.0163 -0.9412 -0.5285
 5109SOL     OW26959   0.440   2.979   8.789 -0.1842 -0.2170 -0.6222
 5109SOL    HW126960   0.347   2.965   8.769 -0.3265  0.4720 -0.4410
 5109SOL    HW226961   0.460   2.906   8.849 -0.2665  0.6488  0.4633
 5110SOL     OW26962   2.171   0.764   5.078 -0.0225 -0.0827 -0.3470
 5110SOL    HW126963   2.207   0.676   5.074 -1.2012 -0.5944  0.3673
 5110SOL    HW226964   2.170   0.781   4.984 -2.0883  0.5372 -0.2134
 5111SOL     OW26965   0.520   4.507   2.260  0.5945  0.0659 -1.1602
 5111SOL    HW126966   0.494   4.465   2.178  0.6013 -0.0321 -1.1125
 5111SOL    HW226967   0.564   4.425   2.281  0.5336  1.1001  2.9623
 5112SOL     OW26968   0.791   3.881   3.609 -0.2948  0.2855  0.4104
 5112SOL    HW126969   0.858   3.840   3.663  1.2185  0.8021 -1.0579
 5112SOL    HW226970   0.842   3.938   3.551 -0.2458  0.1016  0.2730
 5113SOL     OW26971   0.844   3.517   6.731  0.2233  0.0490  0.3549
 5113SOL    HW126972   0.915   3.561   6.685  0.0022 -0.1484 -0.1784
 5113SOL    HW226973   0.892   3.435   6.741 -1.6938 -1.4558 -2.9864
 5114SOL     OW26974   1.324   1.475   4.192  0.8797  0.0546  0.0626
 5114SOL    HW126975   1.254   1.501   4.132  0.9463 -0.6441 -0.3135
 5114SOL    HW226976   1.307   1.527   4.271 -1.6165  2.2268 -1.9055
 5115SOL     OW26977   3.355   0.293   3.789 -0.4237 -0.2926 -0.2760
 5115SOL    HW126978   3.324   0.206   3.762 -1.1293  0.5681 -2.2270
 5115SOL    HW226979   3.339   0.346   3.711 -1.1040  2.3053  1.6319
 5116SOL     OW26980   1.647   3.932  15.565 -0.2908  0.1485  0.2130
 5116SOL    HW126981   1.628   3.937  15.471  0.2718  0.8502  0.1319
 5116SOL    HW226982   1.688   3.846  15.568 -0.3862  0.0426 -1.3031
 5117SOL     OW26983   3.561   0.979  11.546 -0.0336 -0.0976 -0.3212
 5117SOL    HW126984   3.498   1.030  11.596 -0.1055 -0.5084  0.0071
 5117SOL    HW226985   3.499   0.918  11.507 -0.2120  0.2765 -0.6233
 5118SOL     OW26986   3.129   1.527   1.529  0.4917  0.4361  0.1887
 5118SOL    HW126987   3.211   1.482   1.509  0.2616 -0.6705  1.7589
 5118SOL    HW226988   3.163   1.614   1.548 -1.9482  1.8694 -1.9703
 5119SOL     OW26989   3.347   3.718  13.469 -0.3578  0.1382  0.8516
 5119SOL    HW126990   3.374   3.809  13.463  1.0485 -0.3580 -0.1967
 5119SOL    HW226991   3.384   3.682  13.389  0.9849  1.8339  0.7064
 5120SOL     OW26992   2.067   3.690   5.512 -0.0576 -0.1846  0.2229
 5120SOL    HW126993   2.089   3.767   5.565 -0.8491  0.5756 -0.5485
 5120SOL    HW226994   1.989   3.729   5.472  0.5478 -0.8941 -1.6483
 5121SOL     OW26995   2.370   2.286  11.553 -0.2082  0.2208 -0.4323
 5121SOL    HW126996   2.315   2.213  11.523  0.3790  0.2878 -1.6626
 5121SOL    HW226997   2.325   2.368  11.533 -1.0373  0.3200  1.7633
 5122SOL     OW26998   2.909   3.041   7.354  0.1701  0.0344  0.1404
 5122SOL    HW126999   2.984   3.090   7.387  0.4938  0.2676 -0.9500
 5122SOL    HW227000   2.883   3.088   7.275 -2.1271 -1.5441 -0.0673
 5123SOL     OW27001   3.431   3.192   7.226  0.0716 -0.1209 -0.0645
 5123SOL    HW127002   3.429   3.125   7.295 -0.6368  0.9066  0.9086
 5123SOL    HW227003   3.395   3.150   7.147  0.7266 -0.7993 -0.0061
 5124SOL     OW27004   3.948   4.047   2.151 -0.1728 -0.1910  0.2434
 5124SOL    HW127005   3.864   4.011   2.121 -0.2410 -0.5633  0.8876
 5124SOL    HW227006   3.913   4.114   2.211 -0.3118  0.2484 -0.3251
 5125SOL     OW27007   1.229   2.636   0.686  0.5514  0.3463 -0.5288
 5125SOL    HW127008   1.207   2.670   0.599  0.9959  0.7375 -0.4865
 5125SOL    HW227009   1.148   2.604   0.726 -0.9058  4.1987 -0.4544
 5126SOL     OW27010   1.202   3.475   2.999  0.1237  0.4187  0.5845
 5126SOL    HW127011   1.245   3.558   3.017 -1.0021  0.9287  0.9311
 5126SOL    HW227012   1.188   3.478   2.904  0.5741 -1.0974  0.4703
 5127SOL     OW27013   3.220   2.600  12.375 -0.2701 -0.3603  0.6265
 5127SOL    HW127014   3.208   2.569  12.286  0.7458 -1.8021  0.9941
 5127SOL    HW227015   3.302   2.558  12.402  0.0103 -0.1044  0.1722
 5128SOL     OW27016   2.069   4.399  13.975 -0.1720 -0.1778  0.4066
 5128SOL    HW127017   2.054   4.345  13.897 -1.2661 -0.7956  1.0334
 5128SOL    HW227018   2.055   4.334  14.045  1.0110 -0.8492  0.0167
 5129SOL     OW27019   1.967   1.353   6.224 -0.3891  0.4935  0.3400
 5129SOL    HW127020   2.027   1.424   6.202 -0.8494  0.1701 -1.9018
 5129SOL    HW227021   1.958   1.304   6.143 -0.3413  3.6863 -1.5790
 5130SOL     OW27022   0.970   3.361   5.853 -0.2386 -0.3397  0.1911
 5130SOL    HW127023   0.876   3.371   5.865 -0.3536 -1.0679 -0.0820
 5130SOL    HW227024   0.974   3.268   5.876 -1.0871 -0.8167 -1.6525
 5131SOL     OW27025   4.453   2.250   3.197 -0.2445  0.0072  0.2118
 5131SOL    HW127026   4.511   2.274   3.270 -3.6705 -1.9310  3.5602
 5131SOL    HW227027   4.374   2.229   3.247 -0.8757  2.0867  0.0713
 5132SOL     OW27028   3.873   0.649  10.811  0.2580 -0.3102 -0.4747
 5132SOL    HW127029   3.935   0.673  10.742  0.1865  3.8353  0.9028
 5132SOL    HW227030   3.823   0.730  10.817  1.6083  0.6179 -1.6565
 5133SOL     OW27031   2.521   3.753   7.254 -0.1304  0.2664 -0.0346
 5133SOL    HW127032   2.607   3.742   7.294  0.6974  2.4282 -1.2211
 5133SOL    HW227033   2.509   3.674   7.202 -1.1509  0.0171  0.5670
 5134SOL     OW27034   3.837   0.933   7.649  0.2298  0.0131 -0.1056
 5134SOL    HW127035   3.914   0.891   7.688  0.9439 -1.1602 -2.7355
 5134SOL    HW227036   3.849   0.918   7.555  1.6705 -1.7031  0.3353
 5135SOL     OW27037   1.241   1.058   3.109 -0.0810 -0.1095 -0.1841
 5135SOL    HW127038   1.229   0.972   3.068  1.0675  0.4484 -1.6962
 5135SOL    HW227039   1.256   1.120   3.038 -2.4014  1.5380  0.7858
 5136SOL     OW27040   2.922   0.399   7.080 -0.2686 -0.1762  0.0360
 5136SOL    HW127041   2.990   0.356   7.028 -0.7231 -0.8161 -0.0308
 5136SOL    HW227042   2.975   0.470   7.115 -0.9835  1.3063 -1.9082
 5137SOL     OW27043   1.960   2.210  11.411  0.8519  0.4840 -0.0998
 5137SOL    HW127044   1.957   2.201  11.506 -1.0715 -0.7995 -0.2865
 5137SOL    HW227045   2.045   2.172  11.387  0.8198  0.4377 -0.1393
 5138SOL     OW27046   1.642   3.156   1.569 -0.1395 -0.2046  0.0656
 5138SOL    HW127047   1.654   3.184   1.659  0.2083 -1.3728  0.3771
 5138SOL    HW227048   1.588   3.220   1.521 -1.6735 -1.6518 -0.1676
 5139SOL     OW27049   2.353   4.298   5.254  0.0988 -0.4233 -0.5315
 5139SOL    HW127050   2.369   4.204   5.243  0.3695 -0.2648 -1.4463
 5139SOL    HW227051   2.351   4.323   5.162 -0.7591 -0.7517 -0.6099
 5140SOL     OW27052   3.079   0.255   6.906  0.3809 -0.4322 -0.0840
 5140SOL    HW127053   3.067   0.218   6.819  1.1632  3.4305 -1.8363
 5140SOL    HW227054   3.152   0.205   6.943  0.1483 -0.8139 -0.1495
 5141SOL     OW27055   3.990   1.640   6.248 -0.4989 -0.0640 -0.2456
 5141SOL    HW127056   4.038   1.570   6.204 -1.0494 -1.0883  0.8090
 5141SOL    HW227057   3.899   1.615   6.235 -0.3817  0.1023 -1.4529
 5142SOL     OW27058   3.421   2.669   8.838 -0.5492 -0.2237 -0.3829
 5142SOL    HW127059   3.366   2.742   8.813  0.2783  1.1110  1.7044
 5142SOL    HW227060   3.395   2.655   8.929 -1.4424  0.0298 -0.6019
 5143SOL     OW27061   0.602   1.223   6.109 -0.5362 -0.1231 -0.2992
 5143SOL    HW127062   0.572   1.139   6.145 -3.6186  2.1953  2.5693
 5143SOL    HW227063   0.532   1.288   6.109  1.2554  1.8050  1.2403
 5144SOL     OW27064   1.973   1.145   7.985  0.4579  0.2984 -0.5725
 5144SOL    HW127065   2.030   1.096   8.045 -0.9244 -1.2280 -0.5216
 5144SOL    HW227066   1.994   1.101   7.903 -1.4813  1.1927 -1.5378
 5145SOL     OW27067   4.719   1.546  10.244 -0.5293 -0.1793 -0.2551
 5145SOL    HW127068   4.639   1.542  10.190 -1.8027  0.9776  1.5533
 5145SOL    HW227069   0.025   1.473  10.202 -0.1662  0.7579 -1.4815
 5146SOL     OW27070   3.335   4.059   7.221  0.0221 -0.4104 -0.0962
 5146SOL    HW127071   3.351   3.975   7.179 -3.6754  1.0863 -4.5649
 5146SOL    HW227072   3.419   4.069   7.265 -0.4757  0.6971  0.6174
 5147SOL     OW27073   1.400   1.770   7.962 -0.4291  0.1089  0.7554
 5147SOL    HW127074   1.456   1.846   7.977  0.4718 -0.4548  0.3015
 5147SOL    HW227075   1.466   1.706   7.934 -1.7241 -0.9226  0.0484
 5148SOL     OW27076   4.552   1.260   7.962 -0.3229  0.4100 -0.9384
 5148SOL    HW127077   4.474   1.314   7.975 -0.3034  0.3432 -0.5410
 5148SOL    HW227078   4.620   1.323   7.942  1.6445 -1.9781 -1.8456
 5149SOL     OW27079   3.935   4.423   2.074 -0.4455  0.1424 -0.0399
 5149SOL    HW127080   3.863   4.434   2.011  0.1720  0.8576 -0.6303
 5149SOL    HW227081   4.008   4.451   2.019 -1.3122 -1.3647 -1.9400
 5150SOL     OW27082   2.148   1.278   9.082  0.6049  0.0009  0.4159
 5150SOL    HW127083   2.095   1.358   9.077 -1.3734 -1.2708  0.8854
 5150SOL    HW227084   2.220   1.311   9.136  0.5917 -0.9352  1.0199
 5151SOL     OW27085   1.133   2.418  11.680  0.7659 -0.2252 -0.5632
 5151SOL    HW127086   1.203   2.483  11.686  0.4836 -0.0620  1.0440
 5151SOL    HW227087   1.073   2.437  11.752  0.0998 -0.5067 -1.0390
 5152SOL     OW27088   4.258   1.384   5.884 -0.1829  0.1606  0.2473
 5152SOL    HW127089   4.242   1.289   5.890 -1.1812  0.2562 -0.9259
 5152SOL    HW227090   4.179   1.395   5.831  0.2373 -0.6403 -0.5481
 5153SOL     OW27091   3.232   4.187   3.641 -0.2305 -0.2942  0.5578
 5153SOL    HW127092   3.148   4.230   3.653  1.5320  3.3139 -0.0025
 5153SOL    HW227093   3.274   4.262   3.599 -0.2977 -0.6726 -0.1909
 5154SOL     OW27094   2.917   0.306  16.730 -0.4988 -0.0271 -0.0791
 5154SOL    HW127095   2.946   0.258  16.808  2.5461  0.7963 -0.7290
 5154SOL    HW227096   2.828   0.270  16.729  0.5417 -2.5828 -0.1919
 5155SOL     OW27097   3.997   2.438   8.780 -0.7229 -0.0229  0.4121
 5155SOL    HW127098   3.984   2.411   8.871 -1.9024  0.6131  0.4353
 5155SOL    HW227099   3.921   2.493   8.760 -1.0030  0.1230  1.8638
 5156SOL     OW27100   4.163   4.720   3.278  0.2770  0.1428 -0.1111
 5156SOL    HW127101   4.159   4.642   3.333  0.2538  0.3837  0.2340
 5156SOL    HW227102   4.072   0.010   3.288 -0.1529 -0.8288 -1.2960
 5157SOL     OW27103   2.290   4.101   5.871 -0.3159  0.3354  0.1524
 5157SOL    HW127104   2.268   4.194   5.861 -1.1741  0.1821  0.6026
 5157SOL    HW227105   2.211   4.068   5.829 -0.9475  1.6021  0.3315
 5158SOL     OW27106   0.561   1.614   6.357 -0.2963 -0.0811 -0.4065
 5158SOL    HW127107   0.626   1.627   6.287 -1.7607  0.5749 -1.6679
 5158SOL    HW227108   0.619   1.600   6.431 -1.4882 -0.3850  0.4580
 5159SOL     OW27109   4.195   4.643   8.600  0.0380 -0.5695  0.5742
 5159SOL    HW127110   4.284   4.654   8.566 -0.5089  0.8123 -0.3923
 5159SOL    HW227111   4.179   4.726   8.644 -0.9122 -0.2081 -0.4709
 5160SOL     OW27112   2.664   2.621   4.830  0.0477  0.1454  0.8257
 5160SOL    HW127113   2.657   2.542   4.777 -1.1526  0.7347  0.1048
 5160SOL    HW227114   2.573   2.649   4.828  0.1053  0.2464 -0.1599
 5161SOL     OW27115   2.452   1.344   7.056  0.3166 -0.0324  0.5710
 5161SOL    HW127116   2.416   1.284   7.122 -1.9619  0.0258 -0.6022
 5161SOL    HW227117   2.380   1.356   6.994  0.9336 -0.3457 -0.2099
 5162SOL     OW27118   0.685   3.094   2.904 -0.2554 -0.9130 -0.5823
 5162SOL    HW127119   0.721   3.064   2.821  2.3888  0.7248 -0.0174
 5162SOL    HW227120   0.682   3.188   2.890 -0.4371 -0.6288  1.3176
 5163SOL     OW27121   1.491   2.267   8.838  0.5477 -0.1050 -0.0997
 5163SOL    HW127122   1.486   2.327   8.913 -3.0719 -0.6362  0.0856
 5163SOL    HW227123   1.399   2.258   8.815  0.6311 -0.6357 -0.2243
 5164SOL     OW27124   0.087   1.991   1.929  0.2184  0.0203 -0.6446
 5164SOL    HW127125   0.180   2.012   1.935  0.2578 -0.0858 -0.9131
 5164SOL    HW227126   0.079   1.913   1.985 -0.3094 -0.7350 -1.7636
 5165SOL     OW27127   2.676   2.556   7.024  0.0255 -0.0936  0.5022
 5165SOL    HW127128   2.669   2.539   7.118 -0.3270  0.7759  0.6322
 5165SOL    HW227129   2.771   2.545   7.014  0.1845  1.2443  0.5928
 5166SOL     OW27130   1.250   2.195   6.285 -0.2407  0.0151  0.5125
 5166SOL    HW127131   1.300   2.259   6.235  0.5745 -1.1358 -0.1395
 5166SOL    HW227132   1.162   2.233   6.285  0.3094  1.2923  0.9821
 5167SOL     OW27133   1.452   3.997  12.394 -0.2626  0.4711  0.4181
 5167SOL    HW127134   1.386   4.009  12.325 -1.2837  4.1318  2.0487
 5167SOL    HW227135   1.443   4.077  12.446  0.3929  1.4188 -0.9206
 5168SOL     OW27136   2.440   4.131   6.327 -0.6445  0.2784  0.3234
 5168SOL    HW127137   2.435   4.209   6.271 -2.0596 -0.0388  0.0017
 5168SOL    HW227138   2.374   4.161   6.389 -0.9456 -2.7822  1.4760
 5169SOL     OW27139   3.749   0.787   3.153 -0.6331  0.5908  0.3630
 5169SOL    HW127140   3.709   0.709   3.193  0.0511  0.1661  0.2223
 5169SOL    HW227141   3.805   0.740   3.091 -0.2956 -0.5119  1.4910
 5170SOL     OW27142   3.248   1.493   5.689  0.7618 -0.3252 -0.7940
 5170SOL    HW127143   3.295   1.538   5.619 -0.9567  4.3243  1.0919
 5170SOL    HW227144   3.273   1.404   5.662  1.0534 -0.9256  1.5078
 5171SOL     OW27145   4.482   0.831  17.375 -0.1779  0.0156 -0.0464
 5171SOL    HW127146   4.567   0.803  17.341 -0.7413 -1.8866  0.0962
 5171SOL    HW227147   4.499   0.885  17.452 -0.6261  1.3125 -0.8581
 5172SOL     OW27148   0.371   4.672   7.301  0.5828 -0.1179 -0.2954
 5172SOL    HW127149   0.368   4.692   7.394 -0.4293  0.9135 -0.5502
 5172SOL    HW227150   0.410   0.011   7.262  0.7607 -0.7995 -1.4981
 5173SOL     OW27151   0.978   3.276   3.353 -0.1018  0.3949 -0.1984
 5173SOL    HW127152   0.897   3.317   3.382  0.6844  1.6181  0.2616
 5173SOL    HW227153   0.977   3.299   3.260 -1.3510 -0.8443 -0.4955
 5174SOL     OW27154   3.117   3.346   7.211  0.2930 -0.2987 -0.3303
 5174SOL    HW127155   3.179   3.300   7.155  0.9133  0.5376 -0.3209
 5174SOL    HW227156   3.121   3.433   7.171 -0.9269 -1.4084 -2.8823
 5175SOL     OW27157   3.658   4.200   4.574  0.6837  0.5478  0.4743
 5175SOL    HW127158   3.639   4.256   4.499 -2.1669 -1.4591 -0.2802
 5175SOL    HW227159   3.579   4.204   4.627  1.8385 -0.5128  2.2841
 5176SOL     OW27160   2.567   1.266   8.077  0.3202  0.1949  0.2873
 5176SOL    HW127161   2.653   1.299   8.050  1.3869 -2.0816  0.9256
 5176SOL    HW227162   2.560   1.304   8.165 -1.8463 -0.6647  0.4795
 5177SOL     OW27163   0.493   1.824   3.354  0.2014  0.0339 -0.0862
 5177SOL    HW127164   0.421   1.886   3.359  1.3018  1.2099  0.9854
 5177SOL    HW227165   0.443   1.742   3.354  0.1958  0.0431  0.9580
 5178SOL     OW27166   4.500   4.440  15.243 -0.3803  0.1041 -0.4912
 5178SOL    HW127167   4.445   4.517  15.232  2.9180  2.5463 -0.1129
 5178SOL    HW227168   4.441   4.369  15.219 -3.1147  1.7164  1.5227
 5179SOL     OW27169   2.882   4.619  10.419  0.2535 -0.3555 -0.2252
 5179SOL    HW127170   2.899   4.587  10.507  0.3359 -0.1695 -0.1727
 5179SOL    HW227171   2.821   4.691  10.440  2.9940  1.4469  1.5481
 5180SOL     OW27172   0.079   3.296  12.995 -0.1965  0.6177  0.3760
 5180SOL    HW127173   0.144   3.328  13.057  0.2396 -0.1869  0.3280
 5180SOL    HW227174   0.035   3.377  12.970 -0.2279 -0.7330 -3.8758
 5181SOL     OW27175   4.144   1.808   3.355  0.3015  0.0994 -0.4999
 5181SOL    HW127176   4.211   1.820   3.422  0.5564 -0.5722 -0.6339
 5181SOL    HW227177   4.065   1.839   3.400  0.8007  0.3421  0.2011
 5182SOL     OW27178   1.148   2.707   0.453  0.1566  0.0144  0.2568
 5182SOL    HW127179   1.061   2.712   0.414 -0.2977  0.1867  1.2912
 5182SOL    HW227180   1.197   2.777   0.410 -1.2087 -0.0028 -1.3225
 5183SOL     OW27181   1.519   4.333   7.772 -0.2228  0.0153 -0.2799
 5183SOL    HW127182   1.445   4.302   7.825  0.7152  0.1957  1.1558
 5183SOL    HW227183   1.478   4.368   7.693  0.9894 -1.0395 -1.3823
 5184SOL     OW27184   0.447   2.685   1.876 -0.6970 -0.0117  0.5480
 5184SOL    HW127185   0.376   2.705   1.814 -0.0100 -1.1763 -0.6235
 5184SOL    HW227186   0.403   2.608   1.913 -0.6548  0.6989  2.0600
 5185SOL     OW27187   3.480   2.240  16.165 -0.0735  0.3822 -0.1716
 5185SOL    HW127188   3.526   2.283  16.093  2.0514 -1.6972 -0.0835
 5185SOL    HW227189   3.493   2.309  16.230 -0.1468 -1.1048  1.4297
 5186SOL     OW27190   0.658   0.778   3.597 -0.2836 -0.3233 -0.0289
 5186SOL    HW127191   0.727   0.825   3.644 -0.2637  0.7713 -1.1403
 5186SOL    HW227192   0.641   0.851   3.537 -0.6807 -1.1704 -0.9521
 5187SOL     OW27193   3.417   4.087   1.259 -0.2534 -0.0151 -0.3430
 5187SOL    HW127194   3.456   4.001   1.267  2.6818  1.3513  0.0599
 5187SOL    HW227195   3.473   4.149   1.306 -0.6810 -1.4325  2.0077
 5188SOL     OW27196   2.357   0.379   8.941 -0.9849 -0.2087 -0.1502
 5188SOL    HW127197   2.327   0.311   9.002  0.6905 -1.5697 -0.8345
 5188SOL    HW227198   2.293   0.380   8.869 -0.0287  1.5297 -0.9627
 5189SOL     OW27199   0.412   4.737   9.162  0.1746 -0.7699 -0.1938
 5189SOL    HW127200   0.322   0.012   9.135 -0.6078 -0.4552  2.6007
 5189SOL    HW227201   0.400   4.704   9.250 -0.3234  0.5139  0.2253
 5190SOL     OW27202   3.265   3.260   4.780  0.0792 -0.0487  0.0599
 5190SOL    HW127203   3.241   3.190   4.718  2.2376  1.5673 -2.5828
 5190SOL    HW227204   3.334   3.315   4.744 -0.0943 -0.4645 -0.9037
 5191SOL     OW27205   1.310   0.304   4.182 -0.2532  0.5944 -0.1219
 5191SOL    HW127206   1.241   0.252   4.224 -0.3328 -0.2036 -1.2316
 5191SOL    HW227207   1.332   0.366   4.252  3.0041 -0.9006  0.1353
 5192SOL     OW27208   0.638   0.372   3.627  0.0112  0.3614 -0.1802
 5192SOL    HW127209   0.591   0.431   3.686 -0.8927 -1.9397  1.4166
 5192SOL    HW227210   0.579   0.300   3.604 -0.6426  0.5436  0.9303
 5193SOL     OW27211   0.754   0.574   9.512 -0.3339 -0.0356 -0.1409
 5193SOL    HW127212   0.807   0.495   9.502 -1.0101 -0.4586 -0.4036
 5193SOL    HW227213   0.800   0.627   9.448 -1.5424 -0.6428 -1.5081
 5194SOL     OW27214   2.515   3.213   2.960  0.1511  0.1183 -0.4006
 5194SOL    HW127215   2.604   3.245   2.949 -0.1542  1.4663  1.1281
 5194SOL    HW227216   2.519   3.137   2.901 -0.0639 -0.7112  0.6730
 5195SOL     OW27217   1.208   1.578  16.508  0.3283 -0.1887 -0.0930
 5195SOL    HW127218   1.173   1.613  16.589  1.1975  3.0131 -1.0683
 5195SOL    HW227219   1.141   1.605  16.445  0.7989  3.3513  0.9503
 5196SOL     OW27220   3.172   4.600  10.635  0.2130  0.4423 -0.2920
 5196SOL    HW127221   3.144   4.669  10.575 -0.8849  0.2102 -0.0502
 5196SOL    HW227222   3.140   4.634  10.719 -0.9686  3.7737 -2.0635
 5197SOL     OW27223   0.258   1.929   6.139 -0.1763  0.2904  0.2572
 5197SOL    HW127224   0.234   1.988   6.210 -0.7171 -1.2765  1.3732
 5197SOL    HW227225   0.302   1.857   6.184  1.0309  0.9235  0.0996
 5198SOL     OW27226   3.966   1.152  12.945  0.2285 -0.0387 -0.1875
 5198SOL    HW127227   3.991   1.237  12.983  0.4138 -0.8324  1.4759
 5198SOL    HW227228   4.037   1.149  12.880 -0.0469 -0.4921 -0.4667
 5199SOL     OW27229   0.577   0.255   7.568 -0.0512  0.1004 -0.4020
 5199SOL    HW127230   0.607   0.211   7.648 -1.7740  1.8913  1.2280
 5199SOL    HW227231   0.482   0.260   7.581  0.0460 -2.9734  1.4954
 5200SOL     OW27232   4.652   0.870  16.709  0.1373  0.1392 -0.0769
 5200SOL    HW127233   4.592   0.796  16.721 -1.2160  1.0885 -1.0049
 5200SOL    HW227234   4.733   0.819  16.713  0.6885  0.8848 -1.7479
 5201SOL     OW27235   3.634   0.756  16.513  0.0945  0.1143 -0.1152
 5201SOL    HW127236   3.592   0.680  16.474  1.6794 -1.1432  0.6641
 5201SOL    HW227237   3.638   0.719  16.601 -0.0737  1.9222  0.6668
 5202SOL     OW27238   0.013   4.438   9.179  0.1492 -0.0078  0.0596
 5202SOL    HW127239   4.682   4.501   9.194  0.1904  0.0708 -0.0790
 5202SOL    HW227240   0.013   4.429   9.084 -0.2170 -1.1210  0.1745
 5203SOL     OW27241   1.183   2.143   3.869 -0.5199  0.3302 -0.4388
 5203SOL    HW127242   1.208   2.233   3.890 -0.3642 -0.1845  1.6503
 5203SOL    HW227243   1.179   2.147   3.774 -2.0142 -0.1499 -0.3855
 5204SOL     OW27244   1.905   0.591   4.775 -0.0710  0.2240 -0.4611
 5204SOL    HW127245   1.818   0.573   4.739  0.0987 -0.7224 -0.3972
 5204SOL    HW227246   1.962   0.517   4.751 -1.1717 -0.5091 -0.8152
 5205SOL     OW27247   0.478   3.283  12.494 -0.0607 -1.1978  0.0747
 5205SOL    HW127248   0.556   3.230  12.478  0.1968 -0.6624 -0.4427
 5205SOL    HW227249   0.486   3.356  12.433  0.3570  0.8459  2.5960
 5206SOL     OW27250   2.292   1.350   6.822  0.1630  0.6640 -0.1891
 5206SOL    HW127251   2.266   1.426   6.770  2.3587  0.9048 -0.9336
 5206SOL    HW227252   2.341   1.301   6.755 -1.7615  0.9900 -1.8421
 5207SOL     OW27253   3.407   0.238   1.711 -0.1412  0.4830  0.2527
 5207SOL    HW127254   3.329   0.237   1.766 -0.4294 -0.6293 -0.1894
 5207SOL    HW227255   3.371   0.285   1.636 -0.4004 -0.0974  0.0190
 5208SOL     OW27256   0.575   0.437   6.984 -0.2047 -0.7061  0.6909
 5208SOL    HW127257   0.511   0.380   6.940 -1.7519  0.4750  1.4250
 5208SOL    HW227258   0.596   0.497   6.913  2.5226 -1.8295  0.5448
 5209SOL     OW27259   0.952   4.508   5.158 -0.2371  0.0682  0.6343
 5209SOL    HW127260   0.859   4.493   5.174 -0.0385  1.0586  2.7159
 5209SOL    HW227261   0.953   4.509   5.062 -0.4501  0.8843  0.6472
 5210SOL     OW27262   4.594   0.335   3.556 -0.1343 -0.4745 -0.0523
 5210SOL    HW127263   4.591   0.307   3.647  0.4027 -0.5822 -0.0678
 5210SOL    HW227264   4.574   0.258   3.502 -1.4669  0.0235 -0.2599
 5211SOL     OW27265   4.655   1.060   8.415 -0.3918 -0.4568 -0.3524
 5211SOL    HW127266   4.674   1.034   8.505 -1.5209 -4.7843 -1.3658
 5211SOL    HW227267   4.707   1.140   8.416 -2.6255  0.9694  2.0768
 5212SOL     OW27268   4.023   1.783  15.005 -0.1315 -0.5905  0.0120
 5212SOL    HW127269   3.955   1.753  14.944 -0.8756 -0.4900  0.7901
 5212SOL    HW227270   4.052   1.863  14.960  0.6050 -1.1590 -0.5120
 5213SOL     OW27271   0.464   1.424   5.102 -0.4586  0.1201  0.1468
 5213SOL    HW127272   0.479   1.377   5.020  1.1474  0.9787 -0.0525
 5213SOL    HW227273   0.375   1.452   5.081 -1.3950 -1.8177  1.5527
 5214SOL     OW27274   1.048   3.089  16.095  0.1480  0.3416  0.1758
 5214SOL    HW127275   1.069   3.148  16.167 -1.6794 -1.8656  2.5462
 5214SOL    HW227276   1.002   3.014  16.134 -0.6485  0.7310 -0.0046
 5215SOL     OW27277   2.430   3.916   4.613  0.2936 -0.0685 -0.2506
 5215SOL    HW127278   2.495   3.847   4.603  1.0781  0.9741 -2.0890
 5215SOL    HW227279   2.361   3.879   4.669 -0.5781 -0.3241 -1.5158
 5216SOL     OW27280   2.769   0.040   3.121 -0.1973 -0.2981 -0.0491
 5216SOL    HW127281   2.752   0.083   3.037 -1.5546 -2.2960 -0.7946
 5216SOL    HW227282   2.801   0.109   3.179 -1.0741 -0.2354  0.3594
 5217SOL     OW27283   2.677   0.194  13.843 -0.1854  0.0844  0.3374
 5217SOL    HW127284   2.685   0.264  13.778 -0.8443  0.0889  0.2650
 5217SOL    HW227285   2.716   0.244  13.915 -0.9168  2.7810 -1.1153
 5218SOL     OW27286   3.863   0.070   6.692 -0.1595 -0.6926  0.1941
 5218SOL    HW127287   3.851   0.033   6.779  1.9997 -3.5137 -0.7196
 5218SOL    HW227288   3.949   0.112   6.693 -0.7140  0.4395  0.3224
 5219SOL     OW27289   0.745   1.541   1.405 -0.0952  0.4535 -0.1586
 5219SOL    HW127290   0.737   1.454   1.443 -1.7600 -0.3798 -2.4060
 5219SOL    HW227291   0.822   1.538   1.348  0.9319 -1.3472  1.3379
 5220SOL     OW27292   4.619   4.568   6.103  0.7259 -0.0290  0.0460
 5220SOL    HW127293   4.607   4.565   6.008  1.2604 -1.9430  0.0513
 5220SOL    HW227294   4.538   4.616   6.121  1.1671 -0.1013  2.1933
 5221SOL     OW27295   0.370   3.504   7.756 -0.5584  0.7076  0.1090
 5221SOL    HW127296   0.357   3.547   7.840 -0.5367  2.8683 -0.9675
 5221SOL    HW227297   0.296   3.541   7.707 -1.8534 -0.5623  1.1219
 5222SOL     OW27298   2.147   0.306  17.338 -0.0941 -0.4435 -0.2485
 5222SOL    HW127299   2.203   0.231  17.319  0.7797 -0.2109  1.3915
 5222SOL    HW227300   2.132   0.340  17.250  1.3685  3.4213  0.9997
 5223SOL     OW27301   2.906   0.115   1.622 -0.0481 -0.2868  0.5596
 5223SOL    HW127302   2.901   0.196   1.673  0.5558  1.0958 -1.5859
 5223SOL    HW227303   2.820   0.072   1.614 -0.6360  0.8640  0.6386
 5224SOL     OW27304   3.158   2.250  17.442 -0.1295  0.9110  0.3253
 5224SOL    HW127305   3.072   2.219  17.413  0.6636 -2.3020  1.3615
 5224SOL    HW227306   3.138   2.298  17.522 -0.1614  2.1342 -0.4200
 5225SOL     OW27307   3.692   1.040   7.836 -0.0106  0.4464 -0.3452
 5225SOL    HW127308   3.683   0.961   7.888  3.3024 -0.4673 -1.1260
 5225SOL    HW227309   3.749   1.022   7.761 -0.1198  0.3533 -0.4057
 5226SOL     OW27310   2.249   2.444   8.005  0.3558 -0.2376 -0.1184
 5226SOL    HW127311   2.245   2.384   8.080 -1.6018 -0.2383 -0.2337
 5226SOL    HW227312   2.344   2.458   7.998  0.3799  1.0035  2.6062
 5227SOL     OW27313   0.395   3.214  10.952  0.8419  0.3958  0.2445
 5227SOL    HW127314   0.412   3.122  10.932  2.1335  0.4025  1.3178
 5227SOL    HW227315   0.301   3.210  10.965  0.9325  0.0154  0.7711
 5228SOL     OW27316   2.319   3.058   2.361  0.0000  0.1055 -0.1625
 5228SOL    HW127317   2.388   3.069   2.426  0.1101  0.9090 -0.4130
 5228SOL    HW227318   2.242   3.050   2.416  1.0095  0.5966  1.3193
 5229SOL     OW27319   1.656   1.234  17.608 -0.6396  0.0656  0.5666
 5229SOL    HW127320   1.715   1.254  17.536  0.9533  1.5536  2.2675
 5229SOL    HW227321   1.570   1.227  17.569 -0.6458 -3.4720  1.2184
 5230SOL     OW27322   2.815   3.664   7.852 -0.3311 -0.7816  0.0203
 5230SOL    HW127323   2.740   3.610   7.877 -0.2660 -0.2668  1.2958
 5230SOL    HW227324   2.781   3.750   7.828  3.4585  0.7395  0.1212
 5231SOL     OW27325   0.461   0.262   9.183  0.3311  0.1564  0.3967
 5231SOL    HW127326   0.467   0.280   9.089  0.4797  1.6401  0.6891
 5231SOL    HW227327   0.437   0.170   9.183 -0.8154  0.4758 -3.4095
 5232SOL     OW27328   0.690   0.535   8.798 -0.0998 -0.3328  0.0324
 5232SOL    HW127329   0.686   0.628   8.777  1.7996 -0.9889 -3.3291
 5232SOL    HW227330   0.766   0.526   8.856  0.7674  3.8896 -0.4967
 5233SOL     OW27331   3.268   2.967   8.228  0.6439  0.1099 -0.8938
 5233SOL    HW127332   3.214   3.044   8.211  1.4133  1.0676  0.9748
 5233SOL    HW227333   3.260   2.911   8.151  1.3273  1.0368 -1.6184
 5234SOL     OW27334   2.686   3.665   5.020 -0.4620  0.1437 -0.0871
 5234SOL    HW127335   2.672   3.695   5.110  1.3314  0.2337  0.1664
 5234SOL    HW227336   2.647   3.577   5.026  2.7440 -1.2145  0.6198
 5235SOL     OW27337   0.641   3.670   7.443 -0.5564  0.2306  0.0346
 5235SOL    HW127338   0.553   3.701   7.466 -1.4216 -1.1681 -1.3496
 5235SOL    HW227339   0.652   3.608   7.516  2.3239 -0.2332 -0.8200
 5236SOL     OW27340   3.289   3.546   2.283 -0.3587  0.3523  0.1224
 5236SOL    HW127341   3.290   3.639   2.304 -0.3588  0.6414 -1.1195
 5236SOL    HW227342   3.282   3.516   2.373  0.4895 -1.3117 -0.3603
 5237SOL     OW27343   4.466   4.603  17.126 -0.2118  0.6568 -0.3461
 5237SOL    HW127344   4.393   4.660  17.102  0.2676  1.3259 -0.2098
 5237SOL    HW227345   4.453   4.534  17.061 -0.0837 -0.3203  0.6724
 5238SOL     OW27346   2.441   4.583   3.554 -0.0542  0.6939 -0.3915
 5238SOL    HW127347   2.415   4.605   3.464 -1.7677  1.6697  0.3431
 5238SOL    HW227348   2.447   4.487   3.546  0.2568  0.8175 -1.6475
 5239SOL     OW27349   0.955   0.193   6.338 -0.0741 -0.6596  0.1332
 5239SOL    HW127350   0.887   0.127   6.354 -1.1198  0.1689 -0.8962
 5239SOL    HW227351   0.965   0.229   6.426  0.5653  0.5339 -0.4355
 5240SOL     OW27352   0.028   2.573   2.593  0.1262 -0.2282 -0.1403
 5240SOL    HW127353   0.032   2.657   2.548 -0.7462 -0.5681 -0.8580
 5240SOL    HW227354   0.018   2.619   2.677 -0.4001 -2.2934  0.9295
 5241SOL     OW27355   1.342   3.680   6.839 -0.2613 -0.6354 -0.2403
 5241SOL    HW127356   1.391   3.606   6.805 -0.2785  1.0842 -3.9681
 5241SOL    HW227357   1.262   3.665   6.789 -0.4066 -2.2010  0.4591
 5242SOL     OW27358   0.582   3.892  12.960  0.3734 -0.1368  0.5198
 5242SOL    HW127359   0.613   3.964  13.014  0.8720 -0.5201  0.7478
 5242SOL    HW227360   0.651   3.826  12.961 -0.1495 -0.7166 -1.1856
 5243SOL     OW27361   3.194   3.468  10.842  0.3524  0.0010 -0.6696
 5243SOL    HW127362   3.183   3.526  10.918  0.7612 -0.0554 -0.5679
 5243SOL    HW227363   3.113   3.421  10.857  1.0219 -0.5876  1.1142
 5244SOL     OW27364   0.830   1.943   9.303  0.2913 -0.4512  0.2301
 5244SOL    HW127365   0.831   2.004   9.377 -0.1259  0.7700 -0.7622
 5244SOL    HW227366   0.752   1.893   9.328 -0.1546 -1.1370 -2.6010
 5245SOL     OW27367   0.920   3.314   5.062 -0.4115  0.8093 -0.1667
 5245SOL    HW127368   1.004   3.276   5.085 -1.6563 -0.6860  1.8423
 5245SOL    HW227369   0.933   3.345   4.972 -0.6654 -1.1304 -0.8701
 5246SOL     OW27370   4.735   1.661   7.200 -0.2919  0.1031  0.1061
 5246SOL    HW127371   4.712   1.579   7.157 -1.5987  0.2993  0.4355
 5246SOL    HW227372   4.648   1.701   7.199 -0.0798  0.5688 -0.0630
 5247SOL     OW27373   0.077   4.672   6.255  0.6345  0.3337  0.1793
 5247SOL    HW127374   0.010   4.689   6.321 -1.6400  1.2506 -2.3447
 5247SOL    HW227375   0.025   4.621   6.192  0.9882 -0.1643  0.2909
 5248SOL     OW27376   0.592   2.808   7.755  0.5376  0.3182 -0.1028
 5248SOL    HW127377   0.665   2.789   7.697 -1.3764  0.5050 -2.5924
 5248SOL    HW227378   0.627   2.890   7.791  0.1532  1.1835 -1.6697
 5249SOL     OW27379   1.943   3.077   3.491 -0.5748  0.0824 -0.3164
 5249SOL    HW127380   1.903   2.999   3.529 -2.1391  1.0853  0.0970
 5249SOL    HW227381   1.887   3.104   3.418 -0.6186 -1.0070 -0.6853
 5250SOL     OW27382   3.990   1.294   6.738 -0.4260  0.5462  0.2877
 5250SOL    HW127383   3.926   1.255   6.798  1.7957 -0.2957  2.0989
 5250SOL    HW227384   4.064   1.300   6.798 -0.9949 -0.2826  1.0667
 5251SOL     OW27385   0.977   4.496   4.896  1.0998  0.2787 -0.2692
 5251SOL    HW127386   0.923   4.426   4.861 -0.1297 -0.4067  2.9511
 5251SOL    HW227387   1.055   4.472   4.847  0.7520 -0.9576 -0.2127
 5252SOL     OW27388   3.480   4.207   8.432 -0.0921  0.0944  0.2173
 5252SOL    HW127389   3.510   4.121   8.402 -1.1388 -0.3648  0.4946
 5252SOL    HW227390   3.543   4.263   8.387  0.1106  1.2501  1.9475
 5253SOL     OW27391   3.438   1.751  11.840  0.5884 -0.0045 -0.3263
 5253SOL    HW127392   3.515   1.716  11.884 -0.1743 -0.2585  0.8102
 5253SOL    HW227393   3.468   1.755  11.749  0.0865 -0.0166 -0.4932
 5254SOL     OW27394   2.462   0.542  13.724  0.9702 -0.6593  0.2323
 5254SOL    HW127395   2.545   0.504  13.697  0.3870 -1.9395  0.2585
 5254SOL    HW227396   2.467   0.557  13.818 -1.7536  2.3080 -0.0780
 5255SOL     OW27397   1.163   0.652   0.412  0.0167 -0.1361 -0.4651
 5255SOL    HW127398   1.108   0.665   0.335  0.2836  1.0092 -0.4509
 5255SOL    HW227399   1.095   0.634   0.478  2.3224 -1.8057  1.4462
 5256SOL     OW27400   4.510   1.020  13.131 -0.3174  0.2345  0.1509
 5256SOL    HW127401   4.573   1.052  13.066 -2.0536  1.2529 -1.0389
 5256SOL    HW227402   4.429   1.027  13.080 -1.0195 -2.1857  0.9387
 5257SOL     OW27403   1.943   4.226   6.123  0.6775 -0.0168 -0.3575
 5257SOL    HW127404   1.992   4.253   6.046  0.3244  0.0206 -0.5701
 5257SOL    HW227405   1.929   4.310   6.167 -2.0189  0.7813 -2.7374
 5258SOL     OW27406   1.461   4.584  11.889  0.1906 -0.0160  0.3846
 5258SOL    HW127407   1.530   4.574  11.824  0.0027  0.1521  0.1582
 5258SOL    HW227408   1.508   4.621  11.964 -0.5723 -0.3738  1.0345
 5259SOL     OW27409   0.501   2.695   8.850  0.0193 -0.0166 -0.0422
 5259SOL    HW127410   0.424   2.689   8.793 -0.1901 -1.4394  0.3795
 5259SOL    HW227411   0.484   2.615   8.901  1.2014 -1.2693 -1.6068
 5260SOL     OW27412   2.861   3.263   4.134  0.0417 -0.6011 -0.3015
 5260SOL    HW127413   2.910   3.194   4.179  1.1640 -0.2431 -0.9719
 5260SOL    HW227414   2.933   3.306   4.088 -0.9517 -1.9627 -3.1599
 5261SOL     OW27415   2.020   2.829   6.058 -0.0230 -0.0616  0.2864
 5261SOL    HW127416   2.112   2.854   6.064 -0.4902  1.2490  1.8352
 5261SOL    HW227417   2.001   2.814   6.150 -1.5581  0.7161  0.1017
 5262SOL     OW27418   0.183   1.025   4.027 -0.6336  0.0338  0.6104
 5262SOL    HW127419   0.121   0.954   4.043 -1.8055  0.9454  0.1152
 5262SOL    HW227420   0.234   0.991   3.953 -1.8703  1.2305 -0.8010
 5263SOL     OW27421   3.184   3.662   6.041  0.6452 -0.5921 -0.2647
 5263SOL    HW127422   3.114   3.726   6.049  1.9564  0.6110  1.6301
 5263SOL    HW227423   3.229   3.707   5.970  1.3988 -0.7128  0.1341
 5264SOL     OW27424   0.373   0.020   5.433 -0.0793  0.2372  0.2091
 5264SOL    HW127425   0.387   0.026   5.527 -0.4333 -0.7907  0.3303
 5264SOL    HW227426   0.278   0.016   5.428 -0.1665 -0.1915  2.1906
 5265SOL     OW27427   0.710   0.184   0.828  0.2468 -0.0701  0.0746
 5265SOL    HW127428   0.732   0.179   0.735  0.3463 -2.6292  0.2459
 5265SOL    HW227429   0.732   0.273   0.855  0.5135  0.4254 -1.7539
 5266SOL     OW27430   3.962   3.666   0.906 -0.2193 -0.4013 -0.2225
 5266SOL    HW127431   4.035   3.639   0.849 -0.7970  0.4219 -1.3535
 5266SOL    HW227432   3.882   3.623   0.878 -0.5220 -0.4253  0.6790
 5267SOL     OW27433   1.000   0.151  11.691 -0.3596 -0.2508  0.1081
 5267SOL    HW127434   1.001   0.197  11.775  2.9948  1.1370 -0.6843
 5267SOL    HW227435   0.981   0.068  11.735  0.3018 -0.6802 -0.4146
 5268SOL     OW27436   4.564   0.677   6.586 -0.5377 -0.2890  0.1550
 5268SOL    HW127437   4.626   0.605   6.601 -2.4121 -1.3651  2.8175
 5268SOL    HW227438   4.496   0.643   6.529  1.1373 -1.5378 -1.1122
 5269SOL     OW27439   1.676   1.664   9.648 -0.0170 -0.3198  0.1697
 5269SOL    HW127440   1.742   1.707   9.702 -0.1049 -0.4614  0.3934
 5269SOL    HW227441   1.728   1.590   9.617  1.3800 -0.5808  3.0772
 5270SOL     OW27442   4.705   0.017   3.308 -0.2145 -0.1215 -0.7127
 5270SOL    HW127443   0.036   4.706   3.267  1.8301  3.0080 -1.0272
 5270SOL    HW227444   4.628   4.698   3.303  0.1757 -0.6218 -0.8944
 5271SOL     OW27445   0.624   4.177  15.242  0.2071  0.4457  0.0617
 5271SOL    HW127446   0.667   4.160  15.158 -0.8540 -1.1776 -0.1620
 5271SOL    HW227447   0.595   4.089  15.266 -0.5797  1.0712  1.3344
 5272SOL     OW27448   4.661   3.700   6.215 -0.3182 -0.2200  0.4254
 5272SOL    HW127449   4.640   3.610   6.241  0.9623 -0.2881  1.2303
 5272SOL    HW227450   0.013   3.693   6.188 -0.2197 -1.5882  1.1063
 5273SOL     OW27451   3.615   4.069   3.462 -0.1914 -0.2566 -0.0824
 5273SOL    HW127452   3.701   4.039   3.492  0.1478  1.0721  0.2633
 5273SOL    HW227453   3.569   4.070   3.546  0.0796  1.5075  0.0400
 5274SOL     OW27454   3.180   3.091  12.463  0.5845 -0.0180 -0.0784
 5274SOL    HW127455   3.234   3.013  12.467  3.8449  2.1551 -1.4509
 5274SOL    HW227456   3.169   3.108  12.557  1.7185  0.1701  0.0236
 5275SOL     OW27457   3.861   0.763  14.041 -0.4507  0.0503  0.1172
 5275SOL    HW127458   3.900   0.818  13.973 -1.0253 -0.3061 -0.4976
 5275SOL    HW227459   3.781   0.750  13.991 -0.0230 -1.5102 -0.1395
 5276SOL     OW27460   4.620   4.188  12.533  0.0635 -0.6636 -0.2653
 5276SOL    HW127461   4.610   4.283  12.535 -0.0830 -0.6106 -3.2223
 5276SOL    HW227462   4.636   4.174  12.626  0.6444  1.5057 -0.0251
 5277SOL     OW27463   4.520   3.079   1.952 -0.7951  0.0030  0.7782
 5277SOL    HW127464   4.585   3.144   1.980 -0.3834 -0.2353  0.3682
 5277SOL    HW227465   4.553   3.009   2.009  2.5176  1.3238  0.5146
 5278SOL     OW27466   2.645   2.644  14.386 -0.2588  0.3264 -0.1276
 5278SOL    HW127467   2.569   2.643  14.445 -0.8984  1.7428 -0.9308
 5278SOL    HW227468   2.691   2.562  14.405 -1.4758 -0.1581  0.7584
 5279SOL     OW27469   2.166   3.786  12.361 -0.3189  0.0960  0.1183
 5279SOL    HW127470   2.211   3.724  12.304 -2.5085  0.6120 -2.1624
 5279SOL    HW227471   2.104   3.726  12.402  0.7020  1.8145  4.1708
 5280SOL     OW27472   0.078   4.326   3.909 -0.3050  0.0588 -0.1785
 5280SOL    HW127473   0.160   4.294   3.947 -0.4054 -0.0337 -0.0395
 5280SOL    HW227474   0.082   4.304   3.817  0.1660 -1.2323  0.1568
 5281SOL     OW27475   3.004   1.551  12.351 -0.2406 -0.3119  0.2823
 5281SOL    HW127476   2.987   1.470  12.303  0.2189 -0.5651  0.5494
 5281SOL    HW227477   3.077   1.591  12.304  0.4731 -0.1892  1.5066
 5282SOL     OW27478   3.867   3.701  15.277 -0.4732  0.7019  0.3317
 5282SOL    HW127479   3.894   3.667  15.192 -1.6145 -1.2254  0.7407
 5282SOL    HW227480   3.936   3.765  15.294  0.2453 -0.3456  1.3410
 5283SOL     OW27481   1.635   0.080   8.691  0.1506  0.2743 -0.0964
 5283SOL    HW127482   1.683   0.141   8.635 -1.6189  3.1598  1.5512
 5283SOL    HW227483   1.693   0.004   8.692 -1.5509 -1.0420 -1.6870
 5284SOL     OW27484   0.619   4.292  12.513  0.0946  0.1986  0.1050
 5284SOL    HW127485   0.703   4.248  12.502 -0.1329 -0.5284  1.2785
 5284SOL    HW227486   0.556   4.241  12.462 -0.7736  0.9507  0.4265
 5285SOL     OW27487   4.272   3.541   4.711  0.5100  0.1493 -0.4094
 5285SOL    HW127488   4.282   3.447   4.724  1.2855  0.1800 -0.7530
 5285SOL    HW227489   4.346   3.549   4.650 -0.9134  1.7995 -1.9311
 5286SOL     OW27490   3.887   2.222   3.073 -0.8390  0.1753  0.5711
 5286SOL    HW127491   3.911   2.178   2.992 -0.8246  1.0698  0.0918
 5286SOL    HW227492   3.793   2.233   3.056 -0.6125  0.6043 -0.4194
 5287SOL     OW27493   4.141   0.665   3.796 -0.4050 -0.2842 -0.1371
 5287SOL    HW127494   4.099   0.739   3.752 -0.2118 -0.3499 -0.4308
 5287SOL    HW227495   4.058   0.621   3.813  0.7408 -2.4338 -0.1377
 5288SOL     OW27496   2.752   2.098   0.684 -0.4971 -0.4871  0.2089
 5288SOL    HW127497   2.716   2.015   0.652  0.0316 -0.1453 -1.2268
 5288SOL    HW227498   2.671   2.149   0.685 -0.0848  0.1800 -0.3645
 5289SOL     OW27499   2.459   1.907   3.694 -0.1141  0.2794 -0.2468
 5289SOL    HW127500   2.510   1.869   3.622 -0.7687  0.0629 -0.5915
 5289SOL    HW227501   2.492   1.848   3.762 -5.0906  0.2361  2.1549
 5290SOL     OW27502   4.583   1.510   3.265 -0.6272 -0.0727  0.3134
 5290SOL    HW127503   4.491   1.517   3.290 -0.6708 -0.4921  0.2641
 5290SOL    HW227504   4.565   1.511   3.171 -1.8233  0.7506  0.5476
 5291SOL     OW27505   0.982   2.707   3.319  0.3066 -0.5000 -0.1050
 5291SOL    HW127506   0.966   2.776   3.384  1.1924 -0.7847  0.4182
 5291SOL    HW227507   1.046   2.657   3.370  0.7778  0.1103 -0.0979
 5292SOL     OW27508   4.690   0.820   6.886  0.3402 -0.2548  0.0275
 5292SOL    HW127509   0.013   0.820   6.814  0.5847 -0.5803  0.2388
 5292SOL    HW227510   4.659   0.911   6.880  0.3068 -0.2359  0.5048
 5293SOL     OW27511   0.475   0.184  15.554  0.1078 -0.5968 -0.4023
 5293SOL    HW127512   0.426   0.250  15.602 -0.0924 -1.3187  0.3902
 5293SOL    HW227513   0.562   0.223  15.545  0.0596 -0.8038 -1.8192
 5294SOL     OW27514   1.584   2.784   6.324 -0.7585  0.5745 -0.1207
 5294SOL    HW127515   1.558   2.798   6.233 -2.3089  0.2851  0.2809
 5294SOL    HW227516   1.666   2.734   6.316  0.2636  2.1143  0.6517
 5295SOL     OW27517   0.374   0.842   8.147  0.1856 -0.3316 -0.0154
 5295SOL    HW127518   0.384   0.765   8.203  1.3206  0.8602  1.4133
 5295SOL    HW227519   0.286   0.837   8.109  1.0825  0.0733 -2.1597
 5296SOL     OW27520   4.504   2.179   8.814  0.4201  0.3740  0.7067
 5296SOL    HW127521   4.493   2.104   8.755  2.4404 -0.1965  1.0581
 5296SOL    HW227522   4.513   2.253   8.753 -0.3728  0.0284  0.1739
 5297SOL     OW27523   2.375   0.651  15.449 -0.3342 -0.0921  0.2411
 5297SOL    HW127524   2.390   0.741  15.477 -1.6172  0.4513 -0.8438
 5297SOL    HW227525   2.407   0.596  15.521 -0.6305  1.9454  1.9219
 5298SOL     OW27526   3.901   1.135   5.881  0.3152  0.1140 -0.0784
 5298SOL    HW127527   3.952   1.208   5.844 -0.3688  0.5337 -0.1967
 5298SOL    HW227528   3.816   1.179   5.878  0.5668  0.3930 -2.9381
 5299SOL     OW27529   4.073   1.812   0.224  0.0789 -0.3637  0.1991
 5299SOL    HW127530   4.109   1.731   0.187 -2.9294 -1.7757  0.3789
 5299SOL    HW227531   4.063   1.789   0.316  0.4372  1.7679  0.7760
 5300SOL     OW27532   1.498   2.127   3.480 -0.1971 -0.2628  0.0588
 5300SOL    HW127533   1.522   2.111   3.572 -2.8843  0.8576  0.9503
 5300SOL    HW227534   1.473   2.037   3.461  0.9712 -0.6999  0.5676
 5301SOL     OW27535   0.736   3.847   9.669 -0.5594  0.3072 -0.0385
 5301SOL    HW127536   0.748   3.775   9.607  0.8907  2.0545 -1.8004
 5301SOL    HW227537   0.790   3.825   9.745 -1.6664 -2.4691 -0.0634
 5302SOL     OW27538   2.315   3.919  10.054 -0.6079  0.0033  0.3403
 5302SOL    HW127539   2.379   3.852  10.077  0.0287  0.6346  0.4097
 5302SOL    HW227540   2.354   3.993  10.101 -1.8868  0.4475  0.7122
 5303SOL     OW27541   2.240   4.293   6.394  0.0037  0.5324 -0.4256
 5303SOL    HW127542   2.280   4.357   6.452 -0.4076  1.4929 -1.2117
 5303SOL    HW227543   2.187   4.346   6.336  0.0177 -0.6741 -1.5574
 5304SOL     OW27544   4.446   2.716  16.672 -0.4330  0.0545 -0.7383
 5304SOL    HW127545   4.496   2.644  16.711 -1.6359 -0.6218 -0.4446
 5304SOL    HW227546   4.414   2.753  16.754  0.1284 -1.2099  0.0583
 5305SOL     OW27547   2.613   4.417   7.865 -0.0770  0.1783  0.4925
 5305SOL    HW127548   2.554   4.470   7.919 -0.9192 -0.7563  0.4978
 5305SOL    HW227549   2.635   4.341   7.919 -0.8701 -0.7581 -0.5035
 5306SOL     OW27550   3.340   1.410   2.220  0.4687 -0.2524  0.0015
 5306SOL    HW127551   3.375   1.499   2.227 -0.4969  0.0576  0.9350
 5306SOL    HW227552   3.418   1.355   2.225  0.1904 -0.7207 -0.7154
 5307SOL     OW27553   0.309   3.650   7.045 -0.6020 -0.1098 -0.1124
 5307SOL    HW127554   0.256   3.690   6.976  0.7839 -0.4514 -1.3841
 5307SOL    HW227555   0.354   3.583   6.993  2.0353  2.9425 -1.8167
 5308SOL     OW27556   0.653   1.921   3.579  0.2348  0.3448  0.3647
 5308SOL    HW127557   0.598   1.900   3.503 -1.6689  4.0691  0.6868
 5308SOL    HW227558   0.589   1.906   3.648  1.9512  0.1170  1.8931
 5309SOL     OW27559   4.447   1.632   4.817 -0.0855 -0.1110  0.3476
 5309SOL    HW127560   4.402   1.716   4.826 -0.4849 -0.3181  0.2887
 5309SOL    HW227561   4.376   1.575   4.848  1.0793 -2.5709 -1.5915
 5310SOL     OW27562   2.949   3.859  17.437 -0.0627  0.7712 -0.1878
 5310SOL    HW127563   2.987   3.789  17.384 -0.3858 -0.7179  1.5296
 5310SOL    HW227564   2.885   3.893  17.375 -0.6836  0.7963  0.4784
 5311SOL     OW27565   1.581   2.834  12.112  0.3881  0.1152  0.4211
 5311SOL    HW127566   1.652   2.846  12.049 -0.9408  0.4419 -1.0370
 5311SOL    HW227567   1.589   2.742  12.139  0.6556  0.1343  0.4017
 5312SOL     OW27568   2.657   3.091   6.529  0.5414  0.4097 -0.2362
 5312SOL    HW127569   2.598   3.073   6.602 -0.1721 -2.0018 -1.4178
 5312SOL    HW227570   2.715   3.016   6.539  0.4330  0.6630  2.2274
 5313SOL     OW27571   0.714   3.255   5.207 -0.0043  0.2763 -0.0622
 5313SOL    HW127572   0.778   3.305   5.156  1.0123 -1.5121 -0.5439
 5313SOL    HW227573   0.753   3.170   5.186 -2.1741 -1.1099  1.5219
 5314SOL     OW27574   0.941   0.008   3.875 -0.0127 -0.3367 -0.2369
 5314SOL    HW127575   0.927   4.721   3.966 -2.2720  0.7883 -0.2677
 5314SOL    HW227576   0.876   0.073   3.849  1.2459  0.6366 -0.9450
 5315SOL     OW27577   0.845   4.306   9.469  0.1217 -0.3433  0.4198
 5315SOL    HW127578   0.877   4.255   9.543 -0.6629 -0.9009  0.3752
 5315SOL    HW227579   0.776   4.252   9.432 -0.0996  0.5732 -0.4915
 5316SOL     OW27580   4.484   0.722  12.861 -0.0386 -0.2555  0.0576
 5316SOL    HW127581   4.404   0.673  12.844 -1.1982  1.4922  0.4233
 5316SOL    HW227582   4.453   0.812  12.865 -0.6182 -0.3719 -1.7980
 5317SOL     OW27583   1.286   3.526   1.712  0.0873 -0.1240  0.6209
 5317SOL    HW127584   1.244   3.485   1.637  0.4714 -0.0612  0.3710
 5317SOL    HW227585   1.252   3.463   1.776 -4.9954  2.4387  0.4169
 5318SOL     OW27586   3.751   2.273   9.274  0.5233  0.2811 -0.1234
 5318SOL    HW127587   3.677   2.214   9.263 -1.0940  2.2365  0.3864
 5318SOL    HW227588   3.815   2.206   9.299  0.4050  0.8422  1.6933
 5319SOL     OW27589   0.834   2.472  13.004  0.0995 -0.4410 -0.4158
 5319SOL    HW127590   0.788   2.553  13.027 -1.2872 -1.0314 -1.1050
 5319SOL    HW227591   0.832   2.438  13.094  2.7651  0.3772 -0.0589
 5320SOL     OW27592   4.076   2.208   7.443  0.0448  0.6455 -0.0708
 5320SOL    HW127593   4.136   2.236   7.374  2.0826 -3.7065 -0.1103
 5320SOL    HW227594   4.055   2.290   7.487 -1.2030  0.2617  0.0513
 5321SOL     OW27595   0.455   2.612   6.780  0.5207 -0.0326  0.1318
 5321SOL    HW127596   0.488   2.697   6.752 -1.1790  0.3735 -0.6373
 5321SOL    HW227597   0.468   2.561   6.699 -0.5109 -0.5936  0.3272
 5322SOL     OW27598   0.279   0.019   6.045 -0.1674  0.3657 -0.7846
 5322SOL    HW127599   0.207   4.730   6.101 -1.4113  1.3847 -1.8779
 5322SOL    HW227600   0.268   0.114   6.050 -2.3755  0.1481 -1.8004
 5323SOL     OW27601   1.640   2.264   4.280 -0.5081  0.0649  0.1204
 5323SOL    HW127602   1.663   2.310   4.361  1.5588  1.4701 -1.2614
 5323SOL    HW227603   1.715   2.284   4.224 -0.8983  2.3011  0.3679
 5324SOL     OW27604   0.485   3.132   5.380 -0.7441 -0.5492 -0.1095
 5324SOL    HW127605   0.535   3.169   5.307  0.2821 -1.2448  0.2454
 5324SOL    HW227606   0.544   3.151   5.453 -0.1479 -0.4662 -0.6070
 5325SOL     OW27607   1.515   0.377   0.218  0.1095  0.2087 -0.5341
 5325SOL    HW127608   1.455   0.450   0.230  0.0797 -0.3108  2.5691
 5325SOL    HW227609   1.478   0.312   0.278  3.1241  0.5040  1.6652
 5326SOL     OW27610   2.004   1.653   5.920  0.1415  0.2381  0.0251
 5326SOL    HW127611   1.982   1.731   5.869  2.3176  0.1222 -1.1048
 5326SOL    HW227612   1.920   1.612   5.939  0.1999  0.3172  0.4724
 5327SOL     OW27613   0.869   0.194  10.206 -0.0977  0.5885  0.3597
 5327SOL    HW127614   0.905   0.274  10.168  0.2239  0.0021 -0.5588
 5327SOL    HW227615   0.848   0.131  10.137  1.2151 -3.1508  3.3430
 5328SOL     OW27616   3.887   0.392   6.926 -0.3745  0.3965  0.1651
 5328SOL    HW127617   3.967   0.342   6.945 -0.7505 -0.2884 -0.0755
 5328SOL    HW227618   3.912   0.476   6.965 -2.0408  1.0807 -0.2777
 5329SOL     OW27619   2.475   2.289   8.479  0.3288 -0.2070  0.1980
 5329SOL    HW127620   2.383   2.310   8.499  0.4514  1.2281 -0.7914
 5329SOL    HW227621   2.488   2.311   8.387  0.6085 -0.6113  0.1407
 5330SOL     OW27622   4.193   3.531   2.893 -0.3123  0.2493  0.0987
 5330SOL    HW127623   4.129   3.576   2.947  0.6322  0.7339  0.8196
 5330SOL    HW227624   4.135   3.476   2.841  1.1986 -0.9513 -0.3144
 5331SOL     OW27625   0.588   4.212   9.308 -0.0323 -0.7842  0.0625
 5331SOL    HW127626   0.610   4.141   9.247 -1.1151 -0.8327 -0.2714
 5331SOL    HW227627   0.577   4.282   9.244 -1.9577 -0.9116  0.2514
 5332SOL     OW27628   3.283   3.446   8.556 -0.0080 -0.0353 -0.2026
 5332SOL    HW127629   3.324   3.529   8.532 -2.4765  1.1418 -0.3502
 5332SOL    HW227630   3.305   3.441   8.649 -1.8267  0.9912  0.2924
 5333SOL     OW27631   3.626   0.771   7.336 -0.3274  0.2565  0.0461
 5333SOL    HW127632   3.633   0.676   7.343  1.2161  0.4514  1.1066
 5333SOL    HW227633   3.584   0.802   7.416 -0.4527 -0.5274  0.2823
 5334SOL     OW27634   0.008   3.325   9.054 -0.3953 -0.2088 -0.3508
 5334SOL    HW127635   4.659   3.359   9.070 -1.0029 -2.0066  0.0493
 5334SOL    HW227636   0.046   3.325   9.141 -0.8880 -1.2226 -0.1427
 5335SOL     OW27637   4.122   3.983   3.252 -0.2347  0.1343 -0.3558
 5335SOL    HW127638   4.086   3.896   3.269  0.7366  0.2763  2.3679
 5335SOL    HW227639   4.209   3.961   3.220 -0.1405  0.4494 -0.3204
 5336SOL     OW27640   3.065   4.440   1.082  0.7156  0.7427  0.3836
 5336SOL    HW127641   3.103   4.379   1.146 -0.0277 -1.9994 -1.7909
 5336SOL    HW227642   2.973   4.415   1.087  0.5140  1.5986  0.9609
 5337SOL     OW27643   3.062   1.507   3.484  0.0573  0.2690 -0.1647
 5337SOL    HW127644   3.135   1.547   3.438  0.5450 -0.2644  0.1428
 5337SOL    HW227645   3.093   1.420   3.509 -1.1304 -0.9899 -3.0251
 5338SOL     OW27646   3.145   1.827  13.860 -0.4190 -0.5371  0.3515
 5338SOL    HW127647   3.198   1.873  13.795 -0.2476  0.1221  0.9524
 5338SOL    HW227648   3.168   1.885  13.933 -2.6497 -2.5769  2.6759
 5339SOL     OW27649   0.946   2.281   7.512 -0.0159  0.2380  0.0121
 5339SOL    HW127650   0.903   2.245   7.590 -1.5064  0.2247 -0.7972
 5339SOL    HW227651   0.909   2.369   7.500 -1.7666 -0.3197  1.2335
 5340SOL     OW27652   2.196   0.283   3.371  0.5229  0.0039  0.4471
 5340SOL    HW127653   2.217   0.261   3.280 -1.2541  0.9472 -0.1707
 5340SOL    HW227654   2.188   0.378   3.365  4.1942  0.3650  1.2423
 5341SOL     OW27655   3.513   2.036   5.978  0.1225 -0.1469  0.3884
 5341SOL    HW127656   3.504   1.999   5.890  0.5505 -0.9714  0.6900
 5341SOL    HW227657   3.510   2.129   5.956 -1.7278 -0.2955 -0.0257
 5342SOL     OW27658   2.471   0.515  15.644  0.2506  0.0700 -0.0891
 5342SOL    HW127659   2.499   0.425  15.662 -1.1826 -0.4005 -0.1859
 5342SOL    HW227660   2.421   0.531  15.725 -0.6417  0.4413 -0.7148
 5343SOL     OW27661   2.643   1.173   2.661 -0.4881 -0.9398 -0.1651
 5343SOL    HW127662   2.607   1.135   2.741 -1.1305  1.8917  0.8677
 5343SOL    HW227663   2.728   1.207   2.689 -1.1318 -0.0621  0.7157
 5344SOL     OW27664   2.272   1.007   5.840  0.5192  0.3901 -0.3029
 5344SOL    HW127665   2.302   0.917   5.856  1.8142  0.4529 -2.2906
 5344SOL    HW227666   2.195   1.012   5.896  1.0524 -0.4143  0.5099
 5345SOL     OW27667   2.924   3.405   6.656  0.1151 -0.6216  0.1296
 5345SOL    HW127668   2.839   3.447   6.668 -0.1416 -0.8036 -1.0678
 5345SOL    HW227669   2.901   3.327   6.607 -2.1781 -0.8966  1.6499
 5346SOL     OW27670   1.683   1.121   6.470  0.8329 -0.4815 -0.3553
 5346SOL    HW127671   1.737   1.049   6.438 -0.3975 -1.4970 -0.1581
 5346SOL    HW227672   1.741   1.196   6.459  0.2166 -0.2241 -2.0099
 5347SOL     OW27673   4.184   2.894   3.937  0.2397 -0.3281  0.2267
 5347SOL    HW127674   4.230   2.875   4.019  1.5119  0.7299 -0.2555
 5347SOL    HW227675   4.257   2.914   3.879 -0.1805  2.0681  0.5229
 5348SOL     OW27676   2.052   2.145  15.237 -0.4442 -0.2072  0.3385
 5348SOL    HW127677   2.040   2.162  15.330 -1.0678 -0.6627  0.3470
 5348SOL    HW227678   1.960   2.154  15.210 -1.0430 -3.5136  1.1840
 5349SOL     OW27679   1.674   3.546   3.044 -0.2050  0.1085 -0.2154
 5349SOL    HW127680   1.615   3.513   3.111 -0.5735 -1.0901 -1.1250
 5349SOL    HW227681   1.663   3.487   2.970  3.5991 -1.2767  0.3258
 5350SOL     OW27682   1.524   3.924   3.009 -0.8590 -0.0962  0.2201
 5350SOL    HW127683   1.486   3.985   2.946 -2.5488 -0.2125  1.1094
 5350SOL    HW227684   1.606   3.897   2.967 -2.2912 -1.1282 -1.8735
 5351SOL     OW27685   4.589   4.580   2.412 -0.3992  0.4670  0.3180
 5351SOL    HW127686   4.526   4.525   2.365  2.4659 -1.7443 -0.9880
 5351SOL    HW227687   4.572   4.665   2.370 -0.6913  0.4295  0.3656
 5352SOL     OW27688   3.956   2.597   6.903 -0.1174 -0.4721  0.1034
 5352SOL    HW127689   3.959   2.679   6.854 -0.8037 -0.4327  0.1323
 5352SOL    HW227690   4.045   2.565   6.892 -0.9582 -2.3240 -1.3807
 5353SOL     OW27691   2.931   0.503   0.220  0.1228  0.5169  1.1211
 5353SOL    HW127692   3.004   0.564   0.226  2.9563 -2.9067  1.4338
 5353SOL    HW227693   2.855   0.561   0.205  0.1650  0.5705  1.1150
 5354SOL     OW27694   1.970   1.839   8.797  0.0047 -0.0579 -0.1211
 5354SOL    HW127695   2.003   1.911   8.851 -0.9794  0.5787 -0.3748
 5354SOL    HW227696   1.897   1.810   8.851 -0.8230  0.4709 -0.9507
 5355SOL     OW27697   4.076   4.574   2.917  0.1303 -0.0415  0.0851
 5355SOL    HW127698   4.002   4.537   2.868 -1.6586  0.2499  2.5331
 5355SOL    HW227699   4.151   4.549   2.864 -2.3478 -1.2158 -2.8971
 5356SOL     OW27700   3.734   1.857  14.620  0.4572  0.5358 -0.0190
 5356SOL    HW127701   3.784   1.891  14.693  1.1351 -0.1097 -0.1850
 5356SOL    HW227702   3.806   1.861  14.557  2.1369 -1.7466  1.7597
 5357SOL     OW27703   2.005   1.770  11.533  0.2485  0.2823  0.0681
 5357SOL    HW127704   2.067   1.704  11.501 -0.6739 -0.4205 -0.2658
 5357SOL    HW227705   1.924   1.730  11.503  0.2936  0.0841  0.2076
 5358SOL     OW27706   0.043   3.118   2.821 -0.2598 -0.1205  0.3204
 5358SOL    HW127707   4.723   3.181   2.862  0.0883 -0.1064  0.8109
 5358SOL    HW227708   0.087   3.079   2.897  0.5327 -0.1354 -0.1516
 5359SOL     OW27709   1.398   0.883   2.177 -0.4388  0.0511 -0.3950
 5359SOL    HW127710   1.360   0.901   2.091  1.6317  1.8828 -0.9124
 5359SOL    HW227711   1.376   0.961   2.228 -1.5504  0.1609 -1.0583
 5360SOL     OW27712   3.011   0.525   8.562  0.4860  0.2753  0.2344
 5360SOL    HW127713   2.936   0.483   8.520 -0.3430  0.9962  1.0049
 5360SOL    HW227714   2.985   0.512   8.653 -1.1816  0.1611 -0.2648
 5361SOL     OW27715   1.879   0.537  17.448  0.3042 -0.3476 -0.4951
 5361SOL    HW127716   1.790   0.531  17.413  0.3286  4.0001 -1.3868
 5361SOL    HW227717   1.888   0.446  17.474 -0.1142  0.0684  1.1333
 5362SOL     OW27718   4.553   1.055  16.886  0.4463 -0.5470 -0.0998
 5362SOL    HW127719   4.475   1.018  16.927  0.5681 -0.2424  0.3982
 5362SOL    HW227720   4.578   0.992  16.819  1.5581  0.4700 -0.6431
 5363SOL     OW27721   2.584   0.271  15.715 -0.2079 -0.3212  0.4649
 5363SOL    HW127722   2.574   0.178  15.699  2.2845 -0.6355  0.7057
 5363SOL    HW227723   2.541   0.277  15.801 -0.8042  0.1095  0.1384
 5364SOL     OW27724   0.503   0.207   4.175  0.1263  0.0830 -0.4183
 5364SOL    HW127725   0.534   0.162   4.096  1.0391  0.6257 -0.3727
 5364SOL    HW227726   0.444   0.278   4.151 -0.8128 -0.9731 -1.1943
 5365SOL     OW27727   2.430   3.494   7.133  0.0977  0.3704 -0.0376
 5365SOL    HW127728   2.353   3.453   7.095  0.6975 -0.3724 -0.4511
 5365SOL    HW227729   2.483   3.429   7.179  1.2405  0.3938 -1.3334
 5366SOL     OW27730   4.577   4.589   5.277  0.2678  0.1451 -0.2386
 5366SOL    HW127731   4.615   4.505   5.250  0.9519  0.4997 -0.3765
 5366SOL    HW227732   4.502   4.599   5.219  0.2609  0.3791 -0.1860
 5367SOL     OW27733   1.403   2.630   2.485 -0.3061  0.4755 -0.0607
 5367SOL    HW127734   1.383   2.610   2.577  2.5455  1.6501  0.8323
 5367SOL    HW227735   1.449   2.548   2.466 -0.4552  0.2907  0.3808
 5368SOL     OW27736   4.474   3.679   0.427  0.1688  0.1690 -0.0634
 5368SOL    HW127737   4.536   3.619   0.385  1.1539  0.2594  1.2831
 5368SOL    HW227738   4.472   3.751   0.363  1.3557  0.2729  0.0224
 5369SOL     OW27739   4.021   2.645   6.167 -0.3968  0.8613 -0.0360
 5369SOL    HW127740   3.996   2.563   6.124 -0.4147  1.2305 -0.7183
 5369SOL    HW227741   3.953   2.663   6.232 -0.8675  1.9964 -0.8639
 5370SOL     OW27742   2.365   0.770   6.256  0.0754 -0.1811 -0.0547
 5370SOL    HW127743   2.456   0.794   6.272 -0.5386  1.3691  1.1092
 5370SOL    HW227744   2.376   0.692   6.201 -1.8148 -0.4075 -0.1136
 5371SOL     OW27745   2.995   3.439   3.321 -0.9048  0.5702  0.6343
 5371SOL    HW127746   3.069   3.480   3.365 -0.1189 -2.0905  1.7923
 5371SOL    HW227747   3.037   3.389   3.250  1.1159 -0.9277  2.8977
 5372SOL     OW27748   3.055   1.325  11.550 -0.1176 -0.2083  0.5630
 5372SOL    HW127749   3.067   1.275  11.468  1.0604  0.8851  0.0794
 5372SOL    HW227750   3.139   1.369  11.560 -0.9608  0.9253  2.4852
 5373SOL     OW27751   3.179   1.075   4.271  0.0929  0.4647  0.1101
 5373SOL    HW127752   3.170   1.167   4.247 -1.5817  0.5387  0.9601
 5373SOL    HW227753   3.242   1.087   4.342  0.3128  0.7414 -0.1352
 5374SOL     OW27754   2.775   4.532   5.728 -0.3739 -0.4607 -0.4265
 5374SOL    HW127755   2.853   4.584   5.749  1.1639 -3.7009  1.9059
 5374SOL    HW227756   2.796   4.526   5.635  0.8178  0.5043 -0.2379
 5375SOL     OW27757   0.827   1.996   7.417  0.1191  0.2273 -0.0255
 5375SOL    HW127758   0.908   2.047   7.420  0.7489 -0.8279  0.9108
 5375SOL    HW227759   0.787   2.045   7.345  0.8893  1.2194  0.2240
 5376SOL     OW27760   2.222   1.275  16.446  0.1826  0.0045  0.2414
 5376SOL    HW127761   2.287   1.312  16.507  1.0846  1.3943 -1.5635
 5376SOL    HW227762   2.283   1.259  16.374  0.4259 -1.5982  0.8008
 5377SOL     OW27763   4.512   3.947   4.257  0.7554 -0.1316  0.3416
 5377SOL    HW127764   4.510   3.901   4.173 -0.5936 -0.6673  0.6674
 5377SOL    HW227765   4.583   4.010   4.243  1.1742 -0.6086  0.2937
 5378SOL     OW27766   1.363   4.226  13.101  0.3210 -0.1204 -0.0349
 5378SOL    HW127767   1.452   4.192  13.108  0.4789  0.2631 -0.1705
 5378SOL    HW227768   1.302   4.153  13.089 -0.0582  0.2983 -0.7171
 5379SOL     OW27769   3.914   4.421   8.998  0.0309 -0.3001 -0.2868
 5379SOL    HW127770   3.881   4.479   9.066  3.2198  1.4760 -0.2278
 5379SOL    HW227771   3.872   4.339   9.023 -1.0759  0.4472  0.2638
 5380SOL     OW27772   4.158   0.744   9.359 -0.0478 -0.0697  0.0207
 5380SOL    HW127773   4.199   0.753   9.273 -0.2926  0.1406 -0.0725
 5380SOL    HW227774   4.108   0.824   9.365 -0.1031  0.1724 -3.2815
 5381SOL     OW27775   3.449   3.078   6.818  0.3072 -0.1006  0.5062
 5381SOL    HW127776   3.440   3.111   6.729  0.8463  0.2905  0.5951
 5381SOL    HW227777   3.539   3.108   6.834 -0.1046  2.9870 -2.8047
 5382SOL     OW27778   3.740   0.714  14.281  0.1073 -0.7853 -0.3907
 5382SOL    HW127779   3.661   0.752  14.244 -0.6019  1.6359  3.5993
 5382SOL    HW227780   3.793   0.713  14.202  2.8494  1.8570  1.4036
 5383SOL     OW27781   3.276   3.812   5.846  0.5008 -0.0270  0.4841
 5383SOL    HW127782   3.366   3.786   5.825  0.4527 -0.5774  0.9529
 5383SOL    HW227783   3.264   3.892   5.794 -0.8704 -1.7257 -1.8086
 5384SOL     OW27784   0.350   2.011   6.970 -0.2221  0.4301 -0.5024
 5384SOL    HW127785   0.312   2.094   6.999  0.3598  1.1249 -1.7206
 5384SOL    HW227786   0.328   1.954   7.044 -0.2218  2.0900  0.7630
 5385SOL     OW27787   1.503   1.271   8.026  0.5011 -0.8927  0.1480
 5385SOL    HW127788   1.503   1.219   8.106 -0.3818  0.2501  0.8892
 5385SOL    HW227789   1.409   1.282   8.014  0.6354 -0.2515 -0.3686
 5386SOL     OW27790   1.226   1.802   9.601  0.4851 -0.5055 -0.0868
 5386SOL    HW127791   1.321   1.814   9.602  0.8194 -3.2392  0.7622
 5386SOL    HW227792   1.188   1.882   9.638  1.9265 -0.3185  1.0331
 5387SOL     OW27793   3.178   3.413  15.222 -0.2663  0.4700  0.4449
 5387SOL    HW127794   3.186   3.345  15.288 -0.1893  0.5653  0.5342
 5387SOL    HW227795   3.265   3.450  15.205  0.2735  0.1887  2.6257
 5388SOL     OW27796   0.300   2.964   7.683 -0.0351  0.0424  0.4554
 5388SOL    HW127797   0.321   2.980   7.591 -2.5050 -0.3793 -0.1897
 5388SOL    HW227798   0.334   3.043   7.724 -1.1147  0.6104  0.2381
 5389SOL     OW27799   1.264   4.039   3.261 -0.3675 -0.0546 -0.0787
 5389SOL    HW127800   1.274   4.093   3.340 -2.3154 -0.3876  0.4106
 5389SOL    HW227801   1.290   4.099   3.191  1.6608 -0.9507 -0.0872
 5390SOL     OW27802   3.679   1.950   0.046  0.5932  0.3494 -0.3595
 5390SOL    HW127803   3.610   1.916   0.103 -0.2356  2.1501 -0.3198
 5390SOL    HW227804   3.648   2.036   0.020  0.4409 -0.1344 -1.7895
 5391SOL     OW27805   3.565   1.298   6.175 -0.5402 -0.0224 -0.7682
 5391SOL    HW127806   3.660   1.311   6.178 -0.1904 -2.4969 -1.0316
 5391SOL    HW227807   3.572   1.205   6.197  0.3706 -0.2571 -2.0176
 5392SOL     OW27808   4.013   2.132   4.293  0.3907  0.0818  0.6815
 5392SOL    HW127809   3.926   2.173   4.291  1.6957  2.9913  2.5486
 5392SOL    HW227810   4.005   2.059   4.354  0.3690  0.8871  1.6359
 5393SOL     OW27811   1.240   3.503   6.194  0.0698  0.4095 -0.7802
 5393SOL    HW127812   1.228   3.470   6.283  1.2121  0.8596 -0.4659
 5393SOL    HW227813   1.318   3.558   6.199 -0.1018  0.7667 -1.9437
 5394SOL     OW27814   3.748   0.693   6.745 -0.1945 -0.1873 -0.7290
 5394SOL    HW127815   3.753   0.634   6.820  1.3679  2.3614  1.1854
 5394SOL    HW227816   3.686   0.647   6.688 -2.2203  0.4488  0.9909
 5395SOL     OW27817   2.366   4.200  17.655  0.2577  0.5472  0.2591
 5395SOL    HW127818   2.290   4.226  17.707  0.7376 -0.6962  1.5649
 5395SOL    HW227819   2.336   4.144  17.584 -1.0556 -0.5158  1.6577
 5396SOL     OW27820   1.625   1.754   7.690  0.0704  0.1850  0.4649
 5396SOL    HW127821   1.546   1.764   7.637 -0.0533  2.7430  1.1268
 5396SOL    HW227822   1.674   1.679   7.658 -1.6717 -1.3811  1.4742
 5397SOL     OW27823   3.940   3.989   4.081 -0.0593 -0.0571  0.0978
 5397SOL    HW127824   4.002   3.963   4.013 -0.7303  0.9601 -0.9152
 5397SOL    HW227825   3.861   3.957   4.037 -1.2017  0.4544  1.7583
 5398SOL     OW27826   2.136   3.398   6.334 -0.0310  0.5817 -0.4011
 5398SOL    HW127827   2.049   3.428   6.306 -1.2225 -0.9683  1.6377
 5398SOL    HW227828   2.154   3.317   6.286 -1.2222 -0.4525  0.8778
 5399SOL     OW27829   2.198   0.768   9.302  0.0930 -0.2348 -0.4016
 5399SOL    HW127830   2.109   0.800   9.312 -0.3552 -1.7293  0.3457
 5399SOL    HW227831   2.205   0.690   9.357 -0.5182 -1.7447 -2.4753
 5400SOL     OW27832   3.595   2.020  16.294 -0.1351  0.2159  0.0776
 5400SOL    HW127833   3.608   1.943  16.239  0.6232  0.8285 -0.6029
 5400SOL    HW227834   3.554   2.080  16.233  0.4929 -0.0201 -0.5774
 5401SOL     OW27835   2.893   2.073   4.409  0.3997 -0.1441 -0.0875
 5401SOL    HW127836   2.873   2.049   4.500  1.2817 -2.2305 -0.4466
 5401SOL    HW227837   2.841   2.013   4.356  0.4858 -1.0255  0.8201
 5402SOL     OW27838   3.630   1.417   7.717 -0.1617  0.5950 -0.0273
 5402SOL    HW127839   3.594   1.456   7.637  0.6225 -0.8519 -1.0682
 5402SOL    HW227840   3.668   1.343   7.670 -0.7784 -0.8331  1.7293
 5403SOL     OW27841   1.411   3.481   9.789 -0.2213  0.5831  0.0237
 5403SOL    HW127842   1.437   3.401   9.835  1.6372  0.8102 -0.6465
 5403SOL    HW227843   1.498   3.518   9.773  0.7357 -0.3383  3.0858
 5404SOL     OW27844   2.847   0.630   4.771 -0.7921  0.0589 -0.6250
 5404SOL    HW127845   2.895   0.628   4.688  0.0728  0.5278 -0.1343
 5404SOL    HW227846   2.878   0.704   4.824 -1.3273 -0.8391  0.9293
 5405SOL     OW27847   3.986   4.590   8.448 -0.3545  0.8281  0.3007
 5405SOL    HW127848   4.064   4.601   8.502 -0.5560  1.4936  0.4577
 5405SOL    HW227849   3.962   4.680   8.428 -1.9975  0.1221 -0.8607
 5406SOL     OW27850   0.254   0.450   5.641  0.1205  0.1208  0.6992
 5406SOL    HW127851   0.296   0.475   5.559  1.0509 -0.7440  0.9154
 5406SOL    HW227852   0.214   0.365   5.625  1.2255 -0.3035  0.2060
 5407SOL     OW27853   1.348   2.249   2.032 -0.2851 -0.0933 -0.6936
 5407SOL    HW127854   1.424   2.269   2.087 -1.3144  0.8192  0.3730
 5407SOL    HW227855   1.283   2.271   2.098 -0.6040 -2.3926 -0.2505
 5408SOL     OW27856   3.173   0.081  16.020 -0.1562  0.2826 -0.4207
 5408SOL    HW127857   3.154   0.155  15.964  0.1405  0.4403 -0.3133
 5408SOL    HW227858   3.208   0.115  16.102 -1.1836  1.9513 -0.6797
 5409SOL     OW27859   0.774   2.086   0.230 -0.0826  0.0992 -0.2341
 5409SOL    HW127860   0.695   2.060   0.183  0.1388 -1.3961  0.2162
 5409SOL    HW227861   0.738   2.097   0.318 -1.4028 -0.1363 -0.7530
 5410SOL     OW27862   3.023   2.509  11.594  1.0771  0.0119  0.7342
 5410SOL    HW127863   2.965   2.481  11.664  1.7547  1.6978  1.9473
 5410SOL    HW227864   2.997   2.599  11.576  1.3182 -0.0207  0.1974
 5411SOL     OW27865   0.314   3.271   6.396 -0.0425 -0.4862 -0.0846
 5411SOL    HW127866   0.310   3.207   6.325  2.9066 -1.6153  0.7529
 5411SOL    HW227867   0.336   3.358   6.363 -1.0335  0.5621  2.0435
 5412SOL     OW27868   0.913   3.039   2.638 -0.5120 -0.0502 -0.4436
 5412SOL    HW127869   0.913   2.976   2.710 -0.1217 -0.8947 -1.1758
 5412SOL    HW227870   0.885   2.986   2.564 -0.6063  2.1993 -2.0125
 5413SOL     OW27871   1.055   4.440   8.671  0.0575  0.1937 -0.5148
 5413SOL    HW127872   1.056   4.495   8.750  0.7346 -1.4814  0.6408
 5413SOL    HW227873   1.110   4.497   8.618 -0.1721  2.4186  1.6440
 5414SOL     OW27874   4.638   0.411   5.429  0.2884 -1.0185  0.1850
 5414SOL    HW127875   4.630   0.320   5.456 -0.6393 -0.7107  0.9520
 5414SOL    HW227876   4.584   0.416   5.350 -2.0557  0.5533  1.9141
 5415SOL     OW27877   0.632   2.240   5.977  0.2383 -0.1006  0.5145
 5415SOL    HW127878   0.700   2.247   6.044  1.5616 -2.9501 -0.5197
 5415SOL    HW227879   0.616   2.146   5.973  0.2465 -0.0844  0.1301
 5416SOL     OW27880   0.382   4.032   3.746  0.0022  0.0598  0.2631
 5416SOL    HW127881   0.428   3.969   3.689  0.1345 -1.6984  2.3015
 5416SOL    HW227882   0.300   4.049   3.701 -0.4216 -1.0243  0.6158
 5417SOL     OW27883   2.790   0.289   5.647  0.2441 -0.1298  0.0110
 5417SOL    HW127884   2.726   0.290   5.575 -2.4577 -2.2545  2.3605
 5417SOL    HW227885   2.730   0.283   5.722  0.6582 -0.5988  0.3047
 5418SOL     OW27886   1.426   0.010   2.382  0.2455 -0.5206  0.3840
 5418SOL    HW127887   1.380   0.002   2.298 -0.1430 -0.1983  0.5671
 5418SOL    HW227888   1.367   0.072   2.425  2.7118  1.6451  0.6507
 5419SOL     OW27889   0.088   0.622  16.627 -0.2109  0.3146 -0.3145
 5419SOL    HW127890   0.014   0.652  16.576  0.5566  3.2294  0.2892
 5419SOL    HW227891   0.130   0.708  16.626  1.6972 -0.5739  1.5695
 5420SOL     OW27892   3.195   4.387   7.848  0.0487 -0.6641 -0.6809
 5420SOL    HW127893   3.226   4.297   7.836 -2.5244 -1.7718  1.0880
 5420SOL    HW227894   3.266   4.441   7.884  1.0371 -1.9080 -0.7408
 5421SOL     OW27895   1.229   0.545   5.510 -0.3600 -0.3951 -0.4044
 5421SOL    HW127896   1.299   0.560   5.446  2.3301  1.8335  3.1401
 5421SOL    HW227897   1.190   0.632   5.511  1.0713  0.2024  1.7828
 5422SOL     OW27898   1.412   0.475   5.695  0.0029 -0.3473  0.3529
 5422SOL    HW127899   1.356   0.509   5.625 -0.8517 -1.0968  0.6857
 5422SOL    HW227900   1.349   0.412   5.729 -2.3834  1.0391 -1.5050
 5423SOL     OW27901   4.131   4.332   4.395 -0.4267 -0.5802  0.1021
 5423SOL    HW127902   4.091   4.290   4.471 -1.2535  2.3727  1.2908
 5423SOL    HW227903   4.141   4.257   4.336  1.7353 -0.2740  0.0698
 5424SOL     OW27904   1.623   2.890   8.188  0.8005 -0.4750  1.1935
 5424SOL    HW127905   1.634   2.983   8.212 -0.0146  0.1138 -0.7132
 5424SOL    HW227906   1.707   2.875   8.144  0.7121 -1.7108  1.4554
 5425SOL     OW27907   0.518   3.228   7.425 -0.3276  0.2517 -0.2504
 5425SOL    HW127908   0.598   3.271   7.455  0.3108  1.0786 -3.1326
 5425SOL    HW227909   0.470   3.215   7.507  0.5151  1.0152  0.3581
 5426SOL     OW27910   1.647   1.331   2.937  0.2203 -0.3056  0.6148
 5426SOL    HW127911   1.613   1.356   3.023 -0.6323  1.4531 -0.2359
 5426SOL    HW227912   1.704   1.259   2.965 -0.1881 -0.8881 -0.0435
 5427SOL     OW27913   1.497   2.994  14.569 -0.0135  0.0411 -0.3310
 5427SOL    HW127914   1.591   3.015  14.571  0.0682 -0.0548 -2.8498
 5427SOL    HW227915   1.494   2.938  14.491 -0.9003  0.8669 -0.8845
 5428SOL     OW27916   1.854   0.175   5.942  0.0974 -0.0637 -0.0240
 5428SOL    HW127917   1.852   0.245   6.007  3.2604  1.2267 -1.3088
 5428SOL    HW227918   1.787   0.212   5.883  2.3248  0.1401 -2.4062
 5429SOL     OW27919   3.661   3.822  12.306 -0.0493 -0.5695 -0.4663
 5429SOL    HW127920   3.660   3.752  12.241 -1.9750 -3.0915  2.2842
 5429SOL    HW227921   3.574   3.859  12.291 -0.6837 -1.6887  0.4372
 5430SOL     OW27922   0.662   0.827   2.273 -0.3344  0.3843  0.4707
 5430SOL    HW127923   0.661   0.904   2.216  0.8753 -2.3317 -3.2036
 5430SOL    HW227924   0.644   0.860   2.361 -1.5888  0.3917  0.2072
 5431SOL     OW27925   1.257   2.515   8.223 -0.2004  0.2858 -1.0648
 5431SOL    HW127926   1.348   2.520   8.252  0.0574  0.8038 -1.9616
 5431SOL    HW227927   1.233   2.599   8.184  1.2075  0.9879 -0.4327
 5432SOL     OW27928   3.508   0.335   2.863 -0.6551  0.2359  1.1374
 5432SOL    HW127929   3.567   0.266   2.890  1.0518  1.4425  0.4979
 5432SOL    HW227930   3.519   0.403   2.930 -1.4236 -0.8063  2.3239
 5433SOL     OW27931   0.483   3.645  17.119  0.2495  0.2819 -0.0334
 5433SOL    HW127932   0.406   3.608  17.076 -0.8945  2.0650  0.4720
 5433SOL    HW227933   0.468   3.739  17.110 -0.7611 -0.0265 -1.4366
 5434SOL     OW27934   3.275   4.252   3.336 -0.1851  0.5316 -0.5359
 5434SOL    HW127935   3.355   4.302   3.319 -0.6767  2.2584  2.3316
 5434SOL    HW227936   3.316   4.169   3.360  0.9498  1.3626  0.4144
 5435SOL     OW27937   2.597   2.416  13.063 -0.8999 -0.2089 -0.6824
 5435SOL    HW127938   2.666   2.371  13.014  0.5593  0.7304  0.5196
 5435SOL    HW227939   2.635   2.500  13.089 -1.0416 -0.2492 -0.3462
 5436SOL     OW27940   1.891   0.593  17.743  0.2853 -0.2913  0.5628
 5436SOL    HW127941   1.800   0.572   0.010 -0.3843  2.9344  0.8467
 5436SOL    HW227942   1.872   0.654  17.672  0.7810 -0.4838  0.2608
 5437SOL     OW27943   0.118   3.045   8.946 -0.0762 -0.0739 -0.1498
 5437SOL    HW127944   0.141   2.988   8.872 -0.7291  2.2057 -2.1234
 5437SOL    HW227945   0.030   3.080   8.930  0.0318  0.6718  0.9489
 5438SOL     OW27946   3.010   2.228  16.048  0.3235 -0.7638  0.2180
 5438SOL    HW127947   2.995   2.161  16.115  1.4940 -0.3135  0.9236
 5438SOL    HW227948   2.929   2.217  15.997 -0.5105  2.0720  0.9232
 5439SOL     OW27949   1.358   0.439   0.576  0.0121  0.3526  0.1386
 5439SOL    HW127950   1.336   0.452   0.668 -0.8683  0.0089 -0.0202
 5439SOL    HW227951   1.298   0.498   0.532  0.1394  0.1760 -0.2797
 5440SOL     OW27952   1.361   4.440   2.357  0.2077 -0.0668 -0.1797
 5440SOL    HW127953   1.349   4.532   2.337 -1.0772 -0.2850 -0.4422
 5440SOL    HW227954   1.436   4.412   2.304  1.3085 -1.1540  1.9802
 5441SOL     OW27955   3.508   3.338   4.972  0.3449 -0.1696 -0.4902
 5441SOL    HW127956   3.475   3.398   4.905  0.3563  0.5660  0.1725
 5441SOL    HW227957   3.494   3.252   4.932  0.7010  0.4859 -2.0367
 5442SOL     OW27958   3.357   2.243  11.310  0.5027  0.4058  0.1335
 5442SOL    HW127959   3.398   2.286  11.385 -0.0789  0.3307  0.4894
 5442SOL    HW227960   3.263   2.259  11.317  0.0888 -1.6054 -0.8297
 5443SOL     OW27961   4.485   1.081   0.913 -0.0843 -0.1098  0.2537
 5443SOL    HW127962   4.401   1.125   0.923 -0.8239 -1.2434 -1.0213
 5443SOL    HW227963   4.458   1.009   0.857  0.9388 -1.4370  1.4512
 5444SOL     OW27964   1.120   1.040   6.265  0.3892 -0.1315  0.1029
 5444SOL    HW127965   1.080   1.101   6.204 -1.6994 -0.4732  1.1199
 5444SOL    HW227966   1.192   1.095   6.296  1.0452 -0.0770 -1.5390
 5445SOL     OW27967   0.864   4.202   4.298 -0.4146 -0.2846 -0.1548
 5445SOL    HW127968   0.918   4.280   4.294 -1.0092  0.0777 -1.0558
 5445SOL    HW227969   0.836   4.196   4.390  1.1213 -1.4080  0.2347
 5446SOL     OW27970   2.639   2.518   4.058  0.4228 -0.4277 -0.0088
 5446SOL    HW127971   2.615   2.460   4.131 -0.2711 -0.0394  0.0776
 5446SOL    HW227972   2.697   2.584   4.096 -0.0730  1.0735 -1.8841
 5447SOL     OW27973   2.380   0.352   6.795  0.3063 -0.0319 -0.2750
 5447SOL    HW127974   2.463   0.305   6.796 -0.1885 -0.8461  1.4999
 5447SOL    HW227975   2.413   0.431   6.752  0.2268  1.1965  1.9134
 5448SOL     OW27976   1.959   2.827  17.079  0.4481  0.3071  0.2583
 5448SOL    HW127977   2.041   2.874  17.068  1.6217 -2.0531 -1.1147
 5448SOL    HW227978   1.960   2.753  17.018 -0.2690 -1.1081  1.9710
 5449SOL     OW27979   3.439   3.791  13.029  0.4738 -0.1227 -0.3416
 5449SOL    HW127980   3.486   3.729  12.974  0.7506 -0.2064 -0.0136
 5449SOL    HW227981   3.394   3.841  12.961  0.3159  1.7117  1.1110
 5450SOL     OW27982   0.307   4.643   8.434  0.6373  0.0785  0.1689
 5450SOL    HW127983   0.315   4.610   8.345  3.1311 -0.1369  0.4647
 5450SOL    HW227984   0.215   4.634   8.457  1.1215  0.2656  2.2458
 5451SOL     OW27985   1.887   1.980   5.319  0.8063  0.5237  0.1913
 5451SOL    HW127986   1.815   1.932   5.361  0.6123  1.9162  1.4401
 5451SOL    HW227987   1.940   1.986   5.398 -1.5034 -1.5999  1.9038
 5452SOL     OW27988   0.855   1.790   4.859  0.4624 -0.4139 -0.2275
 5452SOL    HW127989   0.916   1.817   4.790  2.2199 -3.6884  0.0445
 5452SOL    HW227990   0.796   1.735   4.809  1.5020 -0.9489 -0.8724
 5453SOL     OW27991   2.564   4.032  15.717 -0.3682 -0.3009  0.7328
 5453SOL    HW127992   2.645   4.000  15.756 -0.4912 -0.5411  0.7882
 5453SOL    HW227993   2.505   3.971  15.760  2.1654 -2.2924  1.3814
 5454SOL     OW27994   1.517   1.386  14.590 -0.6812 -0.1346  0.2422
 5454SOL    HW127995   1.589   1.449  14.587 -0.2998 -0.6813 -2.7741
 5454SOL    HW227996   1.557   1.328  14.654 -0.0010 -1.7551 -1.6329
 5455SOL     OW27997   0.314   4.414   1.680  0.9534 -0.5073 -0.4016
 5455SOL    HW127998   0.288   4.386   1.767  1.1261  0.9506  0.1206
 5455SOL    HW227999   0.265   4.362   1.617  0.3002  1.1897 -1.2947
 5456SOL     OW28000   1.556   2.120   5.729 -0.4310 -0.5446  0.3939
 5456SOL    HW128001   1.524   2.077   5.650  1.0457 -1.1008  0.1047
 5456SOL    HW228002   1.644   2.085   5.744 -0.2303 -0.6611 -1.0502
 5457SOL     OW28003   2.898   0.811   8.765 -0.1730 -0.4911  0.4900
 5457SOL    HW128004   2.991   0.805   8.789 -0.3931  1.7333  1.9219
 5457SOL    HW228005   2.886   0.904   8.784  2.1380 -0.8994  3.9690
 5458SOL     OW28006   2.653   0.796   8.232 -0.0087  0.0452 -0.1776
 5458SOL    HW128007   2.700   0.776   8.314 -0.0380  0.1411 -0.1378
 5458SOL    HW228008   2.637   0.890   8.237  3.3023  0.5433  1.0286
 5459SOL     OW28009   2.469   4.249   1.965 -0.2854  0.7912 -0.1180
 5459SOL    HW128010   2.383   4.240   1.923  1.1656 -0.6872 -2.7437
 5459SOL    HW228011   2.487   4.155   1.965 -2.7445  0.3073  0.6215
 5460SOL     OW28012   0.337   0.289   4.922 -0.4099  0.0297 -0.0611
 5460SOL    HW128013   0.279   0.316   4.993 -1.3240  1.6748 -1.4569
 5460SOL    HW228014   0.319   0.348   4.849 -1.1383 -0.3269 -0.1713
 5461SOL     OW28015   3.359   4.686   3.226 -0.0740 -0.5981 -0.4441
 5461SOL    HW128016   3.307   4.665   3.149 -2.7783  1.5492  0.8154
 5461SOL    HW228017   3.448   4.676   3.192  1.0030  1.0553  1.9038
 5462SOL     OW28018   3.037   2.090  16.960  0.2134 -0.0539  0.4751
 5462SOL    HW128019   3.069   2.130  16.880 -0.9394  0.0496  0.0615
 5462SOL    HW228020   3.104   2.021  16.964  0.0494 -0.1666  1.3251
 5463SOL     OW28021   2.814   2.829   8.741  0.4588  0.1170  0.0386
 5463SOL    HW128022   2.835   2.864   8.655  2.3693  1.6734  1.1215
 5463SOL    HW228023   2.721   2.806   8.739  0.2118  1.1421 -0.2431
 5464SOL     OW28024   2.535   4.369   6.112 -0.5506  0.0410  0.1782
 5464SOL    HW128025   2.536   4.394   6.020 -1.6343  1.0569  0.4468
 5464SOL    HW228026   2.610   4.310   6.111 -0.3689  0.2659  0.4677
 5465SOL     OW28027   2.212   4.636   6.672  0.7134  0.3118  0.3755
 5465SOL    HW128028   2.253   4.623   6.758  1.9706  0.1468 -0.2428
 5465SOL    HW228029   2.285   4.625   6.611 -0.5442  0.6053 -1.1717
 5466SOL     OW28030   4.294   4.461   2.044 -0.6827  0.2574  0.0484
 5466SOL    HW128031   4.225   4.404   2.078 -0.2566  0.1369  0.7130
 5466SOL    HW228032   4.269   4.550   2.071 -2.4593 -0.2009 -0.0774
 5467SOL     OW28033   3.594   4.003   9.378 -0.2149  0.0862  0.0622
 5467SOL    HW128034   3.600   3.972   9.288 -3.1494 -1.5906  0.4392
 5467SOL    HW228035   3.680   4.041   9.393 -0.3091 -0.8542  3.0458
 5468SOL     OW28036   3.989   3.741  10.978 -0.4422  0.0795  0.4027
 5468SOL    HW128037   3.930   3.674  10.942 -0.2842 -0.1539  0.5859
 5468SOL    HW228038   4.016   3.691  11.054 -0.3494 -0.2616  0.1454
 5469SOL     OW28039   0.151   0.344   4.446 -0.2926  0.0703  0.2901
 5469SOL    HW128040   0.135   0.394   4.366  0.6327 -1.1653 -0.6699
 5469SOL    HW228041   0.219   0.282   4.419 -1.1876 -1.0418  0.6137
 5470SOL     OW28042   2.776   1.261   1.259  0.1568 -0.2543  0.4130
 5470SOL    HW128043   2.865   1.293   1.243 -0.4238  0.7077 -0.8561
 5470SOL    HW228044   2.791   1.178   1.306  0.9680 -0.1160  0.4098
 5471SOL     OW28045   1.058   0.337   8.541 -0.3615 -0.0097 -0.3086
 5471SOL    HW128046   1.097   0.384   8.615  0.5472 -0.7797 -0.3027
 5471SOL    HW228047   1.124   0.269   8.529 -0.2999  0.3193 -1.7703
 5472SOL     OW28048   1.809   1.058   7.215  0.8780  0.0963  0.5932
 5472SOL    HW128049   1.800   0.963   7.227  1.1328 -0.1695 -1.2791
 5472SOL    HW228050   1.835   1.052   7.123 -1.2965  1.5972 -0.1326
 5473SOL     OW28051   1.380   2.138  15.472  0.1302 -0.1615  0.7273
 5473SOL    HW128052   1.314   2.171  15.533 -3.4143 -0.9491 -2.7452
 5473SOL    HW228053   1.391   2.201  15.401 -0.3055 -0.0574  0.7513
 5474SOL     OW28054   2.633   0.812   4.100 -0.0850 -0.2694 -0.1825
 5474SOL    HW128055   2.567   0.752   4.064  0.9489 -1.1191 -0.6827
 5474SOL    HW228056   2.644   0.872   4.027  0.6103  0.2676  0.3626
 5475SOL     OW28057   4.460   2.027  13.509 -0.3289 -0.1350 -0.0333
 5475SOL    HW128058   4.401   1.968  13.555 -0.0136 -0.9099 -0.6234
 5475SOL    HW228059   4.465   1.999  13.418 -2.3340 -0.2350 -0.0977
 5476SOL     OW28060   0.229   2.854   8.445  0.5270  0.4460  0.6290
 5476SOL    HW128061   0.182   2.936   8.428  0.6254  0.4421  0.3435
 5476SOL    HW228062   0.277   2.843   8.363 -2.6021 -2.9061 -0.7648
 5477SOL     OW28063   1.491   3.329   1.415  0.0313  0.2485 -0.1901
 5477SOL    HW128064   1.398   3.338   1.434 -0.3282  1.6145 -2.6931
 5477SOL    HW228065   1.492   3.381   1.335 -0.8099 -1.6369 -1.4113
 5478SOL     OW28066   3.040   1.964   6.771  0.1135 -0.9018  0.0833
 5478SOL    HW128067   3.120   1.996   6.812  1.5513 -1.4720 -2.2561
 5478SOL    HW228068   3.024   1.881   6.815  1.3857 -1.1166  0.1594
 5479SOL     OW28069   0.774   2.841  15.010 -0.0776 -0.3137 -0.1989
 5479SOL    HW128070   0.839   2.857  15.079 -0.9488 -2.8181  1.1940
 5479SOL    HW228071   0.795   2.914  14.952  1.7010 -2.7752 -2.6714
 5480SOL     OW28072   2.715   2.267   9.446  0.9384  0.3444 -0.5669
 5480SOL    HW128073   2.806   2.296   9.450 -0.1005  3.4550  0.2576
 5480SOL    HW228074   2.705   2.254   9.541 -1.2639  0.8272 -0.7333
 5481SOL     OW28075   1.948   3.947   9.071 -0.1626  0.2897 -0.1415
 5481SOL    HW128076   1.939   3.885   8.999 -0.3761  0.7366 -0.4973
 5481SOL    HW228077   2.010   4.014   9.044 -2.6009  1.9539 -1.4938
 5482SOL     OW28078   3.996   3.836  15.707 -0.3209 -0.2571 -0.2010
 5482SOL    HW128079   4.054   3.775  15.661 -1.0824 -2.0530  1.2112
 5482SOL    HW228080   3.921   3.815  15.652 -0.3057 -0.6696 -0.0684
 5483SOL     OW28081   3.779   0.503   7.368  0.0170 -0.2375  0.2827
 5483SOL    HW128082   3.751   0.420   7.407 -1.2106  0.7250  1.4354
 5483SOL    HW228083   3.783   0.557   7.447 -1.2747  1.0577 -0.5286
 5484SOL     OW28084   1.386   1.967   2.333 -0.2202 -0.0744 -0.6489
 5484SOL    HW128085   1.413   1.885   2.292  0.4048  0.6061 -1.6098
 5484SOL    HW228086   1.389   2.036   2.267 -2.1937  0.7197  0.0719
 5485SOL     OW28087   0.423   2.766   2.602 -0.0334  0.1313 -0.1340
 5485SOL    HW128088   0.434   2.776   2.507 -0.9863  3.1217  0.0626
 5485SOL    HW228089   0.363   2.836   2.627 -0.3196 -0.5530  1.0642
 5486SOL     OW28090   1.513   4.556   6.037  0.6298  0.1183  0.5091
 5486SOL    HW128091   1.476   4.625   5.982 -0.0040  0.8767  1.8779
 5486SOL    HW228092   1.552   4.608   6.107 -0.8192  0.4006  1.1105
 5487SOL     OW28093   1.278   4.495   3.022  0.4871 -0.6956  0.4134
 5487SOL    HW128094   1.337   4.497   2.946 -1.2437  0.3362 -0.8913
 5487SOL    HW228095   1.280   4.585   3.053  0.0367 -0.7213  0.5066
 5488SOL     OW28096   1.444   3.891   9.259 -0.5728 -0.3445 -0.2461
 5488SOL    HW128097   1.531   3.902   9.222 -0.7947  1.8043 -0.1524
 5488SOL    HW228098   1.416   3.982   9.263  3.9446  1.1010 -1.2037
 5489SOL     OW28099   1.123   3.951   2.822 -0.3882  0.0949  0.5535
 5489SOL    HW128100   1.080   4.021   2.871  1.6019  1.7790 -0.1225
 5489SOL    HW228101   1.142   3.991   2.737  2.5107  0.3576  1.3092
 5490SOL     OW28102   1.480   1.653   6.882  0.1033  0.1889  0.5025
 5490SOL    HW128103   1.438   1.583   6.833 -0.3495 -0.2351  1.4866
 5490SOL    HW228104   1.545   1.601   6.930  0.5485  1.3457  1.1554
 5491SOL     OW28105   3.190   4.614   3.928 -0.1350  0.0238  0.0041
 5491SOL    HW128106   3.205   4.639   4.019 -2.8410  0.5627  0.2966
 5491SOL    HW228107   3.101   4.579   3.934 -0.2548 -0.0698 -2.1003
 5492SOL     OW28108   2.237   1.028   2.327  0.9337 -0.6195 -0.0553
 5492SOL    HW128109   2.284   0.964   2.273 -0.3931  1.3937 -3.5694
 5492SOL    HW228110   2.292   1.104   2.309 -0.7771  0.5419 -0.4026
 5493SOL     OW28111   4.608   3.273   5.055  0.2483 -0.1654 -0.3125
 5493SOL    HW128112   4.523   3.314   5.039  1.2663  1.8728 -0.4027
 5493SOL    HW228113   4.641   3.329   5.125 -0.2431  0.5175 -0.6263
 5494SOL     OW28114   3.771   3.882  13.142 -0.1510  0.1472 -0.0237
 5494SOL    HW128115   3.747   3.876  13.049  1.4632  0.0208 -0.4257
 5494SOL    HW228116   3.689   3.856  13.185 -0.4061 -1.3338 -1.4151
 5495SOL     OW28117   1.041   2.925  10.630  0.4079 -0.2417  0.6383
 5495SOL    HW128118   1.094   2.847  10.613  1.7585  1.2504 -2.0506
 5495SOL    HW228119   1.105   2.994  10.646 -0.2057  0.2415  1.0111
 5496SOL     OW28120   2.861   0.262   1.256 -0.7820  0.6517 -0.2236
 5496SOL    HW128121   2.893   0.306   1.335 -1.3729  3.2476 -1.4244
 5496SOL    HW228122   2.915   0.300   1.187  2.2878 -0.9632  1.2729
 5497SOL     OW28123   1.825   1.477  14.645 -0.5159 -0.0669 -0.4587
 5497SOL    HW128124   1.766   1.512  14.578 -2.5621 -0.7797  0.9506
 5497SOL    HW228125   1.901   1.459  14.590 -0.5411 -0.0773 -0.4907
 5498SOL     OW28126   3.759   2.592   1.055 -0.2110  0.5714 -0.3157
 5498SOL    HW128127   3.700   2.517   1.054  0.3520  0.1677 -3.2024
 5498SOL    HW228128   3.845   2.559   1.027 -1.3444 -2.1461 -0.5803
 5499SOL     OW28129   2.239   3.368   3.888  0.0097 -0.0986 -0.1253
 5499SOL    HW128130   2.162   3.395   3.837 -0.5644  1.4624  1.5624
 5499SOL    HW228131   2.197   3.309   3.951  0.6136 -0.0780  0.2994
 5500SOL     OW28132   2.603   0.377  11.130 -0.0870 -0.4568 -0.2997
 5500SOL    HW128133   2.696   0.370  11.109  0.3650  0.0501  1.5038
 5500SOL    HW228134   2.556   0.363  11.048 -1.6620 -2.2079  0.9032
 5501SOL     OW28135   2.553   1.229   3.255  0.0989 -0.1442 -0.0892
 5501SOL    HW128136   2.495   1.269   3.189  3.5994  2.8669 -1.3651
 5501SOL    HW228137   2.531   1.137   3.242 -1.7344  0.2985 -0.1116
 5502SOL     OW28138   1.455   0.050   5.938  0.3734 -0.2220 -0.0425
 5502SOL    HW128139   1.422   0.071   6.026 -1.5244 -0.3092 -0.7413
 5502SOL    HW228140   1.530   0.110   5.936  1.8350 -2.0216  0.6054
 5503SOL     OW28141   1.992   1.314   8.735  0.2903  0.2013  0.6070
 5503SOL    HW128142   2.001   1.355   8.648 -2.9152  0.5325  0.4501
 5503SOL    HW228143   1.918   1.354   8.779 -0.9569 -1.1892 -0.2606
 5504SOL     OW28144   1.388   0.834   6.905 -0.1594 -0.6123 -0.2300
 5504SOL    HW128145   1.470   0.787   6.914  0.8659  1.0176 -1.0418
 5504SOL    HW228146   1.369   0.815   6.813 -0.1714 -0.4852 -0.2548
 5505SOL     OW28147   1.628   1.448   7.229  0.1899 -0.0551  0.9296
 5505SOL    HW128148   1.610   1.445   7.135  1.2933 -2.2274  0.7859
 5505SOL    HW228149   1.635   1.357   7.258  0.5400  0.0805  1.2690
 5506SOL     OW28150   0.996   1.991   6.181  0.4684  0.0176 -0.1879
 5506SOL    HW128151   1.087   1.975   6.156  0.6834  1.6235 -0.4614
 5506SOL    HW228152   0.983   1.909   6.228  1.2656 -0.6114 -1.0846
 5507SOL     OW28153   3.221   4.240  14.673 -0.0521 -0.2565  0.2469
 5507SOL    HW128154   3.313   4.266  14.674 -0.0212 -0.4390  2.2120
 5507SOL    HW228155   3.198   4.218  14.763 -0.7141  0.6546  0.3012
 5508SOL     OW28156   1.754   3.013   1.349  0.2565 -0.0929  0.3636
 5508SOL    HW128157   1.729   3.060   1.429  3.3799  0.2139  1.1787
 5508SOL    HW228158   1.766   3.085   1.288  0.7764 -0.7875 -0.3572
 5509SOL     OW28159   1.159   1.430   5.057 -0.4472  0.3210  0.1633
 5509SOL    HW128160   1.252   1.410   5.060 -0.2669  1.3964  2.1041
 5509SOL    HW228161   1.132   1.339   5.067 -1.0143  0.6174  1.4284
 5510SOL     OW28162   3.023   4.039   2.961 -0.0672 -0.1842 -0.4307
 5510SOL    HW128163   3.086   4.034   3.033 -2.3911 -0.6741  1.6065
 5510SOL    HW228164   2.946   4.005   3.006  0.8448  0.2216  1.4438
 5511SOL     OW28165   4.531   0.659   8.936  0.3331  0.0429  0.3432
 5511SOL    HW128166   4.566   0.746   8.917 -0.3356  0.0859 -0.6686
 5511SOL    HW228167   4.617   0.619   8.952 -1.3977 -3.8844 -0.2274
 5512SOL     OW28168   0.583   0.142  17.687 -0.1988  0.0466  0.3842
 5512SOL    HW128169   0.502   0.154  17.637  0.9525 -0.3527 -1.5582
 5512SOL    HW228170   0.646   0.131  17.616  1.0009 -1.0347  1.6165
 5513SOL     OW28171   4.117   1.378  10.673 -0.1020 -0.2853  0.2574
 5513SOL    HW128172   4.194   1.421  10.710  1.1218 -0.8338 -1.6493
 5513SOL    HW228173   4.097   1.314  10.742 -0.5484 -1.5493 -1.0514
 5514SOL     OW28174   4.531   3.982   7.949  0.0762 -0.8040 -0.3948
 5514SOL    HW128175   4.540   4.009   8.040  2.4654 -0.0384 -0.8427
 5514SOL    HW228176   4.438   3.998   7.938 -0.1663 -2.3959 -0.7014
 5515SOL     OW28177   0.152   3.686   8.278  0.1794  0.0463  0.4227
 5515SOL    HW128178   0.232   3.714   8.323 -0.2742  1.7406  0.1730
 5515SOL    HW228179   0.197   3.613   8.236  0.8921  2.3500 -2.7887
 5516SOL     OW28180   1.146   3.447  16.571  1.0841 -0.1299  0.7475
 5516SOL    HW128181   1.193   3.388  16.630  0.9449 -0.9306  0.0541
 5516SOL    HW228182   1.164   3.407  16.486  1.4008 -0.2948  0.8918
 5517SOL     OW28183   0.955   2.239   7.123 -0.5636  0.0641  0.3847
 5517SOL    HW128184   1.016   2.190   7.070 -0.6438 -0.0773  0.4224
 5517SOL    HW228185   0.994   2.231   7.210 -0.8748 -2.8308  0.2642
 5518SOL     OW28186   0.549   4.183   0.100  0.0877 -0.0844  0.0401
 5518SOL    HW128187   0.482   4.237   0.058 -0.0286  1.3830  2.1254
 5518SOL    HW228188   0.571   4.118   0.033 -0.9322 -0.6834  0.2951
 5519SOL     OW28189   0.987   0.311   8.915  0.2195 -0.5523 -0.0964
 5519SOL    HW128190   0.967   0.404   8.900 -1.5776 -1.0112 -0.6018
 5519SOL    HW228191   1.082   0.315   8.921  0.3260 -0.6365 -1.5256
 5520SOL     OW28192   1.781   2.696  17.270  0.2153 -0.3532 -0.8373
 5520SOL    HW128193   1.847   2.727  17.209 -0.3102 -1.3409 -1.9242
 5520SOL    HW228194   1.787   2.602  17.252  3.2437 -0.0924 -1.0646
 5521SOL     OW28195   2.953   1.468   6.263 -0.2746  0.3239 -0.4752
 5521SOL    HW128196   2.905   1.387   6.279 -0.0284  0.5450  1.2823
 5521SOL    HW228197   2.989   1.483   6.350  0.0978  0.6200 -0.6792
 5522SOL     OW28198   0.373   3.038  16.763 -0.3229  0.1146  0.2588
 5522SOL    HW128199   0.304   3.096  16.794 -2.0408 -1.3800 -0.7491
 5522SOL    HW228200   0.404   3.087  16.687 -1.4324  2.7823  1.5304
 5523SOL     OW28201   3.179   1.734  14.998 -0.1346 -0.4749  0.2690
 5523SOL    HW128202   3.197   1.780  14.916  0.5653 -0.9622  0.1487
 5523SOL    HW228203   3.219   1.649  14.977  0.5681 -0.1005  0.0616
 5524SOL     OW28204   1.669   1.895   6.063  0.1125 -0.1392 -0.6222
 5524SOL    HW128205   1.586   1.856   6.036 -0.5989  0.4894  0.6303
 5524SOL    HW228206   1.644   1.977   6.106 -0.6356 -0.1102 -1.1238
 5525SOL     OW28207   4.204   0.860   8.674 -0.6653 -0.0383  0.1541
 5525SOL    HW128208   4.299   0.866   8.671 -0.6812 -0.9186 -1.7233
 5525SOL    HW228209   4.209   0.832   8.766 -3.3942 -2.4431 -0.4241
 5526SOL     OW28210   1.061   3.834   8.423 -0.2635 -0.0164  0.0885
 5526SOL    HW128211   1.086   3.798   8.338 -0.0996 -0.7028  0.4227
 5526SOL    HW228212   1.041   3.923   8.394 -1.2392 -1.0457 -2.3894
 5527SOL     OW28213   2.732   0.135   2.871  0.5180  0.1247 -0.0601
 5527SOL    HW128214   2.638   0.119   2.877  0.1590  1.8505 -1.0432
 5527SOL    HW228215   2.760   0.081   2.797  0.8476 -0.5811  0.5814
 5528SOL     OW28216   1.830   3.011  15.780 -0.2537 -0.8942 -0.2530
 5528SOL    HW128217   1.773   3.000  15.704 -1.6752 -2.7896  1.0805
 5528SOL    HW228218   1.867   3.096  15.758  0.8036 -1.6642 -1.5057
 5529SOL     OW28219   1.954   1.868   3.083 -0.2711 -0.1710  0.0531
 5529SOL    HW128220   1.907   1.791   3.115  1.3806 -1.3349 -0.3017
 5529SOL    HW228221   1.895   1.937   3.115  0.2056 -0.9338  2.5938
 5530SOL     OW28222   3.038   2.773  13.374 -0.6135  0.6108 -0.0074
 5530SOL    HW128223   3.131   2.793  13.366 -0.2766 -0.0756  2.3614
 5530SOL    HW228224   3.041   2.722  13.455  0.3371 -2.9109 -2.2697
 5531SOL     OW28225   3.235   0.377   9.381  0.3983 -0.0330  0.4347
 5531SOL    HW128226   3.185   0.365   9.462 -0.4958 -0.5585 -0.1931
 5531SOL    HW228227   3.313   0.424   9.411 -0.1625  0.9878  0.2740
 5532SOL     OW28228   0.242   1.496   6.876  0.0412  0.3680  0.3890
 5532SOL    HW128229   0.291   1.549   6.814  2.4569 -1.6624  0.5641
 5532SOL    HW228230   0.297   1.510   6.953  1.3083  0.1151 -0.4647
 5533SOL     OW28231   2.794   1.565   3.505 -0.0579 -0.6820  0.1195
 5533SOL    HW128232   2.787   1.505   3.431 -2.1892 -0.4590  0.1277
 5533SOL    HW228233   2.886   1.558   3.531 -0.1110 -0.7834  0.2824
 5534SOL     OW28234   3.020   1.042   9.255 -0.3454  0.1713  0.1373
 5534SOL    HW128235   3.100   1.083   9.289 -2.3636  3.5946  0.6358
 5534SOL    HW228236   3.036   0.948   9.270  0.0648  0.2916  0.4587
 5535SOL     OW28237   3.087   2.502   2.662  0.9369  0.5121 -0.2848
 5535SOL    HW128238   3.061   2.420   2.705  1.1705  1.9441  2.6454
 5535SOL    HW228239   3.148   2.551   2.717  1.0149 -1.8279  1.7414
 5536SOL     OW28240   1.768   3.319   5.027 -0.3381 -0.1788  0.4782
 5536SOL    HW128241   1.861   3.298   5.030 -0.3683 -0.5740 -1.9604
 5536SOL    HW228242   1.758   3.371   4.947 -0.4543  0.6383  1.0199
 5537SOL     OW28243   3.666   3.188   4.543 -0.4433  0.0177 -0.0416
 5537SOL    HW128244   3.755   3.160   4.521 -0.1699  0.9880 -0.1693
 5537SOL    HW228245   3.632   3.218   4.459 -0.2762  1.0775  0.2606
 5538SOL     OW28246   3.250   2.083   1.702 -0.1004  0.0477 -0.0072
 5538SOL    HW128247   3.263   2.141   1.777 -0.2695 -0.6808  0.5870
 5538SOL    HW228248   3.341   2.071   1.673  0.6185 -1.1955  2.7955
 5539SOL     OW28249   1.807   0.452   0.990  0.4859 -0.4474 -0.3204
 5539SOL    HW128250   1.795   0.538   1.029  0.8443 -1.3958  1.8594
 5539SOL    HW228251   1.793   0.473   0.897 -0.6268 -1.7321 -0.4443
 5540SOL     OW28252   2.768   4.374   6.838  0.1998  0.1437  0.1742
 5540SOL    HW128253   2.753   4.330   6.921  0.7103 -0.2109  0.0793
 5540SOL    HW228254   2.766   4.466   6.863 -0.8712  0.0526  0.4192
 5541SOL     OW28255   3.255   3.548  12.958  0.0825  0.3041 -0.3807
 5541SOL    HW128256   3.300   3.488  12.899  0.3870  1.0057 -0.8462
 5541SOL    HW228257   3.168   3.557  12.917  0.8513 -1.1000 -2.3400
 5542SOL     OW28258   1.489   1.125   8.263 -0.2729  0.2796  0.2566
 5542SOL    HW128259   1.483   1.043   8.311 -3.6453 -0.5074 -1.4991
 5542SOL    HW228260   1.487   1.191   8.332 -2.4466  0.9851 -0.4793
 5543SOL     OW28261   1.145   0.791  17.395  0.1500  0.2161  0.0196
 5543SOL    HW128262   1.101   0.841  17.326 -0.9055 -0.2625  0.3547
 5543SOL    HW228263   1.179   0.713  17.352 -0.2887 -0.3545  0.7132
 5544SOL     OW28264   0.929   0.942   9.276 -0.1810 -0.3131  0.3370
 5544SOL    HW128265   0.968   0.855   9.276 -0.5194 -0.4650  2.1094
 5544SOL    HW228266   1.005   0.999   9.259  0.5634 -1.1690  0.8159
 5545SOL     OW28267   1.760   1.515   5.961  0.3624  0.7274  0.6376
 5545SOL    HW128268   1.680   1.467   5.982  0.2304 -1.0302 -3.9492
 5545SOL    HW228269   1.731   1.537   5.873  0.8506 -3.3615 -0.5512
 5546SOL     OW28270   2.088   0.538   5.896 -0.7048 -0.1390  0.0070
 5546SOL    HW128271   2.049   0.594   5.829 -1.3562  0.2063  0.6841
 5546SOL    HW228272   2.097   0.592   5.975  0.0387 -0.1430 -0.0701
 5547SOL     OW28273   2.270   1.871   5.893  0.5328  0.1920  0.0547
 5547SOL    HW128274   2.332   1.805   5.927 -1.7783 -1.7137  0.5866
 5547SOL    HW228275   2.295   1.939   5.955  0.9277 -1.6705  1.9492
 5548SOL     OW28276   3.175   2.589   3.678  0.1304  0.5204  0.4627
 5548SOL    HW128277   3.178   2.494   3.686  0.4541  0.7795  3.2943
 5548SOL    HW228278   3.092   2.618   3.716 -0.1994  0.7908 -0.4685
 5549SOL     OW28279   2.124   1.600  11.268 -0.0791 -0.0492 -0.1686
 5549SOL    HW128280   2.123   1.552  11.185  0.5472  0.9855 -0.7605
 5549SOL    HW228281   2.036   1.637  11.265 -0.2590 -0.2705  2.7892
 5550SOL     OW28282   1.284   0.321   7.445 -0.5036  0.2925  0.2610
 5550SOL    HW128283   1.263   0.394   7.503 -0.4756  0.6953 -0.2296
 5550SOL    HW228284   1.295   0.244   7.500  1.6814 -0.3184 -1.0604
 5551SOL     OW28285   4.418   0.485  14.005 -0.6301 -0.3341  0.3536
 5551SOL    HW128286   4.339   0.432  13.994 -0.3952 -0.8816  1.2940
 5551SOL    HW228287   4.478   0.450  13.939 -0.3418 -0.7030  0.8168
 5552SOL     OW28288   3.451   0.951  10.551 -0.0082  0.3253 -0.2943
 5552SOL    HW128289   3.514   1.023  10.544 -0.5720  0.8942  0.3869
 5552SOL    HW228290   3.510   0.880  10.577  0.0340  0.7180  0.6903
 5553SOL     OW28291   1.603   1.231   2.419  0.7385 -0.0395 -0.4321
 5553SOL    HW128292   1.641   1.148   2.446  0.7469  0.7826  2.0248
 5553SOL    HW228293   1.545   1.248   2.493  2.3794  1.3836  0.5256
 5554SOL     OW28294   2.061   3.093   8.595 -0.7238 -0.3610  0.3466
 5554SOL    HW128295   2.139   3.099   8.649 -0.7299 -0.1790  0.3337
 5554SOL    HW228296   2.090   3.136   8.514 -1.6149 -2.6498 -1.1848
 5555SOL     OW28297   0.631   2.155   6.591  0.1738  0.0030 -0.2406
 5555SOL    HW128298   0.561   2.191   6.645 -0.3388  1.5052 -1.8782
 5555SOL    HW228299   0.651   2.216   6.520  0.9508  0.4931  0.4019
 5556SOL     OW28300   0.845   2.787   7.579 -0.2162 -0.5940 -0.3611
 5556SOL    HW128301   0.840   2.839   7.499 -0.9095 -1.9702 -1.1974
 5556SOL    HW228302   0.925   2.737   7.569  1.8789  2.3853  1.3626
 5557SOL     OW28303   2.272   1.101   0.203 -0.0350  0.2083 -0.7733
 5557SOL    HW128304   2.243   1.069   0.288  2.3681  2.3094  0.8630
 5557SOL    HW228305   2.290   1.193   0.225  2.6863 -1.1344  2.6019
 5558SOL     OW28306   0.929   3.012   3.137  0.1725 -0.2748 -0.1970
 5558SOL    HW128307   0.846   2.997   3.183  0.2991  0.9204  0.4201
 5558SOL    HW228308   0.953   3.103   3.154  1.1797 -0.3162 -1.3237
 5559SOL     OW28309   0.074   4.101   6.125  0.8604 -0.6149 -0.0802
 5559SOL    HW128310   0.085   4.167   6.056 -0.9923 -0.6925 -0.4449
 5559SOL    HW228311   0.015   4.149   6.184  3.0881 -1.4624  2.8679
 5560SOL     OW28312   2.193   4.297   7.650 -0.0756 -0.4310  0.1183
 5560SOL    HW128313   2.130   4.227   7.665 -1.0109  1.0189  3.0345
 5560SOL    HW228314   2.155   4.351   7.719 -0.6358 -0.4973 -0.1457
 5561SOL     OW28315   1.273   3.380   7.914 -0.9282  0.0233  0.1395
 5561SOL    HW128316   1.232   3.466   7.899 -2.2496  0.0294  3.7264
 5561SOL    HW228317   1.289   3.398   8.007 -1.9475 -0.9234  0.5022
 5562SOL     OW28318   3.087   0.661  17.586 -0.2123  0.8446 -0.2379
 5562SOL    HW128319   3.052   0.728  17.528 -1.5231 -1.4997 -2.1599
 5562SOL    HW228320   3.034   0.685  17.662 -0.0417 -1.2296  0.5355
 5563SOL     OW28321   1.411   4.401  15.669 -0.3707  0.0274  0.2602
 5563SOL    HW128322   1.477   4.400  15.600 -2.4604 -0.0813 -1.7225
 5563SOL    HW228323   1.443   4.329  15.723  0.0933 -1.0731 -1.4861
 5564SOL     OW28324   4.053   1.558   5.119  0.0006 -0.0488 -0.6125
 5564SOL    HW128325   4.077   1.619   5.048  2.0168  0.0734  0.1670
 5564SOL    HW228326   4.075   1.613   5.194 -1.3557  0.7382 -0.7846
 5565SOL     OW28327   1.890   3.984   4.211  0.0542  0.3505  0.0180
 5565SOL    HW128328   1.820   4.049   4.203 -1.2801 -1.0167  0.5134
 5565SOL    HW228329   1.834   3.924   4.259  1.7251  0.3853  2.0248
 5566SOL     OW28330   4.028   3.748   7.439  0.2936 -0.1852  0.0801
 5566SOL    HW128331   3.967   3.674   7.443  0.5316 -0.2887  1.7281
 5566SOL    HW228332   4.106   3.704   7.405 -0.9034 -2.1411 -0.0947
 5567SOL     OW28333   3.241   0.689   9.650  0.5027  0.6423  0.0727
 5567SOL    HW128334   3.293   0.608   9.649 -1.4390 -0.6269  2.3939
 5567SOL    HW228335   3.300   0.742   9.703 -1.0273  0.2718  2.1628
 5568SOL     OW28336   2.375   0.025   3.732 -0.6479  0.5336 -0.0490
 5568SOL    HW128337   2.433   0.100   3.720  0.7545 -0.0928  2.8406
 5568SOL    HW228338   2.422   4.698   3.680  0.4399  1.3086 -0.0655
 5569SOL     OW28339   3.755   3.988   1.433  0.1509 -0.0867  0.4631
 5569SOL    HW128340   3.756   4.009   1.339  2.7344 -1.5534  0.1600
 5569SOL    HW228341   3.704   4.065   1.459  1.7003  0.8410  0.7711
 5570SOL     OW28342   2.848   4.516   4.729 -0.0342  0.1355  0.3195
 5570SOL    HW128343   2.906   4.549   4.798 -2.1340  1.6953  1.3287
 5570SOL    HW228344   2.885   4.573   4.661  2.0582 -0.4142  0.9748
 5571SOL     OW28345   0.038   0.355  12.603  0.0527  0.4044 -0.6447
 5571SOL    HW128346   0.102   0.372  12.672 -0.2949  0.0102 -0.2300
 5571SOL    HW228347   4.691   0.367  12.643  0.5677  0.9841  0.3080
 5572SOL     OW28348   0.191   1.625   5.425  0.1305  0.4459 -0.5594
 5572SOL    HW128349   0.227   1.584   5.503 -1.6808  1.5859  0.8778
 5572SOL    HW228350   0.109   1.576   5.422 -0.6297  1.6675  0.6640
 5573SOL     OW28351   2.284   3.108   8.760 -0.0146  0.0894 -0.2278
 5573SOL    HW128352   2.272   3.201   8.777  0.9283  0.2056 -0.1954
 5573SOL    HW228353   2.362   3.113   8.705 -1.0630  0.7843 -1.6628
 5574SOL     OW28354   3.630   0.861   6.521  0.2381 -0.2253  0.1909
 5574SOL    HW128355   3.576   0.811   6.459 -1.4534  2.1088 -0.1900
 5574SOL    HW228356   3.580   0.854   6.602  1.6038  0.1801  1.0709
 5575SOL     OW28357   1.212   2.156   7.483 -0.3325  0.4814  0.8425
 5575SOL    HW128358   1.277   2.224   7.498 -1.8388  2.1518 -0.1890
 5575SOL    HW228359   1.132   2.203   7.507 -1.5407  0.1600 -2.4700
 5576SOL     OW28360   1.660   2.538  11.930 -0.3986  0.5637  0.5347
 5576SOL    HW128361   1.615   2.550  12.014  1.1715  1.1744  1.2862
 5576SOL    HW228362   1.592   2.538  11.863  0.3614 -3.4333 -0.2429
 5577SOL     OW28363   0.811   4.732   8.192 -0.6469 -0.2664  0.3894
 5577SOL    HW128364   0.848   0.019   8.107 -1.8496 -0.7255 -0.2619
 5577SOL    HW228365   0.720   0.021   8.192 -0.6341 -0.2302  1.2659
 5578SOL     OW28366   3.564   0.783   3.502  0.2275  0.4044  0.2214
 5578SOL    HW128367   3.600   0.871   3.516  0.1082  0.1504  2.0789
 5578SOL    HW228368   3.475   0.806   3.476 -0.3793 -0.5898  1.4251
 5579SOL     OW28369   0.497   0.615   3.724 -0.8936 -0.1590  0.5344
 5579SOL    HW128370   0.419   0.637   3.674  0.6362 -2.3110 -2.7938
 5579SOL    HW228371   0.561   0.672   3.681 -0.6813 -1.1429 -0.4540
 5580SOL     OW28372   3.240   0.605   8.001  0.2327 -0.0195  0.4925
 5580SOL    HW128373   3.267   0.635   7.914 -2.3520 -0.1246 -0.3221
 5580SOL    HW228374   3.214   0.516   7.979  1.2565  0.1498 -1.3736
 5581SOL     OW28375   2.936   3.179   6.468 -0.1708 -0.4495 -1.1306
 5581SOL    HW128376   2.871   3.114   6.443  1.9066 -2.2823 -1.7230
 5581SOL    HW228377   2.990   3.124   6.525 -0.6333 -0.0583 -0.3162
 5582SOL     OW28378   1.170   1.771   0.688  0.0004  0.2805 -0.1624
 5582SOL    HW128379   1.245   1.744   0.741 -0.4773 -0.5237  0.1028
 5582SOL    HW228380   1.175   1.867   0.694  0.4772  0.2293  0.3185
 5583SOL     OW28381   1.819   2.134   9.617 -0.5205 -0.1438  0.4318
 5583SOL    HW128382   1.829   2.228   9.602 -0.8394 -0.2344 -0.3147
 5583SOL    HW228383   1.735   2.133   9.663 -0.4317  1.2579  0.6092
 5584SOL     OW28384   3.474   2.599  13.876 -0.5490 -0.3201  0.0165
 5584SOL    HW128385   3.489   2.567  13.787 -1.6882 -1.7158  0.3323
 5584SOL    HW228386   3.418   2.530  13.913  1.1224 -0.7323  1.7476
 5585SOL     OW28387   1.827   0.873   2.326  0.0664  0.3853 -0.0132
 5585SOL    HW128388   1.754   0.823   2.290 -0.3982  0.9667  0.1157
 5585SOL    HW228389   1.898   0.851   2.265 -0.0178  1.0660 -0.3533
 5586SOL     OW28390   1.641   0.574   6.486  0.1603  0.0825 -0.5698
 5586SOL    HW128391   1.684   0.529   6.559 -1.0993 -0.9970 -0.4978
 5586SOL    HW228392   1.570   0.510   6.477  1.5767 -1.1637 -2.8958
 5587SOL     OW28393   4.053   3.903   2.776 -0.0478 -0.0776  0.0712
 5587SOL    HW128394   4.029   3.989   2.739 -1.0321  0.5626  2.2272
 5587SOL    HW228395   3.982   3.884   2.836 -1.8664  1.9913 -1.3991
 5588SOL     OW28396   3.073   0.633  14.383 -0.0331  0.2374 -0.1594
 5588SOL    HW128397   3.169   0.627  14.377  0.0866  1.4103  0.4740
 5588SOL    HW228398   3.058   0.704  14.321 -2.9817 -0.9953 -0.8608
 5589SOL     OW28399   0.770   1.050   7.540  0.1297  0.5435 -0.3381
 5589SOL    HW128400   0.788   1.109   7.467 -3.8319  0.3240 -1.4721
 5589SOL    HW228401   0.770   1.114   7.612 -1.0655 -1.9427  1.8471
 5590SOL     OW28402   3.194   3.021  16.366 -0.0518 -0.3643 -0.0157
 5590SOL    HW128403   3.253   2.946  16.375 -2.4814 -2.1814  0.8005
 5590SOL    HW228404   3.227   3.065  16.287 -1.6149  0.2934 -0.3065
 5591SOL     OW28405   2.634   3.295   1.160  0.2075  0.8633 -0.0564
 5591SOL    HW128406   2.658   3.387   1.151 -2.2488  2.0782  5.2853
 5591SOL    HW228407   2.571   3.303   1.232 -1.9430  3.1518 -2.2200
 5592SOL     OW28408   4.024   3.499   5.882  0.2669  0.7613  0.0391
 5592SOL    HW128409   4.069   3.519   5.800 -1.2576  0.5242 -0.8548
 5592SOL    HW228410   4.003   3.578   5.930  1.9389  1.8190 -0.9732
 5593SOL     OW28411   4.290   2.536  10.266 -0.0577  0.6246  0.0958
 5593SOL    HW128412   4.297   2.561  10.174  2.2751 -3.1821 -0.7700
 5593SOL    HW228413   4.297   2.440  10.266 -2.5687  0.4314  0.4999
 5594SOL     OW28414   3.081   0.304   5.806 -0.0202  0.4434  0.1985
 5594SOL    HW128415   3.168   0.309   5.766  1.0360 -0.2491  2.3802
 5594SOL    HW228416   3.034   0.387   5.798  2.1093  1.5213 -0.9977
 5595SOL     OW28417   1.765   2.716   4.983 -0.3940  0.3550 -0.1171
 5595SOL    HW128418   1.799   2.685   4.900 -0.2730 -0.1554  0.1198
 5595SOL    HW228419   1.816   2.797   4.983  1.5512 -0.8856 -3.4947
 5596SOL     OW28420   3.413   2.418   7.996  0.2256  0.1684  0.0280
 5596SOL    HW128421   3.338   2.375   8.037 -0.3132  3.2681  2.2629
 5596SOL    HW228422   3.481   2.351   8.006  1.6197  2.0523  3.0225
 5597SOL     OW28423   1.747   3.552   3.674 -0.1218  0.1753  0.5493
 5597SOL    HW128424   1.768   3.524   3.763  0.6299  0.3524  0.4319
 5597SOL    HW228425   1.664   3.598   3.688  0.0727  0.3038  1.2815
 5598SOL     OW28426   0.986   3.994   1.044 -0.2646  0.6139 -0.1420
 5598SOL    HW128427   0.981   3.955   0.957 -0.1946  0.4338 -0.0672
 5598SOL    HW228428   1.068   3.956   1.076 -0.2960 -0.9709 -1.9404
 5599SOL     OW28429   3.688   0.268   5.819 -0.1870 -0.2293 -0.2444
 5599SOL    HW128430   3.696   0.173   5.824  0.9924 -0.0512  1.3421
 5599SOL    HW228431   3.696   0.278   5.724  0.5783 -0.5198 -0.2122
 5600SOL     OW28432   0.254   3.282   0.197 -0.2282 -0.0986  0.1755
 5600SOL    HW128433   0.280   3.361   0.245 -1.0795  0.1408  0.2434
 5600SOL    HW228434   0.225   3.229   0.272  0.1161 -0.9955 -0.3183
 5601SOL     OW28435   3.651   0.412   7.929 -0.2112 -0.6420 -0.3931
 5601SOL    HW128436   3.726   0.452   7.885  2.4841 -1.7530  3.2132
 5601SOL    HW228437   3.593   0.427   7.855 -0.1662 -0.5516 -0.4097
 5602SOL     OW28438   3.469   2.313   5.590  0.2725  0.2260  0.2454
 5602SOL    HW128439   3.509   2.400   5.581 -2.9624  1.5749 -1.2311
 5602SOL    HW228440   3.546   2.257   5.585 -0.5189 -0.8588  0.2123
 5603SOL     OW28441   0.047   0.345  13.353  0.7801  0.1659 -0.2458
 5603SOL    HW128442   0.041   0.296  13.435 -0.5254 -1.2665 -1.1991
 5603SOL    HW228443   4.709   0.400  13.347  0.4487 -0.0529  1.9481
 5604SOL     OW28444   4.015   4.173   3.863  0.0779 -0.3177  0.3243
 5604SOL    HW128445   3.972   4.151   3.946 -1.0329 -1.3547 -0.5239
 5604SOL    HW228446   4.047   4.085   3.844  1.3029  0.1097  0.3933
 5605SOL     OW28447   2.502   1.952  14.795 -0.6667  0.3042 -0.4028
 5605SOL    HW128448   2.581   2.002  14.813 -0.4288 -0.1575 -0.1550
 5605SOL    HW228449   2.502   1.947  14.699  0.2365  2.8084 -0.5260
 5606SOL     OW28450   0.061   3.590   5.408 -0.3553 -0.1921 -0.4820
 5606SOL    HW128451   0.031   3.629   5.490 -1.4204  0.8459 -1.3635
 5606SOL    HW228452   0.154   3.570   5.419  0.0635  1.6391 -0.6142
 5607SOL     OW28453   0.673   2.804   9.035  0.0829 -1.0744  0.3967
 5607SOL    HW128454   0.609   2.763   8.977  0.5355 -0.6833 -0.3867
 5607SOL    HW228455   0.754   2.790   8.987  0.4754  0.8285  0.5096
 5608SOL     OW28456   0.603   3.061   8.136 -0.1599 -0.2044  0.3106
 5608SOL    HW128457   0.643   3.079   8.221 -2.2686  1.4375  0.9548
 5608SOL    HW228458   0.607   2.966   8.146  1.1316 -0.2832 -0.8996
 5609SOL     OW28459   1.946   3.473   4.616 -0.0065  0.2654  0.3311
 5609SOL    HW128460   1.977   3.524   4.541  0.3075  2.4214  1.9395
 5609SOL    HW228461   1.897   3.403   4.573 -0.4759  0.7927  0.0188
 5610SOL     OW28462   0.732   3.865   5.846  0.0910  0.0488 -0.0127
 5610SOL    HW128463   0.710   3.870   5.939 -1.2309 -2.0123 -0.2316
 5610SOL    HW228464   0.644   3.884   5.812  1.0531 -0.3078 -2.7048
 5611SOL     OW28465   1.189   0.765   9.967  0.5060  0.1974  0.4649
 5611SOL    HW128466   1.254   0.750  10.034  1.5139 -0.0891 -0.5743
 5611SOL    HW228467   1.235   0.763   9.883 -2.4795  1.6995 -1.2209
 5612SOL     OW28468   0.436   1.416   8.956 -0.3412  0.6082  0.2042
 5612SOL    HW128469   0.351   1.459   8.961  0.2204  1.6540  0.9399
 5612SOL    HW228470   0.502   1.485   8.945  0.4425 -0.2191 -0.2916
 5613SOL     OW28471   0.067   2.691  16.636  0.1618  0.0662 -0.6735
 5613SOL    HW128472   0.008   2.674  16.563  0.4211 -1.2270 -0.5911
 5613SOL    HW228473   0.150   2.676  16.591  0.8507 -0.3161  0.7216
 5614SOL     OW28474   3.567   2.567   6.569 -0.2074 -0.2114  0.3228
 5614SOL    HW128475   3.614   2.544   6.649  0.6672 -0.3187 -0.2304
 5614SOL    HW228476   3.555   2.662   6.576  2.4351  0.1317  0.3478
 5615SOL     OW28477   4.622   1.559  11.846 -0.4660 -0.5782 -0.0780
 5615SOL    HW128478   4.630   1.593  11.756 -2.3712  0.8502  0.2894
 5615SOL    HW228479   4.535   1.519  11.846  0.3425 -2.3354 -0.3094
 5616SOL     OW28480   1.103   2.969   1.997 -0.2695  0.6220  0.7985
 5616SOL    HW128481   1.040   3.014   2.054 -2.4306  2.6618 -3.2201
 5616SOL    HW228482   1.043   2.944   1.927  0.5171 -1.9350  1.0231
 5617SOL     OW28483   1.722   0.274   4.475 -0.4002 -0.0486 -0.8792
 5617SOL    HW128484   1.662   0.243   4.406 -0.4195  0.0461 -0.9047
 5617SOL    HW228485   1.805   0.299   4.434  0.8212 -3.9835 -0.8367
 5618SOL     OW28486   4.633   0.789   5.121 -0.0749  0.7159 -0.0151
 5618SOL    HW128487   4.553   0.776   5.171  0.5386  0.3005  0.8642
 5618SOL    HW228488   4.678   0.722   5.173 -0.6892 -1.3738 -2.1996
 5619SOL     OW28489   2.908   4.298  15.760 -0.0183  0.1559 -0.1463
 5619SOL    HW128490   2.978   4.269  15.701  0.5888 -0.7857  1.0405
 5619SOL    HW228491   2.833   4.272  15.706 -0.0156  1.0128 -0.5621
 5620SOL     OW28492   0.747   3.704  10.968  0.1306  0.4956 -0.2730
 5620SOL    HW128493   0.732   3.638  11.035 -0.3911  1.3030  0.4105
 5620SOL    HW228494   0.711   3.779  11.015 -0.1456  1.4121 -1.9347
 5621SOL     OW28495   4.166   0.946   7.880 -0.0713  0.3961  0.4391
 5621SOL    HW128496   4.142   0.983   7.795 -1.0303  0.7912  0.8809
 5621SOL    HW228497   4.249   0.902   7.862 -0.4750 -0.6766  1.1913
 5622SOL     OW28498   0.305   1.913   4.568  0.4070  0.4797 -0.8883
 5622SOL    HW128499   0.389   1.888   4.606  0.1405  0.3837 -0.3720
 5622SOL    HW228500   0.333   1.962   4.490  0.4363 -0.9094 -1.7424
 5623SOL     OW28501   1.599   1.709   8.248  0.5642  0.2258 -0.6710
 5623SOL    HW128502   1.606   1.794   8.205  1.6603  1.0714  1.2149
 5623SOL    HW228503   1.574   1.738   8.335  0.2805  0.0453 -0.6929
 5624SOL     OW28504   3.849   0.909  12.966  0.2020  0.4076  0.3696
 5624SOL    HW128505   3.917   0.976  12.960 -1.2819  1.7863 -0.9817
 5624SOL    HW228506   3.857   0.865  12.881  1.9921 -0.5056  1.0068
 5625SOL     OW28507   1.610   1.979   4.493  0.2271  0.2204  0.2277
 5625SOL    HW128508   1.647   1.931   4.418 -2.2827  0.0359 -0.8981
 5625SOL    HW228509   1.592   1.902   4.547 -0.3809 -0.8786 -1.5215
 5626SOL     OW28510   3.268   1.793   4.060 -0.0883 -0.2548 -0.3059
 5626SOL    HW128511   3.215   1.843   4.121  0.8799  2.0804 -1.3630
 5626SOL    HW228512   3.306   1.739   4.129  2.3912  0.5040 -1.0449
 5627SOL     OW28513   3.635   2.671   9.145  0.2646 -0.0875  0.4178
 5627SOL    HW128514   3.546   2.674   9.110  0.5083 -2.3813 -0.3821
 5627SOL    HW228515   3.659   2.579   9.133 -2.1007 -0.6102 -0.2510
 5628SOL     OW28516   2.409   2.719  14.171  0.0464 -0.5661  0.9025
 5628SOL    HW128517   2.457   2.744  14.250  1.5420 -0.2122 -0.1163
 5628SOL    HW228518   2.328   2.682  14.206 -0.5725 -0.3293 -0.2657
 5629SOL     OW28519   1.940   1.129   3.579  0.2085 -0.2595  0.3597
 5629SOL    HW128520   1.866   1.114   3.638 -0.0857 -1.1097 -0.2264
 5629SOL    HW228521   2.004   1.150   3.646 -1.9245 -2.7614  3.1729
 5630SOL     OW28522   1.848   3.352  14.618  0.0529 -0.0216 -0.0266
 5630SOL    HW128523   1.840   3.399  14.535 -1.0596  1.1148  0.7136
 5630SOL    HW228524   1.851   3.425  14.680 -2.4971 -0.3891  0.5389
 5631SOL     OW28525   4.389   4.384   6.194  0.2057 -0.2101  0.4455
 5631SOL    HW128526   4.368   4.312   6.135 -0.3400  0.2592  0.0620
 5631SOL    HW228527   4.370   4.339   6.276  1.8023  0.3706  1.1345
 5632SOL     OW28528   3.928   0.323   0.178 -0.3615 -0.0564  0.0294
 5632SOL    HW128529   3.848   0.331   0.230 -0.4374 -2.2330  0.2460
 5632SOL    HW228530   3.912   0.235   0.146  0.0080 -0.6377  1.4385
 5633SOL     OW28531   3.175   4.081   5.735 -0.2789 -0.5656 -0.6475
 5633SOL    HW128532   3.093   4.070   5.687  0.3190 -0.2494 -1.7364
 5633SOL    HW228533   3.150   4.068   5.827  1.8562  0.7222  0.1329
 5634SOL     OW28534   4.448   0.162   4.771  0.2476 -0.2664  0.4918
 5634SOL    HW128535   4.409   0.179   4.686 -0.7901  2.6463  1.5810
 5634SOL    HW228536   4.438   0.248   4.811 -1.1922  0.3007 -1.1074
 5635SOL     OW28537   0.544   1.708   7.633 -0.6152  0.1958 -0.0331
 5635SOL    HW128538   0.628   1.668   7.656 -0.1274  0.1155 -2.0227
 5635SOL    HW228539   0.567   1.792   7.672  1.5707 -0.8891  1.0318
 5636SOL     OW28540   1.987   0.667   4.318 -0.4597 -0.4914 -1.0087
 5636SOL    HW128541   2.060   0.626   4.270 -0.1378 -0.1351 -0.8280
 5636SOL    HW228542   2.033   0.719   4.384  0.2877 -1.4393 -0.7814
 5637SOL     OW28543   1.567   4.692   9.348 -0.8043 -0.1582  0.0379
 5637SOL    HW128544   1.661   4.704   9.341 -0.8598 -0.8666 -1.8553
 5637SOL    HW228545   1.534   0.027   9.398 -0.8878 -0.3883  0.3275
 5638SOL     OW28546   2.807   0.464   7.594  0.0813  0.6735  0.0545
 5638SOL    HW128547   2.799   0.490   7.503 -0.2093  2.6328  0.6458
 5638SOL    HW228548   2.759   0.381   7.596  1.3707 -0.0569  1.1021
 5639SOL     OW28549   0.101   3.111   5.606 -0.3190 -0.3923 -0.5350
 5639SOL    HW128550   0.137   3.058   5.535  1.9278  2.5612 -1.6204
 5639SOL    HW228551   0.094   3.047   5.677  1.0394  0.6201  0.5250
 5640SOL     OW28552   1.304   1.061  11.968 -0.0880 -0.1081  0.0995
 5640SOL    HW128553   1.267   1.138  12.010 -1.1837  0.1962 -1.4270
 5640SOL    HW228554   1.346   1.096  11.889 -1.1888  1.3897  0.1843
 5641SOL     OW28555   4.282   4.734  16.823  0.3692 -0.3970  0.8193
 5641SOL    HW128556   4.279   0.088  16.802  0.0950 -0.9728 -1.6807
 5641SOL    HW228557   4.343   4.709  16.754 -0.4157 -0.5892  0.1886
 5642SOL     OW28558   1.738   3.781   4.327  0.2238 -0.5018  0.5338
 5642SOL    HW128559   1.675   3.792   4.256 -0.7277  0.1296  1.4790
 5642SOL    HW228560   1.681   3.774   4.404  1.8168  1.0309  1.8489
 5643SOL     OW28561   0.389   1.975   8.213  0.7261  0.3813  0.1347
 5643SOL    HW128562   0.455   1.907   8.219  1.2243  0.9569  1.2284
 5643SOL    HW228563   0.364   1.951   8.124  1.2073  1.2595 -0.2413
 5644SOL     OW28564   2.182   3.974  15.992  0.4148  0.3268  0.2923
 5644SOL    HW128565   2.182   4.052  16.048  1.9121  0.4338  0.1436
 5644SOL    HW228566   2.146   4.011  15.912  2.4216 -2.8540 -2.0556
 5645SOL     OW28567   1.608   1.557   1.341 -0.8717  0.0094  0.2036
 5645SOL    HW128568   1.677   1.549   1.407  0.1055 -1.0969 -0.9378
 5645SOL    HW228569   1.644   1.628   1.289  1.2022 -1.6790 -0.6891
 5646SOL     OW28570   2.245   0.519  17.447  0.5049 -0.2402  0.1326
 5646SOL    HW128571   2.211   0.451  17.388 -0.4949 -0.8055  1.3468
 5646SOL    HW228572   2.208   0.480  17.526 -0.2430  0.6520  0.2120
 5647SOL     OW28573   0.099   1.151  12.526  0.1474  0.7418  0.3781
 5647SOL    HW128574   0.093   1.245  12.542 -3.1696  0.5151  0.4074
 5647SOL    HW228575   0.154   1.119  12.598 -0.1036 -0.2840  0.1130
 5648SOL     OW28576   0.082   2.108   8.107 -0.3316 -0.1355 -0.0986
 5648SOL    HW128577   0.149   2.081   8.044 -0.3169  0.1650 -0.2116
 5648SOL    HW228578   0.007   2.087   8.052 -2.5763  1.4207  2.3657
 5649SOL     OW28579   2.134   2.542  13.129 -0.2502 -1.0196  0.1715
 5649SOL    HW128580   2.220   2.562  13.092 -0.6262  0.4707  0.1227
 5649SOL    HW228581   2.141   2.448  13.108 -2.2098 -1.0588 -0.3358
 5650SOL     OW28582   2.225   1.552   6.403  0.4066  0.6237  0.8495
 5650SOL    HW128583   2.162   1.588   6.341 -0.3847 -0.8976  0.7702
 5650SOL    HW228584   2.310   1.582   6.371  0.6681 -2.2483 -1.1342
 5651SOL     OW28585   0.194   0.500   6.823  1.0379 -0.1841  0.0290
 5651SOL    HW128586   0.236   0.585   6.817  1.4322 -0.4071 -0.4196
 5651SOL    HW228587   0.153   0.501   6.909 -0.6075  0.9757 -0.7722
 5652SOL     OW28588   2.064   0.284   6.486 -0.3156 -0.0967  0.5580
 5652SOL    HW128589   2.142   0.297   6.432 -0.6562 -1.7185 -0.3252
 5652SOL    HW228590   2.027   0.372   6.486  2.2798  0.9910  0.5770
 5653SOL     OW28591   1.848   1.599   0.576 -0.0001  0.2492  0.5328
 5653SOL    HW128592   1.859   1.635   0.488  0.9396  0.2415  0.6418
 5653SOL    HW228593   1.863   1.505   0.569  0.5830  0.3526  0.3703
 5654SOL     OW28594   1.149   3.296   1.625  0.0442 -0.4084 -0.8536
 5654SOL    HW128595   1.059   3.303   1.657 -0.0902 -0.8660 -1.1427
 5654SOL    HW228596   1.189   3.223   1.673  0.9500  0.4154 -0.3313
 5655SOL     OW28597   0.549   3.955   1.614  0.1650 -0.2772 -0.1450
 5655SOL    HW128598   0.585   3.970   1.526 -1.4230  2.9977 -0.2275
 5655SOL    HW228599   0.595   3.873   1.631 -2.5695 -1.7551  0.0800
 5656SOL     OW28600   1.577   3.728  14.434 -0.5803  0.0010 -0.4970
 5656SOL    HW128601   1.586   3.822  14.448 -0.5538 -0.2708  1.3259
 5656SOL    HW228602   1.529   3.712  14.516 -0.1268  0.1836 -0.1961
 5657SOL     OW28603   0.610   1.703   3.989  0.4286  0.1568 -0.0133
 5657SOL    HW128604   0.610   1.758   4.067 -0.6570 -0.9592  0.7708
 5657SOL    HW228605   0.517   1.715   3.970  0.5647  2.0942  0.5882
 5658SOL     OW28606   3.949   4.555   6.522  0.2655 -0.6397  0.1676
 5658SOL    HW128607   3.873   4.553   6.579  0.1149 -2.1086 -0.0811
 5658SOL    HW228608   3.973   4.463   6.511 -0.7767 -0.8093 -0.6789
 5659SOL     OW28609   4.662   1.466   4.343  0.5867  0.5644 -0.0028
 5659SOL    HW128610   0.014   1.467   4.372  0.1334  2.4511  1.3919
 5659SOL    HW228611   4.615   1.448   4.424  0.6840  0.9805  0.1491
 5660SOL     OW28612   3.519   0.921   7.595  0.3441 -0.2155  0.1063
 5660SOL    HW128613   3.470   0.874   7.662 -1.5636 -0.6636 -1.6043
 5660SOL    HW228614   3.566   0.986   7.648 -1.1450 -0.5575  1.8530
 5661SOL     OW28615   1.200   4.208   7.580 -0.6620  0.2185  0.8934
 5661SOL    HW128616   1.281   4.255   7.561  0.5229 -1.3411  2.0413
 5661SOL    HW228617   1.135   4.275   7.559 -2.3293 -1.5603  0.4177
 5662SOL     OW28618   2.315   1.919  15.463  0.0345  0.0366  0.3570
 5662SOL    HW128619   2.362   1.998  15.489  1.8740 -1.1486  0.5905
 5662SOL    HW228620   2.293   1.929  15.370 -3.4259  0.6084  1.2381
 5663SOL     OW28621   2.175   4.203   4.056  0.6349  0.8411  0.1573
 5663SOL    HW128622   2.142   4.247   4.135 -1.3705 -1.8238  0.8019
 5663SOL    HW228623   2.263   4.178   4.085 -0.8478 -1.9742  2.2116
 5664SOL     OW28624   1.741   0.570  11.503  0.0190  0.5854 -0.2368
 5664SOL    HW128625   1.657   0.539  11.471  0.6862 -2.3168  0.8677
 5664SOL    HW228626   1.784   0.606  11.425 -3.5608  2.5490 -1.2820
 5665SOL     OW28627   3.527   3.022  13.013 -0.2249 -0.0243 -0.4972
 5665SOL    HW128628   3.461   3.055  13.074  0.8045 -0.0673  0.6416
 5665SOL    HW228629   3.602   3.074  13.044 -2.6742  2.5060  1.1351
 5666SOL     OW28630   0.564   2.063   4.775  0.7014 -0.0454 -0.0035
 5666SOL    HW128631   0.595   2.017   4.853  2.3292  1.4302  0.2207
 5666SOL    HW228632   0.583   2.154   4.798 -0.0099 -0.4669  2.2286
 5667SOL     OW28633   0.084   2.679   2.197 -0.3699  0.2030 -0.0084
 5667SOL    HW128634   0.106   2.588   2.214  2.5291  0.6191 -1.5253
 5667SOL    HW228635   0.153   2.704   2.136 -1.6888 -0.2013 -1.6339
 5668SOL     OW28636   4.460   1.982  13.230  0.1142  0.7371  0.0993
 5668SOL    HW128637   4.537   1.926  13.238  0.4907  1.1343 -0.8178
 5668SOL    HW228638   4.421   1.956  13.147  1.2719  0.1882 -0.2680
 5669SOL     OW28639   2.560   0.885   6.966  0.4721 -0.2982  0.7222
 5669SOL    HW128640   2.517   0.832   6.899 -1.3658  0.3170  1.4080
 5669SOL    HW228641   2.651   0.857   6.973  0.5219  0.4000  2.8842
 5670SOL     OW28642   3.298   1.162  15.895 -0.1137  0.7792  0.3250
 5670SOL    HW128643   3.231   1.190  15.958  0.6910 -2.3995  2.5386
 5670SOL    HW228644   3.257   1.206  15.820 -1.9652  0.9277  1.4142
 5671SOL     OW28645   2.725   1.532   2.707 -0.1440  0.1390 -0.0518
 5671SOL    HW128646   2.674   1.450   2.705  0.3873 -0.2074  0.6225
 5671SOL    HW228647   2.697   1.570   2.790 -1.8099 -0.5470 -0.2952
 5672SOL     OW28648   0.247   2.426   5.021 -0.4460  0.3424 -0.2270
 5672SOL    HW128649   0.318   2.457   4.965  0.5339 -0.5444  0.5310
 5672SOL    HW228650   0.228   2.346   4.971 -3.0392  0.8808 -0.1269
 5673SOL     OW28651   4.529   0.608   7.513 -0.8541 -0.3085  0.6568
 5673SOL    HW128652   4.532   0.657   7.596  0.8858  0.4749  0.1247
 5673SOL    HW228653   4.437   0.579   7.515 -0.7736 -0.5399  1.4157
 5674SOL     OW28654   2.263   3.645   4.155 -0.2560  0.1726 -0.0772
 5674SOL    HW128655   2.288   3.592   4.078  0.6341 -0.6457  0.7645
 5674SOL    HW228656   2.247   3.734   4.124  0.2557  0.8208  1.5683
 5675SOL     OW28657   1.123   0.588   2.567  0.1725 -0.2417  0.1136
 5675SOL    HW128658   1.134   0.622   2.478 -1.4786  1.5015  0.5738
 5675SOL    HW228659   1.040   0.630   2.590  0.0680 -0.8055  0.7584
 5676SOL     OW28660   2.793   0.268   3.287 -0.7651 -0.0803  0.3553
 5676SOL    HW128661   2.760   0.196   3.341  0.0036 -0.3635  0.4531
 5676SOL    HW228662   2.886   0.250   3.271 -0.8179 -1.1682  1.2389
 5677SOL     OW28663   4.122   3.298   3.838  0.2954 -0.5879  0.2987
 5677SOL    HW128664   4.090   3.280   3.926 -0.5252  0.5727  0.2208
 5677SOL    HW228665   4.102   3.219   3.786 -1.4238  0.4071 -0.5493
 5678SOL     OW28666   3.671   0.438  16.160  0.3350 -0.1806 -0.0805
 5678SOL    HW128667   3.592   0.492  16.163  0.3419 -0.1882  0.2779
 5678SOL    HW228668   3.659   0.387  16.080 -1.9379  0.1314  0.0632
 5679SOL     OW28669   1.921   0.137   3.251  0.2812 -0.1774  0.0556
 5679SOL    HW128670   1.988   0.069   3.253 -1.3488 -1.9155 -3.6417
 5679SOL    HW228671   1.967   0.209   3.294 -0.6846  1.9776 -2.4531
 5680SOL     OW28672   3.343   3.758   9.249  0.1787  0.1753  0.4290
 5680SOL    HW128673   3.422   3.805   9.277  0.3555 -0.3770  0.8394
 5680SOL    HW228674   3.307   3.735   9.334 -0.8003 -0.8115 -0.2682
 5681SOL     OW28675   3.434   2.906   9.132  0.1026  0.0671  0.1858
 5681SOL    HW128676   3.473   2.915   9.045 -0.5108  3.1660  0.2582
 5681SOL    HW228677   3.392   2.820   9.121  1.4203 -0.7189  1.3248
 5682SOL     OW28678   3.856   4.677   3.098 -0.4059 -0.3241 -0.1676
 5682SOL    HW128679   3.885   0.026   3.120 -0.0221 -0.4069 -0.3287
 5682SOL    HW228680   3.933   4.638   3.055  0.7546  0.2477  1.3939
 5683SOL     OW28681   3.300   3.927  10.567 -0.6211  0.1301  0.4246
 5683SOL    HW128682   3.268   3.839  10.588  0.5587 -0.9480 -2.3238
 5683SOL    HW228683   3.267   3.973  10.644  2.4470  0.5695  1.4794
 5684SOL     OW28684   0.559   2.404   7.866  0.2885 -0.2430 -0.0776
 5684SOL    HW128685   0.553   2.394   7.771  3.1419 -0.4219 -0.2454
 5684SOL    HW228686   0.609   2.486   7.876  2.1871 -1.6628  2.0320
 5685SOL     OW28687   3.005   4.550  15.399 -0.6161  0.7084  0.2489
 5685SOL    HW128688   3.094   4.560  15.432 -0.4832  1.6893 -0.4103
 5685SOL    HW228689   3.012   4.580  15.308 -0.7515  0.2870  0.0972
 5686SOL     OW28690   0.890   3.502   0.569 -0.4427 -0.3549 -0.4328
 5686SOL    HW128691   0.890   3.540   0.481 -2.5903  0.8876  0.0961
 5686SOL    HW228692   0.979   3.526   0.594  0.3423 -0.6909 -2.9070
 5687SOL     OW28693   4.131   4.093   8.635 -0.4162 -0.0711 -0.2458
 5687SOL    HW128694   4.211   4.121   8.679 -0.5202  1.9312 -1.3261
 5687SOL    HW228695   4.118   4.170   8.580  2.0564 -2.7899 -4.6338
 5688SOL     OW28696   0.646   1.251   7.731 -0.2663 -0.2210 -0.2566
 5688SOL    HW128697   0.601   1.324   7.773 -0.4581  0.1366 -1.0809
 5688SOL    HW228698   0.613   1.257   7.642  0.3652 -1.6086 -0.5920
 5689SOL     OW28699   2.064   1.350   6.947 -0.1238 -0.1753 -0.2774
 5689SOL    HW128700   2.084   1.378   7.036  0.2499 -2.1876  0.2592
 5689SOL    HW228701   2.154   1.347   6.916 -0.9309  2.9182 -2.9851
 5690SOL     OW28702   3.895   4.048   1.669 -0.1587 -0.3680 -0.0538
 5690SOL    HW128703   3.872   4.007   1.586  0.7996 -0.0093 -0.4857
 5690SOL    HW228704   3.812   4.081   1.704  0.8599  2.0861  0.0263
 5691SOL     OW28705   1.062   0.315   5.160 -0.0968 -0.0311 -0.1828
 5691SOL    HW128706   1.074   0.224   5.189  2.0538  0.8157  1.5685
 5691SOL    HW228707   1.061   0.366   5.241  1.9154  1.6067 -1.2094
 5692SOL     OW28708   2.123   2.816   3.368 -0.1476  0.1865  0.0739
 5692SOL    HW128709   2.171   2.734   3.353 -0.3454  0.1747 -0.4610
 5692SOL    HW228710   2.197   2.865   3.403 -0.7183  0.0206  1.5383
 5693SOL     OW28711   0.718   2.895   8.429  0.3394  0.2741 -0.5223
 5693SOL    HW128712   0.755   2.832   8.367 -1.5664 -0.5004 -0.8808
 5693SOL    HW228713   0.715   2.836   8.505  0.6056  1.7592  0.6514
 5694SOL     OW28714   4.608   2.348   4.477 -0.1335  0.2822 -0.7194
 5694SOL    HW128715   4.631   2.283   4.411 -0.0551 -1.0309  0.5977
 5694SOL    HW228716   4.614   2.428   4.425 -0.6438 -1.2348 -3.0882
 5695SOL     OW28717   0.038   2.603   4.835  0.3070  0.3010  0.2786
 5695SOL    HW128718   0.065   2.569   4.749  1.4923 -0.0442  0.7846
 5695SOL    HW228719   4.726   2.525   4.856 -0.0450  0.4287 -0.1059
 5696SOL     OW28720   4.362   4.558   3.468  0.2419 -0.1461  0.1704
 5696SOL    HW128721   4.291   4.593   3.522 -0.3176  1.2454 -1.4595
 5696SOL    HW228722   4.427   4.622   3.497 -0.4667  0.6503  0.0174
 5697SOL     OW28723   3.237   1.912  11.244  1.0258 -0.2054 -0.1149
 5697SOL    HW128724   3.320   1.926  11.199 -0.1949  2.1418 -1.6759
 5697SOL    HW228725   3.259   1.969  11.318 -0.3881 -1.1593  1.0371
 5698SOL     OW28726   3.002   1.423   1.276 -0.1108 -0.3997 -0.0762
 5698SOL    HW128727   2.978   1.507   1.237 -0.8706  0.0344  1.3275
 5698SOL    HW228728   3.026   1.444   1.366 -0.6340  0.1107 -0.0581
 5699SOL     OW28729   1.327   3.925  11.675  0.5381  0.3032  0.0977
 5699SOL    HW128730   1.293   3.988  11.739 -3.1365  0.4791 -2.0086
 5699SOL    HW228731   1.385   3.870  11.727 -0.3101 -0.1705  0.5598
 5700SOL     OW28732   2.309   0.946   3.518  0.2622 -0.2300  0.2342
 5700SOL    HW128733   2.312   0.854   3.490 -0.5057 -0.4980  1.0014
 5700SOL    HW228734   2.250   0.930   3.592 -0.3701 -2.9964 -0.8648
 5701SOL     OW28735   4.131   3.418   6.539  0.0547 -0.3474 -0.4116
 5701SOL    HW128736   4.076   3.340   6.542 -2.0171  1.1472  0.3818
 5701SOL    HW228737   4.101   3.455   6.456  1.0345 -1.4332 -1.2564
 5702SOL     OW28738   0.193   2.736   9.148 -0.1232  0.2741 -0.1975
 5702SOL    HW128739   0.261   2.670   9.142  0.0409  0.4719 -0.5259
 5702SOL    HW228740   0.123   2.714   9.087  0.4212 -1.0092 -0.3479
 5703SOL     OW28741   2.712   3.617   4.393  0.6463 -0.1197  0.0627
 5703SOL    HW128742   2.757   3.692   4.354  1.5193 -0.3052  0.7104
 5703SOL    HW228743   2.680   3.560   4.323 -1.4534  0.8524  0.2213
 5704SOL     OW28744   0.898   2.208   2.509 -0.0837  0.4986 -0.8644
 5704SOL    HW128745   0.837   2.258   2.455 -1.7261 -1.0329 -0.4192
 5704SOL    HW228746   0.977   2.206   2.454 -0.1292 -0.4793 -0.8839
 5705SOL     OW28747   0.190   0.119   1.662 -0.3107 -0.0590  0.5391
 5705SOL    HW128748   0.245   0.059   1.713 -0.8513 -0.7954  0.2543
 5705SOL    HW228749   0.104   0.095   1.697 -0.9841  0.3535 -0.8292
 5706SOL     OW28750   3.605   4.471  14.580 -0.2648  0.3173  0.1396
 5706SOL    HW128751   3.546   4.524  14.527 -1.1362 -0.5297  0.2668
 5706SOL    HW228752   3.616   4.397  14.520  2.5606 -0.5132  1.6884
 5707SOL     OW28753   2.797   2.955   2.370 -0.5198  0.6086  0.7968
 5707SOL    HW128754   2.760   2.919   2.289  1.3032  1.3144 -0.3525
 5707SOL    HW228755   2.748   2.907   2.437 -1.8869  0.6183 -0.2021
 5708SOL     OW28756   0.630   0.558   6.740 -0.4136 -0.2297 -0.4355
 5708SOL    HW128757   0.650   0.637   6.690 -3.3625  0.1981 -0.9399
 5708SOL    HW228758   0.584   0.503   6.676 -0.1109 -1.1004  0.0927
 5709SOL     OW28759   2.217   2.326   3.600 -0.1038 -0.3945  0.0359
 5709SOL    HW128760   2.127   2.340   3.571 -0.1768  1.1234  0.9619
 5709SOL    HW228761   2.261   2.384   3.538 -1.3672 -1.9859 -2.3324
 5710SOL     OW28762   1.440   3.053   2.655 -0.5340  0.0243 -0.3931
 5710SOL    HW128763   1.480   2.994   2.591  0.4764  0.2636  0.0200
 5710SOL    HW228764   1.444   2.992   2.729  2.3160 -1.9851 -2.2059
 5711SOL     OW28765   2.808   1.069   6.108 -0.0915  0.0007  0.4575
 5711SOL    HW128766   2.828   1.042   6.018  0.3953 -0.8444  0.8132
 5711SOL    HW228767   2.724   1.109   6.088  1.1398  0.7953 -3.2268
 5712SOL     OW28768   4.228   0.766   0.990  0.6845 -0.1332 -0.0019
 5712SOL    HW128769   4.303   0.796   1.042  0.8708 -1.6718  0.6136
 5712SOL    HW228770   4.266   0.695   0.939 -0.7228 -0.8766 -0.0101
 5713SOL     OW28771   2.243   3.864  10.376  0.1749 -0.1657  0.1358
 5713SOL    HW128772   2.300   3.916  10.320  0.9680 -1.4272 -0.2233
 5713SOL    HW228773   2.267   3.911  10.456  0.0131 -1.1788  0.7819
 5714SOL     OW28774   1.588   2.854  13.611 -0.0615 -0.0600 -0.2921
 5714SOL    HW128775   1.548   2.883  13.529 -0.4169  1.8802  0.5635
 5714SOL    HW228776   1.658   2.798  13.577  1.3944  1.0728  0.8385
 5715SOL     OW28777   2.721   0.819   7.861 -0.1468  0.2029 -0.4271
 5715SOL    HW128778   2.758   0.901   7.895 -1.9868  1.3991 -1.2806
 5715SOL    HW228779   2.736   0.760   7.934 -3.0151 -0.9456 -0.7805
 5716SOL     OW28780   0.454   2.342   3.684 -0.1490  0.3471 -0.2063
 5716SOL    HW128781   0.538   2.328   3.642 -0.1343  1.4704 -0.5556
 5716SOL    HW228782   0.425   2.424   3.645 -0.6659  0.7724  1.0809
 5717SOL     OW28783   2.701   4.115   1.745  0.0646 -0.5324  0.4149
 5717SOL    HW128784   2.706   4.020   1.751  2.6428 -0.4670 -0.6740
 5717SOL    HW228785   2.744   4.132   1.829 -0.2076 -1.7829  0.7983
 5718SOL     OW28786   4.209   2.878   3.550 -0.1164 -0.1155 -0.9554
 5718SOL    HW128787   4.273   2.811   3.574 -0.1797  0.8387  1.8621
 5718SOL    HW228788   4.237   2.896   3.460 -1.9700  0.1725 -1.4689
 5719SOL     OW28789   3.615   0.277   6.117  0.2801 -0.1383 -0.0825
 5719SOL    HW128790   3.617   0.280   6.021  0.7220 -0.1129 -0.0727
 5719SOL    HW228791   3.551   0.208   6.135 -0.8412  1.4001  1.9306
 5720SOL     OW28792   1.685   2.846   6.578 -0.0147 -0.0190 -0.0804
 5720SOL    HW128793   1.772   2.807   6.568 -0.5990 -0.6804 -2.4484
 5720SOL    HW228794   1.660   2.833   6.487 -1.8691 -0.9084  0.5672
 5721SOL     OW28795   1.354   1.987   2.601 -0.0841 -0.4934 -0.1273
 5721SOL    HW128796   1.335   1.990   2.507  1.3341 -3.0601 -0.4988
 5721SOL    HW228797   1.439   1.943   2.600 -0.1113 -0.6180  3.1615
 5722SOL     OW28798   3.540   3.078   4.850 -0.0014 -0.8025  0.0305
 5722SOL    HW128799   3.501   3.006   4.901 -0.2543  0.2641  1.3588
 5722SOL    HW228800   3.508   3.062   4.762  0.2956 -1.9062  0.1288
 5723SOL     OW28801   0.908   2.284   4.030  0.1221  0.1647 -0.1355
 5723SOL    HW128802   0.929   2.258   3.940 -0.8800 -3.0258  0.5123
 5723SOL    HW228803   0.833   2.343   4.017 -0.0411  0.0229  0.1510
 5724SOL     OW28804   2.831   4.128  14.063  0.2046  0.1015 -0.0919
 5724SOL    HW128805   2.863   4.074  13.991  0.5829 -1.4927  1.2528
 5724SOL    HW228806   2.914   4.146  14.107  0.8366 -0.1236 -1.2017
 5725SOL     OW28807   1.267   1.405  11.802 -0.3675 -0.4628  0.2494
 5725SOL    HW128808   1.299   1.321  11.770 -0.7151  0.3635 -2.2783
 5725SOL    HW228809   1.316   1.477  11.762 -2.1283 -0.2319 -1.5495
 5726SOL     OW28810   3.924   2.915   8.332 -0.0487 -0.0837  0.4730
 5726SOL    HW128811   3.967   2.873   8.258  2.2622 -0.0378  1.7831
 5726SOL    HW228812   3.838   2.940   8.299  1.3560  1.5492 -1.9649
 5727SOL     OW28813   3.207   2.512   7.480 -0.0225  0.3392  0.0857
 5727SOL    HW128814   3.196   2.427   7.523  0.7448 -0.6344 -1.6538
 5727SOL    HW228815   3.253   2.489   7.399  0.8033  0.5312  0.4955
 5728SOL     OW28816   2.632   0.501   2.502  0.6272  0.9291  0.0752
 5728SOL    HW128817   2.706   0.441   2.514  0.9339  0.9503 -1.7838
 5728SOL    HW228818   2.628   0.492   2.407  1.8217  1.1651  0.0112
 5729SOL     OW28819   4.531   0.044  14.738  0.2449  0.1456  0.3386
 5729SOL    HW128820   4.623   0.031  14.716  1.1326  2.5530  2.6860
 5729SOL    HW228821   4.516   4.724  14.811 -0.6558  2.7084  2.2494
 5730SOL     OW28822   4.611   1.054  12.342 -0.4802 -0.3638  0.2953
 5730SOL    HW128823   4.696   1.077  12.378  0.3991  0.8872 -2.5604
 5730SOL    HW228824   4.618   1.101  12.259  2.7254 -1.4337 -0.0216
 5731SOL     OW28825   1.599   2.976   6.793 -0.3317  0.1746  0.0977
 5731SOL    HW128826   1.625   3.067   6.777  1.4414 -0.1873  0.8396
 5731SOL    HW228827   1.596   2.941   6.704 -0.0597  0.1097  0.1129
 5732SOL     OW28828   4.320   2.336  15.662 -0.2507 -0.4876  0.1893
 5732SOL    HW128829   4.299   2.362  15.751  1.4975  0.4013  0.3370
 5732SOL    HW228830   4.264   2.259  15.661  0.8055 -1.2443 -0.0080
 5733SOL     OW28831   2.927   3.786   1.091  0.4508 -0.3691  0.3349
 5733SOL    HW128832   2.833   3.773   1.077  0.2797  0.7005  0.4622
 5733SOL    HW228833   2.977   3.723   1.039  0.2484 -0.3636  0.1350
 5734SOL     OW28834   0.449   2.723   2.921 -0.2569 -0.0225 -0.3489
 5734SOL    HW128835   0.484   2.694   2.836  1.7398  1.2796  0.0210
 5734SOL    HW228836   0.408   2.803   2.889 -0.2660 -0.0963 -0.5235
 5735SOL     OW28837   1.741   4.565  11.323 -0.5657 -0.2177 -0.1106
 5735SOL    HW128838   1.828   4.573  11.363 -0.1567  1.2978 -1.3253
 5735SOL    HW228839   1.748   4.472  11.303 -0.8527 -0.0834 -0.8069
 5736SOL     OW28840   0.942   3.063   5.213  0.1808 -0.1028  0.7101
 5736SOL    HW128841   0.923   2.988   5.270  1.3627 -0.2544  0.8996
 5736SOL    HW228842   0.931   3.031   5.123  0.6117 -1.5434  1.1626
 5737SOL     OW28843   3.830   2.275   1.224 -0.7672  0.2944 -0.2025
 5737SOL    HW128844   3.781   2.327   1.160  1.2103  0.3866 -1.6469
 5737SOL    HW228845   3.815   2.190   1.183 -0.6160  0.3482 -0.3648
 5738SOL     OW28846   0.420   1.201  12.474  0.1888 -0.5869 -0.3262
 5738SOL    HW128847   0.490   1.263  12.490  1.3646 -1.9203 -0.2811
 5738SOL    HW228848   0.363   1.208  12.551  0.7322 -0.4449  0.0568
 5739SOL     OW28849   3.695   0.365   0.325 -0.5526  0.9683  0.4436
 5739SOL    HW128850   3.686   0.291   0.386  2.7579 -1.7495 -2.3507
 5739SOL    HW228851   3.656   0.426   0.388 -0.7520 -0.7822  2.0403
 5740SOL     OW28852   0.280   1.581   2.081 -0.0889  0.1997  0.7899
 5740SOL    HW128853   0.261   1.527   2.158  2.5380  1.8764  2.6322
 5740SOL    HW228854   0.375   1.592   2.089  0.0985 -2.1947  1.8900
 5741SOL     OW28855   2.780   3.367  16.893 -0.0362 -0.2214 -0.2228
 5741SOL    HW128856   2.858   3.329  16.933  0.4677  0.5302 -0.4910
 5741SOL    HW228857   2.728   3.287  16.884 -2.0176  1.1133 -0.8222
 5742SOL     OW28858   0.871   4.484   6.052  0.2339  0.2790 -0.5333
 5742SOL    HW128859   0.863   4.423   6.125 -0.9763 -2.0214 -2.5945
 5742SOL    HW228860   0.951   4.534   6.068 -1.0728  1.6786  1.5948
 5743SOL     OW28861   1.203   2.977   4.850  0.5843 -0.5200  0.3303
 5743SOL    HW128862   1.277   3.035   4.865  2.1670 -2.3347 -0.4273
 5743SOL    HW228863   1.126   3.023   4.883  0.6901  2.4331 -3.5353
 5744SOL     OW28864   4.174   0.213   8.426  0.2297  0.1173 -0.5275
 5744SOL    HW128865   4.198   0.203   8.518  0.3953  0.8278 -0.4954
 5744SOL    HW228866   4.247   0.165   8.387 -0.2110 -1.2156  0.2824
 5745SOL     OW28867   3.879   1.128   7.234  1.1641  0.5343  0.3401
 5745SOL    HW128868   3.890   1.065   7.305 -1.8977 -0.3731  0.0060
 5745SOL    HW228869   3.792   1.155   7.261  1.7754  1.8942  0.9508
 5746SOL     OW28870   1.141   3.455   1.137  0.0719  0.6725  0.0284
 5746SOL    HW128871   1.068   3.517   1.136 -0.5124 -0.0116 -0.1758
 5746SOL    HW228872   1.155   3.427   1.227 -1.4138 -1.1391 -0.3052
 5747SOL     OW28873   3.292   0.865   0.625  0.4449  0.4194  0.5916
 5747SOL    HW128874   3.204   0.900   0.619  0.3112 -0.0085  0.0143
 5747SOL    HW228875   3.274   0.792   0.685  0.4300 -1.8336 -2.1755
 5748SOL     OW28876   3.024   0.400   2.588  0.7743 -0.0536  0.0358
 5748SOL    HW128877   3.102   0.351   2.615 -1.3100 -3.3307  0.0491
 5748SOL    HW228878   3.056   0.490   2.578 -1.0470  0.3920 -1.7901
 5749SOL     OW28879   2.892   3.416   9.415 -0.1997  0.2755  0.0746
 5749SOL    HW128880   2.880   3.374   9.500  0.2496  0.5004  0.2466
 5749SOL    HW228881   2.816   3.473   9.399 -0.4626 -0.7364 -2.3525
 5750SOL     OW28882   3.290   3.699  10.323 -0.4123 -0.0725  0.0235
 5750SOL    HW128883   3.261   3.611  10.298  1.9372 -0.8455  0.0360
 5750SOL    HW228884   3.335   3.676  10.405 -0.1729  1.2012  0.2529
 5751SOL     OW28885   1.181   0.163  15.138  0.8182 -0.2240  0.9532
 5751SOL    HW128886   1.125   0.149  15.061 -0.3294 -1.8852  2.0945
 5751SOL    HW228887   1.124   0.127  15.206  2.2710  1.5647  3.0841
 5752SOL     OW28888   2.134   4.474  11.250 -0.6367  0.2136  0.1491
 5752SOL    HW128889   2.046   4.461  11.214 -0.7391 -0.4087  0.6236
 5752SOL    HW228890   2.110   4.476  11.343 -1.0354  1.2315  0.0215
 5753SOL     OW28891   4.677   3.884   5.595  0.5287 -0.1782 -0.4692
 5753SOL    HW128892   0.002   3.850   5.656  0.2558 -0.8192 -0.5304
 5753SOL    HW228893   4.724   3.958   5.558 -0.7077  0.6766 -0.3388
 5754SOL     OW28894   0.688   0.898   5.533  0.3716  0.0824 -0.0189
 5754SOL    HW128895   0.711   0.814   5.573  2.7101  1.6082  1.8001
 5754SOL    HW228896   0.687   0.890   5.438 -0.1952 -0.4856  0.0347
 5755SOL     OW28897   1.886   0.831   9.930  0.1059  0.8018  0.3716
 5755SOL    HW128898   1.790   0.823   9.934  0.0512  0.0491 -2.7842
 5755SOL    HW228899   1.877   0.896  10.000 -0.2288  1.6095 -0.4108
 5756SOL     OW28900   3.885   0.061  11.249 -0.3110 -0.4950 -0.0818
 5756SOL    HW128901   3.927   0.073  11.335 -1.8544 -0.5568  0.6900
 5756SOL    HW228902   3.947   0.103  11.190  0.9455  0.5626  1.9636
 5757SOL     OW28903   3.161   1.587   5.064 -0.6776 -0.5119  0.3186
 5757SOL    HW128904   3.120   1.554   5.144  0.1267 -1.6446  0.2574
 5757SOL    HW228905   3.174   1.501   5.024 -2.6804 -0.7247  0.0986
 5758SOL     OW28906   3.136   4.687   9.425 -0.4674  0.0772 -0.1659
 5758SOL    HW128907   3.074   4.617   9.401 -2.0299  0.7346  1.8920
 5758SOL    HW228908   3.221   4.644   9.434 -0.5353  0.6487  3.4642
 5759SOL     OW28909   1.130   3.375   1.943  0.3507 -0.0702  0.1018
 5759SOL    HW128910   1.050   3.388   1.994 -0.6095 -1.8771 -0.9286
 5759SOL    HW228911   1.115   3.288   1.906  2.1783  0.1352 -1.1077
 5760SOL     OW28912   2.162   4.428  17.536 -0.3559  0.4780 -0.0589
 5760SOL    HW128913   2.248   4.449  17.501 -0.0944 -1.4227 -0.5614
 5760SOL    HW228914   2.184   4.398  17.625 -0.7539 -0.8039 -0.3860
 5761SOL     OW28915   2.448   2.553   6.069  0.9648 -1.0961 -0.4493
 5761SOL    HW128916   2.519   2.540   6.132 -0.1541 -1.5479  0.7204
 5761SOL    HW228917   2.411   2.465   6.065 -0.3457 -0.5196 -0.7852
 5762SOL     OW28918   1.471   2.828  10.345 -0.4856 -0.6993  0.2038
 5762SOL    HW128919   1.566   2.824  10.335 -0.4501  2.0433 -0.4671
 5762SOL    HW228920   1.465   2.771  10.422  0.9761  1.4823  1.9341
 5763SOL     OW28921   0.055   2.137   2.813 -0.3806  0.6586  0.1854
 5763SOL    HW128922   0.138   2.157   2.856  0.0801  1.0513 -0.9147
 5763SOL    HW228923   4.735   2.114   2.886  0.3776  0.1634  0.6479
 5764SOL     OW28924   0.102   0.836   5.894 -0.1183  0.4944 -0.0781
 5764SOL    HW128925   0.032   0.892   5.860 -0.0849 -1.0731 -2.7606
 5764SOL    HW228926   0.099   0.772   5.823 -3.0594  0.3259  0.2024
 5765SOL     OW28927   3.203   3.089  17.637  0.2182  0.0142 -0.0554
 5765SOL    HW128928   3.210   3.084  17.733 -1.1739  0.4567  0.0745
 5765SOL    HW228929   3.130   3.150  17.627  0.3180  0.5864  2.5463
 5766SOL     OW28930   1.345   4.408   2.617 -0.5418 -0.2162 -0.1444
 5766SOL    HW128931   1.362   4.426   2.525  0.6045 -0.5177  0.0120
 5766SOL    HW228932   1.291   4.328   2.617 -1.8599  0.6653  1.7430
 5767SOL     OW28933   3.929   3.714  12.070  0.0947 -0.1458  0.2514
 5767SOL    HW128934   3.961   3.803  12.082  1.5920 -0.6640  0.1507
 5767SOL    HW228935   3.839   3.738  12.092  0.5216  1.6161  0.0692
 5768SOL     OW28936   2.464   1.754   5.358 -0.3181 -0.3683 -0.2822
 5768SOL    HW128937   2.407   1.717   5.424 -2.0622 -0.8227 -2.0424
 5768SOL    HW228938   2.458   1.848   5.378  2.0006 -0.2284 -0.1856
 5769SOL     OW28939   4.429   1.567  12.900  0.4305  0.0219  0.1357
 5769SOL    HW128940   4.350   1.597  12.945  0.3089  0.9907 -0.7094
 5769SOL    HW228941   4.495   1.628  12.934  0.8162  0.4425 -1.3667
 5770SOL     OW28942   3.074   1.635   5.845  0.1942 -0.2848 -0.4347
 5770SOL    HW128943   3.144   1.691   5.810 -0.6764  1.0114 -0.0851
 5770SOL    HW228944   3.106   1.554   5.804 -0.3828  0.2779 -2.0120
 5771SOL     OW28945   4.375   0.389   4.873 -0.5543 -0.5454 -0.2593
 5771SOL    HW128946   4.439   0.459   4.885 -1.7248  0.3752  0.6273
 5771SOL    HW228947   4.304   0.440   4.833  1.4933  0.8831 -2.0776
 5772SOL     OW28948   4.447   0.086   4.027  0.3062 -0.0756  0.2015
 5772SOL    HW128949   4.419   4.737   4.004 -0.7956 -0.3801  2.7481
 5772SOL    HW228950   4.365   0.121   4.063 -1.0385 -1.2474 -1.7353
 5773SOL     OW28951   1.194   2.126   8.434 -0.2415 -0.1293  0.3757
 5773SOL    HW128952   1.270   2.184   8.434  0.4383 -1.0188  0.5030
 5773SOL    HW228953   1.139   2.191   8.392  0.4527 -0.3996 -0.9553
 5774SOL     OW28954   1.343   1.164   6.832 -0.0379  0.2981  0.2320
 5774SOL    HW128955   1.405   1.129   6.769  0.7200 -0.1681  1.2356
 5774SOL    HW228956   1.303   1.080   6.855  1.3963 -0.6943 -0.9451
 5775SOL     OW28957   1.742   2.935   2.092 -0.0674  0.2107 -0.1416
 5775SOL    HW128958   1.794   2.866   2.133 -2.0390 -2.6430 -2.4240
 5775SOL    HW228959   1.722   2.903   2.004  0.6113  0.4305 -0.3768
 5776SOL     OW28960   1.877   2.761   3.809  0.0454 -0.0551  0.0249
 5776SOL    HW128961   1.869   2.785   3.717  1.8028 -2.9392 -0.8873
 5776SOL    HW228962   1.785   2.774   3.832 -0.3514 -0.0266 -1.5753
 5777SOL     OW28963   3.204   0.272  15.739 -0.3817  0.0462  0.0785
 5777SOL    HW128964   3.116   0.235  15.730  0.1945 -1.0513 -0.9259
 5777SOL    HW228965   3.184   0.366  15.739 -0.2940  0.0622 -2.6280
 5778SOL     OW28966   2.444   4.653   6.550  0.0601 -0.3746  0.3226
 5778SOL    HW128967   2.491   4.599   6.487 -1.7877  0.2815 -1.6426
 5778SOL    HW228968   2.520   4.705   6.577 -0.5660  0.8483 -0.2551
 5779SOL     OW28969   0.256   1.953   3.151 -0.2460  0.8642 -0.1374
 5779SOL    HW128970   0.308   1.894   3.096 -2.1999  0.0310 -1.1069
 5779SOL    HW228971   0.173   1.908   3.166 -0.4818  1.7456  1.1542
 5780SOL     OW28972   3.536   2.632   4.575 -0.4593  0.2728  0.0287
 5780SOL    HW128973   3.455   2.582   4.569  0.2068 -0.6991 -0.8305
 5780SOL    HW228974   3.581   2.575   4.638 -1.4100 -0.6953 -0.1580
 5781SOL     OW28975   2.959   1.825  15.156  0.2792  0.0557  0.4681
 5781SOL    HW128976   2.937   1.736  15.183 -1.9850  1.0449  1.8647
 5781SOL    HW228977   3.038   1.806  15.106 -0.3239 -0.0549 -0.4410
 5782SOL     OW28978   1.975   2.206   7.554  0.5836  0.2337 -0.1863
 5782SOL    HW128979   1.917   2.135   7.583  0.3347  0.9102  0.9978
 5782SOL    HW228980   2.048   2.201   7.616  1.7446  0.2678 -1.5364
 5783SOL     OW28981   0.680   2.361   6.397 -0.0567 -0.2116  0.3751
 5783SOL    HW128982   0.737   2.433   6.424 -1.9326  0.2060  3.1744
 5783SOL    HW228983   0.726   2.340   6.316  0.4520  0.7990  0.3925
 5784SOL     OW28984   4.722   2.950   0.188 -0.1301  0.2240 -0.2227
 5784SOL    HW128985   0.052   2.905   0.236  1.7628  0.8892 -2.3044
 5784SOL    HW228986   4.666   2.874   0.167  3.3331 -2.0156 -1.3720
 5785SOL     OW28987   3.717   1.157   1.488 -0.2384  0.2631  0.0878
 5785SOL    HW128988   3.749   1.067   1.479 -0.8104 -0.0903  1.5470
 5785SOL    HW228989   3.655   1.175   1.417 -0.0472 -1.9673 -0.6632
 5786SOL     OW28990   0.051   1.941   5.707 -0.4484  0.3160  0.1233
 5786SOL    HW128991   0.107   1.894   5.769 -1.1441  0.0727  0.5765
 5786SOL    HW228992   0.069   2.029   5.738  0.1624  1.0153 -2.2037
 5787SOL     OW28993   2.851   4.154   1.981 -0.4129 -0.1200  0.1429
 5787SOL    HW128994   2.908   4.228   1.958 -2.2424  1.0613 -0.5759
 5787SOL    HW228995   2.873   4.139   2.073 -0.3318 -0.6547  0.0319
 5788SOL     OW28996   3.942   4.356   8.697 -0.9541  0.5083 -0.2175
 5788SOL    HW128997   3.876   4.423   8.714 -2.1273 -0.7165  0.0058
 5788SOL    HW228998   3.991   4.361   8.779  0.1120 -0.4801 -0.7973
 5789SOL     OW28999   4.074   1.161   5.132 -0.8021  0.3398  0.3522
 5789SOL    HW129000   4.153   1.207   5.161 -0.1062  0.6388 -2.0757
 5789SOL    HW229001   4.099   1.070   5.117  0.1605  0.7424 -0.4411
 5790SOL     OW29002   2.489   2.763   2.641  0.3733 -0.3751  0.1456
 5790SOL    HW129003   2.565   2.733   2.590  0.1534  1.9219 -1.5153
 5790SOL    HW229004   2.418   2.700   2.632  1.4982 -1.5370 -0.7603
 5791SOL     OW29005   1.193   1.559   8.540  0.1865 -0.0682 -0.0869
 5791SOL    HW129006   1.204   1.557   8.635 -1.6751  0.9514  0.1429
 5791SOL    HW229007   1.280   1.591   8.517  0.6592 -2.5760 -1.7527
 5792SOL     OW29008   2.913   2.854   8.057  0.5067 -0.6032 -0.2816
 5792SOL    HW129009   2.863   2.828   8.134  1.3458 -2.5457 -0.4026
 5792SOL    HW229010   2.852   2.828   7.987 -1.4133  3.0567  0.0315
 5793SOL     OW29011   1.138   1.877   3.170 -0.4388  0.4222 -0.2270
 5793SOL    HW129012   1.070   1.840   3.114  0.5388  0.1243 -1.2400
 5793SOL    HW229013   1.116   1.842   3.256 -2.2575  1.6461 -0.2130
 5794SOL     OW29014   3.830   2.759   4.026  0.3686  0.0246 -0.1564
 5794SOL    HW129015   3.861   2.725   3.942 -0.2824 -0.4416 -0.2117
 5794SOL    HW229016   3.850   2.852   4.011 -1.3361  0.2599 -1.0305
 5795SOL     OW29017   1.030   3.218   2.455  0.2871  0.2496 -0.0050
 5795SOL    HW129018   0.984   3.186   2.377 -0.7878 -0.8957  1.0984
 5795SOL    HW229019   1.015   3.149   2.520 -0.1416  0.9515  0.6303
 5796SOL     OW29020   0.338   0.701   4.050 -0.3318  0.0148 -0.0854
 5796SOL    HW129021   0.307   0.776   3.998  1.8467  0.4771 -0.6822
 5796SOL    HW229022   0.376   0.742   4.128  1.2562 -0.3763 -0.6603
 5797SOL     OW29023   2.218   3.049   8.036  0.4833  0.1915  0.1729
 5797SOL    HW129024   2.258   2.993   8.103 -2.3555  1.7674  3.2103
 5797SOL    HW229025   2.273   3.125   8.053 -0.9620  1.2881 -0.1392
 5798SOL     OW29026   2.616   4.272   2.201  0.2448  0.2438  0.2343
 5798SOL    HW129027   2.575   4.252   2.117 -2.2897 -1.0451  1.7883
 5798SOL    HW229028   2.540   4.288   2.258 -2.0767 -4.3240 -1.5881
 5799SOL     OW29029   1.419   2.459   4.535  0.4167 -0.8494 -0.1535
 5799SOL    HW129030   1.351   2.398   4.563  0.6296 -0.5331  1.0428
 5799SOL    HW229031   1.370   2.533   4.499  0.2810 -0.4730  0.7889
 5800SOL     OW29032   2.325   3.479  16.218 -0.0452  0.0118 -0.0642
 5800SOL    HW129033   2.370   3.462  16.300  1.2305  3.3399 -0.0814
 5800SOL    HW229034   2.236   3.493  16.250 -0.6187 -0.6161 -1.3732
 5801SOL     OW29035   3.546   2.543   2.406 -0.5876  0.0003  0.4959
 5801SOL    HW129036   3.474   2.506   2.456  0.8801 -0.8330  1.9690
 5801SOL    HW229037   3.625   2.496   2.432  0.9562  0.8672 -2.5896
 5802SOL     OW29038   1.487   2.816  10.078  0.0210 -0.1781 -0.5056
 5802SOL    HW129039   1.482   2.852  10.167  0.3537 -0.1187 -0.5110
 5802SOL    HW229040   1.477   2.721  10.090  2.7688 -0.2743  1.1648
 5803SOL     OW29041   0.340   4.034   5.045  0.2107 -0.0303 -0.0105
 5803SOL    HW129042   0.312   4.053   4.955 -0.7000 -1.0122  0.0678
 5803SOL    HW229043   0.273   3.974   5.076  0.8755 -0.1206  1.2626
 5804SOL     OW29044   3.952   4.323  12.820 -0.1827  0.7909  0.6263
 5804SOL    HW129045   4.000   4.242  12.836 -0.6885  0.2502 -0.6408
 5804SOL    HW229046   3.865   4.282  12.823 -0.2544  0.7392 -2.5262
 5805SOL     OW29047   3.436   3.444   6.553  0.3287  0.5064  0.4406
 5805SOL    HW129048   3.349   3.482   6.539  0.4452  1.0524  1.2374
 5805SOL    HW229049   3.482   3.496   6.486 -0.6579 -0.3117 -0.8697
 5806SOL     OW29050   1.025   3.831   1.326 -0.1540  0.3220 -0.1891
 5806SOL    HW129051   1.077   3.887   1.269 -1.5502 -0.3344 -2.1131
 5806SOL    HW229052   1.006   3.887   1.401  0.8744  1.5591 -0.8763
 5807SOL     OW29053   4.260   3.877   4.031  0.3810 -0.0292 -0.1648
 5807SOL    HW129054   4.349   3.855   4.059  0.6360 -0.6743 -1.4917
 5807SOL    HW229055   4.222   3.793   4.006  4.4439 -2.2737  1.2134
 5808SOL     OW29056   1.752   2.453   3.148  0.0017  0.3197 -0.0766
 5808SOL    HW129057   1.699   2.377   3.174 -0.3339  0.0149 -1.6222
 5808SOL    HW229058   1.764   2.491   3.235  0.8936  0.1167 -0.1048
 5809SOL     OW29059   1.633   1.456  14.968 -0.3827  0.2011  0.5931
 5809SOL    HW129060   1.686   1.520  14.921  0.0243 -0.3911  0.2425
 5809SOL    HW229061   1.693   1.381  14.966 -2.7689 -1.6865  0.0498
 5810SOL     OW29062   2.671   4.729   5.029 -0.4889  0.0308  0.2914
 5810SOL    HW129063   2.702   0.054   4.965  0.6520  0.5572  1.3811
 5810SOL    HW229064   2.580   0.018   5.036 -0.4681 -0.2288  1.6327
 5811SOL     OW29065   4.559   4.492  11.133 -0.1610  0.1483 -0.0001
 5811SOL    HW129066   4.632   4.467  11.189 -1.0118  0.1761  1.1377
 5811SOL    HW229067   4.567   4.587  11.142 -2.9930  0.5352 -1.3241
 5812SOL     OW29068   4.182   1.032   6.263  0.2939  0.0718 -0.0172
 5812SOL    HW129069   4.177   0.938   6.247 -0.4778  0.3206 -1.1784
 5812SOL    HW229070   4.145   1.029   6.352  0.1152 -0.4648 -0.1135
 5813SOL     OW29071   0.033   3.084   6.353 -1.2796  0.3083 -0.1844
 5813SOL    HW129072   4.708   3.028   6.396 -1.7440  1.6015  0.7769
 5813SOL    HW229073   0.018   3.169   6.394 -0.0070  0.3964  0.0945
 5814SOL     OW29074   3.179   4.013   1.829  0.2424  0.1169  0.5294
 5814SOL    HW129075   3.114   3.952   1.865  1.5752 -0.5699  1.7567
 5814SOL    HW229076   3.199   4.067   1.905 -1.5418 -0.9687  1.7872
 5815SOL     OW29077   1.168   3.472   9.215  0.4661 -0.1455 -0.5564
 5815SOL    HW129078   1.202   3.536   9.278 -2.3112  1.3527 -0.5805
 5815SOL    HW229079   1.246   3.428   9.179  1.1058  1.7735 -1.5461
 5816SOL     OW29080   0.541   3.384   6.032  0.8500  0.3965 -0.1623
 5816SOL    HW129081   0.509   3.474   6.039 -2.1524 -0.7236  0.1952
 5816SOL    HW229082   0.468   3.337   5.992  0.9806 -1.7853  2.1474
 5817SOL     OW29083   1.933   1.124  17.340 -0.3378 -0.5511 -0.3441
 5817SOL    HW129084   1.948   1.065  17.414  2.5621 -1.8616 -1.9905
 5817SOL    HW229085   1.872   1.185  17.381 -0.2274 -1.3599  1.0510
 5818SOL     OW29086   4.120   0.852   7.206  0.1030 -0.5901 -0.4186
 5818SOL    HW129087   4.087   0.882   7.122 -1.3171  0.4365  0.4977
 5818SOL    HW229088   4.167   0.776   7.172 -0.0192 -1.6891  1.8022
 5819SOL     OW29089   3.144   4.342   0.583  1.0375  0.4712  0.1058
 5819SOL    HW129090   3.199   4.313   0.656  1.7911  0.3497 -0.5061
 5819SOL    HW229091   3.064   4.323   0.632  3.1799 -2.9422  2.2844
 5820SOL     OW29092   3.070   0.752   6.589  0.2737  0.1164  0.0609
 5820SOL    HW129093   3.050   0.817   6.657  0.2061  1.0581 -0.8580
 5820SOL    HW229094   3.098   0.679   6.644  0.3067  0.2325  0.1994
 5821SOL     OW29095   2.483   3.027  10.281 -0.5887  0.3584 -0.4833
 5821SOL    HW129096   2.508   2.938  10.305 -1.8671  0.4511  1.1859
 5821SOL    HW229097   2.480   3.068  10.368  0.0771 -2.1866  0.7178
 5822SOL     OW29098   2.676   0.166   0.995  0.8006  0.3621 -0.0466
 5822SOL    HW129099   2.672   0.082   0.948 -0.0085 -0.3014  1.2109
 5822SOL    HW229100   2.717   0.146   1.079 -1.5134  0.8638  1.2081
 5823SOL     OW29101   2.174   4.084   0.646 -0.1943 -0.2221  0.0552
 5823SOL    HW129102   2.173   4.129   0.730  1.8525 -0.7395  0.3408
 5823SOL    HW229103   2.094   4.032   0.657 -0.9985  0.7663 -1.1831
 5824SOL     OW29104   0.886   2.873   2.163  0.8048 -0.3282 -0.1797
 5824SOL    HW129105   0.845   2.824   2.092  0.2441  2.5426 -1.8179
 5824SOL    HW229106   0.942   2.806   2.203 -2.4744 -1.8031  1.9411
 5825SOL     OW29107   3.211   1.091   1.079  0.0992  0.7353 -0.2505
 5825SOL    HW129108   3.242   1.006   1.047  1.1143  0.1571  2.2393
 5825SOL    HW229109   3.116   1.086   1.084  0.0657  1.2424 -0.4375
 5826SOL     OW29110   0.046   0.769  13.257  0.0987  0.2535  0.2200
 5826SOL    HW129111   0.034   0.783  13.164  0.1149 -0.8150  0.0544
 5826SOL    HW229112   4.695   0.759  13.286  0.1031 -3.1328 -1.0165
 5827SOL     OW29113   2.101   2.969   5.442  0.3602 -0.3594  0.1491
 5827SOL    HW129114   2.046   2.900   5.405 -1.0741  0.8255  0.0626
 5827SOL    HW229115   2.055   2.961   5.526  0.7140 -0.8873  0.2980
 5828SOL     OW29116   0.829   1.477   9.829 -0.2442  0.6293 -0.1164
 5828SOL    HW129117   0.770   1.551   9.830  1.0619  1.7162 -1.8448
 5828SOL    HW229118   0.837   1.471   9.924 -0.1176  0.2083 -0.1533
 5829SOL     OW29119   0.540   3.733   2.711  0.3770  0.2939  0.3400
 5829SOL    HW129120   0.491   3.722   2.792 -1.1006  2.1664 -0.3095
 5829SOL    HW229121   0.482   3.703   2.642  1.3222 -0.4252 -0.1461
 5830SOL     OW29122   0.821   1.127   0.166 -0.2219 -0.0577 -0.0222
 5830SOL    HW129123   0.865   1.193   0.112  2.0199 -0.4990  1.3018
 5830SOL    HW229124   0.741   1.171   0.196 -0.3938 -0.6116  0.3428
 5831SOL     OW29125   4.676   2.750   3.845  0.1628 -0.6526 -0.9159
 5831SOL    HW129126   4.606   2.770   3.906  1.3064 -0.9763  0.5146
 5831SOL    HW229127   4.653   2.800   3.766 -1.6250 -0.4957 -0.2776
 5832SOL     OW29128   2.877   4.248  10.860  0.0324  0.6204 -0.3638
 5832SOL    HW129129   2.809   4.181  10.851  0.0055  0.6773 -0.5820
 5832SOL    HW229130   2.951   4.187  10.858 -1.1848 -0.8407 -0.4096
 5833SOL     OW29131   2.545   2.178   6.553 -0.1196 -0.1989 -0.0257
 5833SOL    HW129132   2.542   2.085   6.575  0.6747 -0.4597 -1.0032
 5833SOL    HW229133   2.506   2.213   6.633 -1.1046 -3.7629  1.0490
 5834SOL     OW29134   1.025   3.595   6.049  0.1734  0.0500 -0.6115
 5834SOL    HW129135   1.095   3.545   6.090  2.2556  0.9172 -3.1211
 5834SOL    HW229136   1.002   3.542   5.973 -0.1429  2.1781 -1.9797
 5835SOL     OW29137   3.799   0.585   2.948 -0.6111 -0.0904 -0.3151
 5835SOL    HW129138   3.873   0.559   2.892  0.4959 -0.8701  1.5247
 5835SOL    HW229139   3.740   0.512   2.931  0.6138 -1.3386  0.8611
 5836SOL     OW29140   2.338   3.450   5.912 -0.2697  0.0558  0.5388
 5836SOL    HW129141   2.398   3.521   5.890 -1.0948  0.3422 -0.7968
 5836SOL    HW229142   2.395   3.411   5.978  1.3320  1.1440 -0.2024
 5837SOL     OW29143   0.376   4.057  11.101 -0.1058  0.2275  0.4423
 5837SOL    HW129144   0.400   4.149  11.102 -1.6589  0.6929 -3.3150
 5837SOL    HW229145   0.453   4.001  11.091 -0.5277 -0.0546 -1.2367
 5838SOL     OW29146   1.909   0.989   6.671  0.5552 -0.1543 -0.9267
 5838SOL    HW129147   1.894   0.980   6.577 -0.5259  0.9137 -0.8487
 5838SOL    HW229148   1.933   1.081   6.671 -1.9841  0.5185 -0.0323
 5839SOL     OW29149   3.123   3.603   2.974  0.8229 -0.1647  0.1999
 5839SOL    HW129150   3.167   3.540   3.030  2.0839  2.6872  2.4440
 5839SOL    HW229151   3.180   3.606   2.897 -3.0591 -0.6561 -2.7133
 5840SOL     OW29152   2.417   0.569   5.635 -0.1091  0.5764 -0.4711
 5840SOL    HW129153   2.339   0.546   5.585  1.4105  0.9344 -3.0358
 5840SOL    HW229154   2.488   0.543   5.577 -0.5564  2.3233 -1.7961
 5841SOL     OW29155   0.166   3.522   5.745 -0.5162  0.5729 -0.2999
 5841SOL    HW129156   0.244   3.472   5.723 -1.3398 -1.4907  1.3836
 5841SOL    HW229157   0.093   3.459   5.745  0.1799 -0.2317 -0.1668
 5842SOL     OW29158   0.881   2.173   3.222  0.1081  0.4103  0.2061
 5842SOL    HW129159   0.830   2.252   3.205 -1.9657 -0.7219  1.0378
 5842SOL    HW229160   0.820   2.105   3.192  1.8349  0.1798 -2.6826
 5843SOL     OW29161   4.257   2.172   3.369 -0.4012 -0.0674  0.1176
 5843SOL    HW129162   4.165   2.169   3.396 -0.5422 -2.8907 -0.7286
 5843SOL    HW229163   4.298   2.164   3.455  0.3723  0.9541 -0.1595
 5844SOL     OW29164   1.329   3.667   0.969 -1.2057  0.1954  0.2402
 5844SOL    HW129165   1.285   3.586   0.942 -1.0074  0.0034  0.4839
 5844SOL    HW229166   1.363   3.706   0.889  1.4158 -2.3402  0.0990
 5845SOL     OW29167   0.374   2.165   3.866 -0.0911  0.9518  0.0164
 5845SOL    HW129168   0.360   2.231   3.934 -0.1092 -0.0358  0.9699
 5845SOL    HW229169   0.394   2.224   3.793 -1.0384  0.2135 -0.8381
 5846SOL     OW29170   1.988   0.952   0.650  0.1319 -0.1092  0.3393
 5846SOL    HW129171   2.021   0.973   0.737  1.2177 -1.9156  0.3821
 5846SOL    HW229172   1.894   0.949   0.669  0.5847  0.4153  2.6916
 5847SOL     OW29173   1.007   2.566  12.824  0.2125  0.0476  0.5303
 5847SOL    HW129174   0.967   2.540  12.907 -0.5885  0.4810  0.2855
 5847SOL    HW229175   0.974   2.491  12.775 -0.6069  0.5175  0.3535
 5848SOL     OW29176   3.484   4.616   6.373 -0.2073 -0.2795  0.5268
 5848SOL    HW129177   3.543   4.559   6.422  1.1982 -1.7381 -2.8621
 5848SOL    HW229178   3.498   4.689   6.435 -0.7690  2.4469 -2.5475
 5849SOL     OW29179   3.898   3.081   4.511  0.3587 -0.3824  0.0718
 5849SOL    HW129180   3.973   3.063   4.455 -0.5480 -3.6799 -0.0624
 5849SOL    HW229181   3.856   2.996   4.523 -0.3672  0.0058  0.2732
 5850SOL     OW29182   0.181   3.304  17.670  0.5055 -0.7936 -0.3747
 5850SOL    HW129183   0.213   3.386  17.633 -1.5041 -0.5696 -1.6505
 5850SOL    HW229184   0.201   3.319   0.006 -0.3410  0.5191 -0.4025
 5851SOL     OW29185   4.212   3.342   0.993 -0.3057 -0.1899 -0.3836
 5851SOL    HW129186   4.211   3.430   0.955  0.5848 -0.2955 -0.6437
 5851SOL    HW229187   4.128   3.347   1.039  0.0326 -5.1560  0.7878
 5852SOL     OW29188   3.425   0.277   8.926  0.0486  0.5612 -0.1197
 5852SOL    HW129189   3.443   0.191   8.887  0.9283  1.0656 -0.8181
 5852SOL    HW229190   3.440   0.343   8.858  2.9521  0.1650  0.1294
 5853SOL     OW29191   4.080   2.865   6.526 -0.0343 -0.3412  0.1886
 5853SOL    HW129192   3.996   2.836   6.562 -0.3329  0.0753 -0.1529
 5853SOL    HW229193   4.124   2.783   6.505 -0.4954 -0.5762  0.1433
 5854SOL     OW29194   3.801   0.248   2.837 -0.0565 -0.2534 -0.2888
 5854SOL    HW129195   3.771   0.164   2.804 -0.7013  0.3058 -1.1311
 5854SOL    HW229196   3.896   0.239   2.846 -0.1147 -2.4066 -1.9042
 5855SOL     OW29197   3.092   0.447   7.539  0.1963  0.5474  0.2398
 5855SOL    HW129198   3.092   0.355   7.510  0.3253  0.2604  1.1508
 5855SOL    HW229199   3.005   0.450   7.578  0.2129  2.5522  0.1137
 5856SOL     OW29200   2.933   1.376   3.147  0.4616  0.0855  0.4118
 5856SOL    HW129201   3.014   1.324   3.149 -0.7665 -1.8707 -0.2714
 5856SOL    HW229202   2.893   1.356   3.231  0.7860  4.3693  1.5789
 5857SOL     OW29203   0.825   3.261   7.366  0.2151 -0.5877  0.6508
 5857SOL    HW129204   0.872   3.313   7.431  2.9509 -0.6647 -1.2812
 5857SOL    HW229205   0.819   3.329   7.299 -1.0121 -1.1561  0.1904
 5858SOL     OW29206   3.503   3.942  11.826  0.9442  0.1892  0.8372
 5858SOL    HW129207   3.563   3.869  11.839  0.0884 -0.6514  0.0725
 5858SOL    HW229208   3.534   4.010  11.887  4.0557 -0.2681 -0.2383
 5859SOL     OW29209   3.443   3.817   9.536 -0.1360 -0.1226 -0.4107
 5859SOL    HW129210   3.515   3.851   9.483 -0.2349  0.2334 -0.3143
 5859SOL    HW229211   3.475   3.733   9.569 -1.5306 -0.5310 -0.0928
 5860SOL     OW29212   3.233   0.631  12.354 -0.0171 -0.6386 -0.3103
 5860SOL    HW129213   3.318   0.651  12.316 -0.5031 -0.1984 -1.1563
 5860SOL    HW229214   3.218   0.701  12.418 -1.7539 -1.3512  0.0820
 5861SOL     OW29215   3.613   1.064   2.506  0.5244 -0.8372 -0.4581
 5861SOL    HW129216   3.546   1.132   2.506 -0.1189 -1.4724 -0.3809
 5861SOL    HW229217   3.679   1.115   2.553 -1.0837 -0.1990  1.1016
 5862SOL     OW29218   4.354   0.059   2.538 -0.1331  0.2633 -0.4084
 5862SOL    HW129219   4.280   0.051   2.478 -1.0300  1.1172  0.5915
 5862SOL    HW229220   4.349   0.151   2.566  0.1720  0.3983 -0.7971
 5863SOL     OW29221   1.716   2.894   7.474  0.0740  0.3508  0.6890
 5863SOL    HW129222   1.713   2.959   7.545  0.3105 -2.3397  3.1587
 5863SOL    HW229223   1.674   2.818   7.514  1.0013 -0.3128  0.3982
 5864SOL     OW29224   4.382   3.451  14.755  0.2065 -0.6129 -0.1199
 5864SOL    HW129225   4.393   3.436  14.661 -1.5615 -1.3263 -0.2012
 5864SOL    HW229226   4.315   3.385  14.770 -0.3492  0.7032  3.2330
 5865SOL     OW29227   3.817   3.232   7.968  0.4502 -0.4882 -0.4605
 5865SOL    HW129228   3.830   3.150   7.921  1.6350 -0.7587  0.3142
 5865SOL    HW229229   3.811   3.206   8.060 -1.0584 -0.4123 -0.5406
 5866SOL     OW29230   3.980   3.592  11.832  0.1256 -0.0104  0.6233
 5866SOL    HW129231   3.956   3.630  11.747 -1.6335  0.5736  1.3734
 5866SOL    HW229232   3.947   3.649  11.901 -2.4398 -0.6366 -0.0894
 5867SOL     OW29233   1.326   0.613   6.118  0.2493 -0.3019 -0.2338
 5867SOL    HW129234   1.342   0.704   6.142  2.9750 -0.7545 -0.3082
 5867SOL    HW229235   1.231   0.601   6.124  0.3628 -0.4214  1.3357
 5868SOL     OW29236   3.273   0.893   0.341 -0.2000 -0.2869 -0.5769
 5868SOL    HW129237   3.243   0.979   0.371  0.0222 -0.5841  0.5030
 5868SOL    HW229238   3.317   0.876   0.425 -0.8385  0.3290 -0.1111
 5869SOL     OW29239   1.911   4.659   8.969  0.0888  0.1913 -0.5056
 5869SOL    HW129240   1.875   4.600   9.035 -0.2893  0.2489 -0.6648
 5869SOL    HW229241   1.842   4.724   8.976  1.4797  1.3567  2.4627
 5870SOL     OW29242   0.383   1.789  16.585  0.2606 -1.1645 -0.5082
 5870SOL    HW129243   0.447   1.772  16.654  1.9674 -0.3739 -1.8811
 5870SOL    HW229244   0.314   1.822  16.642 -0.0735  0.5727 -1.9190
 5871SOL     OW29245   0.850   0.929   1.617  0.3885  0.6773 -0.0712
 5871SOL    HW129246   0.924   0.953   1.561  0.7012  1.2872  0.6125
 5871SOL    HW229247   0.833   0.836   1.597 -1.7012  0.6028  2.0526
 5872SOL     OW29248   3.074   2.972   4.724  0.3971  0.3084  0.4791
 5872SOL    HW129249   3.120   3.014   4.798  0.0526  1.4203  0.0689
 5872SOL    HW229250   3.034   2.893   4.759  0.4179 -0.0518 -0.3231
 5873SOL     OW29251   4.426   3.339   7.258 -0.0745  0.5588  0.1822
 5873SOL    HW129252   4.473   3.317   7.339 -0.1882  0.1960  0.1502
 5873SOL    HW229253   4.445   3.432   7.246 -1.8892  0.7590 -1.1767
 5874SOL     OW29254   2.015   1.814   6.454  0.0250 -0.8283 -0.0279
 5874SOL    HW129255   1.967   1.770   6.524  1.1449  1.6618  2.3150
 5874SOL    HW229256   1.943   1.829   6.392 -0.7692 -1.5245  0.7313
 5875SOL     OW29257   0.370   3.755   8.402 -0.4185  0.0094 -0.3710
 5875SOL    HW129258   0.422   3.696   8.456  0.4031  0.9945 -0.0897
 5875SOL    HW229259   0.415   3.839   8.411  0.4582 -0.6948  1.7473
 5876SOL     OW29260   2.776   0.793   8.493 -0.4173 -0.1198 -0.3009
 5876SOL    HW129261   2.756   0.882   8.520  0.3962 -0.6619  2.0970
 5876SOL    HW229262   2.802   0.757   8.578 -2.2519 -1.5510 -0.3218
 5877SOL     OW29263   1.054   1.053   1.450  0.5004  0.1982  0.5143
 5877SOL    HW129264   1.135   1.007   1.470  0.1908 -1.3400 -1.8543
 5877SOL    HW229265   1.082   1.145   1.454  1.7253 -0.0510 -2.5952
 5878SOL     OW29266   0.231   2.871   6.041  1.1013 -0.1280  0.0850
 5878SOL    HW129267   0.189   2.890   5.958  1.4478 -0.1821 -0.1003
 5878SOL    HW229268   0.316   2.843   6.009  0.5024 -1.4658 -0.3162
 5879SOL     OW29269   2.856   4.016   5.856  0.8228 -0.3958  0.9263
 5879SOL    HW129270   2.902   4.074   5.794 -0.1306 -0.2902  0.3110
 5879SOL    HW229271   2.790   4.076   5.888 -1.5779 -2.0197 -0.9731
 5880SOL     OW29272   2.843   3.891   3.090  0.7188  0.1881  0.4026
 5880SOL    HW129273   2.762   3.849   3.063  0.7069  1.1354 -1.0524
 5880SOL    HW229274   2.873   3.823   3.150  0.9775 -0.0930 -0.0489
 5881SOL     OW29275   3.943   4.536   9.604 -0.1408 -0.0339 -0.1369
 5881SOL    HW129276   3.998   4.603   9.644 -0.4781  0.5824 -0.7089
 5881SOL    HW229277   3.958   4.464   9.665 -1.1208  0.5754  0.8227
 5882SOL     OW29278   4.292   0.689   4.569 -0.1625 -0.0268 -0.4755
 5882SOL    HW129279   4.304   0.743   4.491 -0.0695  0.4162 -0.1500
 5882SOL    HW229280   4.380   0.685   4.608  0.1250 -0.6792 -1.1809
 5883SOL     OW29281   2.130   3.372   9.023  0.0444 -0.4661 -0.2407
 5883SOL    HW129282   2.158   3.380   8.932  0.1757  0.7857 -0.0869
 5883SOL    HW229283   2.035   3.382   9.009 -0.1260  0.4719  1.5498
 5884SOL     OW29284   0.605   1.229   2.355 -0.0041 -0.5589 -0.6789
 5884SOL    HW129285   0.587   1.268   2.440  0.5406  3.2734 -2.2987
 5884SOL    HW229286   0.694   1.202   2.378  0.4262  2.0967  0.8091
 5885SOL     OW29287   1.498   0.408   6.745 -0.0909 -0.6370  1.0261
 5885SOL    HW129288   1.496   0.465   6.822  0.0240 -0.9967  1.2943
 5885SOL    HW229289   1.587   0.431   6.718 -0.1081 -1.0801  0.5803
 5886SOL     OW29290   3.884   0.928   1.832 -0.3313 -0.4498  0.2038
 5886SOL    HW129291   3.921   0.861   1.775  0.0518 -0.5782  0.6089
 5886SOL    HW229292   3.951   0.996   1.835  0.1425 -0.8448 -1.1991
 5887SOL     OW29293   0.291   3.727   9.086  0.0987  0.5719 -0.1758
 5887SOL    HW129294   0.322   3.795   9.146 -0.3760 -2.5502  3.6074
 5887SOL    HW229295   0.339   3.756   9.008  2.1048  0.5014  1.0242
 5888SOL     OW29296   4.300   1.717  12.666  0.0711  0.5354 -0.4951
 5888SOL    HW129297   4.330   1.642  12.717 -0.4096  0.5347 -0.2176
 5888SOL    HW229298   4.361   1.789  12.684  0.0791  0.3147  0.3155
 5889SOL     OW29299   4.183   2.450   3.801  0.0281 -0.0079 -0.4617
 5889SOL    HW129300   4.243   2.406   3.740  0.5058  1.0888 -0.7908
 5889SOL    HW229301   4.098   2.408   3.790  0.9286 -2.1374  0.5412
 5890SOL     OW29302   3.576   3.367   1.967 -0.5893  0.0606  0.5719
 5890SOL    HW129303   3.630   3.375   2.046 -1.4782  1.4536  1.0297
 5890SOL    HW229304   3.637   3.328   1.904 -1.6201 -1.7847  0.7228
 5891SOL     OW29305   4.163   3.238   7.151  0.3549 -0.0793 -0.7505
 5891SOL    HW129306   4.250   3.228   7.190 -0.4574  1.0316  1.3555
 5891SOL    HW229307   4.163   3.326   7.114 -0.0311 -0.2966 -1.2585
 5892SOL     OW29308   0.484   3.873   9.556  0.1953  0.3582  0.0820
 5892SOL    HW129309   0.577   3.873   9.580 -0.0051  1.2163  0.8800
 5892SOL    HW229310   0.452   3.961   9.575 -0.6947  0.0467  0.0065
 5893SOL     OW29311   2.162   3.605  14.192 -0.3362 -0.1326 -0.3388
 5893SOL    HW129312   2.194   3.563  14.112  0.3540 -0.1846 -0.0370
 5893SOL    HW229313   2.238   3.635  14.242  1.5401 -1.3738 -2.4639
 5894SOL     OW29314   0.729   4.044   4.123  0.2465  0.6397 -0.1328
 5894SOL    HW129315   0.794   4.082   4.183  0.8516 -0.3694 -0.1484
 5894SOL    HW229316   0.724   4.103   4.048 -2.6088  1.2341  0.5475
 5895SOL     OW29317   4.519   1.710   1.538  0.3736 -0.3569 -0.1360
 5895SOL    HW129318   4.555   1.761   1.610 -1.3985 -0.0366  0.5357
 5895SOL    HW229319   4.432   1.699   1.576  1.3302 -2.8544  1.2991
 5896SOL     OW29320   2.312   2.807   6.211 -0.0908 -0.2967 -0.4669
 5896SOL    HW129321   2.324   2.895   6.175  2.2663 -0.0965  0.8332
 5896SOL    HW229322   2.361   2.750   6.152  0.4142  2.8259 -3.1260
 5897SOL     OW29323   2.640   0.784  15.616  0.4352 -0.1809  0.4420
 5897SOL    HW129324   2.594   0.832  15.685 -0.8281 -1.1429  0.2763
 5897SOL    HW229325   2.582   0.709  15.621 -0.3285  0.5188  2.1920
 5898SOL     OW29326   2.216   1.448   5.785  0.3316  0.2483 -0.4294
 5898SOL    HW129327   2.155   1.502   5.836 -1.2622 -2.4960  0.5773
 5898SOL    HW229328   2.299   1.492   5.800  1.2509 -1.4335 -0.6553
 5899SOL     OW29329   0.779   3.650   9.518 -0.1651 -0.1025 -0.2223
 5899SOL    HW129330   0.837   3.574   9.524  0.0090 -0.1649 -2.9878
 5899SOL    HW229331   0.709   3.620   9.459  0.0845  2.4237 -1.7794
 5900SOL     OW29332   0.967   3.545   0.293 -0.3830  0.6601  0.1229
 5900SOL    HW129333   0.933   3.495   0.219 -2.0112  0.3974  1.0498
 5900SOL    HW229334   1.053   3.573   0.262  0.4232 -0.9751  0.8995
 5901SOL     OW29335   1.450   2.901  13.388 -0.0788 -0.1158 -0.3641
 5901SOL    HW129336   1.366   2.916  13.431  0.3725 -1.1692  0.8726
 5901SOL    HW229337   1.437   2.970  13.323  1.4679  1.2120  0.7282
 5902SOL     OW29338   3.577   2.275  13.048  0.3583 -0.0075  0.4617
 5902SOL    HW129339   3.618   2.361  13.046 -0.0277  0.1918  1.3858
 5902SOL    HW229340   3.576   2.246  12.957  0.0686 -1.0551  0.7976
 5903SOL     OW29341   1.610   3.165   7.871 -0.6249 -0.1263  0.3742
 5903SOL    HW129342   1.628   3.071   7.860  1.7133  0.2885  0.6978
 5903SOL    HW229343   1.661   3.186   7.949 -1.7658  1.8014  0.5836
 5904SOL     OW29344   2.030   0.052   2.950  0.3657 -0.9817 -0.1516
 5904SOL    HW129345   2.070   4.716   2.907 -0.7780  0.2594 -3.4043
 5904SOL    HW229346   1.948   0.012   2.983 -0.2370  1.0229  0.7613
 5905SOL     OW29347   4.407   0.752   6.107  0.4053 -0.4830 -0.2328
 5905SOL    HW129348   4.408   0.844   6.078  2.3162 -0.6504 -0.7058
 5905SOL    HW229349   4.438   0.768   6.196 -2.8823  2.8010  0.2897
 5906SOL     OW29350   4.273   3.861   9.735 -0.2714 -0.3366  0.4137
 5906SOL    HW129351   4.352   3.886   9.686 -1.2663  2.5002  0.2684
 5906SOL    HW229352   4.260   3.768   9.713 -2.0724 -0.2887  1.2813
 5907SOL     OW29353   0.281   4.626   8.144  0.1242 -0.4933  0.3991
 5907SOL    HW129354   0.203   4.605   8.093 -0.8463  1.5490  1.0459
 5907SOL    HW229355   0.336   4.551   8.118 -0.0513 -1.2831  2.3301
 5908SOL     OW29356   0.926   2.371  11.515  0.1721  0.1455  0.2663
 5908SOL    HW129357   1.004   2.392  11.565 -1.0801  2.3618  1.2850
 5908SOL    HW229358   0.938   2.276  11.511  0.3541  0.0714  2.7903
 5909SOL     OW29359   3.086   1.153  16.251 -0.3607 -0.3206 -0.4883
 5909SOL    HW129360   3.043   1.166  16.167 -1.2241 -0.6474 -0.0924
 5909SOL    HW229361   3.062   1.231  16.301  1.2934  0.0722 -0.2990
 5910SOL     OW29362   2.939   2.521   6.718  0.0519 -0.2170  0.2091
 5910SOL    HW129363   2.928   2.590   6.784  2.5054 -1.7018  2.1623
 5910SOL    HW229364   2.913   2.443   6.767  1.5178 -0.9664 -0.1902
 5911SOL     OW29365   2.402   4.001  10.581  0.1135 -1.0055  0.3068
 5911SOL    HW129366   2.377   4.078  10.633  0.0660  0.1733 -1.4368
 5911SOL    HW229367   2.438   3.956  10.657  0.5556 -0.1677  0.5943
 5912SOL     OW29368   0.664   2.337  17.249  0.0457  0.1008  0.0721
 5912SOL    HW129369   0.692   2.327  17.340 -0.4342  1.2548  0.3390
 5912SOL    HW229370   0.595   2.401  17.268  0.4761  0.2708  1.0798
 5913SOL     OW29371   0.666   2.072   5.053  0.6292  0.0271 -0.2494
 5913SOL    HW129372   0.730   2.069   5.124 -0.5858  0.6678  0.8598
 5913SOL    HW229373   0.635   2.162   5.057  0.1217 -0.2475  1.5528
 5914SOL     OW29374   2.118   4.534   7.105  0.0569  0.1162 -0.3521
 5914SOL    HW129375   2.128   4.550   7.199 -3.0231 -0.2806  0.0494
 5914SOL    HW229376   2.072   4.450   7.107  1.0588 -0.3894  1.5579
 5915SOL     OW29377   0.729   4.695   9.182 -0.2066 -0.6902 -0.1147
 5915SOL    HW129378   0.694   4.729   9.100  0.4704  1.9347  0.6730
 5915SOL    HW229379   0.743   0.040   9.224 -2.8976 -0.9308  1.2625
 5916SOL     OW29380   2.128   2.126   0.886  0.3455 -0.1278 -0.0420
 5916SOL    HW129381   2.133   2.215   0.922  0.2294  0.1602 -0.7382
 5916SOL    HW229382   2.101   2.158   0.800  2.0375  2.3799  0.3594
 5917SOL     OW29383   0.787   3.852   7.278 -0.2763  0.0235 -0.1497
 5917SOL    HW129384   0.725   3.792   7.320 -0.8380 -0.1992 -1.3078
 5917SOL    HW229385   0.726   3.898   7.220 -0.6606 -0.5856 -0.2280
 5918SOL     OW29386   1.283   1.391  11.116 -0.1996  0.4738 -0.2741
 5918SOL    HW129387   1.337   1.313  11.126  2.3566  1.9005 -2.8758
 5918SOL    HW229388   1.258   1.395  11.023 -1.3569  0.7630  0.0522
 5919SOL     OW29389   2.668   0.323  16.480  0.4594 -0.4190  0.6453
 5919SOL    HW129390   2.581   0.291  16.502  0.7268 -1.4376  0.2188
 5919SOL    HW229391   2.715   0.246  16.512  0.1537 -0.7205  0.3592
 5920SOL     OW29392   4.210   0.106  15.227  0.1725 -0.5400  0.5115
 5920SOL    HW129393   4.197   0.064  15.142 -2.2155  0.0890  0.5752
 5920SOL    HW229394   4.118   0.130  15.238 -0.0319 -0.1785 -1.9282
 5921SOL     OW29395   0.029   2.770   7.017  0.1750  0.5732 -0.4318
 5921SOL    HW129396   4.699   2.816   6.969 -1.8252 -0.6973  1.2026
 5921SOL    HW229397   0.077   2.715   6.955 -0.6743 -0.8046  0.1152
 5922SOL     OW29398   4.111   1.770   4.387  1.1115 -0.0074 -0.0164
 5922SOL    HW129399   4.049   1.836   4.419  0.3013 -1.6429  1.8484
 5922SOL    HW229400   4.130   1.724   4.469 -0.3116  1.9037  1.4034
 5923SOL     OW29401   4.502   0.638   4.142 -0.2280 -0.3424 -0.0528
 5923SOL    HW129402   4.415   0.604   4.120  0.1337  1.6308 -4.3860
 5923SOL    HW229403   4.487   0.723   4.101 -1.4073 -0.8772 -0.7249
 5924SOL     OW29404   2.977   0.242   4.576 -0.2008  0.3531  0.3938
 5924SOL    HW129405   2.916   0.231   4.648  1.2853  1.2973  1.8029
 5924SOL    HW229406   3.044   0.293   4.621  0.9735 -0.5435 -0.3221
 5925SOL     OW29407   2.227   1.245  12.949 -0.4798 -0.1449 -0.4295
 5925SOL    HW129408   2.294   1.181  12.926 -0.1751  0.0695 -0.1334
 5925SOL    HW229409   2.216   1.298  12.870 -0.3889  2.6671  1.4435
 5926SOL     OW29410   4.403   4.423  14.574 -0.0867  0.2781  0.1005
 5926SOL    HW129411   4.404   4.416  14.670 -0.4367 -0.0644  0.0768
 5926SOL    HW229412   4.388   4.517  14.565 -3.8631 -0.4077 -0.7920
 5927SOL     OW29413   2.156   3.252  15.577 -0.1219 -0.3865 -0.4694
 5927SOL    HW129414   2.200   3.323  15.530  3.6171 -0.6198  2.7066
 5927SOL    HW229415   2.177   3.265  15.669 -0.0917  0.3732 -0.5854
 5928SOL     OW29416   4.237   1.623  13.091 -0.4573  0.2555 -0.2279
 5928SOL    HW129417   4.141   1.625  13.086 -0.4174 -0.2166 -1.1933
 5928SOL    HW229418   4.258   1.716  13.102  1.5787 -0.2065 -0.2629
 5929SOL     OW29419   2.725   3.776   9.854 -0.0005  0.4615 -0.3135
 5929SOL    HW129420   2.732   3.736   9.767  2.2092  1.6681 -0.6992
 5929SOL    HW229421   2.645   3.739   9.890  0.7118  0.4692  1.2699
 5930SOL     OW29422   3.238   2.510  13.039  0.0749  0.2573  0.3518
 5930SOL    HW129423   3.290   2.574  12.989 -2.9279  1.6339 -0.9886
 5930SOL    HW229424   3.177   2.572  13.078  0.8448 -0.0956  2.1419
 5931SOL     OW29425   4.679   1.349   2.498 -0.6325  0.0819  0.7583
 5931SOL    HW129426   4.678   1.444   2.484  1.3892 -0.0477 -0.2449
 5931SOL    HW229427   4.634   1.323   2.417 -0.1173  1.8799 -0.1159
 5932SOL     OW29428   2.656   2.891   2.022  0.2468  0.5036 -0.6747
 5932SOL    HW129429   2.644   2.850   1.936  0.6921  1.8296 -1.3802
 5932SOL    HW229430   2.622   2.980   2.008  0.8569  1.4420  4.0198
 5933SOL     OW29431   1.883   2.826   3.543  0.3927 -0.1341 -1.1015
 5933SOL    HW129432   1.962   2.815   3.490  0.4220  0.8510 -1.2475
 5933SOL    HW229433   1.815   2.820   3.477 -1.7607 -0.1304  1.1157
 5934SOL     OW29434   4.410   1.828   1.936 -0.3411  0.5680  0.2312
 5934SOL    HW129435   4.477   1.843   1.869  0.2486  0.3820  0.7910
 5934SOL    HW229436   4.360   1.906   1.912 -0.9309 -0.3376 -1.4632
 5935SOL     OW29437   4.100   3.623  14.023 -0.7322  0.4821 -0.3458
 5935SOL    HW129438   4.133   3.610  13.934  0.4196 -0.2348  0.1752
 5935SOL    HW229439   4.116   3.717  14.034 -1.6911  0.5242  0.6483
 5936SOL     OW29440   1.280   2.694   2.953 -0.0578  0.2335  0.9086
 5936SOL    HW129441   1.286   2.639   2.875  0.7881 -0.2001  1.2791
 5936SOL    HW229442   1.304   2.637   3.026  0.1905 -0.8448 -0.0052
 5937SOL     OW29443   3.240   3.867   2.571 -0.2938 -0.1052 -0.0978
 5937SOL    HW129444   3.149   3.899   2.567 -0.0260  0.3931 -1.8701
 5937SOL    HW229445   3.272   3.880   2.660 -1.2870 -0.5446  0.3291
 5938SOL     OW29446   3.344   3.632   2.742 -0.0939  0.1647  0.4410
 5938SOL    HW129447   3.346   3.725   2.721 -0.0435  0.3926  1.4481
 5938SOL    HW229448   3.299   3.594   2.666  1.4297 -1.4348  0.3529
 5939SOL     OW29449   2.327   3.449   6.821 -0.4247  0.6282  0.2181
 5939SOL    HW129450   2.302   3.541   6.830 -2.6196  0.1077 -0.4703
 5939SOL    HW229451   2.288   3.431   6.735 -0.8076  0.5349  0.4110
 5940SOL     OW29452   0.543   1.295   2.625  0.0321 -0.6723  0.0910
 5940SOL    HW129453   0.542   1.384   2.662  1.3534 -0.5042 -0.2643
 5940SOL    HW229454   0.575   1.228   2.685 -1.0088 -0.5268  0.8153
 5941SOL     OW29455   3.075   1.353   1.770  0.2082 -0.2184  0.4610
 5941SOL    HW129456   3.082   1.274   1.717  1.7765 -1.1807  2.1038
 5941SOL    HW229457   3.059   1.420   1.703  1.2135 -0.5958 -0.1560
 5942SOL     OW29458   2.199   2.277   6.705 -0.2985  0.1066 -0.3912
 5942SOL    HW129459   2.293   2.261   6.719 -0.0514  1.2742 -0.7241
 5942SOL    HW229460   2.178   2.320   6.788 -0.8760 -0.6503 -0.1474
 5943SOL     OW29461   3.020   1.531   5.275 -0.1659  0.8317  0.6134
 5943SOL    HW129462   2.940   1.556   5.227 -0.4290  1.6166  1.4466
 5943SOL    HW229463   2.982   1.493   5.354 -0.1978  0.5830  0.4803
 5944SOL     OW29464   1.874   3.037   6.303  0.4206 -0.4847 -0.5460
 5944SOL    HW129465   1.931   3.094   6.251 -0.4674 -0.1661 -1.1515
 5944SOL    HW229466   1.927   2.957   6.308 -0.5886 -1.1116  0.0728
 5945SOL     OW29467   3.153   2.660   2.882 -0.1729  0.2365 -0.4733
 5945SOL    HW129468   3.134   2.619   2.967 -0.6301  0.6309 -0.3813
 5945SOL    HW229469   3.248   2.659   2.879 -0.1898  0.8829 -1.0358
 5946SOL     OW29470   2.465   0.659   4.000 -0.2085 -0.1360  0.6404
 5946SOL    HW129471   2.500   0.586   4.051  0.8481 -0.2411 -0.2483
 5946SOL    HW229472   2.427   0.613   3.925  0.3663  1.9948 -0.9389
 5947SOL     OW29473   0.022   1.991  13.235  0.6554  0.2541  0.4536
 5947SOL    HW129474   4.721   2.076  13.221 -1.9750 -1.2756 -1.2232
 5947SOL    HW229475   0.080   1.980  13.160  1.8878  0.7133  1.3377
 5948SOL     OW29476   0.279   0.690   5.439 -0.4622 -0.5844  0.4346
 5948SOL    HW129477   0.281   0.785   5.427 -0.6941 -0.6794 -0.3310
 5948SOL    HW229478   0.270   0.682   5.534 -0.3621  1.8987  0.6644
 5949SOL     OW29479   3.823   2.844   9.064 -0.3415  0.0746  0.4787
 5949SOL    HW129480   3.796   2.854   8.973 -1.0996  0.8955  0.7880
 5949SOL    HW229481   3.743   2.802   9.095 -1.4425  2.1211  0.4294
 5950SOL     OW29482   3.595   4.196   1.461 -0.2680 -0.1527 -0.4738
 5950SOL    HW129483   3.575   4.209   1.554  1.9193  2.6787 -0.3935
 5950SOL    HW229484   3.651   4.270   1.438 -1.5152  1.9262  3.0660
 5951SOL     OW29485   3.976   4.005  10.014  0.3284  0.0424  0.1106
 5951SOL    HW129486   3.992   3.937  10.080 -1.4440  1.1436  1.6709
 5951SOL    HW229487   4.042   4.068  10.043 -0.8207  1.0889  0.4676
 5952SOL     OW29488   2.467   0.305   7.414  0.0294  0.1709  0.0314
 5952SOL    HW129489   2.560   0.309   7.436  0.0024 -3.1953  0.6130
 5952SOL    HW229490   2.423   0.293   7.498  1.3105 -2.4610  0.3097
 5953SOL     OW29491   1.419   1.756   1.184 -0.1308 -0.0907 -0.0626
 5953SOL    HW129492   1.491   1.818   1.197  0.8543 -1.0926 -0.7244
 5953SOL    HW229493   1.352   1.788   1.244  0.3987 -0.1671  0.5711
 5954SOL     OW29494   0.678   4.368   7.046 -0.0666  0.2661 -0.2095
 5954SOL    HW129495   0.696   4.379   6.953 -3.0937  0.0201 -0.8403
 5954SOL    HW229496   0.673   4.457   7.079  1.9611  0.4945 -0.5512
 5955SOL     OW29497   0.659   0.885  14.913 -0.2737 -0.2076 -0.7536
 5955SOL    HW129498   0.633   0.914  14.826  0.6761 -0.8188 -1.2444
 5955SOL    HW229499   0.751   0.911  14.910 -0.7882  1.5594 -1.1861
 5956SOL     OW29500   3.013   3.447  17.202 -0.1903 -0.5273  0.7662
 5956SOL    HW129501   3.074   3.432  17.275 -0.1172  0.8553  0.9984
 5956SOL    HW229502   2.924   3.439  17.237  0.1236  1.2130  2.0275
 5957SOL     OW29503   1.402   4.683   7.344 -0.2072 -0.1085  0.7458
 5957SOL    HW129504   1.447   4.729   7.274 -1.9857  0.1334 -0.2302
 5957SOL    HW229505   1.317   4.727   7.342  0.3713  1.0982  2.1259
 5958SOL     OW29506   4.091   4.102  16.444 -0.3808 -0.3023  0.1586
 5958SOL    HW129507   4.119   4.017  16.478 -0.0078 -0.3814 -0.3449
 5958SOL    HW229508   4.075   4.156  16.522  0.7881  0.7686 -0.3378
 5959SOL     OW29509   0.573   4.093   5.191 -0.1996  0.1698  0.4022
 5959SOL    HW129510   0.541   4.183   5.181  0.6819  0.2734 -1.3854
 5959SOL    HW229511   0.521   4.043   5.130  0.1682 -1.6977  1.6309
 5960SOL     OW29512   2.492   0.252  17.168 -0.0411 -0.2029  0.1803
 5960SOL    HW129513   2.427   0.193  17.206  0.6160 -2.3855 -2.0570
 5960SOL    HW229514   2.506   0.318  17.236  2.3600  0.5275 -1.0148
 5961SOL     OW29515   4.647   3.406   9.929  0.0235  0.4238 -0.9753
 5961SOL    HW129516   4.571   3.350   9.919 -0.6891  1.2845 -0.3796
 5961SOL    HW229517   4.634   3.458  10.009  3.0667  0.8841 -0.7625
 5962SOL     OW29518   4.482   0.174   6.124 -0.1847  0.2427 -0.6091
 5962SOL    HW129519   4.543   0.245   6.102  0.5584  0.7293  2.9083
 5962SOL    HW229520   4.437   0.196   6.206 -0.2187  0.5652 -0.7146
 5963SOL     OW29521   3.347   0.670  14.405 -0.1032  0.0876  0.0259
 5963SOL    HW129522   3.410   0.714  14.347  1.5786 -2.7013 -0.2644
 5963SOL    HW229523   3.358   0.719  14.487 -0.3811 -0.3495  0.3225
 5964SOL     OW29524   4.494   3.156   4.699 -0.0780 -0.4592 -0.0531
 5964SOL    HW129525   4.423   3.205   4.740  1.1847  1.3198 -0.0237
 5964SOL    HW229526   4.454   3.070   4.681  2.5133 -1.2629 -1.9484
 5965SOL     OW29527   2.013   2.297   8.125  1.1060  0.1059  0.2297
 5965SOL    HW129528   2.080   2.228   8.123 -0.0802 -1.0709  2.1016
 5965SOL    HW229529   1.958   2.274   8.050  1.9277  1.2322 -0.7332
 5966SOL     OW29530   0.203   1.158   8.368  0.2582 -0.3383 -0.4485
 5966SOL    HW129531   0.211   1.254   8.372  0.3733 -0.3626 -0.1569
 5966SOL    HW229532   0.142   1.141   8.296 -2.0068 -1.8157  1.8236
 5967SOL     OW29533   3.174   3.297   8.334 -0.3511 -0.4713  0.2239
 5967SOL    HW129534   3.265   3.289   8.304 -0.4384  0.9246 -0.4080
 5967SOL    HW229535   3.201   3.325   8.421 -3.0798  2.0391  0.2402
 5968SOL     OW29536   3.537   2.270   9.502 -0.1977  0.0858  0.5146
 5968SOL    HW129537   3.499   2.225   9.426 -1.6668  1.6717  0.3199
 5968SOL    HW229538   3.610   2.211   9.520  0.1450  0.0579 -0.9512
 5969SOL     OW29539   3.183   1.907   7.801 -0.4108 -0.2267  0.5370
 5969SOL    HW129540   3.223   1.825   7.770  0.6996  1.0196 -1.3432
 5969SOL    HW229541   3.250   1.969   7.773 -1.5398  0.8237  0.1720
 5970SOL     OW29542   1.572   1.971   1.920 -0.1656 -0.6718  0.6145
 5970SOL    HW129543   1.534   1.930   1.841  0.3978 -1.0414  0.5318
 5970SOL    HW229544   1.515   1.932   1.986  0.4447 -2.0944  0.3037
 5971SOL     OW29545   1.343   2.066   8.183 -0.1679 -0.1469 -0.2354
 5971SOL    HW129546   1.282   2.021   8.241  0.0629 -1.3412 -0.9206
 5971SOL    HW229547   1.360   2.142   8.238  0.8904  0.2396 -1.0799
 5972SOL     OW29548   0.939   0.262   4.221 -0.2050 -0.4135  0.7652
 5972SOL    HW129549   0.981   0.316   4.154  0.2858  0.1525  1.5348
 5972SOL    HW229550   0.925   0.187   4.163 -1.1221  1.1589 -1.0545
 5973SOL     OW29551   1.957   4.558  11.512  0.2900 -0.0618 -0.2888
 5973SOL    HW129552   1.965   4.556  11.608 -0.1966 -2.0632 -0.2827
 5973SOL    HW229553   2.008   4.637  11.495  0.5419 -0.7025 -2.4303
 5974SOL     OW29554   3.158   2.146  12.292  0.0062 -0.0313  0.1179
 5974SOL    HW129555   3.175   2.154  12.198 -1.0275 -0.2712 -0.0957
 5974SOL    HW229556   3.125   2.056  12.295 -1.6915  0.6046  0.4429
 5975SOL     OW29557   0.594   4.408   7.996  0.1322 -0.7883  0.1046
 5975SOL    HW129558   0.650   4.463   7.940  0.4970  1.5365  2.7418
 5975SOL    HW229559   0.638   4.323   7.998  0.4839 -0.5720  1.7095
 5976SOL     OW29560   1.249   2.900   5.658  0.0341 -0.2587  0.2513
 5976SOL    HW129561   1.306   2.889   5.583 -0.8349  1.6315 -0.6902
 5976SOL    HW229562   1.165   2.862   5.631  0.2149  0.5886 -1.4826
 5977SOL     OW29563   0.364   2.139   0.731  0.0403  0.0087  0.1920
 5977SOL    HW129564   0.444   2.147   0.783 -0.5817 -1.8772  1.4600
 5977SOL    HW229565   0.379   2.192   0.653  0.1661 -0.1581  0.1043
 5978SOL     OW29566   3.955   3.992   9.131  0.1560  0.1890  0.5363
 5978SOL    HW129567   4.024   4.048   9.095  0.3704  1.2144  2.5560
 5978SOL    HW229568   3.884   4.017   9.072 -0.5096 -1.5454  0.6001
 5979SOL     OW29569   2.983   3.159  16.462  0.0503 -0.3913  0.0506
 5979SOL    HW129570   3.068   3.130  16.429  0.5160  0.5955  0.3769
 5979SOL    HW229571   2.924   3.085  16.449 -2.1682  0.7330  3.5302
 5980SOL     OW29572   0.459   4.103  16.753  0.3259 -0.3947  0.2712
 5980SOL    HW129573   0.457   4.120  16.848  0.4497 -0.5256  0.2980
 5980SOL    HW229574   0.468   4.008  16.766  2.7108 -0.1067  0.8199
 5981SOL     OW29575   2.460   3.961   1.948  0.5613  0.1666  0.2943
 5981SOL    HW129576   2.434   3.913   2.026  2.5791  0.7060  1.2938
 5981SOL    HW229577   2.544   3.915   1.938 -0.1591 -0.6381 -2.0292
 5982SOL     OW29578   0.609   0.328  17.032  0.2207 -0.3407  0.0377
 5982SOL    HW129579   0.705   0.328  17.038  0.1816 -2.4498  0.7833
 5982SOL    HW229580   0.599   0.366  16.945  0.6136 -3.0294 -1.1692
 5983SOL     OW29581   2.192   0.271   0.225 -0.7509  0.2235 -0.4642
 5983SOL    HW129582   2.249   0.327   0.278 -0.9531  1.1803 -1.2605
 5983SOL    HW229583   2.237   0.188   0.241 -2.2391 -0.0165  2.5232
 5984SOL     OW29584   1.659   1.161  14.138  0.6165 -0.4991  0.1652
 5984SOL    HW129585   1.686   1.202  14.220 -1.3122  1.4165 -0.1325
 5984SOL    HW229586   1.583   1.107  14.161 -0.5840  0.6097 -1.1229
 5985SOL     OW29587   0.400   3.073   4.331  0.4534 -0.8473 -0.0899
 5985SOL    HW129588   0.399   3.157   4.376  0.3256 -1.3054  0.7620
 5985SOL    HW229589   0.382   3.098   4.240  0.4709 -0.6051 -0.0259
 5986SOL     OW29590   4.074   3.728   3.056 -0.4462  0.0622  0.2090
 5986SOL    HW129591   4.136   3.745   2.985  0.6655  0.9121  1.4021
 5986SOL    HW229592   4.004   3.791   3.037  0.4516  1.3856  1.3674
 5987SOL     OW29593   1.516   3.995   4.361 -0.5792 -0.0511  0.3726
 5987SOL    HW129594   1.435   3.961   4.398 -0.2438 -0.9096  0.3294
 5987SOL    HW229595   1.533   3.951   4.278  0.6793  0.1602  0.5061
 5988SOL     OW29596   3.709   0.030   2.730  0.1980  0.1087  0.3070
 5988SOL    HW129597   3.615   0.050   2.733 -0.1213 -1.3839  0.2104
 5988SOL    HW229598   3.723   0.007   2.638  1.8663 -0.5934  0.7374
 5989SOL     OW29599   2.876   2.912   5.006 -0.3279  0.1798  0.1965
 5989SOL    HW129600   2.783   2.922   5.027 -0.5392 -1.6567  0.1570
 5989SOL    HW229601   2.888   2.827   5.049 -2.1234  0.7002  1.7355
 5990SOL     OW29602   1.609   4.353  15.471 -0.0800  0.2180  0.4756
 5990SOL    HW129603   1.596   4.310  15.386  0.2041 -1.2612  1.1687
 5990SOL    HW229604   1.695   4.323  15.499 -0.6174 -0.3297  1.5324
 5991SOL     OW29605   1.425   0.785   2.966  0.0067  0.1306 -0.4371
 5991SOL    HW129606   1.436   0.820   2.877  2.3225  1.1964  0.2784
 5991SOL    HW229607   1.514   0.765   2.992  0.9489  3.4793 -1.1271
 5992SOL     OW29608   3.732   0.718  12.151 -0.2081 -0.0695  0.3314
 5992SOL    HW129609   3.809   0.662  12.156  0.7197  1.1686 -0.0555
 5992SOL    HW229610   3.772   0.802  12.129  0.6578 -0.8104 -0.8880
 5993SOL     OW29611   3.750   4.711   4.672  0.1998 -0.6286  0.0936
 5993SOL    HW129612   3.764   0.061   4.641  1.3620  0.1279  2.7702
 5993SOL    HW229613   3.748   4.675   4.584  0.7881  0.9759 -0.5697
 5994SOL     OW29614   3.249   1.354  17.458  0.2139  0.5595 -0.1501
 5994SOL    HW129615   3.239   1.302  17.378 -0.0113 -1.3829  1.1462
 5994SOL    HW229616   3.320   1.411  17.427 -0.9580  1.5985 -0.9241
 5995SOL     OW29617   4.320   1.160   4.164  0.4548 -0.8007 -0.1904
 5995SOL    HW129618   4.334   1.248   4.199  0.5526 -0.0741 -2.0381
 5995SOL    HW229619   4.408   1.124   4.174 -0.5737 -3.3818 -0.5560
 5996SOL     OW29620   4.145   2.698  12.435 -0.0596 -0.0529  0.5972
 5996SOL    HW129621   4.165   2.606  12.419  1.0448 -0.4987  4.5036
 5996SOL    HW229622   4.112   2.682  12.524 -0.9770  2.4199  0.7037
 5997SOL     OW29623   1.217   3.547  11.568  0.4149 -0.0140  0.0062
 5997SOL    HW129624   1.203   3.490  11.492  3.2084  2.2535 -2.2333
 5997SOL    HW229625   1.298   3.586  11.535  0.2712  1.4607  1.4199
 5998SOL     OW29626   0.722   1.121   2.134 -0.0432  0.3385 -0.4906
 5998SOL    HW129627   0.674   1.168   2.202 -0.9945 -1.4773  0.0977
 5998SOL    HW229628   0.707   1.171   2.053 -1.1987 -1.7569 -1.5709
 5999SOL     OW29629   2.827   1.066   3.554  0.1635 -0.0269  0.3129
 5999SOL    HW129630   2.813   1.001   3.485 -4.3912 -0.5553  1.7342
 5999SOL    HW229631   2.778   1.028   3.627 -0.0269 -0.4709 -0.0482
 6000SOL     OW29632   0.168   0.620   3.813  0.0004  0.0636 -0.1393
 6000SOL    HW129633   0.222   0.669   3.751 -0.0681  1.0233  0.5692
 6000SOL    HW229634   0.212   0.639   3.896 -1.2733 -0.7659  0.7197
 6001SOL     OW29635   0.644   1.767  15.420 -0.5677  0.2485  0.6094
 6001SOL    HW129636   0.566   1.806  15.459 -1.3241 -1.3236  0.6956
 6001SOL    HW229637   0.610   1.684  15.385  2.6839 -0.5306 -0.6518
 6002SOL     OW29638   1.231   3.885   4.735 -0.1979  0.1834  0.0286
 6002SOL    HW129639   1.147   3.899   4.778 -0.0626  0.3429  0.2358
 6002SOL    HW229640   1.289   3.854   4.803 -1.4512  0.1038  1.0611
 6003SOL     OW29641   3.751   1.098   5.027 -0.0992  0.0146  0.1996
 6003SOL    HW129642   3.716   1.083   5.114 -2.1404  0.2833 -0.5644
 6003SOL    HW229643   3.812   1.170   5.038  0.3653 -0.5002  0.9526
 6004SOL     OW29644   3.777   0.648   5.400  0.6008 -0.2097 -0.0713
 6004SOL    HW129645   3.783   0.553   5.409 -0.2867 -0.3919 -1.5234
 6004SOL    HW229646   3.827   0.665   5.321 -1.2314 -1.4409 -1.4818
 6005SOL     OW29647   2.261   0.242   2.232 -0.2274  0.0326 -0.0221
 6005SOL    HW129648   2.300   0.327   2.211  2.6676 -1.6979 -1.5415
 6005SOL    HW229649   2.340   0.191   2.246 -0.7002 -0.3425  1.2518
 6006SOL     OW29650   1.697   1.901   9.172 -0.2983 -0.2813 -0.0250
 6006SOL    HW129651   1.724   1.889   9.263  3.4978  3.7689 -0.6198
 6006SOL    HW229652   1.689   1.996   9.163  0.3718 -0.4585 -2.6131
 6007SOL     OW29653   3.143   4.198   2.309  0.2289  0.0680  0.2534
 6007SOL    HW129654   3.176   4.255   2.240 -0.1033  0.9791  0.8512
 6007SOL    HW229655   3.053   4.227   2.300  0.0241 -0.1325  1.7209
 6008SOL     OW29656   4.374   1.840   7.025 -0.1449  0.2282  0.5724
 6008SOL    HW129657   4.316   1.768   6.997 -2.5229  3.0260 -1.6620
 6008SOL    HW229658   4.316   1.916   7.018 -0.4863 -0.0333  0.5518
 6009SOL     OW29659   0.566   3.030  10.400  0.6831 -0.3151 -0.7525
 6009SOL    HW129660   0.575   2.978  10.320  0.9774 -2.2388  0.5366
 6009SOL    HW229661   0.570   3.121  10.370  0.8202  1.1362  3.6448
 6010SOL     OW29662   3.686   4.490   8.145  0.2420  0.1170 -0.6696
 6010SOL    HW129663   3.751   4.424   8.171 -0.6968 -1.2785 -1.8365
 6010SOL    HW229664   3.668   4.537   8.227  1.6607 -0.0890 -0.2413
 6011SOL     OW29665   3.081   4.378  11.020 -0.6304 -0.8945  0.0858
 6011SOL    HW129666   3.041   4.431  10.952  2.4732  0.8316 -0.3810
 6011SOL    HW229667   3.169   4.414  11.027 -1.7635  1.9107 -0.2926
 6012SOL     OW29668   3.690   2.686   3.499 -0.0403 -0.0722  0.2770
 6012SOL    HW129669   3.674   2.778   3.521 -1.3868 -0.2128 -0.1502
 6012SOL    HW229670   3.780   2.675   3.530  0.6215  0.1948 -1.5755
 6013SOL     OW29671   2.163   3.307   8.355  0.3906  0.0844  0.1471
 6013SOL    HW129672   2.250   3.323   8.391  0.7169  1.7731 -1.3564
 6013SOL    HW229673   2.165   3.375   8.287  0.3913  0.5657  0.6214
 6014SOL     OW29674   2.547   2.478   7.960  0.4058  0.3832 -0.3285
 6014SOL    HW129675   2.540   2.560   7.910  0.2776  0.3666 -0.3371
 6014SOL    HW229676   2.566   2.423   7.885  0.0938 -0.6272  0.3373
 6015SOL     OW29677   1.217   2.245   2.273  0.2805  0.1961 -0.6237
 6015SOL    HW129678   1.132   2.214   2.241 -1.4700  3.9332  0.5199
 6015SOL    HW229679   1.222   2.223   2.366  1.9425  2.0062 -0.2803
 6016SOL     OW29680   0.033   1.157   8.143 -0.2508 -0.0396  0.1232
 6016SOL    HW129681   0.050   1.098   8.070 -1.3181  0.6541 -0.6917
 6016SOL    HW229682   4.695   1.200   8.107  0.8150  2.3637  0.6968
 6017SOL     OW29683   1.768   1.411  17.066 -0.0758 -0.1346 -0.3767
 6017SOL    HW129684   1.841   1.367  17.021 -1.4011 -2.0279 -0.7121
 6017SOL    HW229685   1.718   1.442  16.991  0.1135  0.2517 -0.3417
 6018SOL     OW29686   3.408   0.021   2.730 -0.2863  0.5209 -0.6568
 6018SOL    HW129687   3.349   0.094   2.716  0.9079  1.9041  1.4277
 6018SOL    HW229688   3.348   4.687   2.728  1.0236 -0.5263 -1.7077
 6019SOL     OW29689   4.215   0.381   6.105  0.1950 -0.0858  0.0223
 6019SOL    HW129690   4.166   0.299   6.100  0.1509 -0.1211  1.0082
 6019SOL    HW229691   4.143   0.437   6.075 -0.5834 -1.3188 -0.4003
 6020SOL     OW29692   1.119   4.560   9.468  0.0421  0.6383  0.1847
 6020SOL    HW129693   1.111   4.581   9.561 -0.5223  1.1616  0.0204
 6020SOL    HW229694   1.190   4.622   9.456  0.9564 -0.4054  0.1972
 6021SOL     OW29695   0.267   0.819   4.714 -0.2552 -0.2078 -0.5257
 6021SOL    HW129696   0.177   0.805   4.742 -0.5438  1.9958 -0.3713
 6021SOL    HW229697   0.313   0.745   4.754  0.1939  1.6863  2.4410
 6022SOL     OW29698   2.939   1.489  10.286  0.5031 -0.0897 -0.6442
 6022SOL    HW129699   3.023   1.534  10.287  1.3525 -1.7466  2.6242
 6022SOL    HW229700   2.903   1.534  10.362 -1.1914  0.4848 -1.7885
 6023SOL     OW29701   3.596   3.770   1.003 -0.3310 -0.4474  0.1567
 6023SOL    HW129702   3.620   3.698   0.944 -1.2768 -0.3844 -0.3187
 6023SOL    HW229703   3.571   3.727   1.085  0.0584  0.0800  0.5524
 6024SOL     OW29704   0.720   4.143   0.398  0.5860  0.1985  0.1950
 6024SOL    HW129705   0.806   4.120   0.364 -0.0807 -0.9659 -0.7083
 6024SOL    HW229706   0.694   4.187   0.316 -0.1169  0.2240  0.4355
 6025SOL     OW29707   2.369   4.535   2.004 -0.3623  0.3507 -0.3542
 6025SOL    HW129708   2.400   4.450   2.035  0.2349  0.9461  0.6833
 6025SOL    HW229709   2.275   4.519   1.997 -0.4395  0.2659  0.9328
 6026SOL     OW29710   2.175   0.058   2.431 -0.7027 -0.3552  0.1809
 6026SOL    HW129711   2.093   0.035   2.474 -0.7464 -0.7541 -0.1224
 6026SOL    HW229712   2.156   0.113   2.355  0.6283  0.3535  0.3602
 6027SOL     OW29713   3.034   4.414   5.634 -0.0257  0.1728  0.1831
 6027SOL    HW129714   3.123   4.446   5.624  1.1457 -2.9637  0.3275
 6027SOL    HW229715   3.012   4.420   5.727 -0.6210 -1.7000  0.1727
 6028SOL     OW29716   4.557   3.979   7.660 -0.0910 -0.4833 -0.0179
 6028SOL    HW129717   4.572   3.984   7.754 -1.2919 -2.2313  0.2525
 6028SOL    HW229718   4.548   4.071   7.633  0.2046 -0.6365 -0.6457
 6029SOL     OW29719   1.303   2.587   7.852  0.3631  0.2933  0.5824
 6029SOL    HW129720   1.285   2.513   7.910 -1.2035  1.3666  1.4874
 6029SOL    HW229721   1.394   2.606   7.875  0.3230  1.9273 -0.5775
 6030SOL     OW29722   2.441   2.127   4.027  0.0393 -0.6623 -0.0769
 6030SOL    HW129723   2.391   2.157   4.103  0.1324 -1.2826  0.2317
 6030SOL    HW229724   2.405   2.190   3.963 -0.1039 -0.9798 -0.3083
 6031SOL     OW29725   4.092   3.499   5.428  0.3840  0.3023 -0.2036
 6031SOL    HW129726   4.144   3.454   5.495 -0.7686  0.6762  0.9440
 6031SOL    HW229727   4.065   3.578   5.475 -0.7367  0.3123 -0.8853
 6032SOL     OW29728   4.429   0.896  13.722  0.5697 -0.0473  0.0743
 6032SOL    HW129729   4.509   0.923  13.767  0.3172  1.3176 -0.2821
 6032SOL    HW229730   4.407   0.822  13.779 -2.9018  1.0054  0.1033
 6033SOL     OW29731   4.450   0.161  10.500  0.1318  0.1138  0.4808
 6033SOL    HW129732   4.498   0.089  10.542  0.9268 -0.3619 -1.2460
 6033SOL    HW229733   4.485   0.237  10.548 -0.5664  0.4629  0.4331
 6034SOL     OW29734   2.107   4.610  12.405  0.1248  0.8524  0.3596
 6034SOL    HW129735   2.033   4.573  12.357  0.7741 -1.9362  1.5477
 6034SOL    HW229736   2.133   4.539  12.464 -0.6558 -0.0254 -0.3460
 6035SOL     OW29737   1.154   1.786   2.439 -0.2916 -0.4445  0.9313
 6035SOL    HW129738   1.243   1.751   2.449 -0.6177 -0.7822  2.5422
 6035SOL    HW229739   1.113   1.782   2.525  0.3389  0.3390  1.2639
 6036SOL     OW29740   1.490   1.696  14.838 -0.5289  0.1603  0.5234
 6036SOL    HW129741   1.526   1.726  14.922 -1.2445  4.3009 -0.6258
 6036SOL    HW229742   1.573   1.680  14.793 -1.4539 -3.3641  0.1095
 6037SOL     OW29743   3.108   2.424   4.703 -0.1660 -0.8204  0.4613
 6037SOL    HW129744   3.130   2.358   4.768 -0.0861 -0.8676  0.3876
 6037SOL    HW229745   3.017   2.437   4.727 -0.0711  2.4219 -0.8092
 6038SOL     OW29746   0.404   4.091   7.677 -0.2874  0.4578 -0.0506
 6038SOL    HW129747   0.329   4.150   7.688 -0.8082 -0.5865  2.0811
 6038SOL    HW229748   0.450   4.130   7.603  0.8152  1.4942  1.1579
 6039SOL     OW29749   0.336   2.127  12.738  0.1183  0.6685  0.0608
 6039SOL    HW129750   0.361   2.219  12.741 -1.3276  1.0386  1.0729
 6039SOL    HW229751   0.370   2.090  12.657 -3.3779 -2.1722 -0.1142
 6040SOL     OW29752   1.252   2.336   7.095 -0.4321 -0.6433  0.2699
 6040SOL    HW129753   1.193   2.387   7.039  0.5992  0.7483  0.4396
 6040SOL    HW229754   1.222   2.249   7.069 -1.0253  0.3470 -2.3542
 6041SOL     OW29755   3.289   4.191   5.006 -0.0091 -0.2078  0.7554
 6041SOL    HW129756   3.301   4.097   5.021 -2.4478 -0.8776 -1.7041
 6041SOL    HW229757   3.197   4.215   5.001 -0.0141 -0.2527  0.6362
 6042SOL     OW29758   0.170   1.716   9.120 -0.0299 -0.7669  0.4683
 6042SOL    HW129759   0.093   1.732   9.175  0.4912  0.8377  0.7242
 6042SOL    HW229760   0.133   1.663   9.050 -0.1131  1.8312 -1.4338
 6043SOL     OW29761   0.205   0.706   6.352  0.6054 -0.3289  0.2469
 6043SOL    HW129762   0.274   0.767   6.378 -0.2777  0.0340  1.7342
 6043SOL    HW229763   0.162   0.678   6.433 -0.3546  0.2396 -0.0655
 6044SOL     OW29764   0.814   2.807   5.279  0.0695 -0.1469 -0.3784
 6044SOL    HW129765   0.731   2.779   5.239 -0.4253  0.6763  0.0671
 6044SOL    HW229766   0.874   2.767   5.217 -1.1987 -1.2325 -0.9013
 6045SOL     OW29767   1.056   0.087   5.283  0.0228 -0.0560  0.4089
 6045SOL    HW129768   1.089   0.008   5.324 -1.1632  0.7108  2.8619
 6045SOL    HW229769   1.003   0.120   5.356  0.6280  1.2786  0.2468
 6046SOL     OW29770   4.503   0.239  12.337 -0.1775  0.2646 -0.2858
 6046SOL    HW129771   4.482   0.146  12.342 -0.4843  0.3912  1.0076
 6046SOL    HW229772   4.416   0.278  12.327  0.5035  1.2926 -2.0532
 6047SOL     OW29773   0.510   2.084   4.105 -0.2686 -0.1325 -0.1687
 6047SOL    HW129774   0.552   2.149   4.160 -1.6702 -0.8521  1.7822
 6047SOL    HW229775   0.528   2.121   4.019 -0.2979  0.6610  0.1707
 6048SOL     OW29776   1.389   4.485   9.752  0.2872 -0.6508  0.5637
 6048SOL    HW129777   1.316   4.501   9.693  0.2717 -1.1880  0.4442
 6048SOL    HW229778   1.389   4.390   9.754 -2.4267 -0.5725  3.5909
 6049SOL     OW29779   1.619   4.075  15.331  0.4654  0.2551  0.0510
 6049SOL    HW129780   1.711   4.057  15.347 -0.2747 -2.9868  0.6600
 6049SOL    HW229781   1.611   4.065  15.236  2.1435  1.4129 -0.2126
 6050SOL     OW29782   4.140   2.595   5.404  0.5635 -0.0453  0.2227
 6050SOL    HW129783   4.215   2.635   5.447  1.0348  0.0502 -0.6699
 6050SOL    HW229784   4.169   2.612   5.314  0.5281  1.0720  0.4274
 6051SOL     OW29785   1.030   4.421   7.591  0.9307  0.2709  0.2920
 6051SOL    HW129786   0.939   4.391   7.599  0.5790  1.4592  0.7408
 6051SOL    HW229787   1.014   4.498   7.537  1.2256 -0.6882 -1.1808
 6052SOL     OW29788   2.306   3.835   0.628 -0.2398  0.2028  0.2139
 6052SOL    HW129789   2.376   3.849   0.565  0.7885  0.5206  1.4151
 6052SOL    HW229790   2.268   3.922   0.630 -2.1560 -0.6282  0.0558
 6053SOL     OW29791   1.017   3.653   4.978  0.7684  0.6236  0.3493
 6053SOL    HW129792   1.011   3.747   4.997 -0.7606  0.9005 -1.5249
 6053SOL    HW229793   1.067   3.618   5.051 -1.9230 -1.0641  1.3804
 6054SOL     OW29794   1.876   1.276   3.353  0.3298 -0.4598  0.3786
 6054SOL    HW129795   1.932   1.253   3.427  3.4103  1.5959 -1.3475
 6054SOL    HW229796   1.795   1.247   3.396 -0.8760  0.2732 -1.3798
 6055SOL     OW29797   2.794   3.220   2.909  0.1141  0.1148  0.3817
 6055SOL    HW129798   2.832   3.182   2.988 -0.9614 -2.0717 -0.1482
 6055SOL    HW229799   2.854   3.184   2.844 -1.3624  1.0613 -1.5203
 6056SOL     OW29800   2.873   0.506   3.982 -0.3306 -0.4751  0.1152
 6056SOL    HW129801   2.876   0.571   4.052 -1.4268 -0.9984  0.6451
 6056SOL    HW229802   2.935   0.545   3.920 -0.0451  1.0641  1.3823
 6057SOL     OW29803   3.907   0.714   4.862 -0.2454 -0.6075  0.2294
 6057SOL    HW129804   4.001   0.708   4.881 -0.2999 -0.1582  0.6428
 6057SOL    HW229805   3.893   0.803   4.832 -1.3379 -0.2816  1.7359
 6058SOL     OW29806   4.092   0.292   4.096 -0.1053  0.2641  0.1416
 6058SOL    HW129807   4.001   0.318   4.082 -0.6847 -1.9682 -0.2294
 6058SOL    HW229808   4.085   0.209   4.143 -0.6339  0.2668  0.0659
 6059SOL     OW29809   2.724   1.596   5.844 -0.5644 -0.5888 -0.1935
 6059SOL    HW129810   2.792   1.628   5.902 -1.2998  0.4762  0.0681
 6059SOL    HW229811   2.689   1.671   5.796 -0.9748  0.0397  1.0813
 6060SOL     OW29812   2.422   1.951   7.439 -0.8169 -0.5772 -0.1568
 6060SOL    HW129813   2.414   1.858   7.461  0.3685 -0.5094  0.5488
 6060SOL    HW229814   2.484   1.962   7.366 -1.5572 -1.2061 -0.8811
 6061SOL     OW29815   3.763   3.643   7.944 -0.4394 -0.5369  0.2100
 6061SOL    HW129816   3.678   3.642   7.988 -0.8086  1.4411 -0.4434
 6061SOL    HW229817   3.741   3.650   7.851 -1.7631  3.7639  0.8927
 6062SOL     OW29818   0.639   2.110   5.524 -0.6291  0.2313 -0.0963
 6062SOL    HW129819   0.709   2.121   5.460 -0.9948 -0.7369 -0.6629
 6062SOL    HW229820   0.674   2.165   5.594  3.3872 -0.6638 -1.4055
 6063SOL     OW29821   1.735   2.710   3.049  0.0022  0.1238 -0.2085
 6063SOL    HW129822   1.729   2.616   3.067 -0.0831  0.4402  1.4315
 6063SOL    HW229823   1.827   2.733   3.066 -0.3193 -0.4128  2.2965
 6064SOL     OW29824   1.799   4.615   8.708  0.3471 -0.6942 -0.0471
 6064SOL    HW129825   1.731   4.548   8.702  0.6738 -1.0122 -0.1725
 6064SOL    HW229826   1.845   4.591   8.788 -2.1599 -4.2674  0.3174
 6065SOL     OW29827   4.085   3.580  14.671  0.2279 -0.2074  0.5738
 6065SOL    HW129828   4.110   3.668  14.640 -0.5617  0.3963  1.6479
 6065SOL    HW229829   4.154   3.524  14.637  0.9348  0.1495  1.4052
 6066SOL     OW29830   1.977   3.255   5.539 -0.3711 -0.1244  0.2629
 6066SOL    HW129831   2.005   3.244   5.448  1.5208 -1.2643  0.9788
 6066SOL    HW229832   2.051   3.306   5.571 -0.3849 -0.9934  1.6901
 6067SOL     OW29833   0.877   3.435   4.089  0.7205 -0.1125 -0.2796
 6067SOL    HW129834   0.958   3.407   4.132  0.9802 -0.2283 -0.8361
 6067SOL    HW229835   0.815   3.448   4.160 -0.9134  3.6046 -2.3601
 6068SOL     OW29836   0.379   0.458   7.205  0.4984 -0.1690  0.0033
 6068SOL    HW129837   0.405   0.366   7.201  0.7449 -0.0874 -0.2844
 6068SOL    HW229838   0.435   0.482   7.279  2.1007  0.0729 -1.2771
 6069SOL     OW29839   3.630   2.873   8.265 -0.0270 -0.0178 -0.3377
 6069SOL    HW129840   3.576   2.867   8.343  0.3709  2.8373  0.1422
 6069SOL    HW229841   3.595   2.799   8.215 -1.3443 -1.9041  3.3795
 6070SOL     OW29842   4.061   4.030  10.463  0.2084  0.6648 -0.3642
 6070SOL    HW129843   4.108   4.005  10.542  0.3319 -2.5092 -1.4131
 6070SOL    HW229844   4.092   4.119  10.448  0.8408  0.4790 -0.1324
 6071SOL     OW29845   2.689   4.241   5.597 -0.3467  0.1252 -0.2391
 6071SOL    HW129846   2.769   4.189   5.597 -1.6957 -1.9194 -1.1477
 6071SOL    HW229847   2.727   4.306   5.537 -1.1645  0.6880 -0.1603
 6072SOL     OW29848   3.869   3.529  15.017  0.3078 -0.0929  0.0272
 6072SOL    HW129849   3.958   3.554  14.990  0.7843 -0.2934  1.4388
 6072SOL    HW229850   3.830   3.495  14.936 -0.6648  2.0026 -0.3842
 6073SOL     OW29851   2.806   0.602   8.921  0.3284 -0.1759  0.9531
 6073SOL    HW129852   2.836   0.675   8.867  0.5637 -1.7594 -1.0047
 6073SOL    HW229853   2.791   0.632   9.011 -0.4400 -1.7346  1.3382
 6074SOL     OW29854   4.449   3.659   1.774 -0.0584  0.2871 -0.1489
 6074SOL    HW129855   4.431   3.750   1.798 -0.6127  0.1080  0.1265
 6074SOL    HW229856   4.478   3.675   1.684  0.7093 -0.0573  0.0376
 6075SOL     OW29857   2.866   3.238   7.158  0.3806 -0.1896 -0.0061
 6075SOL    HW129858   2.953   3.276   7.145  0.0482 -0.6371 -3.5572
 6075SOL    HW229859   2.814   3.264   7.082  0.7267 -0.9175 -0.4910
 6076SOL     OW29860   3.144   2.949   8.589 -0.3360 -0.1994  0.0151
 6076SOL    HW129861   3.162   2.960   8.682  1.2794 -0.5546 -0.2538
 6076SOL    HW229862   3.220   2.896   8.567  0.4160  0.3166  1.3647
 6077SOL     OW29863   1.528   2.380   5.047 -0.6106 -0.1480 -0.5976
 6077SOL    HW129864   1.622   2.371   5.060 -0.7213 -0.7719 -0.2225
 6077SOL    HW229865   1.531   2.429   4.965 -1.0885 -1.0064 -1.1269
 6078SOL     OW29866   2.185   2.380   6.970 -0.0052 -0.3909 -0.1291
 6078SOL    HW129867   2.216   2.329   7.045  2.1060 -0.4538 -1.0317
 6078SOL    HW229868   2.142   2.457   7.006 -0.5836 -0.9247  0.3078
 6079SOL     OW29869   3.762   4.693   5.631  0.6906  0.0670 -0.1941
 6079SOL    HW129870   3.732   4.697   5.722 -0.7008  0.8165 -0.6826
 6079SOL    HW229871   3.736   0.036   5.590 -0.6311 -0.8111 -1.1369
 6080SOL     OW29872   1.646   2.789   5.238 -0.5820  0.5744 -0.0916
 6080SOL    HW129873   1.614   2.865   5.189  0.5353  1.8054  1.0752
 6080SOL    HW229874   1.664   2.729   5.166 -0.3614  2.1152 -1.3261
 6081SOL     OW29875   0.992   4.461   2.568  0.0772 -0.0331  0.0076
 6081SOL    HW129876   0.899   4.441   2.559  0.3259 -0.9134 -0.6081
 6081SOL    HW229877   0.992   4.476   2.663 -0.2033  1.6053 -0.2502
 6082SOL     OW29878   4.074   1.039   8.491 -0.0880 -0.0931 -1.6397
 6082SOL    HW129879   4.028   1.076   8.566  0.6025  2.1538 -2.3346
 6082SOL    HW229880   4.094   0.951   8.524  1.8128  1.2794  0.8466
 6083SOL     OW29881   4.085   2.565  16.863 -0.0835  0.1750  0.1217
 6083SOL    HW129882   4.026   2.625  16.908 -0.6979 -1.1501  1.1137
 6083SOL    HW229883   4.159   2.624  16.852  0.2427 -0.4497 -1.0962
 6084SOL     OW29884   0.275   0.500  13.036 -0.1087  0.7406 -0.0554
 6084SOL    HW129885   0.275   0.520  13.129 -0.2914  0.5253 -0.0110
 6084SOL    HW229886   0.202   0.441  13.019  1.4543 -1.4710  0.9353
 6085SOL     OW29887   3.846   1.484  16.691  0.0373  0.0017 -0.0508
 6085SOL    HW129888   3.785   1.413  16.670  3.0467 -2.7832  0.5838
 6085SOL    HW229889   3.922   1.463  16.637 -0.1764  0.4539 -0.5204
 6086SOL     OW29890   2.005   0.163  17.055  0.3460  0.3228  0.3661
 6086SOL    HW129891   2.055   0.227  17.004  0.6229  1.1521  1.6773
 6086SOL    HW229892   1.917   0.196  17.036  0.4028  0.5361  0.4713
 6087SOL     OW29893   0.700   3.352   3.544 -0.4482 -0.2069 -0.4615
 6087SOL    HW129894   0.758   3.302   3.602 -2.1880  0.1656  1.5763
 6087SOL    HW229895   0.615   3.345   3.587 -0.8563  0.9531 -1.0932
 6088SOL     OW29896   3.909   3.716  11.603  0.0146 -0.4492  0.3857
 6088SOL    HW129897   3.885   3.668  11.524  0.3743  0.9664 -0.5879
 6088SOL    HW229898   3.901   3.802  11.563  0.4306 -0.6197 -0.0595
 6089SOL     OW29899   0.952   4.663  11.848  0.0831 -0.4488  0.2276
 6089SOL    HW129900   1.036   4.623  11.824  0.3460 -0.2699  0.8291
 6089SOL    HW229901   0.975   4.704  11.932  0.6524 -0.0686 -0.1094
 6090SOL     OW29902   4.464   2.208   8.040  0.5690  0.3102  0.4903
 6090SOL    HW129903   4.519   2.281   8.067  2.7398 -0.3777 -2.0314
 6090SOL    HW229904   4.377   2.245   8.052  0.7650  1.9810 -3.2990
 6091SOL     OW29905   2.216   3.704  10.656 -0.6643  0.1576  0.4828
 6091SOL    HW129906   2.175   3.766  10.715 -1.6451 -1.4590  1.5023
 6091SOL    HW229907   2.138   3.689  10.602 -0.8806  0.8372  0.6104
 6092SOL     OW29908   1.340   0.369   1.283  0.0093  0.4235 -0.1886
 6092SOL    HW129909   1.422   0.411   1.257  0.1131  1.2779  1.5424
 6092SOL    HW229910   1.281   0.445   1.276 -2.2051 -1.4749 -2.4820
 6093SOL     OW29911   1.374   0.601   0.244 -0.4715  0.0977 -0.3018
 6093SOL    HW129912   1.391   0.689   0.211 -0.9658  0.1947 -0.2853
 6093SOL    HW229913   1.295   0.622   0.293  0.6197  0.8114  1.1871
 6094SOL     OW29914   3.762   4.550   8.760  0.4102 -0.2007  0.3067
 6094SOL    HW129915   3.811   4.512   8.833  0.6279  2.0203  1.3354
 6094SOL    HW229916   3.749   4.636   8.801 -1.8741 -0.0822 -0.6992
 6095SOL     OW29917   3.840   2.142   5.324 -0.0659 -0.1791 -0.2226
 6095SOL    HW129918   3.863   2.229   5.294  0.1230 -0.3078 -0.4485
 6095SOL    HW229919   3.914   2.115   5.378  0.9430 -0.6254 -1.8274
 6096SOL     OW29920   3.564   2.041   3.268 -0.0334 -0.4666  0.3406
 6096SOL    HW129921   3.576   2.070   3.359  2.8445 -1.2855  0.2070
 6096SOL    HW229922   3.650   2.003   3.252  0.0876 -0.8668  1.9533
 6097SOL     OW29923   1.340   4.121  15.485 -0.1346 -0.5024 -0.3343
 6097SOL    HW129924   1.415   4.078  15.446  0.3145  1.2564 -1.4091
 6097SOL    HW229925   1.270   4.061  15.458 -0.3094  0.7407 -2.6336
 6098SOL     OW29926   0.084   3.867  17.336  0.2032  0.9031 -0.5056
 6098SOL    HW129927   0.058   3.956  17.357 -1.0516  0.5042 -0.3580
 6098SOL    HW229928   0.177   3.874  17.318  0.5097 -0.9862  0.2808
 6099SOL     OW29929   0.414   0.245   8.034  0.7195 -0.3092  0.2001
 6099SOL    HW129930   0.383   0.333   8.008 -0.0850 -0.6502 -0.0130
 6099SOL    HW229931   0.334   0.194   8.050  1.0744 -0.4384  1.5085
 6100SOL     OW29932   1.245   1.818   6.493  0.6873  0.3955  0.5707
 6100SOL    HW129933   1.264   1.840   6.584  2.4733 -2.5616  0.8922
 6100SOL    HW229934   1.176   1.753   6.498  0.5818  0.5053  0.5552
 6101SOL     OW29935   3.272   2.783   8.025 -0.1118  0.2536  0.3526
 6101SOL    HW129936   3.349   2.729   8.040  0.2880 -0.2312 -3.2697
 6101SOL    HW229937   3.206   2.715   8.013  0.8704 -0.5481 -0.5353
 6102SOL     OW29938   0.338   0.280  10.172 -0.2095 -0.7284 -0.0449
 6102SOL    HW129939   0.312   0.349  10.233  0.5303 -0.4529 -0.0374
 6102SOL    HW229940   0.433   0.293  10.171 -0.3502  0.2316 -1.3394
 6103SOL     OW29941   2.488   1.931   1.847 -0.0218 -0.0046  0.8652
 6103SOL    HW129942   2.471   2.007   1.790 -1.3929 -0.7359  0.3013
 6103SOL    HW229943   2.423   1.868   1.819 -2.0165  3.5881 -2.6424
 6104SOL     OW29944   1.601   0.466  11.292 -0.4591 -0.1290  0.0426
 6104SOL    HW129945   1.580   0.390  11.237 -2.7239 -0.4893  1.4037
 6104SOL    HW229946   1.695   0.451  11.284 -0.1206  1.5270  1.0336
 6105SOL     OW29947   2.270   0.904   4.323 -0.3738 -0.2496 -0.0180
 6105SOL    HW129948   2.303   0.814   4.313 -1.7207 -0.5794 -1.4396
 6105SOL    HW229949   2.254   0.929   4.232 -2.1865  0.6916  0.5803
 6106SOL     OW29950   4.292   3.927   9.386  0.2777 -0.0842  0.3879
 6106SOL    HW129951   4.359   3.913   9.320 -0.1762 -0.4057 -0.0048
 6106SOL    HW229952   4.339   3.915   9.469 -0.7706  3.1901  1.4452
 6107SOL     OW29953   4.306   2.245  12.125 -0.0864 -0.1359  0.0212
 6107SOL    HW129954   4.355   2.173  12.086 -3.1449 -0.7396 -2.7072
 6107SOL    HW229955   4.320   2.226  12.218  2.1855  0.9364 -0.1055
 6108SOL     OW29956   3.689   4.563  11.457 -0.0324  0.5275  0.7396
 6108SOL    HW129957   3.768   4.554  11.510 -0.1582 -0.2120  0.8094
 6108SOL    HW229958   3.623   4.513  11.504 -2.3829  1.1518 -1.9079
 6109SOL     OW29959   1.848   2.505   8.497  0.7809  0.4615 -0.6595
 6109SOL    HW129960   1.790   2.494   8.572  1.3050  0.4565 -0.2625
 6109SOL    HW229961   1.850   2.601   8.499  2.6527  0.4116 -0.2872
 6110SOL     OW29962   2.544   2.583  10.163 -0.3249  1.1820  0.0304
 6110SOL    HW129963   2.615   2.601  10.101  0.2265 -0.0652  0.2987
 6110SOL    HW229964   2.463   2.570  10.113 -0.5160 -3.0137  1.4200
 6111SOL     OW29965   2.825   1.646   5.120 -0.0696  0.3456 -0.5284
 6111SOL    HW129966   2.756   1.706   5.148 -0.4538  0.0163 -0.7800
 6111SOL    HW229967   2.828   1.668   5.026  2.2040 -2.2493 -1.0779
 6112SOL     OW29968   2.861   2.351  12.059  0.9239 -0.1122  0.3017
 6112SOL    HW129969   2.931   2.292  12.029  0.5095 -0.5274  0.1583
 6112SOL    HW229970   2.789   2.288  12.066  1.5114 -0.9389 -1.0616
 6113SOL     OW29971   3.458   1.919   9.988  0.2266  0.0743 -0.2273
 6113SOL    HW129972   3.491   1.997   9.943  0.3482  0.1417 -0.0147
 6113SOL    HW229973   3.431   1.867   9.912 -1.8527  0.2602  0.3868
 6114SOL     OW29974   3.853   2.685   6.565 -0.2014  0.3963  0.1138
 6114SOL    HW129975   3.800   2.689   6.485  1.1810  1.2020 -0.7534
 6114SOL    HW229976   3.922   2.626   6.537 -0.4908  0.1768 -0.1384
 6115SOL     OW29977   2.877   4.389   7.347 -0.6423  0.0850 -0.2026
 6115SOL    HW129978   2.883   4.336   7.267  1.3680 -0.9264  0.6072
 6115SOL    HW229979   2.886   4.478   7.312  0.9808 -0.6216 -1.6219
 6116SOL     OW29980   0.349   1.838  14.528 -0.0879 -0.0788 -0.4891
 6116SOL    HW129981   0.356   1.856  14.435  3.2920 -0.7472 -0.3855
 6116SOL    HW229982   0.254   1.831  14.532 -0.0489 -0.5621 -0.3464
 6117SOL     OW29983   4.625   4.215   7.495  0.3535 -0.7044  0.2918
 6117SOL    HW129984   4.699   4.202   7.437 -1.2835 -0.5753 -1.8383
 6117SOL    HW229985   4.662   4.284   7.549  0.6044  0.5244 -1.4703
 6118SOL     OW29986   2.700   1.390   6.951 -0.2610 -0.7086  0.0632
 6118SOL    HW129987   2.608   1.368   6.942 -1.0096  2.4660 -0.0351
 6118SOL    HW229988   2.712   1.370   7.044 -1.0059  0.6294  0.4358
 6119SOL     OW29989   4.323   4.461   8.784  0.2678 -0.0486  0.2958
 6119SOL    HW129990   4.254   4.512   8.740 -0.7226 -0.8171  0.9686
 6119SOL    HW229991   4.309   4.513   8.863  0.6735 -0.2929  0.5246
 6120SOL     OW29992   2.562   1.265   0.298  0.4475 -0.2654 -0.0264
 6120SOL    HW129993   2.617   1.337   0.268  1.2184 -0.1210  1.7460
 6120SOL    HW229994   2.471   1.295   0.292  0.7209  0.7928  0.9251
 6121SOL     OW29995   4.167   0.083   4.336 -0.7230  0.2704 -0.7171
 6121SOL    HW129996   4.202   0.144   4.401 -2.2110  1.4754 -1.0308
 6121SOL    HW229997   4.242   0.025   4.323 -0.0040  0.7661  1.1913
 6122SOL     OW29998   2.496   1.982  12.146 -0.0503 -0.2684  0.0428
 6122SOL    HW129999   2.463   1.979  12.236  0.8118 -0.7925  0.3362
 6122SOL    HW230000   2.430   1.924  12.108  0.3264 -1.5280  1.3082
 6123SOL     OW30001   3.083   3.441  10.123  0.1497  0.2055  0.5062
 6123SOL    HW130002   3.123   3.463  10.207  1.0292 -1.4961  0.5234
 6123SOL    HW230003   2.994   3.475  10.135  0.3003  1.2782 -1.4598
 6124SOL     OW30004   1.493   1.102   6.277  0.6284  0.0834 -0.6672
 6124SOL    HW130005   1.557   1.081   6.344  1.8742  1.8950 -1.2618
 6124SOL    HW230006   1.546   1.171   6.236 -1.0458  0.7086 -1.7849
 6125SOL     OW30007   2.846   0.265  12.247 -0.3231  0.3017  0.0563
 6125SOL    HW130008   2.898   0.332  12.202 -1.8890  1.0711 -0.5936
 6125SOL    HW230009   2.771   0.285  12.191 -0.4402 -0.4952 -0.0848
 6126SOL     OW30010   3.780   1.637   3.904 -0.0367 -0.0431 -0.5189
 6126SOL    HW130011   3.780   1.694   3.980  0.3344 -1.0851  0.2596
 6126SOL    HW230012   3.687   1.649   3.884 -0.4284 -3.0697 -0.5147
 6127SOL     OW30013   1.306   0.443  11.324 -0.2026 -0.1041  0.2812
 6127SOL    HW130014   1.247   0.410  11.393 -0.2692 -0.3225  0.1161
 6127SOL    HW230015   1.395   0.429  11.354  0.4283 -0.0150 -1.6078
 6128SOL     OW30016   3.666   3.537  15.380 -0.0031 -0.0139  0.6727
 6128SOL    HW130017   3.694   3.594  15.309 -1.3890 -0.8528 -0.5400
 6128SOL    HW230018   3.730   3.466  15.374 -0.0175  0.0457 -0.1317
 6129SOL     OW30019   0.777   3.541   3.849  0.5304  0.6318  0.0758
 6129SOL    HW130020   0.823   3.513   3.928 -0.5773  0.2140  0.5891
 6129SOL    HW230021   0.696   3.490   3.847  1.2558 -0.5597  0.9444
 6130SOL     OW30022   3.705   3.945   2.047 -0.5305  0.1344  0.3858
 6130SOL    HW130023   3.699   3.918   2.139  0.5770  1.8373  0.9614
 6130SOL    HW230024   3.639   3.882   2.017 -1.3342  1.0382  0.2494
 6131SOL     OW30025   2.143   1.356   4.117  0.2553  0.3708  0.6452
 6131SOL    HW130026   2.076   1.422   4.099 -0.6046 -0.8727 -0.7086
 6131SOL    HW230027   2.188   1.372   4.034  0.5048 -0.8443  0.5413
 6132SOL     OW30028   4.232   3.390  15.244 -0.0913  0.0504 -0.3413
 6132SOL    HW130029   4.177   3.416  15.169  1.4193  0.8106 -1.1827
 6132SOL    HW230030   4.191   3.304  15.258 -0.2565  0.6620  2.9573
 6133SOL     OW30031   3.926   3.379  10.245 -0.4871 -0.0748 -0.2026
 6133SOL    HW130032   3.971   3.363  10.162  2.1114  2.4887  0.7062
 6133SOL    HW230033   3.957   3.462  10.281  1.7254 -0.5128 -1.0880
 6134SOL     OW30034   0.785   1.869   2.249  0.5141  0.9038  0.0164
 6134SOL    HW130035   0.796   1.785   2.294 -0.5032  0.2612 -0.9174
 6134SOL    HW230036   0.817   1.936   2.309 -0.7083  1.6540 -0.1834
 6135SOL     OW30037   4.285   4.393   7.551  0.1509 -0.3445  0.4321
 6135SOL    HW130038   4.334   4.360   7.476  1.6286  0.3922  1.0833
 6135SOL    HW230039   4.322   4.341   7.623  0.4289 -3.7510 -2.1718
 6136SOL     OW30040   0.320   4.551   2.446  0.1767 -0.2696 -0.0943
 6136SOL    HW130041   0.402   4.538   2.398 -0.7647 -0.4292 -1.6851
 6136SOL    HW230042   0.265   4.555   2.367  0.7521 -0.0690 -0.4832
 6137SOL     OW30043   1.665   3.836   5.267 -0.1873  0.1463 -0.0038
 6137SOL    HW130044   1.632   3.898   5.203  2.4349  0.0439 -1.4850
 6137SOL    HW230045   1.632   3.875   5.348 -0.2196  0.5516 -0.2135
 6138SOL     OW30046   4.638   0.373   4.586  0.4958  0.5442  0.2545
 6138SOL    HW130047   4.570   0.374   4.519  0.4110 -2.4767  0.2931
 6138SOL    HW230048   4.716   0.351   4.536 -0.0197  1.7188 -1.0554
 6139SOL     OW30049   2.403   3.076   3.828 -0.4688  0.1544  0.3586
 6139SOL    HW130050   2.490   3.104   3.856 -1.1733  0.2250  2.4762
 6139SOL    HW230051   2.354   3.156   3.845 -1.9537 -0.8050  0.6906
 6140SOL     OW30052   2.847   1.305  11.723 -0.3200 -0.5356 -0.2569
 6140SOL    HW130053   2.857   1.211  11.710  0.1024 -0.4196 -0.7417
 6140SOL    HW230054   2.922   1.332  11.670 -1.3118  0.2459 -1.2570
 6141SOL     OW30055   2.920   3.107   3.897  0.1273  0.4641  0.5489
 6141SOL    HW130056   2.935   3.013   3.894 -0.8794  0.2778  1.3101
 6141SOL    HW230057   2.973   3.145   3.968 -0.8045 -2.1367  2.6108
 6142SOL     OW30058   2.508   2.799   1.818  0.4085 -0.3468 -0.4933
 6142SOL    HW130059   2.467   2.879   1.850  0.7355 -1.3456  2.4567
 6142SOL    HW230060   2.440   2.737   1.846  0.8139 -0.1329  0.9589
 6143SOL     OW30061   2.697   2.632  11.868  0.5289  0.2891 -0.1183
 6143SOL    HW130062   2.611   2.594  11.887 -0.4196  3.1517  1.3145
 6143SOL    HW230063   2.678   2.719  11.833  0.3037 -0.5169 -1.9964
 6144SOL     OW30064   0.276   2.174   9.544 -0.3847  0.1879  0.4104
 6144SOL    HW130065   0.209   2.240   9.526 -0.0894  0.4712  0.3486
 6144SOL    HW230066   0.227   2.118   9.604  2.0631 -0.8799  1.4483
 6145SOL     OW30067   1.758   2.938   2.859 -0.2146 -0.3012 -0.3291
 6145SOL    HW130068   1.688   2.923   2.795 -1.1703  1.0280  0.3833
 6145SOL    HW230069   1.750   2.863   2.918 -1.3359 -0.1353 -0.2651
 6146SOL     OW30070   3.909   2.790   5.440 -0.2502  0.6320 -0.4046
 6146SOL    HW130071   3.998   2.758   5.425 -0.4713  0.2625 -0.9158
 6146SOL    HW230072   3.886   2.807   5.349  0.5561  0.0857 -0.7097
 6147SOL     OW30073   3.408   4.117  16.506  0.0241 -0.0560 -0.0541
 6147SOL    HW130074   3.412   4.033  16.459  1.2864 -1.8686  3.3358
 6147SOL    HW230075   3.494   4.120  16.547 -0.1515  1.3534  0.1962
 6148SOL     OW30076   3.283   2.455   6.850 -0.1322  0.6385 -0.1005
 6148SOL    HW130077   3.331   2.538   6.857 -1.2362  1.1865  0.9442
 6148SOL    HW230078   3.252   2.469   6.760 -4.0849  1.0432  1.3203
 6149SOL     OW30079   4.096   3.604   1.839 -0.1275 -0.2871 -0.6809
 6149SOL    HW130080   4.147   3.532   1.803  1.3710 -0.2660  1.3793
 6149SOL    HW230081   4.006   3.590   1.811  0.2407 -1.1535 -1.4127
 6150SOL     OW30082   3.281   0.248  11.962 -0.1109 -0.3231 -0.0382
 6150SOL    HW130083   3.254   0.266  12.052 -1.1414 -2.6328  0.1154
 6150SOL    HW230084   3.370   0.281  11.964  0.7554 -2.7013  0.2086
 6151SOL     OW30085   0.519   3.406   9.464  0.0866  0.0914  0.5885
 6151SOL    HW130086   0.452   3.474   9.453 -1.0345 -1.2565 -0.9627
 6151SOL    HW230087   0.536   3.421   9.557 -0.3379  0.2269  0.6477
 6152SOL     OW30088   0.836   2.411   6.955  0.2089  0.1863 -0.3232
 6152SOL    HW130089   0.902   2.383   6.890  1.6355 -0.8249  1.5385
 6152SOL    HW230090   0.873   2.364   7.030  0.2990  0.8391  0.0372
 6153SOL     OW30091   1.059   1.748   8.235  0.4724  0.2473 -0.4376
 6153SOL    HW130092   1.150   1.775   8.248  1.2495 -0.8709 -3.7372
 6153SOL    HW230093   1.075   1.662   8.197  0.0453 -0.3067  0.6449
 6154SOL     OW30094   2.073   3.964   3.593 -0.0698  0.1377 -0.3954
 6154SOL    HW130095   2.002   3.990   3.535  0.0525  1.5521  0.0983
 6154SOL    HW230096   2.141   3.927   3.536 -1.8630 -1.6945 -1.3444
 6155SOL     OW30097   2.139   0.352  16.876  0.1792 -0.2755  0.3690
 6155SOL    HW130098   2.195   0.303  16.816 -0.7522  0.0731 -0.7735
 6155SOL    HW230099   2.053   0.347  16.834  1.5094 -2.1142 -2.0505
 6156SOL     OW30100   0.118   1.180   5.788 -0.0998  0.5058 -0.4612
 6156SOL    HW130101   0.173   1.179   5.710 -1.1685 -0.6440 -1.2117
 6156SOL    HW230102   0.115   1.272   5.816 -1.2717 -0.2790  1.9651
 6157SOL     OW30103   1.217   3.582  15.020  0.3703  0.1014  0.0264
 6157SOL    HW130104   1.243   3.544  15.105  2.2527  0.8277 -0.2295
 6157SOL    HW230105   1.139   3.530  15.002 -0.4829  1.0399  1.0287
 6158SOL     OW30106   1.877   4.055  15.311 -0.3508  0.1525  1.2050
 6158SOL    HW130107   1.903   4.023  15.398  0.5260 -0.5779  0.6793
 6158SOL    HW230108   1.940   4.127  15.305 -0.5836  0.1768 -1.0281
 6159SOL     OW30109   1.049   3.473   2.432 -0.2331  0.3865 -0.1904
 6159SOL    HW130110   1.052   3.378   2.435 -1.1476  0.3856  0.4908
 6159SOL    HW230111   1.120   3.494   2.371 -0.3931 -0.8619 -0.7917
 6160SOL     OW30112   2.104   4.457   1.966 -0.0104  0.1205  0.2722
 6160SOL    HW130113   2.030   4.434   1.910 -0.0559  0.9428 -0.0115
 6160SOL    HW230114   2.092   4.552   1.967 -0.9786 -0.0187  1.7246
 6161SOL     OW30115   4.205   2.821   6.918  0.2230 -0.5833  0.0186
 6161SOL    HW130116   4.196   2.820   7.014 -1.5646  1.3068 -0.1141
 6161SOL    HW230117   4.220   2.729   6.896  4.3569 -0.3651  1.9808
 6162SOL     OW30118   1.691   0.617   8.002 -0.4823  0.2989 -0.1600
 6162SOL    HW130119   1.610   0.613   8.053 -1.9153 -3.1046 -2.7070
 6162SOL    HW230120   1.666   0.697   7.956  0.6674  1.0286  0.4874
 6163SOL     OW30121   0.099   2.076  14.569  0.3949 -0.1722 -0.2511
 6163SOL    HW130122   0.088   2.000  14.511  0.3809 -0.7856  0.5593
 6163SOL    HW230123   0.117   2.030  14.651  0.9677 -0.9751 -0.8234
 6164SOL     OW30124   1.044   3.820   5.933 -0.0457 -0.5127 -0.0921
 6164SOL    HW130125   0.998   3.784   5.857  0.5116  0.8882 -1.1143
 6164SOL    HW230126   1.040   3.740   5.984  1.3175 -0.5707 -0.0722
 6165SOL     OW30127   2.063   2.802   5.044  0.6289 -0.2950  0.4017
 6165SOL    HW130128   2.064   2.839   4.956 -2.1241 -0.8808  0.1214
 6165SOL    HW230129   2.145   2.752   5.043  1.3757  0.9488  0.5190
 6166SOL     OW30130   2.664   2.260   2.205 -0.2730 -1.0146  0.1839
 6166SOL    HW130131   2.671   2.327   2.137  4.3298  0.7895  2.3747
 6166SOL    HW230132   2.682   2.178   2.160 -2.4937 -1.7903  0.7212
 6167SOL     OW30133   2.422   3.552  11.882  0.5783 -0.0171  0.8941
 6167SOL    HW130134   2.423   3.463  11.918 -1.6166 -1.0632 -1.6212
 6167SOL    HW230135   2.493   3.592  11.932 -1.5719  1.7886  2.5032
 6168SOL     OW30136   4.459   2.534   5.408  0.0557 -0.0647 -0.2739
 6168SOL    HW130137   4.550   2.538   5.436 -0.1384  1.4996  0.1595
 6168SOL    HW230138   4.418   2.564   5.489  0.2527 -0.9291  0.1485
 6169SOL     OW30139   3.253   0.226   2.617  0.6717 -0.7803 -0.0785
 6169SOL    HW130140   3.241   0.222   2.522  0.6471 -0.9697 -0.0674
 6169SOL    HW230141   3.330   0.282   2.618  1.2779 -1.5821 -1.4505
 6170SOL     OW30142   1.623   2.134  11.467  0.0431 -0.5559 -0.4572
 6170SOL    HW130143   1.562   2.078  11.515 -0.8712 -0.6959 -1.7854
 6170SOL    HW230144   1.663   2.180  11.540 -1.9339  1.8634 -0.9140
 6171SOL     OW30145   4.503   1.236   2.196 -0.2226  0.4643  0.2328
 6171SOL    HW130146   4.457   1.154   2.176  0.0907  0.4188 -0.3024
 6171SOL    HW230147   4.575   1.220   2.135 -0.0012  2.9672 -0.1608
 6172SOL     OW30148   2.527   1.325  16.530  0.4612 -0.7374  0.3456
 6172SOL    HW130149   2.525   1.231  16.548 -0.1989 -1.1050 -1.6634
 6172SOL    HW230150   2.619   1.332  16.504  0.8083  0.0047  1.8046
 6173SOL     OW30151   3.849   3.161   6.062 -0.1532 -0.6676  0.1575
 6173SOL    HW130152   3.818   3.095   6.000 -0.3675 -0.6672  0.2636
 6173SOL    HW230153   3.762   3.166   6.103 -0.5098  1.4561 -0.8902
 6174SOL     OW30154   4.636   0.765   5.597 -0.0219  0.0005 -0.1046
 6174SOL    HW130155   4.637   0.847   5.646  1.0790 -0.9044  1.3846
 6174SOL    HW230156   4.703   0.715   5.643  0.4608  2.6779  2.0867
 6175SOL     OW30157   0.043   4.512   8.053 -0.5399 -0.2879 -0.1749
 6175SOL    HW130158   0.030   4.425   8.091  0.1852 -0.6300 -0.7235
 6175SOL    HW230159   4.736   4.507   7.969 -0.2696 -0.4636 -0.3122
 6176SOL     OW30160   1.498   4.576  17.361 -0.4824  0.3417  0.1817
 6176SOL    HW130161   1.506   4.630  17.282 -0.7879 -2.2537 -1.6384
 6176SOL    HW230162   1.488   4.639  17.432  0.4007  1.4586 -0.6951
 6177SOL     OW30163   2.838   0.566   0.992  0.7120 -1.3550 -0.3303
 6177SOL    HW130164   2.777   0.505   0.949 -2.5874  2.8734 -1.6689
 6177SOL    HW230165   2.803   0.564   1.081  0.3654 -1.1661 -0.4608
 6178SOL     OW30166   1.175   2.751   8.109  0.2151 -0.4805  0.4423
 6178SOL    HW130167   1.176   2.836   8.154  0.3002 -0.4877  0.4529
 6178SOL    HW230168   1.144   2.782   8.024  1.2032  2.0874  0.9884
 6179SOL     OW30169   1.856   2.522  11.760 -0.0654 -0.0227 -0.6168
 6179SOL    HW130170   1.930   2.512  11.820 -0.8873  0.7795  0.5113
 6179SOL    HW230171   1.795   2.547  11.829  0.0716 -1.2626 -0.0494
 6180SOL     OW30172   2.748   3.326   4.991  0.3704 -0.1199  0.0602
 6180SOL    HW130173   2.802   3.307   5.068  1.4904  0.6186 -0.5473
 6180SOL    HW230174   2.814   3.347   4.925  1.0099 -0.8383  0.4658
 6181SOL     OW30175   3.559   0.015   7.378  0.8278 -0.3734  0.0534
 6181SOL    HW130176   3.491   0.082   7.368  0.0280 -1.0930  0.7161
 6181SOL    HW230177   3.574   0.019   7.472  0.3554 -2.2458  0.1988
 6182SOL     OW30178   4.042   2.409   6.038 -0.3207 -0.0878  0.3585
 6182SOL    HW130179   4.083   2.465   5.972 -2.2802  1.9137  0.8467
 6182SOL    HW230180   4.060   2.330   5.987 -3.2892 -0.1141 -0.6181
 6183SOL     OW30181   1.038   2.894   6.880 -0.4769  0.0825  0.2001
 6183SOL    HW130182   0.973   2.924   6.816 -0.1399 -3.6432 -1.9365
 6183SOL    HW230183   1.114   2.876   6.825 -1.2248 -2.2414 -0.0888
 6184SOL     OW30184   2.098   2.524   1.810  0.4408  0.3901 -0.3240
 6184SOL    HW130185   2.081   2.548   1.901  1.8059  0.5613 -0.1176
 6184SOL    HW230186   2.128   2.435   1.826 -2.0933 -0.0898  1.7130
 6185SOL     OW30187   4.302   4.135   6.044 -0.4337 -0.5419 -0.5121
 6185SOL    HW130188   4.365   4.064   6.034 -1.6947 -2.0219  1.9030
 6185SOL    HW230189   4.254   4.141   5.961 -1.1750  1.4330  0.0620
 6186SOL     OW30190   3.140   2.517   2.064  0.5178  0.2191  0.0817
 6186SOL    HW130191   3.088   2.447   2.024 -1.1762  1.4963  0.0579
 6186SOL    HW230192   3.154   2.478   2.150  2.2036 -0.0661 -0.3198
 6187SOL     OW30193   1.988   1.034   5.122  0.6167  0.0836  0.1973
 6187SOL    HW130194   1.997   0.997   5.034  0.2478 -2.0557  1.0828
 6187SOL    HW230195   1.936   1.111   5.097  1.4947 -0.4983 -3.4074
 6188SOL     OW30196   0.396   2.465   6.405  0.2263 -0.0925 -0.1088
 6188SOL    HW130197   0.325   2.407   6.379 -0.4484 -0.0256  1.5713
 6188SOL    HW230198   0.459   2.402   6.438 -0.7162  0.4520  2.8106
 6189SOL     OW30199   0.474   1.737   0.394  0.3661  0.0347  0.1074
 6189SOL    HW130200   0.564   1.769   0.395  0.4255 -0.1147 -0.1836
 6189SOL    HW230201   0.450   1.768   0.481 -2.4822  4.4275 -2.2652
 6190SOL     OW30202   2.312   3.160   2.109 -0.2836  0.3504  0.1428
 6190SOL    HW130203   2.306   3.137   2.202 -0.3974  0.2130  0.1004
 6190SOL    HW230204   2.224   3.194   2.092 -0.4223  0.3696  0.8878
 6191SOL     OW30205   1.179   0.820   5.550 -0.3227  0.4755  0.3840
 6191SOL    HW130206   1.119   0.840   5.478  0.2208 -0.4779 -0.3204
 6191SOL    HW230207   1.242   0.889   5.531  1.0318 -0.7669  0.4240
 6192SOL     OW30208   4.584   0.056   2.914  0.0706 -0.0148 -0.5742
 6192SOL    HW130209   4.500   0.088   2.948  0.6632  0.1435  0.7136
 6192SOL    HW230210   4.544   4.729   2.858 -0.3690 -0.6362  0.4974
 6193SOL     OW30211   0.492   1.970   1.078 -0.4284  0.6125 -0.0320
 6193SOL    HW130212   0.466   2.047   1.029  1.3717  1.0558 -0.2777
 6193SOL    HW230213   0.567   2.005   1.126  0.2068 -1.4347  0.4678
 6194SOL     OW30214   0.430   0.985  14.211  0.8670 -0.3870  0.0629
 6194SOL    HW130215   0.506   0.942  14.251  0.5450  0.2981  1.3989
 6194SOL    HW230216   0.419   1.058  14.271  0.9641 -1.5967  1.5426
 6195SOL     OW30217   1.578   3.903   7.610 -0.3314  0.9749  0.1538
 6195SOL    HW130218   1.635   3.979   7.599  1.4481 -0.2524  0.9108
 6195SOL    HW230219   1.544   3.908   7.699  1.5843  3.1424  0.7793
 6196SOL     OW30220   2.248   1.423   4.976  0.0728 -0.3555 -0.0852
 6196SOL    HW130221   2.248   1.395   4.884 -0.2584  1.7689 -0.7246
 6196SOL    HW230222   2.191   1.356   5.013  0.2864 -0.2477  0.4413
 6197SOL     OW30223   3.360   2.257  17.027  0.2011  0.3713  0.1742
 6197SOL    HW130224   3.301   2.309  17.081 -0.0865  1.6755 -1.3840
 6197SOL    HW230225   3.443   2.287  17.062 -0.4720  0.6850  1.5039
 6198SOL     OW30226   2.844   0.391  12.844  0.3434 -0.7213  0.0792
 6198SOL    HW130227   2.921   0.334  12.842  0.7202 -0.0566 -3.4666
 6198SOL    HW230228   2.870   0.460  12.905 -2.4517  0.4461 -0.0167
 6199SOL     OW30229   4.229   0.989   3.301  0.2013 -0.1129 -0.0617
 6199SOL    HW130230   4.193   1.075   3.323 -0.3308 -0.4386  0.3288
 6199SOL    HW230231   4.312   0.991   3.349 -0.1233 -0.2216  0.4967
 6200SOL     OW30232   1.947   0.304   8.277 -0.1843 -0.5362  0.7859
 6200SOL    HW130233   1.906   0.324   8.192  2.4882  1.5529 -0.0219
 6200SOL    HW230234   1.991   0.387   8.299  3.1492 -2.7547  2.4701
 6201SOL     OW30235   3.277   1.825   8.638 -0.2232 -0.3209 -0.1612
 6201SOL    HW130236   3.203   1.870   8.679  0.1672  0.9817 -0.8586
 6201SOL    HW230237   3.233   1.777   8.568 -0.5328 -0.0263 -0.1680
 6202SOL     OW30238   2.726   2.719   1.348  0.3472 -0.1874  0.0286
 6202SOL    HW130239   2.666   2.792   1.362  1.1521  0.7298 -1.1943
 6202SOL    HW230240   2.761   2.703   1.436  3.1452 -0.4692 -1.1359
 6203SOL     OW30241   2.907   3.969   9.943  0.0183 -0.5779  0.6845
 6203SOL    HW130242   2.936   3.943  10.030 -1.1339  0.9943  1.5409
 6203SOL    HW230243   2.848   3.900   9.913  0.0545 -0.4674  0.3592
 6204SOL     OW30244   3.538   3.856   1.733  0.4136 -0.3986  0.2551
 6204SOL    HW130245   3.484   3.829   1.808  1.2109  0.0380  0.9874
 6204SOL    HW230246   3.491   3.812   1.663 -1.2081  0.7275  0.6244
 6205SOL     OW30247   0.513   1.459   5.871 -0.2695 -0.1374 -0.3889
 6205SOL    HW130248   0.507   1.387   5.809 -0.4381 -0.4491 -0.0179
 6205SOL    HW230249   0.607   1.464   5.889 -0.3659 -4.0976  1.1888
 6206SOL     OW30250   3.074   2.034   7.105 -0.1435 -0.1219  0.2125
 6206SOL    HW130251   3.094   2.107   7.046  1.3768 -0.3577  0.4515
 6206SOL    HW230252   3.087   2.079   7.189  0.7080  1.3947 -0.7448
 6207SOL     OW30253   3.812   0.672   9.122 -0.4013  0.1988  0.1294
 6207SOL    HW130254   3.861   0.595   9.095 -2.4973 -1.0095 -0.2547
 6207SOL    HW230255   3.854   0.745   9.077 -0.5262 -0.4585 -1.0466
 6208SOL     OW30256   1.831   0.144   2.068  0.0959 -0.4269 -0.3958
 6208SOL    HW130257   1.742   0.108   2.069 -0.1076  0.0825  0.0963
 6208SOL    HW230258   1.832   0.213   2.134  0.6306  1.2392 -2.1457
 6209SOL     OW30259   2.182   1.646  12.756 -0.0063  0.4768  0.0917
 6209SOL    HW130260   2.090   1.668  12.770 -0.5246 -2.4065  1.1833
 6209SOL    HW230261   2.184   1.551  12.757  1.4066  0.5314  2.3103
 6210SOL     OW30262   2.576   3.273   9.585 -0.0187  0.0652  0.0933
 6210SOL    HW130263   2.669   3.280   9.606  0.2364 -2.5502 -0.1946
 6210SOL    HW230264   2.558   3.207   9.652 -1.9356  1.5825  1.0989
 6211SOL     OW30265   2.356   3.677   8.072 -0.4502 -0.0792  0.0684
 6211SOL    HW130266   2.364   3.767   8.039 -1.2332  0.4842  1.4348
 6211SOL    HW230267   2.338   3.633   7.989 -0.9726 -0.3955  0.3543
 6212SOL     OW30268   0.000   4.140   0.828 -0.3392 -0.2697 -0.1622
 6212SOL    HW130269   4.672   4.183   0.881  0.9166  2.1010 -0.4910
 6212SOL    HW230270   0.007   4.054   0.870  1.0587  1.1475  2.5799
 6213SOL     OW30271   4.290   1.227   8.911 -0.6230  0.4165 -0.2798
 6213SOL    HW130272   4.359   1.162   8.894 -1.7256 -0.8215  0.0315
 6213SOL    HW230273   4.272   1.213   9.004  1.9321  0.6841  0.2544
 6214SOL     OW30274   1.913   1.536   4.081 -0.0207  0.0293 -0.4232
 6214SOL    HW130275   1.933   1.625   4.051  2.6262 -0.4340 -0.0922
 6214SOL    HW230276   1.840   1.521   4.022 -2.0222  0.9904  1.8052
 6215SOL     OW30277   2.559   2.137   8.085  0.1229  0.0869 -0.1209
 6215SOL    HW130278   2.602   2.061   8.046 -1.2058 -1.4382  1.3827
 6215SOL    HW230279   2.486   2.144   8.023 -0.8139  1.7386  1.1603
 6216SOL     OW30280   3.788   2.086  17.476  0.0005 -0.2664 -0.2676
 6216SOL    HW130281   3.760   2.100  17.386  0.1973 -2.7765 -0.7118
 6216SOL    HW230282   3.756   1.999  17.502 -1.8720  0.8768  1.2291
 6217SOL     OW30283   0.093   1.949   6.453 -0.2658 -1.1865  0.4194
 6217SOL    HW130284   0.157   1.975   6.519  0.1731  2.9594 -1.6398
 6217SOL    HW230285   0.098   1.854   6.462  0.8126 -1.2466 -0.7143
 6218SOL     OW30286   0.186   4.271  10.372 -0.1079 -0.6437 -0.2154
 6218SOL    HW130287   0.281   4.266  10.357 -0.1613 -0.1996 -0.7082
 6218SOL    HW230288   0.160   4.269  10.280 -0.7616  2.0277 -0.0833
 6219SOL     OW30289   1.161   3.005   6.536  0.5895  0.3421  0.2733
 6219SOL    HW130290   1.214   2.971   6.464  0.7448 -0.2186  0.6468
 6219SOL    HW230291   1.206   2.961   6.609  1.0775  0.9010  0.3070
 6220SOL     OW30292   4.274   3.206   1.989  0.2382 -0.1909 -0.0801
 6220SOL    HW130293   4.354   3.155   1.977  0.6316  0.1832  1.0327
 6220SOL    HW230294   4.297   3.289   1.946 -2.6832  0.4746 -0.3617
 6221SOL     OW30295   4.420   3.503   5.997 -0.1821 -0.7780  0.1140
 6221SOL    HW130296   4.394   3.422   5.955  0.9345  0.2815 -2.5947
 6221SOL    HW230297   4.490   3.464   6.050 -2.8584 -2.7838  2.1733
 6222SOL     OW30298   1.584   2.587   8.969  0.0453  0.8525 -0.3202
 6222SOL    HW130299   1.558   2.678   8.980  2.8168  1.4904  0.7865
 6222SOL    HW230300   1.552   2.550   9.051 -0.8590  0.9435 -0.6335
 6223SOL     OW30301   3.883   4.343   4.628  0.4083  0.4697 -0.3796
 6223SOL    HW130302   3.950   4.278   4.653  0.5345  0.9245  0.4814
 6223SOL    HW230303   3.813   4.288   4.593  0.1887 -0.8204  2.0470
 6224SOL     OW30304   4.560   2.034   8.573  0.7165 -0.1270  0.4344
 6224SOL    HW130305   4.496   1.976   8.615 -0.4037 -0.4099 -1.6491
 6224SOL    HW230306   4.574   1.993   8.487 -1.6300  0.1027 -0.0585
 6225SOL     OW30307   0.393   3.151   5.917 -0.1493 -0.3744  0.1288
 6225SOL    HW130308   0.419   3.060   5.903  2.3161  0.2660  0.4950
 6225SOL    HW230309   0.357   3.185   5.835 -1.3485 -0.1597  0.7521
 6226SOL     OW30310   3.825   1.210   9.789 -0.0300 -0.0525  0.4903
 6226SOL    HW130311   3.750   1.269   9.791  0.7177  0.9595 -0.9980
 6226SOL    HW230312   3.877   1.239   9.864  1.0636  0.8137 -0.6045
 6227SOL     OW30313   2.236   1.068   1.209 -0.5402  0.5954  0.0867
 6227SOL    HW130314   2.149   1.092   1.178 -0.9442  0.2456  0.9686
 6227SOL    HW230315   2.285   1.149   1.193 -1.7749  1.1256 -0.9801
 6228SOL     OW30316   4.069   3.651  10.221  0.1662  0.3441  0.0543
 6228SOL    HW130317   4.157   3.687  10.209  0.1982  0.2868  0.1209
 6228SOL    HW230318   4.018   3.730  10.236  1.0076  1.0947 -0.9986
 6229SOL     OW30319   0.199   2.714  17.754 -0.2288  0.0920 -0.2412
 6229SOL    HW130320   0.104   2.701  17.745  0.2337 -1.3502 -3.3046
 6229SOL    HW230321   0.195   2.807  17.734 -1.0379  0.1079 -0.0321
 6230SOL     OW30322   1.020   0.554  10.313  0.2579  0.0400 -0.1400
 6230SOL    HW130323   1.059   0.485  10.260  1.1544  0.1277  0.3854
 6230SOL    HW230324   0.959   0.516  10.376  0.9476  0.5691  0.8665
 6231SOL     OW30325   4.342   3.220   9.522  0.0027  0.3741  0.2683
 6231SOL    HW130326   4.294   3.261   9.594  0.6922 -0.7677  1.3638
 6231SOL    HW230327   4.284   3.148   9.498  2.0317 -0.5250 -1.9447
 6232SOL     OW30328   0.220   1.966   4.978  0.0957 -0.0648 -0.4346
 6232SOL    HW130329   0.216   1.901   5.048 -0.1878 -1.1306 -1.4245
 6232SOL    HW230330   0.273   1.916   4.916 -0.3137  0.9396 -1.5892
 6233SOL     OW30331   0.792   1.275   9.079 -0.3015 -0.0076 -0.2399
 6233SOL    HW130332   0.712   1.231   9.051  0.1556  0.1933 -1.8621
 6233SOL    HW230333   0.771   1.357   9.033  0.3295 -0.3853 -1.1794
 6234SOL     OW30334   3.000   1.667  12.588  0.4220  0.5687 -0.1524
 6234SOL    HW130335   2.957   1.582  12.592  0.9081  0.3286 -0.0015
 6234SOL    HW230336   3.015   1.667  12.493 -0.9328 -0.4235 -0.3643
 6235SOL     OW30337   3.956   2.487   0.900 -0.2005 -0.2954 -0.0374
 6235SOL    HW130338   3.939   2.523   0.813  1.2960 -1.3197 -0.7405
 6235SOL    HW230339   4.050   2.476   0.890 -0.0006  1.0334  0.3798
 6236SOL     OW30340   0.578   0.579   1.561  0.1352 -0.0047  0.3112
 6236SOL    HW130341   0.657   0.603   1.512  0.3341  0.6456  0.9448
 6236SOL    HW230342   0.542   0.517   1.497  0.7869  0.5293 -0.5869
 6237SOL     OW30343   0.423   2.933  13.858  0.4176 -0.4795 -0.2903
 6237SOL    HW130344   0.370   3.013  13.861  0.2029 -0.6513  0.7363
 6237SOL    HW230345   0.406   2.886  13.940  0.9386 -2.9029 -1.5899
 6238SOL     OW30346   2.984   2.824   3.198  0.2594  0.0337  0.1702
 6238SOL    HW130347   2.917   2.789   3.140 -1.4631  0.9866  1.5805
 6238SOL    HW230348   2.991   2.755   3.263  0.1754  0.3990  0.5700
 6239SOL     OW30349   0.013   4.403   3.409 -0.7264 -0.2542 -0.9275
 6239SOL    HW130350   4.684   4.395   3.476  1.0089  0.4471  0.9229
 6239SOL    HW230351   4.707   4.361   3.336 -2.8627 -2.1594  1.5253
 6240SOL     OW30352   4.294   0.661   5.848 -0.5335 -0.2725  0.7951
 6240SOL    HW130353   4.344   0.604   5.790 -1.3543 -1.3063  1.1178
 6240SOL    HW230354   4.354   0.684   5.919  1.7324  1.1040 -1.5304
 6241SOL     OW30355   1.647   3.979   5.511 -0.3327 -0.2206  0.0286
 6241SOL    HW130356   1.624   4.071   5.521  0.8549 -0.0462  1.1449
 6241SOL    HW230357   1.656   3.959   5.604  0.8130 -1.8774 -0.4456
 6242SOL     OW30358   4.674   3.069   9.380 -0.0347 -0.3813 -0.4397
 6242SOL    HW130359   4.674   3.163   9.362 -0.6442  0.2388  2.6933
 6242SOL    HW230360   0.026   3.044   9.368 -0.6750 -3.1518  0.3421
 6243SOL     OW30361   3.061   2.680   9.777  0.6346 -0.0028 -0.1624
 6243SOL    HW130362   3.119   2.739   9.825  1.0609  0.9972 -1.9243
 6243SOL    HW230363   3.066   2.607   9.839  0.6307  0.2762  0.1692
 6244SOL     OW30364   3.698   3.724   1.474 -0.4410  0.0570  0.2335
 6244SOL    HW130365   3.724   3.815   1.465  1.8864 -0.4337  1.9135
 6244SOL    HW230366   3.732   3.714   1.563  0.2266  1.9302  0.1819
 6245SOL     OW30367   2.199   3.624  12.942  0.3996  0.5697 -0.0690
 6245SOL    HW130368   2.225   3.661  12.858 -0.2651 -1.6862 -1.2527
 6245SOL    HW230369   2.143   3.550  12.921  0.0281  0.6930  0.4926
 6246SOL     OW30370   4.108   2.144   5.644 -0.4420 -0.5169 -0.2326
 6246SOL    HW130371   4.071   2.153   5.732 -3.0409  0.7529 -1.4266
 6246SOL    HW230372   4.189   2.193   5.638 -2.1276  2.2248 -0.6498
 6247SOL     OW30373   4.448   1.713   7.255  0.2362 -0.4103  0.5304
 6247SOL    HW130374   4.436   1.746   7.166  0.7275  0.5160  0.8184
 6247SOL    HW230375   4.359   1.703   7.289  0.4620  0.9313  1.4962
 6248SOL     OW30376   2.524   0.781  17.361 -0.0455 -0.7227 -0.0806
 6248SOL    HW130377   2.497   0.768  17.452  1.1891  1.2833  0.5869
 6248SOL    HW230378   2.492   0.870  17.348  1.1917 -0.4718 -1.4139
 6249SOL     OW30379   1.036   1.803   8.906 -0.0943 -0.0382 -0.5381
 6249SOL    HW130380   0.964   1.758   8.951 -0.7974  0.2515 -1.3791
 6249SOL    HW230381   1.061   1.863   8.976 -0.4490 -0.5320  0.0158
 6250SOL     OW30382   2.557   2.356  13.343 -0.1020 -0.0929  0.1116
 6250SOL    HW130383   2.578   2.336  13.252  3.3467  0.4352  0.7756
 6250SOL    HW230384   2.478   2.410  13.335 -1.8013 -2.4113  1.1434
 6251SOL     OW30385   4.594   2.061   8.285  0.5517 -0.7101 -0.3770
 6251SOL    HW130386   4.620   2.057   8.193 -2.3276  0.3179 -1.2375
 6251SOL    HW230387   4.591   2.152   8.315 -0.5826 -1.2776  1.2228
 6252SOL     OW30388   4.500   4.568   1.791 -0.2979 -0.1096  0.2801
 6252SOL    HW130389   4.426   4.613   1.750  0.2736 -1.2650 -2.0315
 6252SOL    HW230390   4.456   4.498   1.838 -0.4577 -0.9490 -1.1348
 6253SOL     OW30391   1.524   4.256   8.286 -0.5540  0.0707  0.5466
 6253SOL    HW130392   1.507   4.166   8.258 -0.6310  0.0556  0.6439
 6253SOL    HW230393   1.613   4.245   8.320 -0.0353  1.8350 -0.2647
 6254SOL     OW30394   1.762   4.152   3.738 -0.2078 -0.5229  0.0268
 6254SOL    HW130395   1.807   4.078   3.780  0.0266  1.1478  2.7344
 6254SOL    HW230396   1.698   4.105   3.685  0.7660  0.4984 -2.0676
 6255SOL     OW30397   0.174   0.245   7.009 -1.0838 -0.2149  1.1465
 6255SOL    HW130398   0.186   0.157   6.973 -0.3170  0.4284 -0.1688
 6255SOL    HW230399   0.158   0.296   6.930  1.5227 -1.2691 -0.0837
 6256SOL     OW30400   1.934   0.390   0.228  0.4032 -0.0144  0.0330
 6256SOL    HW130401   1.893   0.345   0.154 -2.2475  0.5594  1.1637
 6256SOL    HW230402   2.024   0.367   0.203  0.0249 -2.1664  0.6278
 6257SOL     OW30403   1.699   0.749  12.483 -0.1351  0.1640  0.4130
 6257SOL    HW130404   1.641   0.797  12.543 -1.2764  0.0109 -0.5868
 6257SOL    HW230405   1.646   0.767  12.405 -0.3194  0.9587  0.7158
 6258SOL     OW30406   3.340   4.728  16.534 -0.2160  0.1266  0.0207
 6258SOL    HW130407   3.428   4.719  16.498 -0.1423  0.9051 -0.0075
 6258SOL    HW230408   3.298   0.041  16.465 -0.6750 -0.7290 -0.3386
 6259SOL     OW30409   2.379   3.311   4.181  0.7037  0.0016 -0.4818
 6259SOL    HW130410   2.347   3.326   4.092  0.3401  0.3477 -0.2948
 6259SOL    HW230411   2.312   3.364   4.224  1.7536  0.6641  0.3197
 6260SOL     OW30412   4.524   3.472   2.381 -0.2090 -0.1691  0.0337
 6260SOL    HW130413   4.569   3.489   2.298  0.1409 -0.5268  0.1460
 6260SOL    HW230414   4.489   3.559   2.403 -0.1951  0.2220 -1.4853
 6261SOL     OW30415   0.815   0.139   1.666  0.1417  0.2442 -0.6722
 6261SOL    HW130416   0.905   0.120   1.640  0.3675 -0.0184  0.3298
 6261SOL    HW230417   0.784   0.050   1.649 -0.4368  0.1502  0.9572
 6262SOL     OW30418   1.687   1.925  10.860 -0.5305 -0.4749 -0.0331
 6262SOL    HW130419   1.693   1.942  10.954  1.1803 -2.4216  0.2174
 6262SOL    HW230420   1.745   1.850  10.849 -0.7322 -0.1184 -3.3842
 6263SOL     OW30421   3.060   4.320  15.524 -0.1800 -0.1752 -0.5696
 6263SOL    HW130422   3.057   4.228  15.498  0.8734  0.2679 -2.2684
 6263SOL    HW230423   3.008   4.356  15.453 -0.7453 -1.6392 -0.9092
 6264SOL     OW30424   2.891   1.875   1.466 -0.0913  0.2725  0.7569
 6264SOL    HW130425   2.932   1.935   1.528  0.7886  0.4326  0.0229
 6264SOL    HW230426   2.897   1.797   1.521  0.4957  0.1876  0.5730
 6265SOL     OW30427   3.587   2.129  17.259  0.4052 -0.0148  0.3540
 6265SOL    HW130428   3.629   2.046  17.237 -1.0276 -0.2912 -1.3769
 6265SOL    HW230429   3.511   2.111  17.315  0.7624 -0.0190  0.8372
 6266SOL     OW30430   4.476   2.646  13.256  0.3592 -0.0460  0.1041
 6266SOL    HW130431   4.533   2.715  13.221  1.1820  0.1100  1.7872
 6266SOL    HW230432   4.538   2.573  13.258  1.9506  1.2484 -1.6733
 6267SOL     OW30433   4.238   2.950   8.421  0.2159 -0.2676  0.3998
 6267SOL    HW130434   4.167   2.959   8.357 -1.7836 -0.4752  2.5777
 6267SOL    HW230435   4.265   3.040   8.440 -0.7428  0.0753  0.1478
 6268SOL     OW30436   2.247   3.937   8.416  0.1467 -0.5125 -0.4331
 6268SOL    HW130437   2.261   3.924   8.510  0.6185 -0.0887 -0.4414
 6268SOL    HW230438   2.242   3.844   8.394  2.4172 -0.6418 -0.4017
 6269SOL     OW30439   2.390   1.954   5.607  0.0126 -0.5230 -0.3276
 6269SOL    HW130440   2.354   1.960   5.695 -2.2044 -1.8166 -1.1346
 6269SOL    HW230441   2.402   1.859   5.616 -0.7575 -0.6025 -0.2068
 6270SOL     OW30442   0.235   3.161   8.119  0.4228  0.3996  0.7829
 6270SOL    HW130443   0.303   3.170   8.052  0.8517 -1.2971  0.9934
 6270SOL    HW230444   0.219   3.251   8.148 -0.1261  0.4137  0.4286
 6271SOL     OW30445   3.057   3.861   1.314 -0.2845  0.1452 -0.2177
 6271SOL    HW130446   3.024   3.822   1.234  1.8225 -0.0116 -1.0310
 6271SOL    HW230447   2.974   3.903   1.337 -1.1796 -0.9460 -1.5175
 6272SOL     OW30448   2.324   1.637   2.738  0.2146 -0.1606 -0.7411
 6272SOL    HW130449   2.230   1.642   2.754  0.3145 -3.5293  1.0411
 6272SOL    HW230450   2.335   1.649   2.644 -0.2625  0.5677 -0.7057
 6273SOL     OW30451   3.991   3.081   6.272  0.1368  0.5323 -0.4806
 6273SOL    HW130452   3.938   3.002   6.280  0.4925  0.2182 -1.2384
 6273SOL    HW230453   3.955   3.119   6.192  1.3057  0.4146 -1.0645
 6274SOL     OW30454   1.897   0.143   6.291 -0.1769 -0.1027 -0.0212
 6274SOL    HW130455   1.960   0.110   6.227 -0.9221 -3.3821  0.9809
 6274SOL    HW230456   1.905   0.236   6.269 -0.3986 -0.0653  0.0591
 6275SOL     OW30457   4.081   2.227   0.150 -0.1745  0.1184  0.2806
 6275SOL    HW130458   4.019   2.216   0.079 -1.0213  2.6955  0.6281
 6275SOL    HW230459   4.052   2.306   0.196  1.2582  1.6003 -1.3641
 6276SOL     OW30460   3.872   3.899  13.428 -0.0046 -0.0365  0.2184
 6276SOL    HW130461   3.849   3.905  13.335  0.3072 -2.0300  0.0200
 6276SOL    HW230462   3.936   3.828  13.420  1.3827  1.0651  1.6121
 6277SOL     OW30463   3.660   0.706  10.350  0.1410  0.4263 -0.5240
 6277SOL    HW130464   3.669   0.624  10.400 -1.0592  0.5607 -0.0657
 6277SOL    HW230465   3.620   0.759  10.420  0.6113  0.2481 -0.1152
 6278SOL     OW30466   0.135   2.290   6.244  0.3640  0.5947 -0.2974
 6278SOL    HW130467   0.108   2.253   6.328  0.4366 -0.5341 -0.7666
 6278SOL    HW230468   0.058   2.343   6.223 -0.4224 -0.7315 -0.7876
 6279SOL     OW30469   1.404   3.459   6.641  0.6793 -0.0313 -0.0181
 6279SOL    HW130470   1.382   3.414   6.722 -1.8407  0.3738 -0.4909
 6279SOL    HW230471   1.369   3.398   6.576 -2.2539  0.7862  0.8050
 6280SOL     OW30472   2.544   1.419   2.174 -0.5366  0.2144 -0.0488
 6280SOL    HW130473   2.560   1.441   2.266 -0.6744  2.7926 -0.6580
 6280SOL    HW230474   2.563   1.507   2.141  2.0869 -0.3983 -0.2089
 6281SOL     OW30475   2.599   0.328   1.677  0.4301 -0.1348  0.5724
 6281SOL    HW130476   2.640   0.384   1.612  1.0158  0.0332  1.0865
 6281SOL    HW230477   2.554   0.277   1.610  2.4919 -1.4756  0.1952
 6282SOL     OW30478   0.175   4.067   7.032 -0.5192 -0.1886  0.6328
 6282SOL    HW130479   0.212   4.057   7.120 -1.5401 -1.1173  0.9530
 6282SOL    HW230480   0.124   3.986   7.029 -0.2614 -0.3382  0.3206
 6283SOL     OW30481   4.564   0.460   0.119 -0.8115 -0.8587 -0.0440
 6283SOL    HW130482   4.563   0.550   0.086 -1.4936 -1.0186 -0.4535
 6283SOL    HW230483   4.480   0.430   0.085 -0.0856 -1.8927 -0.8811
 6284SOL     OW30484   0.305   0.420   8.756 -0.2350  0.3713 -0.0399
 6284SOL    HW130485   0.299   0.495   8.697 -0.4032  0.9247  0.6844
 6284SOL    HW230486   0.286   0.348   8.696 -1.9069  0.6761  0.1097
 6285SOL     OW30487   0.076   2.917   5.798  0.4633 -0.3226 -0.5051
 6285SOL    HW130488   4.736   2.938   5.847  1.4983  2.0184  0.1925
 6285SOL    HW230489   0.079   2.822   5.790  2.3749 -0.1951 -1.1920
 6286SOL     OW30490   3.996   3.609   8.387 -0.2159 -0.1668  0.0658
 6286SOL    HW130491   4.041   3.683   8.426 -0.5428  0.2144 -0.2856
 6286SOL    HW230492   3.911   3.645   8.364  0.0803  0.6284  0.2355
 6287SOL     OW30493   4.483   2.076  14.554  0.8503  0.1416 -0.4478
 6287SOL    HW130494   4.521   2.030  14.479 -0.2828  2.5605 -2.5179
 6287SOL    HW230495   4.477   2.167  14.525 -1.4682  0.1854  0.1721
 6288SOL     OW30496   2.041   1.919   2.673  0.0660 -0.0085 -0.0521
 6288SOL    HW130497   2.120   1.904   2.622 -0.9135 -2.7879 -0.7737
 6288SOL    HW230498   2.049   1.847   2.737  1.2108  1.2483  1.2107
 6289SOL     OW30499   1.026   3.116  15.740 -0.8454  0.1169 -0.2896
 6289SOL    HW130500   1.003   3.033  15.782  1.6016 -0.1709  0.4962
 6289SOL    HW230501   0.943   3.164  15.739 -0.5148  0.6424 -1.9421
 6290SOL     OW30502   3.812   3.565   2.958  0.2376  0.2555  0.7454
 6290SOL    HW130503   3.746   3.573   2.890  1.9715  0.7620 -0.8932
 6290SOL    HW230504   3.821   3.660   2.967  0.5189  0.2838  0.1610
 6291SOL     OW30505   4.518   2.761   2.671 -0.4129 -0.0912 -0.2311
 6291SOL    HW130506   4.520   2.855   2.654 -1.8258  0.2091  1.2593
 6291SOL    HW230507   4.483   2.718   2.592 -1.8248 -0.9015  0.8316
 6292SOL     OW30508   2.195   0.796   1.265 -0.0031 -0.0944 -0.1818
 6292SOL    HW130509   2.283   0.813   1.231 -0.1378  0.2538 -0.3593
 6292SOL    HW230510   2.170   0.885   1.290  0.2377 -0.7410  2.3313
 6293SOL     OW30511   0.593   2.986   7.278 -0.2061  0.5252 -0.1096
 6293SOL    HW130512   0.551   3.064   7.313 -0.9968  0.0190  0.0863
 6293SOL    HW230513   0.600   3.017   7.188 -0.0533  1.4012  0.2040
 6294SOL     OW30514   1.517   4.475   8.449  0.1799 -0.0047 -0.3007
 6294SOL    HW130515   1.511   4.426   8.367 -0.2730  1.3042 -1.0369
 6294SOL    HW230516   1.556   4.558   8.421  1.2958 -0.0638  1.0898
 6295SOL     OW30517   3.780   2.499  12.993  0.4590  0.0508 -0.2635
 6295SOL    HW130518   3.797   2.564  12.926  0.0726  1.2805  0.8435
 6295SOL    HW230519   3.825   2.548  13.062  2.1883 -2.0930  0.1427
 6296SOL     OW30520   2.277   0.955   0.433  0.2044 -0.4404  0.7581
 6296SOL    HW130521   2.188   0.922   0.442 -0.2627 -0.4435 -4.0188
 6296SOL    HW230522   2.272   1.014   0.508 -1.7156  0.7134 -0.3032
 6297SOL     OW30523   1.129   0.425   8.080 -0.0212 -0.7787  0.2830
 6297SOL    HW130524   1.115   0.432   8.175  0.4828  1.7936  0.1841
 6297SOL    HW230525   1.131   0.519   8.064 -0.4641 -0.5996  1.2875
 6298SOL     OW30526   4.388   4.035   4.906 -0.2929 -0.4765 -0.6233
 6298SOL    HW130527   4.462   3.993   4.949 -0.5716  1.5213  1.7625
 6298SOL    HW230528   4.311   4.001   4.952 -1.0368  1.3903 -0.5048
 6299SOL     OW30529   1.294   0.836   8.301  0.0339 -0.1277 -0.4952
 6299SOL    HW130530   1.211   0.805   8.337  1.2017  0.6200  2.8179
 6299SOL    HW230531   1.259   0.905   8.244  1.7322  1.3697  0.2569
 6300SOL     OW30532   4.116   4.672   2.355  0.5483 -0.4060  0.1915
 6300SOL    HW130533   4.053   4.600   2.358 -0.1548  0.1162 -2.0845
 6300SOL    HW230534   4.062   4.735   2.308 -1.5282 -3.1173 -1.0372
 6301SOL     OW30535   2.252   0.936   7.040  0.4844 -0.1295 -0.1987
 6301SOL    HW130536   2.308   0.964   6.967 -0.8952 -0.6668 -1.4774
 6301SOL    HW230537   2.254   1.015   7.093  0.2335 -1.0878  1.2553
 6302SOL     OW30538   4.263   3.266   4.271  0.9058  0.1174  0.7481
 6302SOL    HW130539   4.239   3.312   4.352  0.4778  0.7580  0.2543
 6302SOL    HW230540   4.300   3.186   4.309  2.6276  0.3799 -0.3918
 6303SOL     OW30541   0.996   2.109   2.925 -0.6002 -0.7451  0.8570
 6303SOL    HW130542   0.980   2.015   2.920 -1.3936 -0.6847  2.3891
 6303SOL    HW230543   1.016   2.114   3.018 -0.5667  0.1281  0.8086
 6304SOL     OW30544   4.320   3.586   8.974 -0.0360  0.3947 -0.1924
 6304SOL    HW130545   4.248   3.624   9.025 -0.1958 -0.2848  0.0923
 6304SOL    HW230546   4.346   3.513   9.029  1.6966  1.1098 -0.0864
 6305SOL     OW30547   2.559   0.232   3.710 -0.2615  0.3715 -0.1626
 6305SOL    HW130548   2.576   0.278   3.792 -0.8175 -1.7415  1.1378
 6305SOL    HW230549   2.635   0.260   3.660  2.4366 -2.2052  2.4925
 6306SOL     OW30550   0.259   4.178   2.980  0.0895  0.0086 -0.3941
 6306SOL    HW130551   0.199   4.252   2.978 -0.3410 -0.3326  0.0564
 6306SOL    HW230552   0.335   4.220   3.022  0.8117 -1.2405 -0.4463
 6307SOL     OW30553   2.779   4.510   0.134  0.0516 -0.0873 -0.7613
 6307SOL    HW130554   2.774   4.463   0.051 -1.5596  1.3484 -1.4907
 6307SOL    HW230555   2.873   4.523   0.141  0.1165 -0.0398 -1.7852
 6308SOL     OW30556   3.168   4.283   5.281  0.4061  0.0833 -0.1764
 6308SOL    HW130557   3.240   4.336   5.248 -0.7284  0.4861 -1.9464
 6308SOL    HW230558   3.209   4.236   5.354 -0.7670  0.0118  0.4331
 6309SOL     OW30559   3.061   3.427   5.895  0.1146 -0.8274 -0.5998
 6309SOL    HW130560   3.087   3.361   5.959  0.6462 -0.4726 -0.4499
 6309SOL    HW230561   3.093   3.506   5.937 -2.6225 -0.1623  0.2569
 6310SOL     OW30562   1.496   4.136   5.848  0.0108 -0.4469  0.7141
 6310SOL    HW130563   1.535   4.198   5.910 -1.3207 -0.7746  1.8927
 6310SOL    HW230564   1.415   4.111   5.893  0.0360  0.8132  1.4712
 6311SOL     OW30565   3.799   4.238   1.900 -0.1043  0.6195 -0.4421
 6311SOL    HW130566   3.724   4.193   1.860 -0.0520 -1.3902  1.6914
 6311SOL    HW230567   3.795   4.193   1.985 -1.4370  0.3104 -0.6737
 6312SOL     OW30568   3.738   4.515   9.912 -0.4358  0.3841 -0.1823
 6312SOL    HW130569   3.758   4.596   9.866 -2.5823  1.3383  0.5395
 6312SOL    HW230570   3.655   4.488   9.872 -1.0136  0.2233  1.1322
 6313SOL     OW30571   0.258   0.557  13.305  0.2531  0.0197  0.5552
 6313SOL    HW130572   0.185   0.500  13.331 -0.6251  0.4581 -0.9565
 6313SOL    HW230573   0.296   0.572  13.391 -1.1773  1.3854  0.9421
 6314SOL     OW30574   3.177   1.971   5.517 -0.0796 -0.2744 -0.7248
 6314SOL    HW130575   3.153   1.879   5.508  0.0676 -0.4588  0.6882
 6314SOL    HW230576   3.257   1.970   5.464 -1.0509 -2.4450 -2.1685
 6315SOL     OW30577   4.199   1.811   8.083  0.7200  0.5973 -0.3914
 6315SOL    HW130578   4.211   1.867   8.006 -0.2716  0.6522 -0.5098
 6315SOL    HW230579   4.256   1.858   8.143 -1.8137  2.1945  0.7619
 6316SOL     OW30580   4.036   3.313   1.739  0.2763  0.1258 -0.1113
 6316SOL    HW130581   4.023   3.291   1.646 -1.6648 -2.0356  0.6610
 6316SOL    HW230582   4.128   3.336   1.743  0.7689 -1.9470  0.6841
 6317SOL     OW30583   2.288   3.439   1.785 -0.5346 -0.0130  0.2400
 6317SOL    HW130584   2.217   3.490   1.824  0.0340  0.4708  0.6420
 6317SOL    HW230585   2.360   3.480   1.834 -0.3765 -0.3014  0.2560
 6318SOL     OW30586   0.929   0.265  11.458  0.1668  0.2183  0.5326
 6318SOL    HW130587   0.960   0.257  11.548 -1.4461 -2.2637  0.8718
 6318SOL    HW230588   0.954   0.354  11.435 -0.4299 -0.1572 -1.5296
 6319SOL     OW30589   1.456   4.453  16.425 -0.4237 -0.0790  0.0218
 6319SOL    HW130590   1.371   4.424  16.456 -0.6256  0.0565 -0.3999
 6319SOL    HW230591   1.431   4.473  16.335 -0.3697  0.1819  0.0651
 6320SOL     OW30592   3.598   0.766   5.930  0.0427  0.2993 -0.1597
 6320SOL    HW130593   3.656   0.720   5.870  1.8158  2.5486 -0.1645
 6320SOL    HW230594   3.610   0.855   5.897  0.5088  0.2282 -0.1867
 6321SOL     OW30595   3.638   1.838   5.070  0.1724 -0.2337 -0.4025
 6321SOL    HW130596   3.666   1.762   5.122 -1.4252  0.9245  2.1879
 6321SOL    HW230597   3.720   1.887   5.066 -0.2151  0.4534  0.0656
 6322SOL     OW30598   1.827   3.437  15.521  0.1697 -0.1753 -0.2554
 6322SOL    HW130599   1.754   3.499  15.526 -0.0312 -0.4370  0.0257
 6322SOL    HW230600   1.894   3.505  15.508  1.2972 -1.5956 -1.7628
 6323SOL     OW30601   4.293   2.219   3.659  0.1988 -0.3892 -0.1547
 6323SOL    HW130602   4.348   2.160   3.709  0.2034 -1.4057 -1.3581
 6323SOL    HW230603   4.205   2.193   3.689  1.3137  0.0255  3.4555
 6324SOL     OW30604   0.589   3.296  12.230  0.1313  0.4921 -0.2794
 6324SOL    HW130605   0.571   3.277  12.138 -1.8762 -1.2986  0.4824
 6324SOL    HW230606   0.599   3.391  12.235 -0.7865  0.5878 -0.3041
 6325SOL     OW30607   0.340   1.726   0.898  0.5727  0.1981  0.3998
 6325SOL    HW130608   0.272   1.793   0.903  0.4354  0.1047 -0.1996
 6325SOL    HW230609   0.414   1.765   0.945  0.2017  1.0267  0.2874
 6326SOL     OW30610   2.537   2.041   5.331  0.1841  0.1038 -0.4420
 6326SOL    HW130611   2.579   2.100   5.269 -0.2354  0.1068 -0.7223
 6326SOL    HW230612   2.543   2.085   5.415 -0.0715  0.4143 -0.5890
 6327SOL     OW30613   2.036   1.721   7.094 -0.1783 -0.1368  0.2261
 6327SOL    HW130614   1.977   1.660   7.140  1.0075 -0.9154  0.7184
 6327SOL    HW230615   2.096   1.745   7.164  0.2431 -1.1395  0.2066
 6328SOL     OW30616   2.886   4.335  14.760  0.1412 -0.1904 -0.6481
 6328SOL    HW130617   2.967   4.292  14.785 -0.3322 -0.3987  0.5440
 6328SOL    HW230618   2.824   4.264  14.743 -0.6819 -0.4385  3.3693
 6329SOL     OW30619   1.186   0.984   7.837  0.1117  0.2892 -0.0905
 6329SOL    HW130620   1.154   0.995   7.927  0.2063  1.0240 -0.1461
 6329SOL    HW230621   1.144   1.061   7.798 -1.1965  0.2884  1.3223
 6330SOL     OW30622   1.418   1.660   5.710  0.5310  0.2344  0.4793
 6330SOL    HW130623   1.513   1.673   5.711  0.4010  0.9440  3.4314
 6330SOL    HW230624   1.418   1.689   5.619 -1.7040 -0.9232  0.1426
 6331SOL     OW30625   0.624   0.251  10.295  0.5165  0.4336 -0.4775
 6331SOL    HW130626   0.608   0.315  10.364 -2.4540 -0.8353  0.0016
 6331SOL    HW230627   0.673   0.305  10.233  2.4105 -0.7189  0.0120
 6332SOL     OW30628   1.710   1.003   2.547 -0.2016 -0.5105  0.2488
 6332SOL    HW130629   1.785   0.960   2.507  0.7525 -0.1980  1.6925
 6332SOL    HW230630   1.644   0.934   2.545 -2.0125  1.1634  1.4727
 6333SOL     OW30631   4.584   3.406   5.324 -0.3584  0.3331  0.9925
 6333SOL    HW130632   4.509   3.465   5.331  0.3782  1.4633 -0.7524
 6333SOL    HW230633   4.653   3.468   5.346  0.5364 -0.3250  0.0517
 6334SOL     OW30634   1.453   1.444   1.725 -0.1682  0.3648  0.0488
 6334SOL    HW130635   1.488   1.372   1.672  2.9144  1.5551  0.5081
 6334SOL    HW230636   1.382   1.485   1.675  1.5228  1.8265 -1.1489
 6335SOL     OW30637   4.545   2.740   0.169 -0.3334 -0.1202  0.1148
 6335SOL    HW130638   4.607   2.668   0.185 -0.1734  0.5099  2.3215
 6335SOL    HW230639   4.551   2.733   0.074  1.4275  0.0336  0.2149
 6336SOL     OW30640   4.261   1.264   1.639  0.5268  0.2900 -0.6190
 6336SOL    HW130641   4.293   1.318   1.711  2.7919 -0.7725 -0.8158
 6336SOL    HW230642   4.297   1.306   1.561 -1.5604  1.7903 -0.7606
 6337SOL     OW30643   2.390   3.190   7.439 -1.0194  0.7819  0.2736
 6337SOL    HW130644   2.463   3.214   7.382 -0.1963  0.5298  1.1971
 6337SOL    HW230645   2.445   3.136   7.496  0.9564 -0.5544 -2.9344
 6338SOL     OW30646   4.484   4.389   4.471  0.2110  0.0077 -0.3680
 6338SOL    HW130647   4.561   4.406   4.526  0.0777  2.3238 -0.9141
 6338SOL    HW230648   4.472   4.294   4.483 -0.4600  0.1128 -0.2450
 6339SOL     OW30649   3.150   1.628  15.616 -0.4102 -0.7320 -0.0027
 6339SOL    HW130650   3.151   1.723  15.630 -0.4127 -0.8219  0.6293
 6339SOL    HW230651   3.077   1.624  15.554 -0.5507  0.0945  0.1112
 6340SOL     OW30652   0.993   0.784   9.007  0.1048 -0.2254 -0.1291
 6340SOL    HW130653   0.991   0.736   9.090  1.1543 -1.5047 -0.8572
 6340SOL    HW230654   1.068   0.842   9.021 -0.3596 -0.0048  1.5064
 6341SOL     OW30655   0.890   2.617  16.424 -0.2926  0.2912  0.2246
 6341SOL    HW130656   0.974   2.662  16.414 -0.3178 -0.1845 -2.1245
 6341SOL    HW230657   0.818   2.678  16.407 -1.2461  0.0423  3.4435
 6342SOL     OW30658   0.376   4.670   4.092 -0.5091 -0.2699  0.4122
 6342SOL    HW130659   0.302   4.712   4.048 -0.0233  2.3106  1.9970
 6342SOL    HW230660   0.446   4.692   4.030  0.0379 -0.7583  0.8644
 6343SOL     OW30661   3.215   0.928   2.673 -0.3093 -0.0541 -0.4060
 6343SOL    HW130662   3.270   0.916   2.750 -1.2998 -2.6740 -0.1037
 6343SOL    HW230663   3.139   0.969   2.714 -0.5066 -1.1653  0.3095
 6344SOL     OW30664   0.919   4.418   6.659 -0.3111 -0.1885  0.1698
 6344SOL    HW130665   1.012   4.396   6.658 -0.2843 -0.0755  0.2895
 6344SOL    HW230666   0.910   4.510   6.637 -1.4856  0.0939  1.8551
 6345SOL     OW30667   3.107   3.125   5.329 -0.0820 -0.0959  0.7543
 6345SOL    HW130668   3.031   3.170   5.291 -0.6288 -0.3459  1.5538
 6345SOL    HW230669   3.127   3.049   5.275 -1.9227  0.3035 -0.4999
 6346SOL     OW30670   3.411   4.551  12.798 -0.7861  0.4869 -0.3351
 6346SOL    HW130671   3.395   4.603  12.720  1.3795  2.2215  0.3557
 6346SOL    HW230672   3.390   4.619  12.862 -1.2599 -1.9806  2.1378
 6347SOL     OW30673   2.723   1.270   0.570  0.1578  0.1479  0.0874
 6347SOL    HW130674   2.726   1.177   0.589 -1.6958 -0.0218 -0.4573
 6347SOL    HW230675   2.659   1.304   0.634  0.2905  2.1579 -0.8489
 6348SOL     OW30676   3.583   1.680   6.587  0.1233 -0.2902  0.2989
 6348SOL    HW130677   3.597   1.586   6.575  0.5611 -0.1551 -0.2497
 6348SOL    HW230678   3.599   1.710   6.498 -0.0019 -1.4782 -0.1267
 6349SOL     OW30679   1.193   2.553   3.444 -0.3091  0.4211  0.2115
 6349SOL    HW130680   1.145   2.476   3.476 -0.4727  0.8548  1.0235
 6349SOL    HW230681   1.215   2.598   3.526  1.2475 -3.9726  2.2262
 6350SOL     OW30682   2.794   1.982   1.830  0.3803 -0.4166  0.0341
 6350SOL    HW130683   2.823   1.895   1.857  0.1346 -1.0250 -1.7025
 6350SOL    HW230684   2.704   1.957   1.807  0.6627 -0.5616 -0.8954
 6351SOL     OW30685   2.295   0.409  12.458 -0.1463  0.0576 -0.4294
 6351SOL    HW130686   2.234   0.441  12.525  0.8293  1.5066 -0.2304
 6351SOL    HW230687   2.355   0.346  12.497  0.4910  2.0727  1.8311
 6352SOL     OW30688   2.382   0.992   9.306 -0.2525  0.4113 -0.5145
 6352SOL    HW130689   2.330   0.912   9.301  1.1929 -0.4242 -2.0999
 6352SOL    HW230690   2.470   0.956   9.317  0.0363  2.0603  2.3943
 6353SOL     OW30691   1.599   0.639   5.816 -0.0698 -0.1176 -0.1966
 6353SOL    HW130692   1.637   0.640   5.728  0.5438  0.5306  0.0735
 6353SOL    HW230693   1.532   0.574   5.800  0.5848 -0.8378 -0.0195
 6354SOL     OW30694   2.525   3.693  10.009  0.0981 -0.0817 -0.1569
 6354SOL    HW130695   2.508   3.630   9.938 -3.7616  1.5977 -0.7097
 6354SOL    HW230696   2.499   3.639  10.083 -1.3794  0.7021 -0.0999
 6355SOL     OW30697   2.791   3.250  12.196 -0.6731  0.5768  0.0071
 6355SOL    HW130698   2.856   3.317  12.175  1.1796 -1.7253 -1.4521
 6355SOL    HW230699   2.844   3.193  12.252  0.1595 -0.5848 -1.9874
 6356SOL     OW30700   3.382   4.638   8.364 -0.1643 -0.4244 -0.6503
 6356SOL    HW130701   3.362   4.576   8.294  0.9665  0.6340 -1.9021
 6356SOL    HW230702   3.346   4.723   8.340 -0.0548 -0.2309 -0.1295
 6357SOL     OW30703   4.012   0.710   8.057  0.5639 -0.3441  0.1779
 6357SOL    HW130704   4.023   0.617   8.040 -1.9141 -0.5891 -0.0514
 6357SOL    HW230705   3.936   0.716   8.114  0.2339  2.2836 -0.5141
 6358SOL     OW30706   3.510   4.468   5.615  0.2420  0.4618 -0.3305
 6358SOL    HW130707   3.468   4.498   5.695  2.0682  2.1889 -0.0460
 6358SOL    HW230708   3.431   4.450   5.564 -1.0547  2.2312  1.0408
 6359SOL     OW30709   3.154   1.283   4.993 -0.3540  0.0672  0.5055
 6359SOL    HW130710   3.140   1.220   5.064 -2.3000  0.5979  0.5903
 6359SOL    HW230711   3.239   1.323   5.010 -0.0316  0.1145 -1.2311
 6360SOL     OW30712   0.307   3.253   1.262  0.0109  0.5525  0.7518
 6360SOL    HW130713   0.273   3.166   1.284  3.0119 -0.7217  0.3958
 6360SOL    HW230714   0.328   3.241   1.169  1.6427 -2.2896  1.4708
 6361SOL     OW30715   2.132   1.452   3.137 -0.4332  0.5371  0.6167
 6361SOL    HW130716   2.159   1.433   3.227 -0.1308 -1.1633  0.1699
 6361SOL    HW230717   2.169   1.538   3.118 -0.9188  0.6604  0.2091
 6362SOL     OW30718   4.275   0.424  16.985  0.4459  0.8909  0.3334
 6362SOL    HW130719   4.262   0.345  16.932  2.3702 -0.1306  1.4249
 6362SOL    HW230720   4.277   0.392  17.075 -0.4477  0.1949  0.0998
 6363SOL     OW30721   1.189   2.687   3.678 -0.6076 -0.0881  0.8680
 6363SOL    HW130722   1.254   2.643   3.732 -0.3071 -1.1412 -0.3382
 6363SOL    HW230723   1.155   2.751   3.740  4.1746  1.9215  1.3753
 6364SOL     OW30724   1.790   0.278   2.521 -0.0247  0.0618  0.1832
 6364SOL    HW130725   1.735   0.214   2.475  0.0510  0.4149 -0.3961
 6364SOL    HW230726   1.857   0.213   2.543 -0.0535 -0.2928 -0.7694
 6365SOL     OW30727   0.632   4.053   6.531  0.0768 -0.1253 -0.4167
 6365SOL    HW130728   0.625   4.082   6.440  1.6519  0.5014 -0.3285
 6365SOL    HW230729   0.726   4.055   6.547  0.4656 -1.8425 -2.4298
 6366SOL     OW30730   1.044   0.441  17.134  0.1437  0.0218 -0.0982
 6366SOL    HW130731   0.950   0.428  17.123  0.1437  1.9961 -2.3404
 6366SOL    HW230732   1.074   0.392  17.058 -1.7267 -2.3382  0.6480
 6367SOL     OW30733   4.249   0.003   5.286  0.2364 -0.3202  0.0244
 6367SOL    HW130734   4.271   0.087   5.325 -1.0432  1.0418 -2.2363
 6367SOL    HW230735   4.293   0.017   5.202 -3.3417  2.1078 -1.4402
 6368SOL     OW30736   3.674   4.199  15.182 -0.2919 -0.0957  0.3983
 6368SOL    HW130737   3.749   4.256  15.171  1.4103 -2.0571  1.8306
 6368SOL    HW230738   3.601   4.260  15.198  0.4812  0.7141  0.8159
 6369SOL     OW30739   4.455   4.593   3.868  0.5156 -0.1677 -0.0503
 6369SOL    HW130740   4.415   4.508   3.885  0.2071  0.5463  2.8229
 6369SOL    HW230741   4.545   4.582   3.899  0.7614 -0.9751 -1.0574
 6370SOL     OW30742   1.658   2.432  17.172 -0.3195  0.2590  0.2618
 6370SOL    HW130743   1.639   2.407  17.081 -0.7990 -0.0569  0.4474
 6370SOL    HW230744   1.568   2.451  17.197 -1.0843  0.2201 -2.4413
 6371SOL     OW30745   0.475   1.674   5.204  0.2394 -0.1790  0.5331
 6371SOL    HW130746   0.475   1.583   5.175  1.4780  0.4419 -1.4149
 6371SOL    HW230747   0.496   1.719   5.122  2.4190 -0.2848  1.0278
 6372SOL     OW30748   0.315   2.167   8.535 -0.8433  0.0896 -0.3803
 6372SOL    HW130749   0.322   2.221   8.456 -1.4046 -0.9183 -1.1034
 6372SOL    HW230750   0.226   2.189   8.563  0.2367  0.2616  2.9028
 6373SOL     OW30751   1.324   3.021   7.392 -0.2440 -0.0785  0.2699
 6373SOL    HW130752   1.239   2.986   7.417  0.1624  0.2288  2.0732
 6373SOL    HW230753   1.291   3.106   7.360  0.0899  0.3040  0.9455
 6374SOL     OW30754   0.174   1.195   2.224  0.5761 -0.0827 -0.2120
 6374SOL    HW130755   0.259   1.176   2.182  0.2281  4.0823 -2.7666
 6374SOL    HW230756   0.197   1.270   2.278  0.3473 -0.5001  0.4642
 6375SOL     OW30757   2.278   3.378   3.003 -0.0957 -0.4547 -0.6333
 6375SOL    HW130758   2.354   3.327   2.977  0.7349 -1.0990  3.0982
 6375SOL    HW230759   2.207   3.333   2.958 -0.6137  0.7245 -1.0152
 6376SOL     OW30760   1.553   3.236   7.115 -0.3732 -0.3477 -0.7413
 6376SOL    HW130761   1.636   3.203   7.080  0.3837  0.2087  0.5172
 6376SOL    HW230762   1.573   3.203   7.203  0.0666  3.3889  0.5464
 6377SOL     OW30763   2.586   3.266   7.250  0.0682  0.1439 -0.5418
 6377SOL    HW130764   2.549   3.210   7.182 -0.2304  1.1172 -1.1870
 6377SOL    HW230765   2.680   3.265   7.231 -0.1481  2.2719 -1.8088
 6378SOL     OW30766   2.505   1.431   1.065  0.1725 -0.5321 -0.1239
 6378SOL    HW130767   2.519   1.488   0.990 -0.4173 -1.0021 -0.5927
 6378SOL    HW230768   2.582   1.449   1.119 -0.3835 -0.0871  0.5260
 6379SOL     OW30769   0.267   2.985   7.409  0.2373  0.9517 -0.7411
 6379SOL    HW130770   0.251   3.071   7.370 -3.0436  0.3776 -0.6976
 6379SOL    HW230771   0.175   2.963   7.429  0.0162  1.6208 -1.0420
 6380SOL     OW30772   2.422   2.192   7.617 -0.2612 -0.6080  0.3885
 6380SOL    HW130773   2.434   2.107   7.574 -1.2549  0.8231 -2.7640
 6380SOL    HW230774   2.383   2.247   7.549  0.6885 -2.7766 -1.8955
 6381SOL     OW30775   4.282   0.102   0.744  0.2081  0.2578 -0.0161
 6381SOL    HW130776   4.237   0.025   0.710  0.6916  1.1418 -2.7021
 6381SOL    HW230777   4.208   0.162   0.756 -2.1776 -2.4448 -1.2417
 6382SOL     OW30778   3.459   3.521  17.129  0.3973 -0.1273 -0.2739
 6382SOL    HW130779   3.365   3.537  17.124  0.2119 -0.7159  1.3152
 6382SOL    HW230780   3.470   3.443  17.074  2.4149  0.8717 -1.3232
 6383SOL     OW30781   2.440   3.960   7.058 -0.3409  0.3484  0.3665
 6383SOL    HW130782   2.366   3.909   7.092  1.9546 -0.9730  3.3310
 6383SOL    HW230783   2.513   3.897   7.056 -0.0571  0.7000 -0.5101
 6384SOL     OW30784   3.110   1.400   6.069 -0.4148  0.0731 -0.3314
 6384SOL    HW130785   3.173   1.468   6.096  0.0094  0.2046 -1.6630
 6384SOL    HW230786   3.034   1.438   6.113  0.5884 -0.2694  1.7151
 6385SOL     OW30787   4.336   4.684   7.159  0.1206 -0.4462 -0.0700
 6385SOL    HW130788   4.258   4.719   7.116  0.3300 -1.2785 -1.1237
 6385SOL    HW230789   4.302   4.681   7.248 -0.5018 -1.2230 -0.3306
 6386SOL     OW30790   0.894   4.317   0.821  0.3927 -0.2218 -0.0880
 6386SOL    HW130791   0.931   4.404   0.808  0.7451 -0.0282  2.1122
 6386SOL    HW230792   0.850   4.292   0.739 -1.1982 -0.0849  0.7105
 6387SOL     OW30793   1.525   2.199  10.204  0.2644  0.4465  0.4065
 6387SOL    HW130794   1.527   2.147  10.284  0.1579  0.2753  0.2989
 6387SOL    HW230795   1.445   2.249  10.223 -0.4394 -0.8037  0.7265
 6388SOL     OW30796   0.639   1.527   3.180  0.6495 -0.3114  0.1084
 6388SOL    HW130797   0.668   1.608   3.223 -1.1676 -0.4839  1.6599
 6388SOL    HW230798   0.649   1.468   3.254 -0.6234  0.5624  0.9745
 6389SOL     OW30799   1.043   3.414  11.088 -0.3945 -0.4323 -0.2674
 6389SOL    HW130800   0.989   3.462  11.151  0.7384  0.5666 -0.0656
 6389SOL    HW230801   0.992   3.443  11.012 -1.4704  1.9098  1.3544
 6390SOL     OW30802   1.934   1.036   8.747  0.3517  0.1666  0.4807
 6390SOL    HW130803   1.843   1.035   8.777  0.1671 -1.3244 -0.1370
 6390SOL    HW230804   1.952   1.130   8.745  2.0167 -0.1782 -0.8003
 6391SOL     OW30805   1.243   0.069   1.895  0.8582  0.6301  0.0215
 6391SOL    HW130806   1.166   0.120   1.922  0.3206  0.0686 -0.4409
 6391SOL    HW230807   1.201   0.011   1.831  0.5155  0.7574  0.1315
 6392SOL     OW30808   2.437   3.634  10.472 -0.2869  0.4136 -0.1418
 6392SOL    HW130809   2.406   3.656  10.384 -2.7877 -1.2053  0.3186
 6392SOL    HW230810   2.374   3.675  10.532 -1.1657 -1.9031  0.5344
 6393SOL     OW30811   2.654   1.359   4.801  0.2982 -0.3628 -0.1808
 6393SOL    HW130812   2.614   1.275   4.778  2.9201 -0.8600 -2.9656
 6393SOL    HW230813   2.727   1.361   4.739  1.3172 -0.8020  0.9793
 6394SOL     OW30814   0.360   0.745   4.471 -0.6531 -0.4214  0.0254
 6394SOL    HW130815   0.453   0.727   4.488 -0.0551  1.8012 -0.9104
 6394SOL    HW230816   0.346   0.788   4.556  1.1652  1.5727 -0.6739
 6395SOL     OW30817   4.092   4.166   9.414  0.2264  0.2347 -0.0664
 6395SOL    HW130818   4.145   4.086   9.407 -0.9797 -0.6803  1.3609
 6395SOL    HW230819   4.125   4.217   9.340  2.4105 -1.0052  0.0639
 6396SOL     OW30820   2.164   1.055   0.854 -0.2676 -0.3686  0.4813
 6396SOL    HW130821   2.252   1.035   0.887  0.7533  1.6957 -1.0358
 6396SOL    HW230822   2.130   1.126   0.908  0.4374  0.3016  0.0374
 6397SOL     OW30823   3.594   2.757  10.552  0.5011 -0.5528  0.0565
 6397SOL    HW130824   3.605   2.819  10.480 -0.9524  0.3650  0.6337
 6397SOL    HW230825   3.533   2.810  10.602  1.1194  0.3859 -0.1697
 6398SOL     OW30826   3.251   2.037   3.829  0.9110  0.4105  0.8771
 6398SOL    HW130827   3.255   1.974   3.757 -2.9672 -0.2634  1.2348
 6398SOL    HW230828   3.187   1.988   3.881  2.4953 -3.8351 -1.2460
 6399SOL     OW30829   2.877   1.796   7.656 -0.3894  0.5477  0.3292
 6399SOL    HW130830   2.889   1.863   7.723 -2.3529 -0.9888  2.2217
 6399SOL    HW230831   2.917   1.838   7.579 -0.5585  0.0784 -0.0146
 6400SOL     OW30832   1.209   0.854   4.612  0.4660 -0.3189 -0.1775
 6400SOL    HW130833   1.235   0.820   4.698  1.6664  3.5506  0.9719
 6400SOL    HW230834   1.273   0.823   4.548 -0.3869  0.0428 -1.2033
 6401SOL     OW30835   4.473   3.398   9.364 -0.4849  0.4562  0.7783
 6401SOL    HW130836   4.439   3.329   9.421  1.1625 -0.9548  0.0431
 6401SOL    HW230837   4.403   3.463   9.372  0.4786  1.7862 -1.4623
 6402SOL     OW30838   3.362   3.781   7.792  0.1018 -0.7590 -0.3565
 6402SOL    HW130839   3.440   3.833   7.769 -0.2553 -0.5221 -1.0346
 6402SOL    HW230840   3.349   3.747   7.703  0.4778 -0.8840 -0.3672
 6403SOL     OW30841   1.712   2.882   9.230  0.0271 -0.0395 -0.2976
 6403SOL    HW130842   1.735   2.854   9.142  0.3874  3.3589 -1.2960
 6403SOL    HW230843   1.624   2.846   9.237 -0.4905  1.3493  0.5065
 6404SOL     OW30844   3.323   3.363   2.062  0.2738 -0.1098  0.5718
 6404SOL    HW130845   3.305   3.426   2.132  3.0252  2.3262 -0.8981
 6404SOL    HW230846   3.410   3.384   2.029 -0.2566  0.4494 -0.4499
 6405SOL     OW30847   0.092   1.948   2.342 -0.0513  0.3073 -0.2280
 6405SOL    HW130848   0.151   1.874   2.360  0.4372  1.2970  2.2197
 6405SOL    HW230849   0.164   2.010   2.326 -0.5282  0.6739 -0.9579
 6406SOL     OW30850   0.638   3.736   1.744 -0.5228  0.9202  0.6904
 6406SOL    HW130851   0.557   3.685   1.750  0.5940 -0.7594  1.2622
 6406SOL    HW230852   0.702   3.667   1.758 -0.4889  0.5043 -1.5550
 6407SOL     OW30853   0.867   2.547   0.023  0.2156  0.7299  0.0478
 6407SOL    HW130854   0.789   2.499  17.748 -0.2170  1.7950 -0.5340
 6407SOL    HW230855   0.874   2.624  17.722  1.3191  0.5276 -0.0980
 6408SOL     OW30856   1.771   3.326   8.110 -0.0205  0.5232 -0.3872
 6408SOL    HW130857   1.713   3.401   8.124  0.1044  0.7106 -0.8796
 6408SOL    HW230858   1.829   3.364   8.044  1.2533 -1.9408 -0.6945
 6409SOL     OW30859   3.190   0.546   3.015 -0.2011 -1.0881 -0.3196
 6409SOL    HW130860   3.111   0.519   2.968 -0.5486 -2.3800  1.0065
 6409SOL    HW230861   3.208   0.634   2.982  0.4176 -0.2401  2.3336
 6410SOL     OW30862   2.663   4.341   0.806  0.1807 -0.2241  0.3667
 6410SOL    HW130863   2.631   4.393   0.732  0.8094 -1.5523 -0.8204
 6410SOL    HW230864   2.593   4.276   0.805  0.7696 -0.8220 -1.5622
 6411SOL     OW30865   3.435   1.286   2.620  0.5064  0.1019 -0.0119
 6411SOL    HW130866   3.460   1.280   2.712  1.4071  1.8812 -0.1297
 6411SOL    HW230867   3.507   1.339   2.585 -0.0656  0.8768 -0.0195
 6412SOL     OW30868   0.189   0.883   8.645  0.2424  0.0997  0.0332
 6412SOL    HW130869   0.248   0.812   8.620  2.1614  2.0151 -0.8055
 6412SOL    HW230870   0.246   0.958   8.663  1.2173 -0.8374  0.8232
 6413SOL     OW30871   2.115   4.111  11.216  0.2812  0.0691  0.4645
 6413SOL    HW130872   2.078   4.043  11.272  1.9460 -0.6049  0.7464
 6413SOL    HW230873   2.103   4.188  11.272  2.6462  0.2974  0.6322
 6414SOL     OW30874   0.557   2.040  15.082 -0.1850 -0.4198  0.4563
 6414SOL    HW130875   0.639   2.010  15.121 -0.4878 -0.1563  1.3185
 6414SOL    HW230876   0.525   2.091  15.157 -0.7511  0.0509 -0.1033
 6415SOL     OW30877   0.814   0.386   6.118 -0.3204  0.3310 -0.5278
 6415SOL    HW130878   0.751   0.438   6.168 -0.6795 -0.0393 -0.5972
 6415SOL    HW230879   0.859   0.330   6.181 -1.2657  0.7010  0.4648
 6416SOL     OW30880   2.859   1.270  15.185  0.3750 -0.8199  0.0657
 6416SOL    HW130881   2.821   1.218  15.257  0.8310 -0.4967  0.5349
 6416SOL    HW230882   2.914   1.210  15.136  1.5689 -1.5297  2.2686
 6417SOL     OW30883   4.472   4.080   5.611 -0.5701 -0.3576 -0.0194
 6417SOL    HW130884   4.438   4.110   5.527 -1.5265 -0.7834  0.2060
 6417SOL    HW230885   4.497   3.989   5.596 -0.2439 -0.5027  1.3629
 6418SOL     OW30886   2.628   3.502   7.441  0.1812  0.3526  0.1130
 6418SOL    HW130887   2.618   3.469   7.530 -0.9128  1.3347  0.3576
 6418SOL    HW230888   2.592   3.434   7.383  0.5034  1.1716 -1.0656
 6419SOL     OW30889   2.920   0.113   6.027  0.4284  0.0801  0.0764
 6419SOL    HW130890   2.942   0.028   6.064  1.6616  0.6837  0.7520
 6419SOL    HW230891   2.914   0.092   5.934  1.0008 -0.0977  0.0819
 6420SOL     OW30892   0.966   0.013   8.409  0.3771  0.1986 -0.2225
 6420SOL    HW130893   0.990   0.105   8.398 -1.0587  0.4490 -1.2419
 6420SOL    HW230894   0.896   0.019   8.344  0.9392 -0.1233 -0.8670
 6421SOL     OW30895   3.812   3.390   9.802  0.4933 -0.1233  0.0679
 6421SOL    HW130896   3.858   3.451   9.744 -1.3236  1.6077  0.4743
 6421SOL    HW230897   3.877   3.386   9.872  0.4387 -2.2625 -0.0013
 6422SOL     OW30898   0.996   3.354   0.096 -0.1862 -1.0185  0.2436
 6422SOL    HW130899   0.978   3.360   0.002  1.4729  0.9818  0.0397
 6422SOL    HW230900   0.961   3.270   0.124 -0.2066 -1.3665 -0.8252
 6423SOL     OW30901   2.222   1.328   3.407 -0.5710 -0.5224  0.1502
 6423SOL    HW130902   2.174   1.327   3.489  0.2061  0.3025  0.6114
 6423SOL    HW230903   2.215   1.238   3.374  1.4118 -0.7900  0.4356
 6424SOL     OW30904   2.191   2.097   5.027 -0.2598 -0.7744  0.2410
 6424SOL    HW130905   2.241   2.033   4.978  0.5524 -0.5545  0.7795
 6424SOL    HW230906   2.123   2.109   4.961  0.6123  0.4347 -0.4483
 6425SOL     OW30907   4.500   2.643   5.859  0.2905  0.3295 -0.1740
 6425SOL    HW130908   4.504   2.573   5.794  0.8275 -0.8507  1.1398
 6425SOL    HW230909   4.504   2.714   5.795  1.3691 -1.3634 -1.9519
 6426SOL     OW30910   3.994   3.447   3.433 -0.2028 -0.0028 -0.3192
 6426SOL    HW130911   4.040   3.516   3.386  0.8778 -0.8871 -0.5756
 6426SOL    HW230912   3.926   3.502   3.472  0.0235 -0.1292  0.2593
 6427SOL     OW30913   2.013   3.555   3.703 -0.5926  0.3046 -0.2485
 6427SOL    HW130914   1.919   3.576   3.701 -0.4745  0.9248  0.4434
 6427SOL    HW230915   2.022   3.466   3.670 -0.0005  0.1313  0.3828
 6428SOL     OW30916   0.868   0.519   5.366 -0.2033  0.0436  0.5450
 6428SOL    HW130917   0.806   0.479   5.304  0.8674  0.0190 -0.5004
 6428SOL    HW230918   0.844   0.454   5.433 -0.9182 -1.4306 -1.1351
 6429SOL     OW30919   3.127   4.583   4.213  0.0322 -0.1205 -0.5539
 6429SOL    HW130920   3.036   4.609   4.202  0.7828  3.1316  0.6661
 6429SOL    HW230921   3.112   4.529   4.291  0.9016 -0.2693 -0.4857
 6430SOL     OW30922   2.584   0.715   3.414 -0.0851 -0.3549 -0.2267
 6430SOL    HW130923   2.657   0.729   3.354  0.8455 -1.7984  0.5733
 6430SOL    HW230924   2.544   0.645   3.363 -0.3969  0.5715 -1.2559
 6431SOL     OW30925   3.174   3.271  12.167 -0.1295  0.1433 -0.1590
 6431SOL    HW130926   3.119   3.307  12.236 -0.4622  1.0105 -0.8722
 6431SOL    HW230927   3.209   3.187  12.197 -1.1517 -0.9984 -2.1886
 6432SOL     OW30928   2.182   0.438   0.606  0.1712  0.0389  0.1051
 6432SOL    HW130929   2.217   0.374   0.668 -0.8140 -0.5295  0.0737
 6432SOL    HW230930   2.136   0.503   0.660 -0.5216 -0.4484  0.0866
 6433SOL     OW30931   0.490   0.384   8.948  0.3933 -1.0482 -0.1334
 6433SOL    HW130932   0.546   0.412   8.876 -0.0965 -0.2353 -0.1915
 6433SOL    HW230933   0.405   0.375   8.904 -0.8874 -0.4644  2.1804
 6434SOL     OW30934   0.103   1.065  15.763 -0.2967  0.1747  0.2640
 6434SOL    HW130935   0.035   1.037  15.701 -0.6109  0.8855  0.2964
 6434SOL    HW230936   0.057   1.043  15.844 -0.1235 -1.5884 -0.1151
 6435SOL     OW30937   0.900   1.134   8.859  0.6775  0.3059 -0.1755
 6435SOL    HW130938   0.911   1.145   8.954  0.8162 -0.8453 -0.0550
 6435SOL    HW230939   0.811   1.168   8.848  0.8585  1.5256  2.0881
 6436SOL     OW30940   3.097   2.007   8.296 -0.0298  0.5906 -0.3563
 6436SOL    HW130941   3.146   1.983   8.375 -1.3030  1.3598  0.6764
 6436SOL    HW230942   3.128   1.944   8.231 -1.8405 -0.4110 -0.2676
 6437SOL     OW30943   4.715   2.701   2.847 -0.2398 -0.0229 -0.4325
 6437SOL    HW130944   4.680   2.751   2.921  0.2850  2.4222 -1.8425
 6437SOL    HW230945   4.643   2.708   2.785 -1.0751  0.0391  0.5421
 6438SOL     OW30946   3.840   4.186   2.375 -0.5818  0.1872 -0.0948
 6438SOL    HW130947   3.754   4.214   2.346 -0.2895  0.0129 -1.1354
 6438SOL    HW230948   3.817   4.114   2.434  3.0833 -0.8294  0.1152
 6439SOL     OW30949   2.105   4.357   8.557  0.0261 -0.0076  0.5274
 6439SOL    HW130950   2.197   4.348   8.582  0.0622 -1.5158 -0.1612
 6439SOL    HW230951   2.085   4.278   8.508  0.9599  0.3861 -0.4761
 6440SOL     OW30952   4.013   0.637  12.074  0.9438 -0.6010 -0.2538
 6440SOL    HW130953   4.037   0.618  12.165 -0.4853 -0.7128  0.1062
 6440SOL    HW230954   4.036   0.554  12.033 -1.2843 -0.7203 -1.2162
 6441SOL     OW30955   3.533   4.131   5.247 -0.2797  0.2523  0.0502
 6441SOL    HW130956   3.556   4.147   5.156  0.3544  1.5958  0.4533
 6441SOL    HW230957   3.605   4.171   5.296 -0.3041  0.9095 -0.4545
 6442SOL     OW30958   3.701   2.470   5.176  0.1196  0.0637 -0.2400
 6442SOL    HW130959   3.781   2.482   5.227 -0.1336  0.4105  0.0753
 6442SOL    HW230960   3.733   2.402   5.116  1.6692 -0.1558  0.8438
 6443SOL     OW30961   3.706   3.782   7.066  0.7342  0.3278 -0.3204
 6443SOL    HW130962   3.712   3.830   7.148  1.0044 -0.0516 -0.1212
 6443SOL    HW230963   3.752   3.707   7.103 -1.0654 -1.5959 -1.9375
 6444SOL     OW30964   1.493   4.000   7.863  0.2110 -0.7396 -0.0980
 6444SOL    HW130965   1.407   4.037   7.848 -0.4120 -1.7746  0.9157
 6444SOL    HW230966   1.476   3.928   7.924  0.3564 -0.9822 -0.3429
 6445SOL     OW30967   2.112   4.339   0.831  0.5549  0.0714  0.0418
 6445SOL    HW130968   2.166   4.378   0.762 -0.4807 -0.4782 -1.0600
 6445SOL    HW230969   2.034   4.393   0.822  1.9017  1.6166 -2.4551
 6446SOL     OW30970   4.019   0.203   0.760  0.1494  0.7957  0.4456
 6446SOL    HW130971   3.985   0.222   0.673 -0.6986 -0.8731  0.3923
 6446SOL    HW230972   4.004   0.282   0.811  2.0110  1.2350  0.2866
 6447SOL     OW30973   0.095   4.577   9.587 -0.3576 -0.5170  0.3593
 6447SOL    HW130974   0.077   4.662   9.548  0.3764 -1.1400 -1.3584
 6447SOL    HW230975   0.141   4.603   9.667  0.0496 -2.1796  0.6705
 6448SOL     OW30976   3.883   1.984   3.209 -0.1641  0.3410 -0.2785
 6448SOL    HW130977   3.924   2.018   3.288  0.0850 -0.8051  0.0810
 6448SOL    HW230978   3.889   2.047   3.137  0.8735  2.1562  1.3959
 6449SOL     OW30979   0.522   2.010  14.655  0.0637 -0.5671 -0.0567
 6449SOL    HW130980   0.458   1.956  14.609 -2.5257  2.7038 -0.2890
 6449SOL    HW230981   0.571   2.048  14.582  0.7841 -1.7071 -0.1562
 6450SOL     OW30982   4.179   4.479   6.907 -0.0490  0.0438  0.1001
 6450SOL    HW130983   4.253   4.516   6.955  0.1162 -0.7343  0.4348
 6450SOL    HW230984   4.215   4.426   6.836  0.0130 -0.6855  0.6800
 6451SOL     OW30985   1.598   3.138   5.922  0.8641  0.2726  0.4839
 6451SOL    HW130986   1.662   3.207   5.904 -0.6243  1.2795 -0.8538
 6451SOL    HW230987   1.656   3.064   5.944  0.7345 -0.0434 -0.2634
 6452SOL     OW30988   2.306   1.577  11.777  0.2562  0.1292  0.1278
 6452SOL    HW130989   2.322   1.483  11.762 -1.5579 -0.2827  0.7564
 6452SOL    HW230990   2.292   1.603  11.686  1.1991  2.1669  0.5676
 6453SOL     OW30991   2.675   1.521   1.286  0.3203 -0.1137  0.0578
 6453SOL    HW130992   2.712   1.436   1.309  0.7443 -0.4072 -1.6973
 6453SOL    HW230993   2.633   1.539   1.370  1.9149 -0.2735  0.8741
 6454SOL     OW30994   1.109   3.611   6.687 -0.5468 -0.0947 -0.0067
 6454SOL    HW130995   1.086   3.696   6.649 -0.5429 -0.1738 -0.1884
 6454SOL    HW230996   1.108   3.552   6.611  3.2451 -0.3977  0.1448
 6455SOL     OW30997   0.076   4.409   2.980 -0.0020 -0.2258  0.2248
 6455SOL    HW130998   0.024   4.366   2.912 -0.7729  0.0293  0.6562
 6455SOL    HW230999   0.020   4.401   3.057  0.6968  0.6427  0.8189
 6456SOL     OW31000   0.264   2.905  11.764  0.3454 -0.3928  0.2541
 6456SOL    HW131001   0.235   2.946  11.683 -0.5079  0.0986  0.8054
 6456SOL    HW231002   0.293   2.821  11.729 -0.9803 -0.2972 -1.0272
 6457SOL     OW31003   1.349   2.496   7.352 -0.2210  0.6063  0.4825
 6457SOL    HW131004   1.324   2.450   7.272 -0.2544 -0.2173  0.9655
 6457SOL    HW231005   1.443   2.485   7.342 -0.1282  2.4500 -0.5709
 6458SOL     OW31006   0.921   2.648  17.388  0.2336 -0.0785 -0.0041
 6458SOL    HW131007   0.949   2.559  17.405  0.7308 -0.5588 -3.2444
 6458SOL    HW231008   1.002   2.689  17.419  2.1826 -3.6527 -0.3975
 6459SOL     OW31009   3.026   0.152  15.359 -0.2580  0.6185 -0.3230
 6459SOL    HW131010   3.053   0.086  15.296  4.1388  0.5202  1.6916
 6459SOL    HW231011   2.994   0.209  15.289 -0.3761 -1.1830 -1.7333
 6460SOL     OW31012   3.460   4.534   6.971  0.4230 -0.1680 -0.5221
 6460SOL    HW131013   3.507   4.596   7.026  1.9825 -1.3072 -0.5653
 6460SOL    HW231014   3.452   4.460   7.031  2.5263  1.2412  1.4557
 6461SOL     OW31015   0.760   1.136  15.627  0.4846  0.0686 -0.0890
 6461SOL    HW131016   0.719   1.219  15.600 -0.2691 -1.6425 -4.2344
 6461SOL    HW231017   0.692   1.076  15.596 -1.0004  1.0898  1.1881
 6462SOL     OW31018   4.678   1.442   1.541 -0.1583  0.2312  0.7773
 6462SOL    HW131019   4.644   1.386   1.610  0.3876 -2.4493 -1.1323
 6462SOL    HW231020   4.596   1.469   1.500  1.1853  0.4676 -1.7645
 6463SOL     OW31021   3.199   4.546   2.743 -0.8868 -0.2674 -0.1730
 6463SOL    HW131022   3.270   4.485   2.723 -0.3202  0.1745  0.5191
 6463SOL    HW231023   3.164   4.555   2.654 -1.2081  0.5463  0.0345
 6464SOL     OW31024   3.256   3.201   0.709  0.2424  0.1093  0.0246
 6464SOL    HW131025   3.278   3.114   0.742  0.5069  0.2026  0.0974
 6464SOL    HW231026   3.207   3.238   0.782  0.0976 -0.3737  0.1689
 6465SOL     OW31027   2.352   4.674   5.007 -0.2888  0.4289  0.6313
 6465SOL    HW131028   2.354   4.664   4.912  0.7310  0.1793  0.6807
 6465SOL    HW231029   2.373   4.585   5.037  1.6041  1.3366  2.0191
 6466SOL     OW31030   4.646   0.660   2.951 -0.2658  0.0142  0.3700
 6466SOL    HW131031   4.636   0.573   2.989 -0.8095  0.8454  2.1184
 6466SOL    HW231032   4.711   0.633   2.886 -0.6359  0.7076 -0.2847
 6467SOL     OW31033   3.860   3.308   2.981  0.3996 -0.1798 -0.0550
 6467SOL    HW131034   3.907   3.307   2.897 -1.6969 -2.7661 -1.1934
 6467SOL    HW231035   3.841   3.402   2.986 -0.6532 -0.2962 -1.5281
 6468SOL     OW31036   3.641   1.840  16.079 -0.3923  0.2587  0.2072
 6468SOL    HW131037   3.657   1.780  16.006  0.6887 -0.5042  1.0731
 6468SOL    HW231038   3.560   1.878  16.044 -0.5349  0.4526  0.7421
 6469SOL     OW31039   3.512   0.102  15.604  0.0930 -0.0034 -0.2044
 6469SOL    HW131040   3.462   0.052  15.669  1.4900 -0.2332  0.6902
 6469SOL    HW231041   3.453   0.169  15.570  0.4215 -1.1916 -3.1267
 6470SOL     OW31042   1.715   0.662  16.460  0.5401 -0.1283  0.2931
 6470SOL    HW131043   1.796   0.695  16.420  0.0759  0.6829  0.0363
 6470SOL    HW231044   1.651   0.705  16.404  0.7631  2.9409  2.3754
 6471SOL     OW31045   4.395   3.760   7.695  0.9229 -0.6223 -0.4567
 6471SOL    HW131046   4.449   3.839   7.703  1.4766 -0.9375 -1.1054
 6471SOL    HW231047   4.309   3.800   7.688  0.0162 -2.4532  0.1213
 6472SOL     OW31048   3.940   1.430   7.358  0.0039  0.2139 -0.1264
 6472SOL    HW131049   3.856   1.405   7.319 -0.4941 -2.0670  2.4189
 6472SOL    HW231050   3.995   1.368   7.311  1.4058  0.3220  1.3884
 6473SOL     OW31051   3.897   0.021   6.342 -0.1416  0.1130  0.4872
 6473SOL    HW131052   3.902   4.667   6.360 -0.5200 -0.4830 -2.5299
 6473SOL    HW231053   3.930   0.054   6.425  0.8794 -1.6628  0.7910
 6474SOL     OW31054   2.982   1.670   2.624  0.8488  0.6963 -0.2183
 6474SOL    HW131055   3.035   1.591   2.620 -1.2155 -0.6803 -0.5572
 6474SOL    HW231056   2.898   1.643   2.660  0.8136  0.7782 -0.2374
 6475SOL     OW31057   3.276   0.919   5.655  0.1652 -0.3099 -0.3000
 6475SOL    HW131058   3.239   0.831   5.658 -1.4186  0.3353 -0.4956
 6475SOL    HW231059   3.322   0.925   5.739 -1.2972 -0.4857  0.5113
 6476SOL     OW31060   3.776   2.057   9.498 -0.8264  0.0426  0.2333
 6476SOL    HW131061   3.855   2.105   9.525 -1.3150  1.0049 -0.0329
 6476SOL    HW231062   3.814   2.020   9.418  0.0669 -1.0772  1.1744
 6477SOL     OW31063   2.597   1.812  15.004  0.0451 -0.6499  0.0475
 6477SOL    HW131064   2.551   1.873  14.945  0.1808 -0.7654 -0.1774
 6477SOL    HW231065   2.594   1.728  14.958 -1.9089 -0.5994  0.0640
 6478SOL     OW31066   2.354   0.413   2.891 -0.7412 -0.6639 -0.2895
 6478SOL    HW131067   2.347   0.362   2.972  1.6858  0.0102  0.3189
 6478SOL    HW231068   2.412   0.354   2.845 -0.4299 -2.5691  2.5442
 6479SOL     OW31069   4.029   3.081   9.201 -0.0310  0.7044  0.3165
 6479SOL    HW131070   4.002   3.003   9.154 -0.4239  0.6065  0.7074
 6479SOL    HW231071   4.060   3.127   9.123  1.4790  0.0974  0.5487
 6480SOL     OW31072   2.525   3.856  13.997  0.9215  0.1360  0.6593
 6480SOL    HW131073   2.501   3.949  14.000  0.3643  0.0085  0.1869
 6480SOL    HW231074   2.595   3.860  14.063  0.8828 -1.2233  0.7867
 6481SOL     OW31075   0.890   4.015   5.404 -0.0469  0.6633 -0.1394
 6481SOL    HW131076   0.900   4.087   5.342 -1.2841 -0.7854 -2.0338
 6481SOL    HW231077   0.944   4.049   5.475 -1.4530 -0.8297  1.6528
 6482SOL     OW31078   0.388   1.621   7.399 -0.6260 -0.1272  0.5907
 6482SOL    HW131079   0.433   1.642   7.481  0.0958 -1.4354  0.5304
 6482SOL    HW231080   0.419   1.689   7.339  2.2835 -0.3387  1.8391
 6483SOL     OW31081   0.820   1.830   7.161  0.3621 -0.3582  0.3919
 6483SOL    HW131082   0.738   1.838   7.208  0.4606  1.0916  0.3064
 6483SOL    HW231083   0.880   1.815   7.234 -1.5880  3.4290  2.7401
 6484SOL     OW31084   2.576   0.127   4.037  0.2642 -0.1742 -0.3348
 6484SOL    HW131085   2.622   0.208   4.017 -1.1743  0.7291  0.0019
 6484SOL    HW231086   2.615   0.070   3.970 -0.9492 -1.7672  0.3024
 6485SOL     OW31087   4.056   0.097  14.203 -0.0429  0.2615 -0.1898
 6485SOL    HW131088   4.139   0.143  14.215  0.7538 -0.9843 -0.8779
 6485SOL    HW231089   4.077   0.018  14.253  0.2823 -0.3977 -1.3520
 6486SOL     OW31090   2.472   0.499  17.301 -0.4614  0.1267 -0.0612
 6486SOL    HW131091   2.497   0.587  17.329  3.3344 -1.1485  0.5823
 6486SOL    HW231092   2.383   0.499  17.335 -0.4092  1.9653  0.0572
 6487SOL     OW31093   4.290   3.501  15.482  0.4262 -0.1653 -0.3294
 6487SOL    HW131094   4.348   3.435  15.521  0.3377 -1.7067 -2.8059
 6487SOL    HW231095   4.260   3.465  15.399  0.6586  1.4105 -1.0972
 6488SOL     OW31096   2.386   3.610   1.969 -0.1674  0.1260  0.0254
 6488SOL    HW131097   2.397   3.690   2.021 -1.6311  1.1542 -1.2147
 6488SOL    HW231098   2.314   3.632   1.910 -1.0897 -2.8890  0.0654
 6489SOL     OW31099   4.421   4.400   9.222  0.0964  0.1868 -0.3921
 6489SOL    HW131100   4.481   4.330   9.249  0.6213  0.6697 -0.2981
 6489SOL    HW231101   4.351   4.351   9.180 -1.6271  0.7996  1.8007
 6490SOL     OW31102   1.176   4.068   8.071  0.4658  0.3679  0.8560
 6490SOL    HW131103   1.119   4.115   8.133  0.7731  0.7821  0.8208
 6490SOL    HW231104   1.218   4.138   8.022  0.9695  0.2749  1.1567
 6491SOL     OW31105   1.633   3.653   2.183  0.0462  0.3635 -0.1451
 6491SOL    HW131106   1.624   3.625   2.274 -4.3659 -0.9257 -0.9733
 6491SOL    HW231107   1.684   3.734   2.178 -0.7909  1.0759  2.7883
 6492SOL     OW31108   3.702   4.520   8.424 -0.4004  0.0020 -0.1837
 6492SOL    HW131109   3.660   4.518   8.510 -0.5466  0.8174 -0.2337
 6492SOL    HW231110   3.787   4.556   8.451 -1.0994  0.0985  1.9451
 6493SOL     OW31111   2.742   3.236   3.617 -0.0931  0.2898 -0.1055
 6493SOL    HW131112   2.665   3.216   3.565  0.6277 -0.6276 -0.8089
 6493SOL    HW231113   2.770   3.321   3.582 -0.2302  1.1310  1.8449
 6494SOL     OW31114   3.783   2.547  11.605 -0.1971  0.2963  0.0240
 6494SOL    HW131115   3.746   2.465  11.571  0.9742  0.1711 -0.9563
 6494SOL    HW231116   3.859   2.517  11.655 -0.2099 -1.6913 -1.1532
 6495SOL     OW31117   4.260   2.015   9.436 -0.3641 -0.1535 -0.3387
 6495SOL    HW131118   4.314   1.943   9.404 -1.5181 -0.4059 -1.6742
 6495SOL    HW231119   4.294   2.095   9.395 -1.9416  0.8431  0.3066
 6496SOL     OW31120   2.640   2.533  13.866  0.1006  0.1773 -0.3912
 6496SOL    HW131121   2.561   2.582  13.888  0.0048 -0.1144 -0.0854
 6496SOL    HW231122   2.621   2.503  13.777 -1.0344 -1.6904  0.4687
 6497SOL     OW31123   3.436   2.939  10.978  0.8405 -0.0510  0.0075
 6497SOL    HW131124   3.343   2.952  10.995  1.2394  1.4155  1.0835
 6497SOL    HW231125   3.437   2.932  10.882 -0.7303  1.2977 -0.1165
 6498SOL     OW31126   3.947   2.989   7.906 -0.2921 -0.0275 -0.1370
 6498SOL    HW131127   3.991   2.971   7.822  0.0492  0.2044 -0.0120
 6498SOL    HW231128   4.018   3.019   7.963 -0.7536 -0.3663  0.5977
 6499SOL     OW31129   1.899   0.329   8.618  0.1614 -0.3287 -0.5410
 6499SOL    HW131130   1.939   0.411   8.590 -0.9614  0.1669 -0.6977
 6499SOL    HW231131   1.811   0.363   8.633  0.3070  0.3213 -1.1725
 6500SOL     OW31132   1.054   2.715   7.098  0.7371  0.4033  0.6349
 6500SOL    HW131133   1.056   2.793   7.042 -1.7102  0.5731  0.7941
 6500SOL    HW231134   1.096   2.648   7.045 -1.8556 -0.1234 -0.7827
 6501SOL     OW31135   1.049   0.916   5.987 -0.7170 -0.6024 -0.5105
 6501SOL    HW131136   1.040   0.982   5.918 -0.6667  0.1394  0.1935
 6501SOL    HW231137   1.097   0.846   5.942  0.4508 -1.6621  2.3865
 6502SOL     OW31138   2.699   0.913   6.385 -0.4883 -0.2734  0.1894
 6502SOL    HW131139   2.775   0.856   6.397  0.1483  0.4334 -0.4661
 6502SOL    HW231140   2.656   0.862   6.317  1.9510  0.4059 -1.8308
 6503SOL     OW31141   0.554   0.438  10.479  0.5690  0.6487  0.1123
 6503SOL    HW131142   0.482   0.496  10.455  2.1566  2.0453 -1.2498
 6503SOL    HW231143   0.498   0.392  10.542 -0.7250  0.9525 -0.8174
 6504SOL     OW31144   2.838   0.031   6.284 -0.1868 -0.2192  0.5676
 6504SOL    HW131145   2.813   0.022   6.193 -1.1686 -2.0644  1.0192
 6504SOL    HW231146   2.761   0.070   6.327  0.7383  0.6130  1.4700
 6505SOL     OW31147   3.721   4.014   1.154 -0.6559  0.3177  0.1962
 6505SOL    HW131148   3.660   3.953   1.113 -0.5982  1.6989 -1.9060
 6505SOL    HW231149   3.790   4.026   1.089 -2.6722  2.3093 -1.5242
 6506SOL     OW31150   4.539   3.331   1.575  0.5552  0.0974  0.9540
 6506SOL    HW131151   4.478   3.369   1.511  0.5398  0.8109  1.3865
 6506SOL    HW231152   4.502   3.246   1.598 -1.0482  0.4803 -0.1408
 6507SOL     OW31153   0.859   3.671   1.950 -0.3040 -0.0008  0.8494
 6507SOL    HW131154   0.801   3.595   1.955  0.3377 -0.5388  0.2068
 6507SOL    HW231155   0.925   3.655   2.018  0.9737 -0.5180 -0.5006
 6508SOL     OW31156   3.319   3.445   4.257 -0.1152 -0.3030  0.7386
 6508SOL    HW131157   3.257   3.396   4.203  0.2420 -1.8981  1.7723
 6508SOL    HW231158   3.269   3.441   4.339 -0.7474 -0.3697  0.3485
 6509SOL     OW31159   2.212   4.515  15.522 -0.1978 -0.3598 -0.1556
 6509SOL    HW131160   2.171   4.568  15.454  0.3679  0.3349  0.0392
 6509SOL    HW231161   2.305   4.530  15.503  0.1427 -1.6670  0.4418
 6510SOL     OW31162   2.390   2.286   6.071  0.0402 -0.6991  0.7272
 6510SOL    HW131163   2.366   2.193   6.065 -0.7898 -0.3924 -0.6312
 6510SOL    HW231164   2.409   2.287   6.165  4.0601 -1.8806 -0.1005
 6511SOL     OW31165   3.380   1.273   5.957 -0.2829 -0.1870 -0.2478
 6511SOL    HW131166   3.364   1.362   5.927 -0.3330 -0.0193  0.2758
 6511SOL    HW231167   3.432   1.282   6.037  0.5503 -0.7496 -0.7319
 6512SOL     OW31168   1.197   2.734   9.159 -0.1425 -0.1608  0.0940
 6512SOL    HW131169   1.179   2.667   9.093 -0.3887  0.1223 -0.1223
 6512SOL    HW231170   1.108   2.759   9.181  0.1039  0.9266 -0.1734
 6513SOL     OW31171   1.095   3.099  17.486 -0.3281  0.8381 -0.4119
 6513SOL    HW131172   1.169   3.074  17.430  0.9093  0.8440  1.2366
 6513SOL    HW231173   1.067   3.022  17.535  0.6642  0.7124 -0.0537
 6514SOL     OW31174   0.255   2.514  16.055  0.0905  0.1631 -0.4483
 6514SOL    HW131175   0.163   2.529  16.078 -0.4833 -1.4307 -1.7132
 6514SOL    HW231176   0.304   2.587  16.093 -2.0223  0.5064  1.6084
 6515SOL     OW31177   2.104   0.296   6.744 -0.3237 -0.0989  0.0273
 6515SOL    HW131178   2.199   0.285   6.750 -0.2795  0.6189  0.7186
 6515SOL    HW231179   2.099   0.301   6.649 -1.3498  0.8662  0.1314
 6516SOL     OW31180   0.884   0.589   5.859 -0.0715 -0.2686 -0.2134
 6516SOL    HW131181   0.862   0.506   5.902  0.1537 -0.1238  0.1850
 6516SOL    HW231182   0.976   0.571   5.838  0.5579  0.2965  2.0710
 6517SOL     OW31183   1.040   2.652   1.622 -0.6221 -0.1851 -0.3899
 6517SOL    HW131184   1.054   2.729   1.677 -0.7414 -0.8870  0.6208
 6517SOL    HW231185   1.047   2.686   1.533 -2.0317  2.3615  0.4620
 6518SOL     OW31186   2.456   1.895   4.323 -0.0433  0.0414  0.0891
 6518SOL    HW131187   2.441   1.815   4.373 -0.6976  1.9838  3.0080
 6518SOL    HW231188   2.472   1.959   4.392 -0.9734 -0.6329  0.9163
 6519SOL     OW31189   2.748   3.366   4.523 -0.2416  0.6775 -0.5251
 6519SOL    HW131190   2.764   3.456   4.494  1.6492  1.0237  1.6192
 6519SOL    HW231191   2.689   3.378   4.598 -0.4754 -0.7383 -0.4899
 6520SOL     OW31192   2.167   0.104   0.869 -0.1883 -0.1491 -0.0390
 6520SOL    HW131193   2.207   0.168   0.810  4.0945 -1.6816  1.1802
 6520SOL    HW231194   2.111   0.166   0.916  0.7851 -0.1459  1.1271
 6521SOL     OW31195   4.455   4.660   8.468 -0.1680  0.0550 -0.4425
 6521SOL    HW131196   4.512   4.590   8.498 -1.9908 -1.7318 -1.1716
 6521SOL    HW231197   4.488   4.672   8.378 -0.9990  1.9186 -0.5140
 6522SOL     OW31198   4.112   1.203   5.559 -0.3612 -0.0573  0.2340
 6522SOL    HW131199   4.131   1.181   5.650  1.4279 -0.0440 -0.1306
 6522SOL    HW231200   4.192   1.250   5.535 -0.3810 -0.1662 -0.0525
 6523SOL     OW31201   4.098   3.016   7.558  0.1769  0.1384 -0.1596
 6523SOL    HW131202   4.079   3.110   7.553  0.4478  0.2043  0.0432
 6523SOL    HW231203   4.093   2.990   7.467 -1.0556 -0.1378 -0.0142
 6524SOL     OW31204   4.526   0.976  12.041 -0.3782  0.2230 -0.0552
 6524SOL    HW131205   4.600   0.946  12.094  0.3870  3.7510  0.8770
 6524SOL    HW231206   4.457   0.911  12.057 -1.4992  1.2779 -0.5913
 6525SOL     OW31207   3.190   4.298   1.292  0.2156 -0.3087 -0.0556
 6525SOL    HW131208   3.265   4.239   1.289  0.0192 -0.7208  3.4086
 6525SOL    HW231209   3.118   4.235   1.284 -0.8307  0.6710  1.5986
 6526SOL     OW31210   0.232   2.958   3.363 -0.4080 -0.4442 -0.5018
 6526SOL    HW131211   0.324   2.975   3.384 -1.5565  2.3140  2.2828
 6526SOL    HW231212   0.225   2.867   3.394  1.3904 -0.7015 -0.8598
 6527SOL     OW31213   0.346   3.526  12.104 -0.2143 -0.2198 -0.3293
 6527SOL    HW131214   0.314   3.581  12.176  0.1026 -1.6821  0.9134
 6527SOL    HW231215   0.441   3.533  12.115 -0.5550  0.3119  2.2854
 6528SOL     OW31216   2.982   3.371   0.377 -0.0470  0.3998  0.1796
 6528SOL    HW131217   2.936   3.323   0.308 -0.7523  0.7942  0.3695
 6528SOL    HW231218   3.023   3.296   0.419  3.0141  1.7520 -0.3985
 6529SOL     OW31219   1.468   2.834  14.367  0.5366 -0.6496  0.7736
 6529SOL    HW131220   1.463   2.859  14.275 -0.9144 -1.9574  0.4883
 6529SOL    HW231221   1.378   2.804  14.380  0.2388  0.2205  0.7675
 6530SOL     OW31222   3.706   1.405   4.204 -0.3192 -0.2189 -0.0795
 6530SOL    HW131223   3.734   1.487   4.245 -1.4499 -0.2060  0.6834
 6530SOL    HW231224   3.611   1.415   4.208 -0.2965 -0.1803  0.4296
 6531SOL     OW31225   4.557   0.216  17.020 -0.0983  0.1959 -0.0516
 6531SOL    HW131226   4.593   0.197  17.106  2.9364  2.1971 -0.9092
 6531SOL    HW231227   4.463   0.201  17.029 -0.1589  0.2135 -0.6236
 6532SOL     OW31228   0.219   1.346   4.763 -0.2574  0.1753 -0.8510
 6532SOL    HW131229   0.217   1.319   4.672 -1.8757 -2.1631 -0.1230
 6532SOL    HW231230   0.190   1.437   4.767 -0.3078  0.1257  0.0704
 6533SOL     OW31231   4.630   2.583   4.373  0.3223 -0.3473  0.7950
 6533SOL    HW131232   4.679   2.594   4.291 -1.0852  1.5287  0.2184
 6533SOL    HW231233   4.686   2.620   4.441  0.4434  1.5294 -0.3267
 6534SOL     OW31234   4.263   0.758   3.466  0.1104  0.1416 -0.0265
 6534SOL    HW131235   4.289   0.666   3.460 -2.5174 -0.6138  0.1841
 6534SOL    HW231236   4.180   0.761   3.419 -0.7803 -1.0157  1.4551
 6535SOL     OW31237   3.236   3.683  10.663 -0.6975 -0.3014 -0.5746
 6535SOL    HW131238   3.223   3.602  10.713 -0.2146  0.1147  0.2421
 6535SOL    HW231239   3.152   3.697  10.620 -1.3875 -0.0897  0.8162
 6536SOL     OW31240   2.352   1.702   2.475 -0.1249  0.2639 -0.6684
 6536SOL    HW131241   2.413   1.756   2.425  0.3186 -0.4039 -0.8544
 6536SOL    HW231242   2.296   1.680   2.400  0.9060  0.1369 -1.3999
 6537SOL     OW31243   2.572   2.818  16.699 -0.0359  0.3381  0.1689
 6537SOL    HW131244   2.506   2.858  16.642  1.2309  1.1057 -0.7778
 6537SOL    HW231245   2.593   2.891  16.757  0.8183 -1.0360  1.5795
 6538SOL     OW31246   0.618   1.860   4.227 -0.4241  0.1055 -0.1795
 6538SOL    HW131247   0.572   1.920   4.168 -2.1560 -0.2693  0.8148
 6538SOL    HW231248   0.591   1.893   4.312 -1.4793 -1.6969  0.1760
 6539SOL     OW31249   1.557   3.184   5.143 -0.3422 -0.2749  0.1430
 6539SOL    HW131250   1.608   3.171   5.223 -2.1943  1.0844  1.5673
 6539SOL    HW231251   1.623   3.227   5.088  0.5835 -1.1028  0.6227
 6540SOL     OW31252   1.210   4.661   7.564  0.0313 -0.1930 -0.4507
 6540SOL    HW131253   1.216   4.732   7.628  0.9117 -1.9927  1.4830
 6540SOL    HW231254   1.198   4.706   7.481 -2.5631 -2.2822 -1.1950
 6541SOL     OW31255   1.492   4.508   4.833 -0.6582 -0.0107  0.1686
 6541SOL    HW131256   1.420   4.468   4.882 -0.6152 -0.7860 -0.3998
 6541SOL    HW231257   1.568   4.459   4.863  0.1894  0.5395 -1.0489
 6542SOL     OW31258   4.085   2.402   2.266  0.2202 -0.7446 -0.2936
 6542SOL    HW131259   4.022   2.413   2.194 -0.9028 -2.3240  0.4442
 6542SOL    HW231260   4.164   2.446   2.235  0.3080  1.3295  2.8302
 6543SOL     OW31261   3.188   2.369   6.434  0.0407  0.3566 -0.2046
 6543SOL    HW131262   3.274   2.367   6.390  1.3115  1.4545  2.2351
 6543SOL    HW231263   3.189   2.288   6.485 -0.3018  1.2304  1.1960
 6544SOL     OW31264   0.737   1.221   3.793  0.1688  0.7900  0.0386
 6544SOL    HW131265   0.647   1.224   3.824  0.3046 -0.2688  0.5221
 6544SOL    HW231266   0.772   1.199   3.879 -0.6666  2.2071  0.7358
 6545SOL     OW31267   0.700   2.739   9.290  0.0324 -0.0600  0.4508
 6545SOL    HW131268   0.682   2.761   9.199  0.8634 -0.4411  0.1996
 6545SOL    HW231269   0.625   2.780   9.334  1.2229  1.0479  1.4512
 6546SOL     OW31270   0.300   2.262  15.950 -0.4311 -0.3272 -0.5763
 6546SOL    HW131271   0.255   2.336  15.991  1.6653  0.7557 -0.2470
 6546SOL    HW231272   0.381   2.307  15.929  0.9590 -2.8071 -0.5753
 6547SOL     OW31273   4.681   4.731   4.320 -0.0571 -0.2992 -0.4359
 6547SOL    HW131274   0.012   4.666   4.321  1.2305  1.0787 -1.3723
 6547SOL    HW231275   4.678   0.017   4.412  0.0752  1.3831 -0.8971
 6548SOL     OW31276   1.464   4.186   9.305 -0.5817  0.0498  0.3733
 6548SOL    HW131277   1.524   4.258   9.326  0.0199 -0.3024 -0.1754
 6548SOL    HW231278   1.387   4.238   9.330  0.5709  0.9195  2.1811
 6549SOL     OW31279   4.715   2.228   7.334  0.4721 -0.4213 -0.9762
 6549SOL    HW131280   4.637   2.215   7.280 -0.1559 -0.7623 -0.0042
 6549SOL    HW231281   4.675   2.251   7.418  1.1368  0.4066 -0.8831
 6550SOL     OW31282   2.901   1.217   2.777  0.4491 -0.2385 -0.5707
 6550SOL    HW131283   2.933   1.131   2.748  0.0544 -0.0571 -1.5612
 6550SOL    HW231284   2.912   1.216   2.872  1.0497 -0.0057 -0.6376
 6551SOL     OW31285   1.797   1.919   9.419  0.5571  0.2597  0.0013
 6551SOL    HW131286   1.743   1.913   9.498  3.1498 -0.6792  1.7067
 6551SOL    HW231287   1.862   1.986   9.440  1.2085  0.3068 -2.1453
 6552SOL     OW31288   2.313   1.531   0.762 -0.3696  0.2580 -0.2220
 6552SOL    HW131289   2.218   1.534   0.773 -0.3519 -0.1322  0.0605
 6552SOL    HW231290   2.323   1.501   0.672 -1.9539  1.9192 -0.9485
 6553SOL     OW31291   0.061   0.312  13.072 -0.5355  0.2049  0.0784
 6553SOL    HW131292   0.052   0.331  13.166 -3.1601  0.8150 -0.2885
 6553SOL    HW231293   4.728   0.251  13.058 -0.1906 -0.0946 -0.3866
 6554SOL     OW31294   3.661   1.700   5.542  0.1949  0.3740 -0.0310
 6554SOL    HW131295   3.727   1.643   5.582  0.1207 -0.0793 -0.5361
 6554SOL    HW231296   3.592   1.635   5.526  0.3872 -0.0045  0.6886
 6555SOL     OW31297   4.283   2.660   6.462 -0.6351  0.1308  0.2928
 6555SOL    HW131298   4.331   2.731   6.505  1.2807 -0.4056 -0.9228
 6555SOL    HW231299   4.337   2.621   6.393 -0.2824  1.1660 -0.0241
 6556SOL     OW31300   3.600   2.537   9.446 -0.3502  0.3475 -0.3026
 6556SOL    HW131301   3.605   2.538   9.541  0.5212 -1.5344 -0.3416
 6556SOL    HW231302   3.606   2.445   9.420  1.9805  0.1542  0.9759
 6557SOL     OW31303   0.377   2.918   3.858  0.3545 -0.0949 -0.4906
 6557SOL    HW131304   0.369   2.990   3.795  0.9304  2.6996  2.6401
 6557SOL    HW231305   0.458   2.882   3.823  1.0883  0.3080  0.7910
 6558SOL     OW31306   0.940   1.922   3.748  0.0683 -0.5335 -0.3017
 6558SOL    HW131307   0.975   1.956   3.831 -0.4386  0.6699 -0.5818
 6558SOL    HW231308   0.876   1.990   3.731 -0.3537 -0.7273  0.5230
 6559SOL     OW31309   0.844   2.109   4.519 -0.1881 -0.4518 -0.7759
 6559SOL    HW131310   0.915   2.148   4.468 -2.4439  3.0097 -1.2670
 6559SOL    HW231311   0.820   2.183   4.575  0.1142 -0.4714 -0.6161
 6560SOL     OW31312   3.333   0.667   3.718  0.0271 -0.0190  0.0181
 6560SOL    HW131313   3.383   0.608   3.661 -0.7142  0.4414 -1.1018
 6560SOL    HW231314   3.303   0.722   3.646 -0.2339 -1.5291 -1.0381
 6561SOL     OW31315   3.026   0.071   9.660 -0.4880 -0.0935 -0.3071
 6561SOL    HW131316   2.953   0.018   9.694 -0.8885  1.7089  1.6992
 6561SOL    HW231317   3.075   0.014   9.601 -0.9326 -2.1924  1.3107
 6562SOL     OW31318   2.587   3.325   6.876 -0.0542 -0.4292 -0.3557
 6562SOL    HW131319   2.566   3.247   6.927 -0.0919 -0.2856 -0.1542
 6562SOL    HW231320   2.501   3.356   6.848  0.9594  0.7658 -2.1336
 6563SOL     OW31321   1.906   4.607  13.997 -0.3282 -0.5637 -0.9540
 6563SOL    HW131322   1.978   4.543  13.997 -0.9349 -1.2717 -2.5687
 6563SOL    HW231323   1.883   4.615  13.904  2.4178 -0.5627 -1.6418
 6564SOL     OW31324   3.365   3.331  11.167 -0.4436 -0.3439 -0.2938
 6564SOL    HW131325   3.322   3.406  11.207 -0.1112 -0.6477  0.6310
 6564SOL    HW231326   3.285   3.302  11.123 -0.5592 -1.9124  0.9514
 6565SOL     OW31327   0.991   2.336   0.522  0.2523 -0.8268  0.2150
 6565SOL    HW131328   0.992   2.342   0.427  0.5370 -1.2154  0.1937
 6565SOL    HW231329   0.986   2.241   0.537  1.6852 -1.0678 -0.9101
 6566SOL     OW31330   1.507   3.757   1.519  0.1934  0.3592  0.2536
 6566SOL    HW131331   1.443   3.685   1.526  1.2973 -0.4644  1.7678
 6566SOL    HW231332   1.594   3.717   1.521  0.3773  0.7475  0.0298
 6567SOL     OW31333   2.197   2.736  10.136  0.2471 -0.4770  0.2785
 6567SOL    HW131334   2.258   2.793  10.089 -1.3865  0.5462 -0.6126
 6567SOL    HW231335   2.226   2.649  10.108 -0.0235 -1.1905  2.1967
 6568SOL     OW31336   4.735   3.321  15.950 -0.3427 -0.2813 -0.0306
 6568SOL    HW131337   4.650   3.349  15.917 -0.0381  0.1674 -0.4434
 6568SOL    HW231338   0.035   3.316  15.863  1.1238 -2.2109  0.7527
 6569SOL     OW31339   1.362   0.203   9.113  0.3543  0.0085  0.7243
 6569SOL    HW131340   1.282   0.150   9.117 -0.0422  0.6371  1.0632
 6569SOL    HW231341   1.357   0.262   9.037 -1.5772 -0.1426  0.7290
 6570SOL     OW31342   0.600   3.871  10.436 -0.7483 -0.4078 -0.5392
 6570SOL    HW131343   0.575   3.963  10.425 -1.7520 -0.4600  1.4225
 6570SOL    HW231344   0.519   3.820  10.437 -0.7494 -0.2978  2.6710
 6571SOL     OW31345   3.531   1.005  16.535  0.2931  0.0364 -0.0834
 6571SOL    HW131346   3.568   1.034  16.452  0.1220  2.5640  0.7487
 6571SOL    HW231347   3.547   0.911  16.520 -2.9564 -0.6729  0.8079
 6572SOL     OW31348   3.611   2.200   6.579 -0.3049 -0.3084 -0.1635
 6572SOL    HW131349   3.671   2.274   6.590 -1.5624  0.8605 -1.2178
 6572SOL    HW231350   3.672   2.126   6.570  1.6059  1.1615  0.8008
 6573SOL     OW31351   4.424   2.486  15.455  0.1327 -0.2934 -0.1623
 6573SOL    HW131352   4.341   2.512  15.416 -0.3908  1.0009  1.7766
 6573SOL    HW231353   4.391   2.423  15.520 -1.1254  0.4872 -0.0439
 6574SOL     OW31354   2.926   3.777  12.983  0.3744 -0.0817  0.1843
 6574SOL    HW131355   2.946   3.707  12.920  2.1016  2.5736 -2.2576
 6574SOL    HW231356   2.872   3.836  12.930 -3.2222  0.4600  4.4866
 6575SOL     OW31357   1.825   0.660  17.036  0.2606 -0.2044 -0.2601
 6575SOL    HW131358   1.890   0.686  17.101 -0.4885  1.4952 -0.1954
 6575SOL    HW231359   1.868   0.687  16.955  0.9074 -1.8697 -0.4802
 6576SOL     OW31360   3.719   1.879  12.692 -0.2168 -1.3522 -0.2487
 6576SOL    HW131361   3.694   1.912  12.606 -1.5758  1.2156  1.1378
 6576SOL    HW231362   3.802   1.836  12.673  1.6193  1.2977  1.8226
 6577SOL     OW31363   1.851   0.122   7.496 -0.1630  0.0059  0.0299
 6577SOL    HW131364   1.849   0.200   7.553 -0.0392 -0.0377  0.0952
 6577SOL    HW231365   1.912   0.150   7.428 -0.1839  0.3056  0.1340
 6578SOL     OW31366   3.670   2.607   0.464  0.0915 -0.1771 -0.4544
 6578SOL    HW131367   3.725   2.618   0.386  1.8781 -0.2063  0.7964
 6578SOL    HW231368   3.733   2.618   0.535 -0.3117 -1.1478  0.0489
 6579SOL     OW31369   0.836   2.741   7.284 -0.3979  0.0457  0.5266
 6579SOL    HW131370   0.819   2.826   7.243  2.5388  0.3715 -0.0009
 6579SOL    HW231371   0.915   2.718   7.235 -0.5571 -1.5230  1.0167
 6580SOL     OW31372   3.217   4.497  11.705  0.1817  0.1753  0.3852
 6580SOL    HW131373   3.270   4.575  11.721  1.2372 -0.3728 -0.4097
 6580SOL    HW231374   3.254   4.430  11.762  1.6647 -0.0252 -0.8054
 6581SOL     OW31375   1.783   4.295   5.609  0.3600 -0.2621 -0.4714
 6581SOL    HW131376   1.697   4.255   5.618 -0.4133  1.2184 -1.2301
 6581SOL    HW231377   1.767   4.384   5.640 -2.2651  0.0249 -2.5768
 6582SOL     OW31378   1.364   2.524   3.836 -0.0847 -0.2054 -0.1367
 6582SOL    HW131379   1.457   2.506   3.846  0.0710  0.9062  0.4072
 6582SOL    HW231380   1.359   2.608   3.881  0.6185  0.9900 -2.2705
 6583SOL     OW31381   3.541   2.833   0.711 -0.1817  0.1444  0.5048
 6583SOL    HW131382   3.508   2.789   0.633  1.6415  0.5209 -0.4969
 6583SOL    HW231383   3.581   2.761   0.760  0.6917 -2.0563 -3.3988
 6584SOL     OW31384   3.025   3.067   4.224 -0.3200 -0.2752 -0.2803
 6584SOL    HW131385   3.056   2.995   4.279 -0.6863  0.6199  1.0929
 6584SOL    HW231386   3.101   3.081   4.167 -0.6118  1.5745 -0.2055
 6585SOL     OW31387   4.040   3.282   4.109  0.5127 -0.6623  0.3543
 6585SOL    HW131388   4.124   3.280   4.154 -0.1187  3.3123  1.7655
 6585SOL    HW231389   3.992   3.325   4.180  0.2833  2.0726 -1.4542
 6586SOL     OW31390   3.470   1.852   0.179 -0.1387 -0.1297 -0.1939
 6586SOL    HW131391   3.403   1.792   0.145 -0.4768 -0.0582  0.3437
 6586SOL    HW231392   3.418   1.897   0.246 -0.9276 -2.2036  0.5793
 6587SOL     OW31393   3.569   1.777   6.323 -0.2472  0.0235 -0.4845
 6587SOL    HW131394   3.622   1.851   6.294  1.1945 -0.0094  2.0361
 6587SOL    HW231395   3.627   1.708   6.292 -0.6083 -0.9012  0.8972
 6588SOL     OW31396   4.042   0.502   9.043 -0.7108 -0.0872  0.0048
 6588SOL    HW131397   4.018   0.485   8.952 -1.6522 -0.8388  0.3952
 6588SOL    HW231398   4.100   0.577   9.031 -0.0646 -0.8760 -1.8306
 6589SOL     OW31399   1.076   0.127  15.384 -0.0960  0.6148 -0.4521
 6589SOL    HW131400   1.003   0.073  15.413 -1.0537  1.9429 -0.4184
 6589SOL    HW231401   1.089   0.206  15.437 -1.4829  0.1075  0.6222
 6590SOL     OW31402   0.374   3.776   7.534  0.2106  0.4933  0.2584
 6590SOL    HW131403   0.294   3.738   7.571 -0.2875  0.2200 -1.0915
 6590SOL    HW231404   0.338   3.848   7.482 -0.3228  0.8027  1.0509
 6591SOL     OW31405   0.424   4.705  11.043 -0.6195  0.0572 -0.2537
 6591SOL    HW131406   0.508   0.001  11.014 -0.8988 -0.8733 -2.2176
 6591SOL    HW231407   0.394   4.637  10.983 -2.5891  0.2007  0.5647
 6592SOL     OW31408   3.512   2.730   3.193 -0.3276 -0.1078 -0.1133
 6592SOL    HW131409   3.593   2.685   3.170  0.2193  0.6179  0.3876
 6592SOL    HW231410   3.454   2.666   3.234  1.2817 -1.7313 -0.4114
 6593SOL     OW31411   1.520   0.168   9.523  0.0667 -0.1678  0.6549
 6593SOL    HW131412   1.587   0.156   9.590  0.4017 -1.5964  0.0504
 6593SOL    HW231413   1.465   0.232   9.568  1.3441  0.8926  0.7021
 6594SOL     OW31414   1.199   2.326  12.904  0.6325  0.1421 -0.6940
 6594SOL    HW131415   1.114   2.284  12.910  0.4408  1.0951  2.7811
 6594SOL    HW231416   1.210   2.357  12.994 -0.1411 -1.0280 -0.2095
 6595SOL     OW31417   2.003   2.680   5.634 -0.1850 -0.0661 -0.3727
 6595SOL    HW131418   2.064   2.654   5.703  0.2163  0.8708 -0.3786
 6595SOL    HW231419   2.024   2.613   5.569 -1.3387  0.7914 -1.6468
 6596SOL     OW31420   1.086   0.781   8.521 -0.8149  0.0331 -0.2913
 6596SOL    HW131421   0.994   0.770   8.499 -0.3165 -0.2767 -2.1763
 6596SOL    HW231422   1.078   0.861   8.573  1.0326  0.0151  0.0433
 6597SOL     OW31423   2.526   0.673   0.910  0.0830 -0.2282  0.5959
 6597SOL    HW131424   2.462   0.742   0.890  0.3510 -0.0243  0.4456
 6597SOL    HW231425   2.581   0.666   0.832  1.3333  1.2539  1.3199
 6598SOL     OW31426   2.143   0.545   3.855  1.1532  0.3528 -0.4538
 6598SOL    HW131427   2.071   0.608   3.860 -0.6827 -1.9923  2.5514
 6598SOL    HW231428   2.099   0.473   3.810 -2.6836  2.5998 -0.2626
 6599SOL     OW31429   3.386   4.225   4.238 -0.6438  0.2327 -0.1478
 6599SOL    HW131430   3.422   4.142   4.209  3.0106  1.3723  0.9641
 6599SOL    HW231431   3.339   4.248   4.158 -0.2224  2.3645  0.1970
 6600SOL     OW31432   4.650   0.950   4.291 -0.0778 -0.3639  0.5983
 6600SOL    HW131433   4.705   0.878   4.259 -0.0274 -0.6802  1.3986
 6600SOL    HW231434   4.663   0.949   4.385 -1.4413  4.3363  0.7951
 6601SOL     OW31435   1.867   4.651   5.550 -0.9766  0.4882  0.4934
 6601SOL    HW131436   1.846   4.668   5.459 -0.7413 -0.1753  0.3155
 6601SOL    HW231437   1.962   4.653   5.559 -1.2470 -3.0962  4.3222
 6602SOL     OW31438   0.767   1.620   6.157 -0.7697 -0.4421 -0.5537
 6602SOL    HW131439   0.766   1.525   6.167 -1.4632 -0.3937 -0.1273
 6602SOL    HW231440   0.772   1.632   6.062  0.6685 -1.0742 -0.5532
 6603SOL     OW31441   2.445   3.056   4.224  0.2426 -0.4908  0.1947
 6603SOL    HW131442   2.503   3.079   4.296 -1.2642  0.1296  1.2043
 6603SOL    HW231443   2.420   3.145   4.198 -0.2815 -0.4689  0.7560
 6604SOL     OW31444   4.437   2.065   7.422  0.1871 -0.4436  0.4298
 6604SOL    HW131445   4.438   2.097   7.332  0.0907  0.9828  0.9365
 6604SOL    HW231446   4.460   2.141   7.475 -2.8798  0.8963 -0.1131
 6605SOL     OW31447   0.624   3.517   3.169  0.3321  0.1388 -0.0744
 6605SOL    HW131448   0.658   3.551   3.086  0.8902  0.4436  0.2753
 6605SOL    HW231449   0.539   3.487   3.136  0.3570 -2.1407  2.0091
 6606SOL     OW31450   2.465   0.755   2.614 -0.1431  0.4108  0.4234
 6606SOL    HW131451   2.462   0.673   2.564 -0.6875 -2.0342  4.4534
 6606SOL    HW231452   2.464   0.819   2.543  0.9359 -0.2420 -0.1946
 6607SOL     OW31453   4.307   1.880  12.979 -0.4890 -0.1672 -0.2403
 6607SOL    HW131454   4.225   1.923  12.954  0.3444  2.2228  1.1031
 6607SOL    HW231455   4.363   1.907  12.907 -2.6700  2.1749 -1.0679
 6608SOL     OW31456   3.971   1.530   7.059  0.3778 -0.5626  0.2799
 6608SOL    HW131457   3.908   1.473   7.103  1.1352 -0.5557  1.3784
 6608SOL    HW231458   3.960   1.615   7.101 -2.0068 -1.1274  0.7904
 6609SOL     OW31459   2.389   0.919   3.873 -0.0864  0.3474  0.0130
 6609SOL    HW131460   2.299   0.910   3.840 -0.4966  1.4526  0.8317
 6609SOL    HW231461   2.400   0.834   3.916  0.8671  0.4717  0.0010
 6610SOL     OW31462   3.057   0.860   3.898 -0.3814 -0.0494 -0.0211
 6610SOL    HW131463   2.996   0.829   3.965  0.5560  0.5431  1.1149
 6610SOL    HW231464   3.076   0.946   3.935 -1.1682 -0.3372  1.0681
 6611SOL     OW31465   4.616   4.586   6.468  0.7992  0.1710 -0.1765
 6611SOL    HW131466   4.571   4.503   6.454  1.3395 -0.2726  0.7244
 6611SOL    HW231467   4.545   4.649   6.480  0.8826  0.1933  0.1937
 6612SOL     OW31468   4.047   1.312   3.367  0.1258 -0.8019  0.4935
 6612SOL    HW131469   4.111   1.314   3.295 -0.7609 -1.6717 -0.3180
 6612SOL    HW231470   4.105   1.304   3.443  1.0280 -0.6523 -0.1697
 6613SOL     OW31471   2.447   0.205  17.556  0.1003  0.1633 -0.5748
 6613SOL    HW131472   2.491   0.287  17.577 -2.2680  1.3285 -0.0877
 6613SOL    HW231473   2.501   0.142  17.603 -0.3502  0.9412  1.0076
 6614SOL     OW31474   0.860   1.392   9.319 -0.3396  0.1643  0.7009
 6614SOL    HW131475   0.864   1.313   9.374 -0.2654  0.6972  1.4502
 6614SOL    HW231476   0.842   1.351   9.234  1.4389  0.3596  0.2141
 6615SOL     OW31477   0.712   2.499   9.877 -0.3666 -0.3502  0.4861
 6615SOL    HW131478   0.713   2.464   9.788 -1.8204 -1.3302  0.8586
 6615SOL    HW231479   0.787   2.558   9.875 -0.1835 -0.5369  1.8995
 6616SOL     OW31480   0.658   3.161   7.017 -0.0699 -0.1887  0.0914
 6616SOL    HW131481   0.642   3.184   6.925  1.8190  2.2927  0.3748
 6616SOL    HW231482   0.750   3.183   7.026  0.0160 -0.6191  0.2726
 6617SOL     OW31483   2.900   3.272   1.086  0.1599 -0.5679 -0.0708
 6617SOL    HW131484   2.806   3.266   1.103  0.3948 -0.6896  1.2327
 6617SOL    HW231485   2.938   3.196   1.132 -0.2732 -0.5236  0.3684
 6618SOL     OW31486   2.452   0.094  12.334 -0.1371 -0.1156 -0.4685
 6618SOL    HW131487   2.357   0.090  12.322  0.0639 -0.8072 -1.8221
 6618SOL    HW231488   2.458   0.148  12.413 -0.9286 -1.3726  0.4417
 6619SOL     OW31489   3.552   1.153   5.239 -0.2927 -0.1608  0.1422
 6619SOL    HW131490   3.574   1.102   5.317  2.6869  1.8614  0.6499
 6619SOL    HW231491   3.492   1.213   5.282 -0.2835  0.3282 -0.5357
 6620SOL     OW31492   2.861   4.170   2.257  0.1456  0.1234  0.0716
 6620SOL    HW131493   2.777   4.211   2.237 -0.6660 -1.0514  1.0288
 6620SOL    HW231494   2.834   4.078   2.259 -0.4572  0.2731 -1.3856
 6621SOL     OW31495   3.387   1.406   4.995  0.4097 -0.4245 -0.5154
 6621SOL    HW131496   3.393   1.467   4.922  0.6273  2.1051  1.6520
 6621SOL    HW231497   3.479   1.389   5.014  0.2213 -1.6381 -0.6838
 6622SOL     OW31498   3.706   4.429   7.246  0.1035  0.2443  0.1113
 6622SOL    HW131499   3.734   4.338   7.241  0.3853  0.4022 -1.2492
 6622SOL    HW231500   3.627   4.428   7.192 -0.1486  2.7725  0.4326
 6623SOL     OW31501   3.464   3.310   5.937  0.5528 -0.1542 -0.2738
 6623SOL    HW131502   3.479   3.285   5.846  0.6046 -0.6365 -0.1336
 6623SOL    HW231503   3.488   3.235   5.991 -0.4987 -2.2708 -2.7315
 6624SOL     OW31504   0.937   1.942   6.945 -0.2766  0.5239  0.5867
 6624SOL    HW131505   0.885   1.945   6.864 -0.1277  0.5511  0.4916
 6624SOL    HW231506   0.886   1.903   7.016 -0.6571 -0.0644 -0.0034
 6625SOL     OW31507   1.110   2.324   4.255 -0.0034  0.9609 -0.0527
 6625SOL    HW131508   1.138   2.293   4.169 -3.2241  1.2314 -1.1809
 6625SOL    HW231509   1.132   2.253   4.316 -1.4221  1.0778  0.5947
 6626SOL     OW31510   1.300   2.669   4.204 -0.1513 -0.0451 -0.3836
 6626SOL    HW131511   1.387   2.629   4.202 -0.1860 -0.1009 -0.9041
 6626SOL    HW231512   1.311   2.709   4.117 -0.6621 -0.5264 -0.6743
 6627SOL     OW31513   4.105   3.690  13.473  0.2124 -0.3962 -0.8409
 6627SOL    HW131514   4.148   3.606  13.458  3.0201  0.7960  0.7066
 6627SOL    HW231515   4.175   3.749  13.448 -0.9775  1.1279 -0.5569
 6628SOL     OW31516   4.424   0.783   8.123 -0.2258 -0.5874  0.0267
 6628SOL    HW131517   4.496   0.809   8.182  0.0118 -1.3572  0.0860
 6628SOL    HW231518   4.430   0.848   8.054  0.1865 -0.6183  0.0345
 6629SOL     OW31519   0.393   3.575   5.380 -0.6261  0.1680  0.2425
 6629SOL    HW131520   0.398   3.523   5.460 -1.3752 -2.5911 -1.5016
 6629SOL    HW231521   0.487   3.566   5.368 -0.6952 -1.2747  0.7673
 6630SOL     OW31522   2.631   0.713   6.199  0.1887  0.3597 -0.3126
 6630SOL    HW131523   2.650   0.752   6.114  1.4424  0.1241 -0.1377
 6630SOL    HW231524   2.678   0.630   6.194  1.0564  0.8944 -0.9016
 6631SOL     OW31525   2.397   1.164   7.410  0.5862  0.4261  0.0912
 6631SOL    HW131526   2.369   1.107   7.482 -3.5138 -1.7485 -3.2502
 6631SOL    HW231527   2.479   1.125   7.381  0.1855  1.8567 -2.9338
 6632SOL     OW31528   4.368   2.238  13.195 -0.4558 -0.4146  0.0677
 6632SOL    HW131529   4.393   2.145  13.196  0.1702 -0.2285  1.3989
 6632SOL    HW231530   4.401   2.267  13.280  0.9152 -1.2135 -0.1955
 6633SOL     OW31531   2.140   0.832   6.774  0.3411 -0.0935 -0.0664
 6633SOL    HW131532   2.068   0.888   6.746  0.4146  0.8187  1.5849
 6633SOL    HW231533   2.106   0.744   6.761 -1.9171  1.0196 -1.5279
 6634SOL     OW31534   2.288   0.945   2.736 -0.3139 -0.0024 -0.4194
 6634SOL    HW131535   2.260   0.941   2.645 -0.7917 -2.1221 -0.1720
 6634SOL    HW231536   2.330   0.860   2.750  0.6768  0.4878 -0.4007
 6635SOL     OW31537   1.603   2.443   9.417 -0.0009 -0.1007 -0.3785
 6635SOL    HW131538   1.669   2.457   9.486  0.6982  1.2315 -1.3231
 6635SOL    HW231539   1.589   2.531   9.382 -3.4616 -0.0599  1.0737
 6636SOL     OW31540   4.606   1.891   4.062  0.0939 -0.7313 -0.0297
 6636SOL    HW131541   4.595   1.810   4.112  3.5067  0.0409  1.9652
 6636SOL    HW231542   4.621   1.847   3.978  1.1897  1.0048 -0.7590
 6637SOL     OW31543   2.508   2.801   5.953 -0.0066 -0.0895 -0.2656
 6637SOL    HW131544   2.598   2.796   5.924  0.3169 -1.4090  0.9298
 6637SOL    HW231545   2.479   2.711   5.968  2.3803 -0.8578 -0.2476
 6638SOL     OW31546   3.722   4.542  14.802  0.4878  0.1442  0.0854
 6638SOL    HW131547   3.702   4.526  14.710  0.3145 -0.8381  0.2909
 6638SOL    HW231548   3.683   4.629  14.810 -0.4339 -0.2597  0.0031
 6639SOL     OW31549   1.367   3.935   5.239  0.4158  0.4861  0.3256
 6639SOL    HW131550   1.408   3.882   5.171 -2.3002  0.2957 -1.1874
 6639SOL    HW231551   1.305   3.871   5.274 -0.7151  0.0399 -2.4528
 6640SOL     OW31552   2.824   4.057   4.076  0.0883  0.1125 -0.6006
 6640SOL    HW131553   2.792   3.981   4.123  0.4822  1.1027  1.2564
 6640SOL    HW231554   2.749   4.116   4.086 -1.1979 -1.4723 -0.8731
 6641SOL     OW31555   4.446   1.814   4.496 -0.5938 -0.1697  0.1227
 6641SOL    HW131556   4.444   1.718   4.504 -2.1027 -0.1190  0.3596
 6641SOL    HW231557   4.542   1.813   4.504 -0.6775 -1.5005  1.0462
 6642SOL     OW31558   0.824   1.561   5.084 -0.0503 -0.1458 -0.3092
 6642SOL    HW131559   0.759   1.630   5.071 -0.6332 -0.8025 -0.8438
 6642SOL    HW231560   0.908   1.599   5.110 -0.3990  2.3522 -2.8093
 6643SOL     OW31561   2.977   0.608   2.828  0.4386  0.0109 -0.1696
 6643SOL    HW131562   2.915   0.652   2.770  0.2651  0.8688  0.6690
 6643SOL    HW231563   3.060   0.607   2.781  0.0563  1.3032 -0.8557
 6644SOL     OW31564   0.999   2.619   2.159  0.2562 -0.0852  0.3830
 6644SOL    HW131565   0.944   2.543   2.138  1.1308 -0.7675  0.5851
 6644SOL    HW231566   1.049   2.586   2.233  2.4935 -1.1383 -1.5917
 6645SOL     OW31567   3.054   1.742   6.983 -0.0943 -0.0988  0.5109
 6645SOL    HW131568   3.039   1.799   7.059 -0.3842  0.3299  0.1253
 6645SOL    HW231569   3.058   1.657   7.027  1.7051  0.8360  2.1829
 6646SOL     OW31570   3.347   2.578   8.256  0.1694  0.0990 -0.0792
 6646SOL    HW131571   3.412   2.592   8.188 -1.0205  2.5922 -0.6925
 6646SOL    HW231572   3.366   2.492   8.293  1.1372  0.0646 -0.6668
 6647SOL     OW31573   1.982   2.546   7.134  0.3096 -0.3437  0.5069
 6647SOL    HW131574   1.932   2.506   7.062 -3.5002  0.2265  2.8681
 6647SOL    HW231575   1.932   2.500   7.201 -0.2530  1.1008  1.0929
 6648SOL     OW31576   4.209   3.173   5.735  0.1744  0.5074  0.4859
 6648SOL    HW131577   4.124   3.214   5.754  0.0559  0.4794  0.0297
 6648SOL    HW231578   4.193   3.149   5.644 -0.9597  2.7510  0.0773
 6649SOL     OW31579   0.179   1.869  12.786 -0.5759 -0.1697 -0.4176
 6649SOL    HW131580   0.169   1.871  12.881  0.3928 -0.6504 -0.3049
 6649SOL    HW231581   0.234   1.946  12.772  3.4309 -2.9602 -0.1153
 6650SOL     OW31582   1.886   4.502   3.245 -0.2554 -0.2191 -0.1493
 6650SOL    HW131583   1.953   4.435   3.235  0.0957  0.4764 -2.4948
 6650SOL    HW231584   1.822   4.456   3.299 -1.6782  1.3922 -0.4471
 6651SOL     OW31585   4.193   0.329   6.895  0.4782  0.3896 -0.1666
 6651SOL    HW131586   4.182   0.311   6.989 -1.5884 -0.4850 -0.5871
 6651SOL    HW231587   4.174   0.423   6.890 -0.0683  0.3131  0.4366
 6652SOL     OW31588   0.180   2.813  15.127  0.4337  0.6130 -0.1088
 6652SOL    HW131589   0.195   2.837  15.036  2.2402  3.4801  0.9308
 6652SOL    HW231590   0.265   2.778  15.153  0.0239 -1.6217 -1.7718
 6653SOL     OW31591   0.954   0.825  13.884 -0.2941 -0.0411 -0.0459
 6653SOL    HW131592   0.926   0.734  13.896 -0.8867 -0.4316 -4.4495
 6653SOL    HW231593   0.995   0.809  13.799 -2.0198  3.3415 -1.5042
 6654SOL     OW31594   1.671   2.195   8.425 -0.0040  0.0257  0.4118
 6654SOL    HW131595   1.748   2.140   8.434 -0.1059 -0.4544 -1.5502
 6654SOL    HW231596   1.680   2.233   8.512  1.9534  0.4218  0.0386
 6655SOL     OW31597   4.428   0.391  12.644 -0.0894 -0.3383  0.1400
 6655SOL    HW131598   4.407   0.484  12.637 -2.2561 -0.9964 -2.0281
 6655SOL    HW231599   4.383   0.355  12.568  2.8133 -0.9101 -1.2880
 6656SOL     OW31600   4.022   3.376   2.758  0.4398 -0.1288  0.4152
 6656SOL    HW131601   4.045   3.307   2.697  0.5941  0.2150  0.0822
 6656SOL    HW231602   3.936   3.409   2.730  0.4691 -0.7824 -0.4311
 6657SOL     OW31603   2.420   1.026   8.051 -0.0772  0.1339 -0.2766
 6657SOL    HW131604   2.470   0.980   8.118 -2.1804 -0.5347  0.8365
 6657SOL    HW231605   2.463   1.112   8.057  2.4086 -1.2635  1.8112
 6658SOL     OW31606   2.201   3.637   2.231 -0.3323 -0.2118  0.1078
 6658SOL    HW131607   2.188   3.692   2.309 -0.0859  0.2326 -0.1630
 6658SOL    HW231608   2.197   3.545   2.257 -1.3777 -1.2986 -4.0533
 6659SOL     OW31609   2.092   4.398  13.682 -0.3118 -0.1496  0.4113
 6659SOL    HW131610   2.140   4.474  13.714  0.2935 -0.8790  1.2254
 6659SOL    HW231611   2.161   4.345  13.642  1.5150  0.6612  2.5588
 6660SOL     OW31612   2.865   3.958  14.815 -0.2556  0.2895 -0.1370
 6660SOL    HW131613   2.886   3.908  14.736  0.1567 -0.1914  0.2855
 6660SOL    HW231614   2.786   4.007  14.789  0.9099  1.3164 -1.7384
 6661SOL     OW31615   0.431   1.680   0.665 -0.4902  0.2769  0.8059
 6661SOL    HW131616   0.397   1.684   0.754 -2.3035  0.1975  0.1295
 6661SOL    HW231617   0.518   1.641   0.674 -0.2321  0.9880  1.4580
 6662SOL     OW31618   2.823   2.269   6.811 -0.0573 -0.3842 -0.2459
 6662SOL    HW131619   2.864   2.225   6.736  0.2419 -0.8126  0.1690
 6662SOL    HW231620   2.728   2.257   6.808  0.0159 -1.1817  0.4116
 6663SOL     OW31621   0.482   2.113  17.138 -0.0761  0.0452 -0.3119
 6663SOL    HW131622   0.515   2.138  17.052  0.6550 -2.8474 -0.8513
 6663SOL    HW231623   0.547   2.157  17.193 -0.6835 -0.2986  0.6882
 6664SOL     OW31624   1.182   4.023  13.086 -0.1004 -0.2400  0.4466
 6664SOL    HW131625   1.156   3.950  13.142  2.5075  0.3631  2.4129
 6664SOL    HW231626   1.132   4.006  13.006 -0.4125  1.7338  0.2156
 6665SOL     OW31627   1.174   3.706   1.959 -0.5055  0.5851  0.3504
 6665SOL    HW131628   1.267   3.698   1.981  0.7475 -0.5934 -5.5096
 6665SOL    HW231629   1.148   3.614   1.947  1.0873  0.0723  0.7743
 6666SOL     OW31630   1.048   1.218   7.438  0.2320 -0.2268  0.3123
 6666SOL    HW131631   1.102   1.190   7.364  0.9441 -0.8351  1.0541
 6666SOL    HW231632   0.970   1.209   7.384 -1.2981 -0.3941  2.5366
 6667SOL     OW31633   2.000   3.544  12.493 -0.4919 -0.4984  0.2014
 6667SOL    HW131634   2.059   3.587  12.555 -1.2379 -0.4735  0.8943
 6667SOL    HW231635   1.935   3.611  12.473  1.9454  1.8291 -0.0342
 6668SOL     OW31636   3.278   3.049   4.120  0.6371  0.8144 -0.3235
 6668SOL    HW131637   3.230   2.975   4.082 -0.1340  0.2937  1.6809
 6668SOL    HW231638   3.334   3.065   4.043  1.5912  0.4816  0.3055
 6669SOL     OW31639   3.847   3.851   3.014  0.3920  0.2571 -0.0112
 6669SOL    HW131640   3.814   3.906   3.085  1.0582  0.7675 -0.1084
 6669SOL    HW231641   3.797   3.885   2.940  0.2821 -3.0715 -1.4909
 6670SOL     OW31642   2.926   1.993   7.834 -0.2132 -0.3494  0.2655
 6670SOL    HW131643   2.937   2.055   7.905 -1.1744 -0.1655  0.2410
 6670SOL    HW231644   3.018   1.970   7.820 -0.3392 -1.5496  1.3954
 6671SOL     OW31645   2.360   2.375   2.104  0.0738 -0.6500  0.0192
 6671SOL    HW131646   2.449   2.368   2.070  0.2541 -1.5594  0.6886
 6671SOL    HW231647   2.368   2.402   2.195  2.6990  3.1496 -1.3291
 6672SOL     OW31648   4.577   1.228   6.604 -0.0507  0.5233 -0.4274
 6672SOL    HW131649   4.483   1.235   6.618 -0.1617 -1.9608 -0.0292
 6672SOL    HW231650   4.594   1.306   6.550  1.2655 -0.1611 -1.0087
 6673SOL     OW31651   3.304   2.124   2.302  0.2882  0.5991  0.1731
 6673SOL    HW131652   3.242   2.190   2.335  0.7331  0.3195  1.5904
 6673SOL    HW231653   3.358   2.180   2.247  1.0668 -0.5871 -0.2548
 6674SOL     OW31654   0.518   0.526  12.233 -0.4257 -0.0702  0.4424
 6674SOL    HW131655   0.451   0.557  12.294  0.9744  1.0632  1.3740
 6674SOL    HW231656   0.562   0.606  12.205  0.4077 -0.7173 -0.1087
 6675SOL     OW31657   3.751   3.865  12.881 -0.4624 -0.6918 -0.1702
 6675SOL    HW131658   3.675   3.821  12.844  0.6662 -1.8227 -1.1394
 6675SOL    HW231659   3.814   3.823  12.822  0.5695  2.7254 -1.5119
 6676SOL     OW31660   0.474   2.775  14.627  0.3797 -0.2441  0.2093
 6676SOL    HW131661   0.455   2.683  14.649  2.0218 -0.6519 -0.0559
 6676SOL    HW231662   0.404   2.821  14.673 -1.4601 -0.5487 -2.3148
 6677SOL     OW31663   0.092   3.816   1.032  0.5257  0.2413  0.7398
 6677SOL    HW131664   0.099   3.909   1.054  0.4814  0.3589  0.2554
 6677SOL    HW231665   0.179   3.803   0.992 -0.8774  0.4014 -2.3922
 6678SOL     OW31666   2.056   2.537   2.091  0.0545  0.7786 -0.0235
 6678SOL    HW131667   2.141   2.552   2.133 -0.9835  0.0238  2.3460
 6678SOL    HW231668   2.036   2.454   2.135 -0.9642 -0.4002 -2.7287
 6679SOL     OW31669   2.761   3.843  14.158 -0.1707  0.1768  0.3373
 6679SOL    HW131670   2.757   3.930  14.198  1.0320 -0.4433  1.8060
 6679SOL    HW231671   2.835   3.822  14.216 -0.3830 -0.3843  0.4112
 6680SOL     OW31672   4.338   3.275   6.643  0.3187  0.1387 -0.2727
 6680SOL    HW131673   4.353   3.194   6.595 -0.9980 -0.8904  1.0485
 6680SOL    HW231674   4.256   3.299   6.601  0.5225  0.5294 -0.4456
 6681SOL     OW31675   0.783   1.163   4.337  0.3226 -0.5494  0.1308
 6681SOL    HW131676   0.824   1.191   4.255 -0.0620  1.0405  0.4788
 6681SOL    HW231677   0.692   1.167   4.308  0.5572  2.5767 -0.1423
 6682SOL     OW31678   2.588   2.099   4.781 -0.2018 -0.1454  0.5872
 6682SOL    HW131679   2.635   2.081   4.862  1.9977 -0.2923 -0.7349
 6682SOL    HW231680   2.518   2.035   4.799  1.9473 -2.4052  0.8678
 6683SOL     OW31681   3.999   1.826   8.270 -0.2158 -0.2376  0.0179
 6683SOL    HW131682   4.077   1.805   8.218  0.2931 -2.3945  1.6421
 6683SOL    HW231683   3.937   1.766   8.230  0.4413 -0.1011 -1.2155
 6684SOL     OW31684   3.673   1.994   6.187  0.1447  0.1279 -0.2796
 6684SOL    HW131685   3.656   2.086   6.205  0.5226 -0.0984  1.2143
 6684SOL    HW231686   3.612   1.983   6.114 -0.1292  0.0232 -0.0319
 6685SOL     OW31687   1.232   2.744   7.305 -0.1516  0.0734 -0.4754
 6685SOL    HW131688   1.260   2.654   7.320 -0.1110  0.0198 -0.8580
 6685SOL    HW231689   1.159   2.732   7.245  0.6789  0.8576 -1.6677
 6686SOL     OW31690   2.999   4.196   4.255  0.4415  0.0056  0.0837
 6686SOL    HW131691   2.971   4.171   4.343 -1.7645  1.6626 -0.1533
 6686SOL    HW231692   2.963   4.128   4.198  0.4942  1.3014 -1.4878
 6687SOL     OW31693   4.071   1.884   1.964 -0.2854 -0.2882 -0.2728
 6687SOL    HW131694   4.134   1.946   1.927  0.9294 -0.3306  1.7606
 6687SOL    HW231695   4.093   1.801   1.922  0.4639  1.1919 -2.8447
 6688SOL     OW31696   2.814   3.006   9.127 -0.0377 -0.7409  0.8647
 6688SOL    HW131697   2.775   3.094   9.120  2.0259 -0.0186 -1.6507
 6688SOL    HW231698   2.879   3.030   9.193  0.3530 -2.5313  1.1177
 6689SOL     OW31699   3.350   4.609   4.375  0.6420  0.2092 -0.3372
 6689SOL    HW131700   3.276   4.613   4.314  0.8446  0.0797 -0.5914
 6689SOL    HW231701   3.310   4.605   4.462  0.1613  1.9417 -0.4835
 6690SOL     OW31702   3.114   1.574   4.546  0.2340  0.0961  0.3375
 6690SOL    HW131703   3.031   1.589   4.501  1.0411 -2.5840 -2.0727
 6690SOL    HW231704   3.087   1.581   4.637 -1.6931 -1.0718 -0.1622
 6691SOL     OW31705   3.441   3.860   7.089  0.5073 -0.5497  0.7568
 6691SOL    HW131706   3.429   3.794   7.021  1.4137  0.2007 -0.1239
 6691SOL    HW231707   3.536   3.862   7.102  0.6192 -1.6964  0.0310
 6692SOL     OW31708   2.992   4.348   3.341 -0.1915 -0.1178  0.5277
 6692SOL    HW131709   3.002   4.390   3.256  0.2044 -1.9849 -0.3496
 6692SOL    HW231710   3.068   4.289   3.335 -1.4228 -1.6676  0.2507
 6693SOL     OW31711   1.773   4.121   8.800  0.1632  0.2564 -0.1735
 6693SOL    HW131712   1.826   4.043   8.815 -1.4709 -1.1425 -1.7340
 6693SOL    HW231713   1.836   4.175   8.752  0.7104  1.1026  1.5181
 6694SOL     OW31714   1.893   1.562   7.256  0.4734 -0.1622 -0.2851
 6694SOL    HW131715   1.874   1.602   7.341  1.1707 -0.1292 -0.1417
 6694SOL    HW231716   1.810   1.518   7.240 -0.0819 -0.0286  2.2539
 6695SOL     OW31717   2.317   1.681   5.576  0.4178  0.4555 -0.4029
 6695SOL    HW131718   2.222   1.692   5.581  0.3572 -1.0046  1.6992
 6695SOL    HW231719   2.346   1.632   5.652 -2.8290 -0.7223  0.0564
 6696SOL     OW31720   1.594   1.478   4.167 -0.6066  0.0568  0.2555
 6696SOL    HW131721   1.621   1.469   4.076 -0.7807 -0.8216  0.2888
 6696SOL    HW231722   1.498   1.474   4.161 -0.5986  0.3267 -0.0239
 6697SOL     OW31723   0.652   2.881   5.608 -0.2894 -0.2418  1.1512
 6697SOL    HW131724   0.647   2.787   5.590  0.9517  0.0410 -0.7037
 6697SOL    HW231725   0.575   2.916   5.563  1.1124  0.8063 -0.4392
 6698SOL     OW31726   0.091   3.086   9.817  0.2395  0.3585 -1.0015
 6698SOL    HW131727   0.039   3.109   9.740 -1.9900 -0.9672  0.1128
 6698SOL    HW231728   0.182   3.095   9.786  0.0667  0.0793 -1.5973
 6699SOL     OW31729   1.091   0.460   1.729  0.2376 -0.0561  0.1028
 6699SOL    HW131730   1.040   0.410   1.665 -0.2322 -1.9239  1.9596
 6699SOL    HW231731   1.183   0.441   1.713  0.4556  0.7524  0.3942
 6700SOL     OW31732   1.889   1.916   4.410  0.4489  0.6233  0.2799
 6700SOL    HW131733   1.830   1.865   4.355  0.2592  1.3092 -0.1564
 6700SOL    HW231734   1.963   1.925   4.350 -0.2907 -0.2850 -0.7594
 6701SOL     OW31735   1.801   4.284  12.946  0.0368 -0.1526  0.2463
 6701SOL    HW131736   1.873   4.346  12.941 -1.3473  1.6287  3.1042
 6701SOL    HW231737   1.795   4.252  12.855  0.1400 -1.0094  0.5377
 6702SOL     OW31738   4.357   4.191   8.784  0.0814 -0.3226 -0.2772
 6702SOL    HW131739   4.350   4.282   8.811  0.1392 -1.4888  3.6204
 6702SOL    HW231740   4.338   4.135   8.859  2.2339  1.6864  1.7828
 6703SOL     OW31741   3.271   0.899   1.625  0.5315  0.4573 -0.3117
 6703SOL    HW131742   3.361   0.914   1.653  0.9893  1.0316 -2.0963
 6703SOL    HW231743   3.256   0.806   1.642  0.3626  0.1493 -2.1092
 6704SOL     OW31744   4.127   3.664   7.104 -0.3508 -0.4414 -0.3350
 6704SOL    HW131745   4.146   3.667   7.198 -1.8238 -0.4087 -0.0396
 6704SOL    HW231746   4.140   3.754   7.076 -0.3025 -0.3738 -0.0948
 6705SOL     OW31747   0.552   0.097   3.932  0.7617  0.1169 -0.2847
 6705SOL    HW131748   0.522   0.063   3.848  0.1499 -3.7841  1.5447
 6705SOL    HW231749   0.625   0.153   3.906 -0.4359  0.3395 -3.1829
 6706SOL     OW31750   0.687   1.107   2.781  0.1455 -0.1943  0.1737
 6706SOL    HW131751   0.725   1.086   2.867  1.1788 -0.4405 -0.3468
 6706SOL    HW231752   0.747   1.172   2.744 -0.8458  0.3799 -0.4132
 6707SOL     OW31753   3.523   1.011   4.405  0.2061 -0.1672  0.1089
 6707SOL    HW131754   3.601   1.066   4.408  1.1364 -1.4729 -0.6056
 6707SOL    HW231755   3.556   0.922   4.395 -2.3611 -0.8637 -2.4026
 6708SOL     OW31756   0.349   0.370   4.650  0.4527  0.4875 -0.3299
 6708SOL    HW131757   0.371   0.284   4.614 -3.8076 -0.7026 -0.1382
 6708SOL    HW231758   0.273   0.394   4.597  0.3586  3.6911  1.2805
 6709SOL     OW31759   0.929   2.037   5.195 -0.0784 -0.5836  0.0888
 6709SOL    HW131760   0.945   1.947   5.226  1.2895 -0.3663  0.0031
 6709SOL    HW231761   0.979   2.042   5.114  1.9865  1.4615  1.5012
 6710SOL     OW31762   2.961   1.480  14.506 -0.0659 -0.1719 -0.0468
 6710SOL    HW131763   2.924   1.565  14.485  1.9675  0.7399  0.0647
 6710SOL    HW231764   3.010   1.500  14.586  0.2823 -2.3041  0.2656
 6711SOL     OW31765   4.195   3.872  16.507  0.0364 -0.1226 -0.2458
 6711SOL    HW131766   4.180   3.839  16.419  1.6230 -0.4317 -0.4017
 6711SOL    HW231767   4.157   3.808  16.566  1.0940 -0.5642 -0.0320
 6712SOL     OW31768   2.827   1.664   2.033 -0.1918 -0.2169 -0.7958
 6712SOL    HW131769   2.734   1.686   2.030  0.2273  1.5699 -0.9176
 6712SOL    HW231770   2.844   1.713   2.113 -0.5933  0.2118 -0.9757
 6713SOL     OW31771   3.648   1.567   2.246 -0.8788 -0.3253  0.2265
 6713SOL    HW131772   3.594   1.576   2.167 -1.1539  1.0777  0.5805
 6713SOL    HW231773   3.716   1.516   2.203  0.7316  1.1777  0.9908
 6714SOL     OW31774   0.462   3.880   6.794  0.7969 -0.3911 -0.3044
 6714SOL    HW131775   0.507   3.810   6.841  1.7749 -1.6833 -3.1784
 6714SOL    HW231776   0.435   3.840   6.711  0.3824 -1.1361  0.1951
 6715SOL     OW31777   3.450   2.126  12.309 -0.4318  0.5035  0.0627
 6715SOL    HW131778   3.361   2.117  12.345 -1.0929  1.7547 -1.2676
 6715SOL    HW231779   3.447   2.218  12.281 -2.1388  0.0174 -1.3726
 6716SOL     OW31780   1.931   1.035  17.056  0.5536 -0.0654 -0.0061
 6716SOL    HW131781   2.001   0.970  17.058  0.2748 -0.4311 -1.6785
 6716SOL    HW231782   1.913   1.043  17.149  0.8510 -1.8211  0.1989
 6717SOL     OW31783   0.954   2.581   0.639 -0.5794 -0.2800  0.0542
 6717SOL    HW131784   0.887   2.610   0.577 -1.3951 -1.8775  0.1992
 6717SOL    HW231785   0.981   2.495   0.607 -1.4007 -1.0665  1.4808
 6718SOL     OW31786   2.315   0.545  15.867  0.2325  0.1525  0.0710
 6718SOL    HW131787   2.279   0.634  15.870 -1.9707 -0.8317  2.5976
 6718SOL    HW231788   2.235   0.494  15.852 -0.0469  1.5115 -3.1263
 6719SOL     OW31789   1.601   2.848   3.819 -0.5108  0.0276 -0.1034
 6719SOL    HW131790   1.587   2.809   3.733 -3.0109  1.3173 -0.2733
 6719SOL    HW231791   1.628   2.939   3.810 -0.9078  0.1323 -0.1974
 6720SOL     OW31792   4.238   3.827   8.266  0.3812  0.3455  0.0763
 6720SOL    HW131793   4.182   3.837   8.344 -2.1375 -0.9886 -1.5512
 6720SOL    HW231794   4.303   3.895   8.282  1.1921  0.0410 -1.9755
 6721SOL     OW31795   0.924   2.645   0.286 -0.1267  0.2046 -0.0430
 6721SOL    HW131796   0.841   2.613   0.321  0.9155 -1.6477  0.7509
 6721SOL    HW231797   0.945   2.588   0.211 -2.0475 -0.1791 -0.2882
 6722SOL     OW31798   3.620   2.507   4.317  0.3840  0.6023 -0.7670
 6722SOL    HW131799   3.711   2.536   4.319  0.1536  1.2094  0.8549
 6722SOL    HW231800   3.576   2.560   4.384  0.7486 -1.5588  1.1801
 6723SOL     OW31801   1.578   3.818   9.713  0.6416  0.2415 -0.4283
 6723SOL    HW131802   1.590   3.767   9.633  1.3898 -1.9514  1.0915
 6723SOL    HW231803   1.524   3.891   9.684  1.7016  1.2361  0.0678
 6724SOL     OW31804   2.157   4.603   3.750 -0.1175  0.8415  0.5187
 6724SOL    HW131805   2.185   4.538   3.814 -0.0380 -1.0889 -1.4790
 6724SOL    HW231806   2.226   4.669   3.747  1.6812 -1.2216 -3.2379
 6725SOL     OW31807   3.536   4.231   3.885 -0.0782 -0.3504  0.0239
 6725SOL    HW131808   3.627   4.238   3.915  0.9413 -1.0347 -2.9436
 6725SOL    HW231809   3.521   4.297   3.818 -0.2211 -1.7958 -1.3772
 6726SOL     OW31810   0.294   1.910   8.476 -0.6654  0.2624 -0.4468
 6726SOL    HW131811   0.326   1.916   8.387 -1.0443  0.3157 -0.5798
 6726SOL    HW231812   0.298   1.997   8.515  0.1807  0.1314 -0.2433
 6727SOL     OW31813   1.574   1.543   5.274 -0.1240 -0.1837 -0.2712
 6727SOL    HW131814   1.551   1.536   5.181  1.9932  0.6396 -0.8392
 6727SOL    HW231815   1.656   1.494   5.277  1.1216  1.9903  0.6718
 6728SOL     OW31816   1.387   1.786   9.980 -0.1671  0.9209  0.5128
 6728SOL    HW131817   1.386   1.719   9.912 -1.4130 -0.6968  2.1183
 6728SOL    HW231818   1.342   1.734  10.047 -1.2885  0.0305 -0.9389
 6729SOL     OW31819   2.449   3.418  17.717 -0.2926  0.7382 -0.4293
 6729SOL    HW131820   2.543   3.432  17.722 -0.2011 -1.4770  4.8974
 6729SOL    HW231821   2.434   3.423   0.057 -0.7568  1.8656 -0.5558
 6730SOL     OW31822   1.324   0.644   7.770  0.3050  0.2393 -0.1305
 6730SOL    HW131823   1.264   0.665   7.842  0.3129 -0.6106  0.1246
 6730SOL    HW231824   1.267   0.665   7.696  0.1659 -1.6326 -0.5464
 6731SOL     OW31825   3.818   2.406  17.226  0.4500  0.1242  0.5983
 6731SOL    HW131826   3.865   2.400  17.143 -1.2916 -0.9426 -0.3234
 6731SOL    HW231827   3.896   2.418  17.280  0.8648 -0.0674  0.0434
 6732SOL     OW31828   0.215   2.372   1.662  0.5035  0.4131 -0.0232
 6732SOL    HW131829   0.121   2.388   1.654  0.1654 -1.3040  0.4944
 6732SOL    HW231830   0.226   2.345   1.571 -1.3719 -0.0077 -0.1336
 6733SOL     OW31831   1.994   2.541   3.975 -0.0536 -0.7895 -0.5703
 6733SOL    HW131832   2.087   2.555   3.989 -0.5356  3.0804 -1.3142
 6733SOL    HW231833   1.968   2.626   3.939 -0.7492 -0.0867  1.6464
 6734SOL     OW31834   3.065   1.205  11.301 -0.1739 -0.4282 -0.2079
 6734SOL    HW131835   3.034   1.151  11.228 -0.6853  3.1965 -2.6931
 6734SOL    HW231836   3.015   1.287  11.293 -0.3880 -0.8403 -2.9740
 6735SOL     OW31837   1.546   3.692  14.700 -0.3688  0.3920 -0.1574
 6735SOL    HW131838   1.564   3.756  14.770  1.5490 -0.2417 -0.0588
 6735SOL    HW231839   1.547   3.611  14.750 -0.9078  1.6964  1.9714
 6736SOL     OW31840   2.435   0.428   5.875 -0.0694  0.5096  0.3643
 6736SOL    HW131841   2.428   0.475   5.792 -0.7153 -1.0746 -0.4833
 6736SOL    HW231842   2.370   0.484   5.917  1.7100  0.4708  3.1754
 6737SOL     OW31843   3.082   0.834  14.191 -0.0883  0.2361 -0.0632
 6737SOL    HW131844   3.154   0.892  14.164 -0.5690  0.7854 -0.1745
 6737SOL    HW231845   3.002   0.887  14.190 -0.6804 -0.6702 -0.6692
 6738SOL     OW31846   3.486   0.210   5.318  0.1723  0.2171  0.2015
 6738SOL    HW131847   3.457   0.270   5.249 -2.0534 -1.0806  0.0265
 6738SOL    HW231848   3.561   0.161   5.283 -2.0594 -1.9166 -1.5739
 6739SOL     OW31849   1.473   2.954   3.159 -0.0447  0.4616 -0.0535
 6739SOL    HW131850   1.379   2.973   3.166 -0.1006  0.0574  0.2835
 6739SOL    HW231851   1.517   3.037   3.177 -0.7043  0.7871  0.0732
 6740SOL     OW31852   0.231   2.701   3.787 -0.1545 -0.0886 -0.0084
 6740SOL    HW131853   0.236   2.796   3.803 -1.4247  0.2883 -1.8241
 6740SOL    HW231854   0.149   2.679   3.831 -1.0220  0.6683 -1.2280
 6741SOL     OW31855   0.961   4.466   2.831  0.0605 -0.2494  0.0260
 6741SOL    HW131856   0.878   4.468   2.879  1.6635 -0.0124  2.7886
 6741SOL    HW231857   0.995   4.542   2.879  2.1658 -1.5643  0.6213
 6742SOL     OW31858   4.101   4.500   1.028  0.4267 -0.1061  0.0874
 6742SOL    HW131859   4.008   4.488   1.014  1.1717 -2.2194 -3.1534
 6742SOL    HW231860   4.105   4.586   0.986 -0.4431 -0.5696 -0.9487
 6743SOL     OW31861   4.079   2.504   2.001  0.3448  0.5203  0.0444
 6743SOL    HW131862   4.064   2.598   1.994 -4.0244 -0.3340 -2.0857
 6743SOL    HW231863   3.995   2.476   1.965 -0.0074  1.3125  0.2587
 6744SOL     OW31864   0.020   3.485   3.237 -0.3325 -0.1635  0.1460
 6744SOL    HW131865   4.715   3.567   3.214  0.6576  0.6483  1.1186
 6744SOL    HW231866   4.738   3.421   3.170 -2.0229 -0.5629  1.0723
 6745SOL     OW31867   1.385   4.483  14.953 -0.0851 -0.4525 -0.9855
 6745SOL    HW131868   1.343   4.538  15.019 -2.2194 -1.2504 -1.6719
 6745SOL    HW231869   1.344   4.517  14.873 -0.4712 -1.7456 -1.3374
 6746SOL     OW31870   3.194   0.367   7.922  0.0510  0.5006  0.5469
 6746SOL    HW131871   3.165   0.299   7.982  1.8483 -0.5941  0.1673
 6746SOL    HW231872   3.119   0.369   7.861 -0.0830  1.2228  0.7343
 6747SOL     OW31873   0.378   0.708   2.616  0.1236 -0.5625 -0.1384
 6747SOL    HW131874   0.356   0.772   2.548 -1.7215  0.9861  1.9190
 6747SOL    HW231875   0.333   0.628   2.587 -2.3977  0.4633  0.9828
 6748SOL     OW31876   1.670   2.226   1.988 -0.3215 -0.1207  0.4587
 6748SOL    HW131877   1.638   2.140   1.962 -0.7737  0.1105  0.2613
 6748SOL    HW231878   1.762   2.201   1.979 -0.7310 -1.6171  0.4264
 6749SOL     OW31879   3.461   4.459   7.674  0.1536 -0.4793  0.1901
 6749SOL    HW131880   3.471   4.537   7.727  0.7751  0.2489 -1.0039
 6749SOL    HW231881   3.454   4.388   7.739  3.6093 -0.2916  0.7562
 6750SOL     OW31882   0.039   4.028   3.416 -0.2885 -0.2627  0.2087
 6750SOL    HW131883   0.092   4.082   3.357 -2.4930  0.5545 -1.0501
 6750SOL    HW231884   4.700   4.011   3.364 -0.4083  1.0448 -0.0561
 6751SOL     OW31885   3.091   1.571  17.427  0.1549  0.4135  0.4648
 6751SOL    HW131886   3.144   1.497  17.457 -0.9554 -0.7526 -0.4628
 6751SOL    HW231887   3.003   1.541  17.449  0.9014 -2.6429 -0.6355
 6752SOL     OW31888   1.524   2.834   6.056  0.0594 -0.1536  0.1488
 6752SOL    HW131889   1.458   2.870   5.997  2.1947 -0.3666 -2.3545
 6752SOL    HW231890   1.562   2.769   5.997  2.2114 -1.0961  2.5752
 6753SOL     OW31891   3.639   2.351   1.043 -0.7142 -0.2925 -0.5179
 6753SOL    HW131892   3.634   2.306   0.958 -0.8705  0.0776 -0.7051
 6753SOL    HW231893   3.545   2.357   1.058 -0.9620  0.9399 -2.5342
 6754SOL     OW31894   0.953   0.617   0.603 -0.3010  0.3893  0.4988
 6754SOL    HW131895   0.996   0.681   0.660 -0.4170 -1.0228  2.1858
 6754SOL    HW231896   0.868   0.616   0.646 -0.8937 -0.5064 -0.7124
 6755SOL     OW31897   2.298   1.385   0.250  0.5272  0.0980  0.3888
 6755SOL    HW131898   2.327   1.426   0.169  0.0969  0.0109  0.1891
 6755SOL    HW231899   2.248   1.458   0.287 -0.5710  1.1098 -3.1326
 6756SOL     OW31900   3.418   1.504   6.256  0.0162 -0.2385 -0.1332
 6756SOL    HW131901   3.496   1.558   6.267 -0.9800  0.6782  2.7047
 6756SOL    HW231902   3.450   1.424   6.215  0.5271 -0.0990 -0.0037
 6757SOL     OW31903   0.773   2.868  11.340  0.5692 -0.8022  0.0031
 6757SOL    HW131904   0.825   2.835  11.266  1.0242  0.1553 -0.1057
 6757SOL    HW231905   0.767   2.788  11.392  1.0668  0.6092  2.1998
 6758SOL     OW31906   2.264   1.989   7.050 -0.1920  0.2486 -0.2401
 6758SOL    HW131907   2.208   1.983   6.972 -1.7276 -0.3445  0.9126
 6758SOL    HW231908   2.291   1.898   7.061 -1.5699  0.1929  2.6452
 6759SOL     OW31909   0.451   0.662   2.292  0.5803  0.1743 -0.0766
 6759SOL    HW131910   0.488   0.591   2.239 -1.2757  1.0307 -2.5286
 6759SOL    HW231911   0.527   0.720   2.289  1.1522 -0.6328 -1.2223
 6760SOL     OW31912   2.334   1.908  14.326 -0.1840  0.2398  0.2216
 6760SOL    HW131913   2.388   1.896  14.248 -0.1181  2.7774 -0.1233
 6760SOL    HW231914   2.255   1.949  14.291 -0.4312 -0.6661 -0.3001
 6761SOL     OW31915   3.005   4.421   4.960 -0.7580 -0.1785  0.0449
 6761SOL    HW131916   3.098   4.443   4.961 -0.8871  0.4365 -1.9651
 6761SOL    HW231917   2.986   4.441   5.051 -0.5616  1.2103 -0.2146
 6762SOL     OW31918   2.024   3.129   4.998  0.1938  0.0358 -0.1437
 6762SOL    HW131919   2.031   3.076   4.919  0.2172  1.4751 -1.0989
 6762SOL    HW231920   2.115   3.140   5.027  0.1305 -1.2377  0.5224
 6763SOL     OW31921   2.270   3.748   4.736  0.6857  0.4707  0.7200
 6763SOL    HW131922   2.235   3.670   4.779 -2.9688  1.9075  0.3538
 6763SOL    HW231923   2.208   3.772   4.668 -0.2749  1.0593  1.7935
 6764SOL     OW31924   4.191   3.031   8.069 -0.4543  0.0710  0.5678
 6764SOL    HW131925   4.218   3.118   8.041 -0.4758  0.2554  1.1212
 6764SOL    HW231926   4.225   2.970   8.003  0.4088  1.3485 -0.1544
 6765SOL     OW31927   4.420   2.400   4.199 -0.2816  0.3664 -0.2836
 6765SOL    HW131928   4.420   2.305   4.184  2.3507  0.2498  0.5049
 6765SOL    HW231929   4.481   2.415   4.271  2.1698  0.1375 -2.3134
 6766SOL     OW31930   0.641   4.344   3.841 -0.2472  0.8111  0.5654
 6766SOL    HW131931   0.631   4.381   3.753 -0.4345  0.4592  0.4399
 6766SOL    HW231932   0.658   4.252   3.821 -2.4134  1.0689 -2.5866
 6767SOL     OW31933   1.177   2.846   2.686 -0.5296  0.1093 -0.3455
 6767SOL    HW131934   1.132   2.904   2.747  2.8566 -0.9421  3.1226
 6767SOL    HW231935   1.128   2.764   2.691  1.9011 -1.2631  0.5792
 6768SOL     OW31936   4.426   1.966   6.636 -0.2487 -0.1825 -0.2907
 6768SOL    HW131937   4.453   1.939   6.548 -0.0273 -3.5383  0.8181
 6768SOL    HW231938   4.370   1.892   6.661 -2.4190  1.3184 -0.6799
 6769SOL     OW31939   0.965   1.297  15.728  0.6320 -0.0817  0.0739
 6769SOL    HW131940   1.001   1.216  15.764  1.3665 -0.9692 -2.6324
 6769SOL    HW231941   0.892   1.257  15.680  0.6308 -0.2421  0.2086
 6770SOL     OW31942   0.513   3.805   2.242  0.0944  0.6236 -0.1878
 6770SOL    HW131943   0.594   3.792   2.191  0.4909  0.4166  0.4942
 6770SOL    HW231944   0.515   3.896   2.269 -0.5771  0.3534  0.7636
 6771SOL     OW31945   0.291   2.842   4.102 -0.0011  0.0146 -0.4277
 6771SOL    HW131946   0.323   2.905   4.038 -1.0541 -0.0531 -1.0367
 6771SOL    HW231947   0.218   2.886   4.147 -0.4727 -1.4230  0.2330
 6772SOL     OW31948   0.311   0.456   9.325  0.7048  0.3536  0.4860
 6772SOL    HW131949   0.311   0.548   9.300 -3.0015 -0.2180 -1.5889
 6772SOL    HW231950   0.386   0.420   9.278  0.7780 -0.6335  1.3497
 6773SOL     OW31951   2.788   3.331   5.508  0.2083 -0.0876 -0.3097
 6773SOL    HW131952   2.873   3.351   5.547  0.3932  0.0589 -0.7895
 6773SOL    HW231953   2.722   3.378   5.559  0.1740  0.1577 -0.5806
 6774SOL     OW31954   4.470   0.453   6.031  0.2680  0.9531  0.1469
 6774SOL    HW131955   4.454   0.545   6.052  1.5587  0.7130  2.1187
 6774SOL    HW231956   4.382   0.420   6.049  0.2809 -0.4849 -2.4043
 6775SOL     OW31957   1.055   4.214   9.207 -0.2396  0.1463  0.2474
 6775SOL    HW131958   1.110   4.291   9.187  2.5575 -2.2939 -1.4102
 6775SOL    HW231959   1.022   4.245   9.292  0.8921  0.1547  0.6945
 6776SOL     OW31960   3.429   2.922  16.260  0.1548 -0.2758  0.3372
 6776SOL    HW131961   3.524   2.911  16.247 -0.0157  0.0286 -1.2250
 6776SOL    HW231962   3.409   2.851  16.200 -1.1530  0.2813  0.1167
 6777SOL     OW31963   1.372   0.468  11.054 -0.5422  0.1027 -0.1447
 6777SOL    HW131964   1.302   0.533  11.059 -1.4131 -0.7709 -0.9983
 6777SOL    HW231965   1.360   0.433  11.142  1.4296  2.0083  0.8921
 6778SOL     OW31966   1.691   0.715  10.068  0.3346  0.6377 -0.2126
 6778SOL    HW131967   1.665   0.695  10.158 -0.3720  1.9927 -0.1170
 6778SOL    HW231968   1.612   0.680  10.028  0.1070 -0.5520  1.2709
 6779SOL     OW31969   0.541   4.034  15.936 -0.1091 -0.8314  0.7296
 6779SOL    HW131970   0.599   4.066  15.867 -0.8387  1.0705  0.9865
 6779SOL    HW231971   0.608   3.993  15.990 -0.1790 -1.4855  0.3189
 6780SOL     OW31972   2.223   3.189   1.668  0.2524 -0.1605 -0.0122
 6780SOL    HW131973   2.247   3.276   1.701 -0.0353  0.4331 -1.4015
 6780SOL    HW231974   2.135   3.203   1.633 -0.6066 -1.1566  1.7434
 6781SOL     OW31975   3.383   4.220   1.760 -0.0354 -0.2132 -0.0558
 6781SOL    HW131976   3.387   4.300   1.707 -1.7001 -0.3521 -0.3773
 6781SOL    HW231977   3.317   4.160   1.727 -0.3774 -1.7050  3.3871
 6782SOL     OW31978   2.036   1.582  11.959 -0.0320  0.1496  0.0955
 6782SOL    HW131979   2.108   1.613  11.905  0.4579 -1.1436  0.0030
 6782SOL    HW231980   2.079   1.536  12.032 -1.7389 -1.9618 -0.2278
 6783SOL     OW31981   3.324   4.675  15.434 -0.8428  0.1052 -0.2790
 6783SOL    HW131982   3.354   4.620  15.507  0.0390  1.5894  0.4685
 6783SOL    HW231983   3.375   0.015  15.447  0.6899 -0.4967 -2.6074
 6784SOL     OW31984   0.811   3.739  17.270 -0.7770 -0.2394 -0.1826
 6784SOL    HW131985   0.831   3.779  17.186 -0.7700 -1.1343 -0.6049
 6784SOL    HW231986   0.880   3.674  17.282 -1.1505 -1.0586 -2.6244
 6785SOL     OW31987   3.829   2.733   7.104  0.0144 -0.2503  0.2076
 6785SOL    HW131988   3.894   2.762   7.168  0.6711 -1.6300  0.1694
 6785SOL    HW231989   3.878   2.679   7.043 -0.3173 -1.0812  0.6760
 6786SOL     OW31990   0.074   4.252   5.634 -0.1601 -0.6037  1.1574
 6786SOL    HW131991   0.120   4.331   5.605 -2.2942  0.6434  1.2188
 6786SOL    HW231992   0.032   4.219   5.555 -1.4803  2.0825  0.7454
 6787SOL     OW31993   4.598   3.448   6.237 -0.4938  0.0733  0.2246
 6787SOL    HW131994   4.654   3.387   6.286 -1.7036 -1.2057  0.0080
 6787SOL    HW231995   4.513   3.404   6.240 -0.2496 -0.4800 -1.1416
 6788SOL     OW31996   3.515   1.299  14.956  0.2786  0.3325  0.6519
 6788SOL    HW131997   3.602   1.271  14.985  0.2685 -2.2899 -1.8482
 6788SOL    HW231998   3.476   1.214  14.973  2.0026 -0.6111 -0.1609
 6789SOL     OW31999   0.188   2.422   2.162  0.0040  0.2039 -0.5814
 6789SOL    HW132000   0.138   2.343   2.140  2.9415 -2.1524  1.3181
 6789SOL    HW232001   0.213   2.406   2.253 -2.8532  0.4327  0.2645
 6790SOL     OW32002   0.601   1.297   1.302 -0.2213  0.1571 -0.2910
 6790SOL    HW132003   0.531   1.353   1.339  1.2580  1.9999 -0.2695
 6790SOL    HW232004   0.604   1.231   1.372 -3.0295  0.5434  0.2135
 6791SOL     OW32005   0.622   2.278   0.592 -0.1434 -0.3151 -0.0794
 6791SOL    HW132006   0.624   2.203   0.532  0.9761  0.0202 -0.4709
 6791SOL    HW232007   0.644   2.230   0.671 -1.2209 -1.7189 -0.6373
 6792SOL     OW32008   0.099   0.442   7.251 -0.5459  0.0887 -0.1545
 6792SOL    HW132009   0.083   0.499   7.176  0.8929  0.3270 -0.2811
 6792SOL    HW232010   0.195   0.443   7.248 -0.4482  0.0845  2.7860
 6793SOL     OW32011   3.324   1.966   5.298  0.1945  1.0653  0.3483
 6793SOL    HW132012   3.348   1.895   5.238 -1.6161  3.2169 -2.8853
 6793SOL    HW232013   3.412   1.986   5.330  1.1797 -1.2711 -0.9279
 6794SOL     OW32014   0.148   1.392   0.561 -0.0881  0.5251 -0.3963
 6794SOL    HW132015   0.212   1.355   0.623  0.5880 -0.8518 -1.9192
 6794SOL    HW232016   0.205   1.451   0.512  0.2274  2.5397  2.3528
 6795SOL     OW32017   2.352   4.234   0.335 -0.0453 -0.0621 -0.3722
 6795SOL    HW132018   2.354   4.167   0.267  0.0080 -0.3678 -0.0721
 6795SOL    HW232019   2.433   4.209   0.381 -0.6051 -0.4308  0.4195
 6796SOL     OW32020   3.881   2.752  12.872 -0.1722 -0.5331  0.1746
 6796SOL    HW132021   3.804   2.777  12.821  0.7262  1.9008 -0.0005
 6796SOL    HW232022   3.930   2.834  12.867 -4.4140  1.9442 -0.9499
 6797SOL     OW32023   3.258   2.823   2.562 -0.3164  0.6803 -0.0306
 6797SOL    HW132024   3.330   2.857   2.507  0.0447 -0.5555 -0.3124
 6797SOL    HW232025   3.292   2.852   2.646  0.3847 -0.3487  0.0356
 6798SOL     OW32026   1.399   1.009   7.172  0.5956  0.7221  0.1783
 6798SOL    HW132027   1.359   0.991   7.087  0.9148  0.5091  0.0743
 6798SOL    HW232028   1.397   0.919   7.207  1.0001  0.8031  0.4102
 6799SOL     OW32029   3.758   4.406   3.588 -0.3754  0.3094 -0.2925
 6799SOL    HW132030   3.797   4.386   3.503  1.7277  0.4076  0.6405
 6799SOL    HW232031   3.792   4.494   3.603  1.1782 -0.7386  2.2894
 6800SOL     OW32032   0.820   2.495   2.899  0.5619 -0.2067 -0.6545
 6800SOL    HW132033   0.873   2.422   2.867  0.2869 -1.2176  1.1875
 6800SOL    HW232034   0.882   2.542   2.955  0.2398  0.5886 -0.9775
 6801SOL     OW32035   0.504   2.494   2.671 -0.1682  0.8462  0.5966
 6801SOL    HW132036   0.490   2.427   2.604  1.2336  1.0264  0.1207
 6801SOL    HW232037   0.450   2.571   2.651  0.5374  1.4075  0.8318
 6802SOL     OW32038   1.740   1.893   5.796 -0.0452 -0.0851  0.1251
 6802SOL    HW132039   1.706   1.888   5.886  0.0857 -1.1344  0.1169
 6802SOL    HW232040   1.823   1.940   5.802 -0.0562 -0.1998  1.3154
 6803SOL     OW32041   4.022   0.662   2.167 -0.3296  0.6993  0.2916
 6803SOL    HW132042   4.075   0.642   2.090 -1.3587 -1.0460  0.0512
 6803SOL    HW232043   3.997   0.577   2.202 -0.3887  0.7450  0.3604
 6804SOL     OW32044   4.188   0.616   7.620 -0.4210  0.1209 -0.4052
 6804SOL    HW132045   4.261   0.661   7.662 -2.9167  2.9252  0.8962
 6804SOL    HW232046   4.113   0.647   7.671  0.0731  0.3814  0.1616
 6805SOL     OW32047   1.984   2.250   8.434 -0.1842  0.3358  0.7490
 6805SOL    HW132048   1.935   2.323   8.473 -3.5211 -2.5693  1.9460
 6805SOL    HW232049   1.971   2.265   8.341 -1.7917  0.7323  1.0405
 6806SOL     OW32050   1.301   1.227   6.399  0.4466 -0.0688  0.0917
 6806SOL    HW132051   1.383   1.208   6.355  0.8924 -0.2852  1.0107
 6806SOL    HW232052   1.324   1.312   6.437  1.1907 -0.0860 -0.3247
 6807SOL     OW32053   3.470   1.575   4.774 -0.1185  0.2690  0.0725
 6807SOL    HW132054   3.445   1.549   4.686 -0.5079 -2.4567  0.9801
 6807SOL    HW232055   3.554   1.530   4.784 -1.6691 -2.2433  1.8526
 6808SOL     OW32056   4.533   2.950   3.635 -0.6629 -0.0068 -0.0334
 6808SOL    HW132057   4.511   2.972   3.726  1.5889 -0.0287  0.5139
 6808SOL    HW232058   4.476   2.875   3.619  0.6980 -1.2276  0.8262
 6809SOL     OW32059   2.446   3.911   8.646 -0.2090 -0.2305 -0.3270
 6809SOL    HW132060   2.528   3.955   8.667  0.2482 -1.4658  0.4755
 6809SOL    HW232061   2.483   3.849   8.582  1.6321  1.5158 -0.9569
 6810SOL     OW32062   4.355   2.448  13.647  0.2534  0.3531  0.1990
 6810SOL    HW132063   4.329   2.523  13.699  0.8057  0.2046  0.6852
 6810SOL    HW232064   4.445   2.430  13.675  0.6887  1.2386 -0.6240
 6811SOL     OW32065   4.020   4.585   7.953  0.4700 -0.0395 -0.1466
 6811SOL    HW132066   4.017   4.631   8.037 -0.7030 -0.4027  0.0069
 6811SOL    HW232067   4.110   4.607   7.929  0.3723  0.2038 -0.2968
 6812SOL     OW32068   0.775   0.856   0.186 -0.4757  0.5418  0.0149
 6812SOL    HW132069   0.780   0.952   0.182 -1.1771  0.5653 -0.3134
 6812SOL    HW232070   0.828   0.844   0.265  0.1254  3.1808  0.0311
 6813SOL     OW32071   1.905   1.554   6.875 -0.3022  0.0833 -0.2314
 6813SOL    HW132072   1.977   1.491   6.884 -0.8141 -0.5181 -0.3040
 6813SOL    HW232073   1.947   1.619   6.931 -0.7624  1.5554 -1.6116
 6814SOL     OW32074   0.043   3.127  13.217 -0.3534  0.0928  0.2472
 6814SOL    HW132075   0.128   3.089  13.193 -0.7770 -0.7246  0.0723
 6814SOL    HW232076   0.029   3.201  13.157  0.8474  1.3444  1.5202
 6815SOL     OW32077   4.262   2.278  17.250  0.0273  0.2188 -0.8396
 6815SOL    HW132078   4.349   2.273  17.211  0.6201  0.7348  0.4119
 6815SOL    HW232079   4.221   2.194  17.228 -1.9829  1.2152 -0.9346
 6816SOL     OW32080   2.432   2.656  12.763 -0.2787 -0.1721  0.2086
 6816SOL    HW132081   2.462   2.744  12.743 -1.5308 -0.1536 -1.5321
 6816SOL    HW232082   2.416   2.618  12.677 -2.6614  3.3975 -0.9057
 6817SOL     OW32083   2.126   4.599   8.821  0.0453  0.5455 -0.0431
 6817SOL    HW132084   2.066   4.602   8.895 -1.7838  0.2464 -1.5195
 6817SOL    HW232085   2.098   4.676   8.771  4.4715  1.9785 -0.3278
 6818SOL     OW32086   0.685   4.431   6.772  0.4499  0.0175  0.2211
 6818SOL    HW132087   0.624   4.357   6.766 -0.2970  0.8495 -2.3578
 6818SOL    HW232088   0.761   4.414   6.717  0.2173  0.3900 -0.2137
 6819SOL     OW32089   1.374   0.500   4.360  0.6670  0.5389  0.3136
 6819SOL    HW132090   1.445   0.479   4.420 -0.2104 -1.1744  0.7624
 6819SOL    HW232091   1.306   0.486   4.426  2.3312  1.0016  2.1361
 6820SOL     OW32092   2.081   3.957   1.622 -0.6169  0.0874  0.3483
 6820SOL    HW132093   2.038   4.033   1.660 -1.6135  1.1254 -2.8505
 6820SOL    HW232094   2.006   3.899   1.612 -0.8274  0.4093  0.0726
 6821SOL     OW32095   4.537   2.733  16.356 -0.0090  0.5436 -0.0996
 6821SOL    HW132096   4.491   2.788  16.292 -1.3453 -1.0592 -0.5377
 6821SOL    HW232097   4.527   2.781  16.437  2.5441 -0.5420  0.8637
 6822SOL     OW32098   2.660   4.116   4.299  0.2198 -0.1877 -0.1032
 6822SOL    HW132099   2.633   4.206   4.280 -0.1691 -0.6125 -1.5505
 6822SOL    HW232100   2.652   4.117   4.394  1.3898  0.8936 -0.0241
 6823SOL     OW32101   1.873   1.971   1.843  0.5344  0.3128  0.1617
 6823SOL    HW132102   1.796   1.989   1.790 -0.3813 -3.0810  0.3006
 6823SOL    HW232103   1.844   1.916   1.915 -1.6668  1.1461 -0.1141
 6824SOL     OW32104   4.608   1.276   4.752  0.3127  0.3137 -0.5533
 6824SOL    HW132105   4.547   1.208   4.723 -0.9920  0.8536  0.9422
 6824SOL    HW232106   4.686   1.229   4.723 -0.5129 -0.6055 -1.2749
 6825SOL     OW32107   0.153   3.966   4.079  0.7904  0.0118  0.2259
 6825SOL    HW132108   0.152   3.965   3.984  0.6060  0.5624  0.2196
 6825SOL    HW232109   0.239   4.005   4.095  0.2489  1.4542 -0.3272
 6826SOL     OW32110   0.167   0.640   4.280 -0.4097  0.5512  0.2233
 6826SOL    HW132111   0.208   0.625   4.195  0.5629 -0.4670  0.8686
 6826SOL    HW232112   0.237   0.654   4.343  1.0922 -0.8761 -1.1410
 6827SOL     OW32113   4.628   1.697   8.822  0.1669 -0.1322  0.5071
 6827SOL    HW132114   4.576   1.686   8.742 -0.2375  2.6381  0.3960
 6827SOL    HW232115   4.704   1.744   8.787 -0.4709  0.5378  0.0216
 6828SOL     OW32116   0.020   0.475   5.955 -0.3821 -0.4640  0.3123
 6828SOL    HW132117   0.069   0.434   6.026 -2.4771  0.0130  2.0480
 6828SOL    HW232118   4.674   0.492   5.994 -0.8381 -1.3243 -0.3365
 6829SOL     OW32119   0.730   3.191   4.263 -0.7839 -0.2852  0.5921
 6829SOL    HW132120   0.642   3.230   4.259 -0.7143 -0.1472  0.4328
 6829SOL    HW232121   0.716   3.097   4.254  0.8223 -0.5802  1.3086
 6830SOL     OW32122   3.127   3.974   6.905 -0.5293 -0.3108 -0.4159
 6830SOL    HW132123   3.138   3.999   6.996 -0.6007 -1.2295 -0.1505
 6830SOL    HW232124   3.070   3.897   6.905 -0.4397 -0.3768  0.4056
 6831SOL     OW32125   0.283   3.699  12.312  0.1703  0.5818  0.2448
 6831SOL    HW132126   0.202   3.673  12.355  1.6461 -1.7035  1.6574
 6831SOL    HW232127   0.276   3.794  12.299 -2.5121  0.3882  0.3788
 6832SOL     OW32128   0.731   0.217   2.009 -0.1858  0.6022  0.4458
 6832SOL    HW132129   0.702   0.147   2.067  1.4271 -1.0719 -0.7840
 6832SOL    HW232130   0.666   0.203   1.939  0.0401  0.7652  0.2035
 6833SOL     OW32131   3.684   4.249   5.429 -0.2283 -0.0962  0.2257
 6833SOL    HW132132   3.623   4.312   5.465 -1.4902 -0.1783 -1.7383
 6833SOL    HW232133   3.739   4.220   5.502 -0.9384 -0.8410  0.4700
 6834SOL     OW32134   1.933   0.984  11.551  0.4359 -0.0452 -0.2895
 6834SOL    HW132135   1.973   0.921  11.490 -4.0736 -2.5995 -0.5300
 6834SOL    HW232136   1.987   1.064  11.549 -1.7581  1.3756 -2.5963
 6835SOL     OW32137   3.001   3.375   4.807 -0.0611  0.6541 -0.0046
 6835SOL    HW132138   3.090   3.404   4.826  0.1181 -1.3295  2.2112
 6835SOL    HW232139   3.014   3.352   4.715  0.7330 -2.7122  0.9593
 6836SOL     OW32140   3.188   4.046  12.413 -0.7985  0.0674 -0.3664
 6836SOL    HW132141   3.208   4.126  12.365 -0.6086  0.5500  0.5045
 6836SOL    HW232142   3.203   4.070  12.505 -1.4955  1.2184 -0.5530
 6837SOL     OW32143   0.051   2.946  16.732  0.4184 -0.4034 -0.1920
 6837SOL    HW132144   0.091   2.971  16.649  3.7105 -0.0495  1.4930
 6837SOL    HW232145   0.053   2.851  16.722  2.4237 -0.3288 -0.5429
 6838SOL     OW32146   2.062   4.411   7.873 -0.0047 -0.2246  0.2852
 6838SOL    HW132147   2.017   4.492   7.898 -0.3160 -0.3519  0.1425
 6838SOL    HW232148   2.012   4.338   7.910  0.5107 -0.0656  1.3037
 6839SOL     OW32149   1.046   1.584   4.129  0.0313 -0.2518 -0.1821
 6839SOL    HW132150   0.977   1.650   4.127 -0.1942 -0.4207  2.1528
 6839SOL    HW232151   1.099   1.610   4.204 -0.4986  0.5727 -0.0899
 6840SOL     OW32152   0.746   1.607   2.893  0.2614 -0.4633 -0.3459
 6840SOL    HW132153   0.800   1.631   2.817  0.4267 -1.5998 -0.5823
 6840SOL    HW232154   0.767   1.514   2.898  0.6208 -0.2436  2.4637
 6841SOL     OW32155   2.814   4.638   5.229  0.0518 -0.4508  0.3389
 6841SOL    HW132156   2.859   4.723   5.238 -0.2836 -0.2911  0.5085
 6841SOL    HW232157   2.750   4.674   5.167  1.1314  1.3395  0.2488
 6842SOL     OW32158   2.541   2.397   2.643  0.0106  0.2489 -0.1735
 6842SOL    HW132159   2.591   2.337   2.588 -0.0560 -2.6186  2.8875
 6842SOL    HW232160   2.494   2.328   2.690  0.5535  1.1863  1.7696
 6843SOL     OW32161   3.175   1.273   3.572 -0.0163 -0.2376 -0.2064
 6843SOL    HW132162   3.267   1.294   3.589 -0.4642 -0.9059  3.0340
 6843SOL    HW232163   3.188   1.178   3.578  0.5820 -0.0134  2.1733
 6844SOL     OW32164   0.396   0.041   3.103 -0.2734  0.2983  0.5999
 6844SOL    HW132165   0.478   0.014   3.062  0.6457  1.4492  1.6618
 6844SOL    HW232166   0.381   0.126   3.061  0.3770 -0.1616 -0.5311
 6845SOL     OW32167   1.940   2.798   6.597 -0.3791 -0.1192  0.5868
 6845SOL    HW132168   1.923   2.833   6.684  1.8768  0.3203  0.8631
 6845SOL    HW232169   1.977   2.714   6.624 -0.8943 -0.8375 -0.9647
 6846SOL     OW32170   3.701   4.567   3.912  0.0576  0.5553 -0.2908
 6846SOL    HW132171   3.613   4.586   3.880 -0.2444 -3.1092 -1.6841
 6846SOL    HW232172   3.680   4.499   3.976  0.2100  2.3778  1.6794
 6847SOL     OW32173   3.462   4.223   7.925 -0.6350  0.3392 -0.2457
 6847SOL    HW132174   3.502   4.305   7.954 -0.2462  0.2423 -0.5085
 6847SOL    HW232175   3.411   4.194   8.000 -0.4181  1.3890  0.3074
 6848SOL     OW32176   2.365   0.070   0.309  0.1746  0.3001  0.5031
 6848SOL    HW132177   2.419   0.110   0.378  0.7705  1.3346 -0.5592
 6848SOL    HW232178   2.440   0.039   0.259 -0.7418 -0.7894 -0.1844
 6849SOL     OW32179   0.423   3.676   2.965 -0.3650  0.2446  0.3264
 6849SOL    HW132180   0.386   3.593   2.995 -0.5147 -0.6267 -2.3042
 6849SOL    HW232181   0.377   3.743   3.016 -1.0428 -0.1040  0.1677
 6850SOL     OW32182   4.367   1.675  13.366  0.0587  0.1796  0.0634
 6850SOL    HW132183   4.396   1.584  13.367  0.2013  0.2313  0.6521
 6850SOL    HW232184   4.438   1.720  13.320 -0.7085 -0.4984 -1.7702
 6851SOL     OW32185   1.990   4.537   4.822  1.0298  0.5932 -0.2631
 6851SOL    HW132186   1.927   4.599   4.786 -0.9420  0.4182  2.8763
 6851SOL    HW232187   2.010   4.579   4.906 -1.4033  0.4673  0.3935
 6852SOL     OW32188   4.668   1.952   6.774  0.0383 -0.0726 -0.0607
 6852SOL    HW132189   4.689   2.046   6.775  0.2498 -0.1178 -0.4887
 6852SOL    HW232190   4.601   1.947   6.706 -0.4227  3.1788  0.1499
 6853SOL     OW32191   2.786   1.974   7.060 -0.5432  0.4076  0.3880
 6853SOL    HW132192   2.761   1.981   6.968 -1.8143  3.6896  1.0108
 6853SOL    HW232193   2.878   1.999   7.053 -1.0752  1.6006 -2.4354
 6854SOL     OW32194   4.583   1.117   8.738 -0.2739 -0.0439 -1.2066
 6854SOL    HW132195   4.671   1.149   8.756  0.1114 -1.2250 -1.0540
 6854SOL    HW232196   4.546   1.158   8.659  1.3212  2.1946 -0.7984
 6855SOL     OW32197   2.242   2.659   2.611  0.0642 -0.0474 -0.4276
 6855SOL    HW132198   2.176   2.621   2.669  3.3540 -1.4801  2.3467
 6855SOL    HW232199   2.185   2.694   2.542  1.3686  0.9197 -1.0121
 6856SOL     OW32200   2.865   1.277   0.308  0.1528  1.0789  0.1342
 6856SOL    HW132201   2.836   1.256   0.397  0.6923  2.0239  0.5297
 6856SOL    HW232202   2.886   1.190   0.274  0.8262  1.0307  0.6647
 6857SOL     OW32203   0.401   2.707   4.310  0.1037  0.1923  0.2927
 6857SOL    HW132204   0.362   2.750   4.234  0.1967  2.0142  1.2699
 6857SOL    HW232205   0.493   2.694   4.286 -0.0974  0.4688 -0.6419
 6858SOL     OW32206   3.269   3.385   3.262 -0.5827  0.3353 -0.5807
 6858SOL    HW132207   3.313   3.320   3.317 -2.7624 -1.4926 -0.9891
 6858SOL    HW232208   3.319   3.463   3.287 -0.8252  1.0611 -2.3766
 6859SOL     OW32209   0.583   3.644  17.388 -0.0258  0.0059  0.2745
 6859SOL    HW132210   0.541   3.592  17.319 -0.8182 -3.0032  3.0135
 6859SOL    HW232211   0.668   3.663  17.348  0.8030 -1.9461  1.0528
 6860SOL     OW32212   0.742   1.508   8.943  0.1313  0.4331  0.2165
 6860SOL    HW132213   0.739   1.499   8.847 -0.6983  3.5571 -0.0572
 6860SOL    HW232214   0.735   1.602   8.957  1.7803  0.7416 -1.1120
 6861SOL     OW32215   1.149   1.651   3.378 -0.1947  0.7712  0.1334
 6861SOL    HW132216   1.125   1.723   3.436  1.0763  1.0195  0.3383
 6861SOL    HW232217   1.066   1.629   3.335 -0.6401 -1.3354  2.0271
 6862SOL     OW32218   1.710   3.128   5.371 -0.4887 -0.1111 -0.6461
 6862SOL    HW132219   1.722   3.192   5.441  2.1546  0.4452 -1.6236
 6862SOL    HW232220   1.790   3.122   5.319 -0.0207  0.8745 -0.0209
 6863SOL     OW32221   3.590   0.616  11.337 -0.2029  0.8783 -0.6801
 6863SOL    HW132222   3.537   0.596  11.414  0.8402 -1.0148 -0.4472
 6863SOL    HW232223   3.631   0.530  11.323 -0.6186  0.7163 -0.9177
 6864SOL     OW32224   1.354   2.912   9.867  0.4821 -0.1376  1.2094
 6864SOL    HW132225   1.265   2.881   9.878  1.2663 -1.6541  3.2639
 6864SOL    HW232226   1.403   2.864   9.933 -1.3610 -0.8485  2.0418
 6865SOL     OW32227   0.184   3.359   1.883 -0.1889 -0.3914 -0.5726
 6865SOL    HW132228   0.152   3.442   1.848  0.4266  0.1763  0.2155
 6865SOL    HW232229   0.179   3.298   1.810 -0.0405  0.3411 -1.1953
 6866SOL     OW32230   2.791   4.339   6.401 -0.3211  0.0616 -0.4580
 6866SOL    HW132231   2.822   4.264   6.452  3.4549  2.3064  0.5889
 6866SOL    HW232232   2.874   4.384   6.387  0.8776 -1.6056  1.2232
 6867SOL     OW32233   4.127   4.738  14.980  0.3787  0.1570  1.0760
 6867SOL    HW132234   4.101   0.050  14.904 -2.3274 -2.3197  0.3327
 6867SOL    HW232235   4.036   4.723  15.006  0.3026 -1.2597 -0.0077
 6868SOL     OW32236   3.446   2.603  14.394  0.2185  0.0366 -0.5154
 6868SOL    HW132237   3.513   2.550  14.438  1.0357 -0.6842 -2.6191
 6868SOL    HW232238   3.498   2.663  14.340 -0.3432  2.0042  1.1227
 6869SOL     OW32239   0.662   2.254   8.044 -0.5293  0.2870 -0.9118
 6869SOL    HW132240   0.614   2.326   8.003  1.6551  1.9340 -0.5758
 6869SOL    HW232241   0.709   2.207   7.974  0.6362  0.8860 -0.5301
 6870SOL     OW32242   4.487   1.013   6.023 -0.2149  0.0749 -0.4415
 6870SOL    HW132243   4.540   1.074   6.074 -1.5653  1.2575 -0.4824
 6870SOL    HW232244   4.544   0.996   5.948  0.3774 -1.6845  0.4115
 6871SOL     OW32245   2.037   2.457  13.645 -0.4436 -0.5194 -0.5077
 6871SOL    HW132246   2.019   2.444  13.551 -1.5606 -0.2434 -0.3267
 6871SOL    HW232247   2.100   2.529  13.642  1.2152 -1.9941 -0.9431
 6872SOL     OW32248   0.909   3.659   1.579 -0.1299 -0.1970  0.2798
 6872SOL    HW132249   0.841   3.677   1.514 -0.7004  1.8204  1.4483
 6872SOL    HW232250   0.897   3.735   1.635 -0.3826 -3.0733  4.0749
 6873SOL     OW32251   3.936   2.412   5.313 -0.1112  0.5557  0.6904
 6873SOL    HW132252   4.005   2.446   5.369  0.2985 -0.2104  0.6498
 6873SOL    HW232253   3.970   2.448   5.232 -0.4143  0.2668  0.4327
 6874SOL     OW32254   4.064   0.399  14.529 -0.0352  0.5047  0.0683
 6874SOL    HW132255   3.985   0.433  14.487 -0.6519 -1.1096 -0.0863
 6874SOL    HW232256   4.128   0.466  14.505  1.2880 -0.3417  1.2960
 6875SOL     OW32257   4.533   4.608   5.561 -0.4976  0.1667  0.0378
 6875SOL    HW132258   4.523   4.598   5.467  0.1874 -0.2927  0.0166
 6875SOL    HW232259   4.578   4.692   5.572 -0.0575 -0.0804  0.1272
 6876SOL     OW32260   0.256   3.710   5.087 -0.6114  0.7034  0.3843
 6876SOL    HW132261   0.349   3.706   5.068 -0.6458  0.0590  0.3560
 6876SOL    HW232262   0.256   3.641   5.153  0.1157 -0.7138 -1.1090
 6877SOL     OW32263   3.167   2.835   2.248  0.1359 -0.2846 -0.0604
 6877SOL    HW132264   3.130   2.778   2.316  2.4377 -0.5700  0.9856
 6877SOL    HW232265   3.135   2.922   2.273  1.9972  0.8081 -1.5083
 6878SOL     OW32266   3.926   1.487   3.563 -0.1256 -0.5901 -0.5759
 6878SOL    HW132267   3.846   1.449   3.598 -0.6756  0.5199 -0.6390
 6878SOL    HW232268   3.938   1.425   3.491  1.1559 -1.5393  0.4422
 6879SOL     OW32269   3.967   1.252   7.937 -0.2956 -0.4533  0.0097
 6879SOL    HW132270   4.053   1.265   7.976  0.4941  0.8356 -2.1564
 6879SOL    HW232271   3.962   1.157   7.928  1.2171 -0.5158 -0.1883
 6880SOL     OW32272   0.870   3.816   6.822  0.0092  0.2570  0.5969
 6880SOL    HW132273   0.864   3.800   6.728 -2.0498  2.0372  0.4236
 6880SOL    HW232274   0.812   3.750   6.862  0.5678  0.3511  1.5556
 6881SOL     OW32275   3.661   0.214   4.840 -0.1424  0.3155  0.2998
 6881SOL    HW132276   3.720   0.284   4.810  0.2640  0.1476  0.7108
 6881SOL    HW232277   3.720   0.139   4.844 -1.1541 -0.6593 -2.3077
 6882SOL     OW32278   2.436   3.282  11.985 -0.5274  0.4919 -0.2460
 6882SOL    HW132279   2.469   3.195  11.961  0.1343  0.5712  0.3955
 6882SOL    HW232280   2.340   3.273  11.984 -0.6758  2.1360  0.1245
 6883SOL     OW32281   3.166   1.121   7.929 -0.0872  0.7059 -0.1882
 6883SOL    HW132282   3.163   1.064   7.852 -0.3457 -0.0420  0.3798
 6883SOL    HW232283   3.236   1.177   7.895 -0.2636  2.5281  2.4962
 6884SOL     OW32284   0.047   0.717   7.510  0.3160  0.2727 -0.2723
 6884SOL    HW132285   0.074   0.754   7.426  2.6898 -1.7538 -0.4152
 6884SOL    HW232286   4.693   0.710   7.490  0.8001  0.2805 -2.5038
 6885SOL     OW32287   4.377   3.475   5.053 -0.5786  0.0235  0.0926
 6885SOL    HW132288   4.307   3.518   5.005 -0.7729  0.9396  1.2051
 6885SOL    HW232289   4.329   3.427   5.120 -1.4048  1.1084  0.2792
 6886SOL     OW32290   2.020   0.898   3.427 -0.0564  0.3663  0.1048
 6886SOL    HW132291   1.983   0.966   3.483  0.1175  1.2602 -0.8698
 6886SOL    HW232292   2.089   0.942   3.378 -1.2006  3.0773  0.9428
 6887SOL     OW32293   2.103   3.139   6.710 -0.4093 -0.6247  0.3500
 6887SOL    HW132294   2.133   3.136   6.620 -0.6844  0.1395  0.2298
 6887SOL    HW232295   2.017   3.100   6.698  0.1444 -1.7032 -0.1244
 6888SOL     OW32296   1.530   4.378   2.150  0.6964 -0.1868 -0.6779
 6888SOL    HW132297   1.456   4.367   2.092 -1.8285 -1.8953  2.8208
 6888SOL    HW232298   1.588   4.432   2.096 -0.7320  1.1147 -0.8958
 6889SOL     OW32299   4.514   4.480   7.145  0.6774 -0.6545 -0.0355
 6889SOL    HW132300   4.574   4.529   7.088 -0.3308  0.5237 -0.0743
 6889SOL    HW232301   4.448   4.548   7.152  1.6100  0.2879 -0.3188
 6890SOL     OW32302   1.791   3.244   6.981  0.0239  0.2690 -0.5435
 6890SOL    HW132303   1.821   3.332   6.959  1.0883 -0.1821 -0.8824
 6890SOL    HW232304   1.745   3.227   6.899  0.4944 -0.5493 -0.6448
 6891SOL     OW32305   3.076   3.941   3.600  0.0228 -0.6202  0.7780
 6891SOL    HW132306   3.060   3.999   3.675  1.8460  0.7246  0.1264
 6891SOL    HW232307   3.120   3.996   3.536 -0.8821 -1.1941 -0.3234
 6892SOL     OW32308   3.156   3.619  11.047  0.0472 -0.0881  0.2956
 6892SOL    HW132309   3.224   3.672  11.005 -0.0291 -0.5244 -0.3740
 6892SOL    HW232310   3.207   3.592  11.123  0.5325  0.4724  0.1746
 6893SOL     OW32311   3.387   4.263  11.780  0.8898  0.3745 -0.1061
 6893SOL    HW132312   3.356   4.184  11.736 -3.2698  1.1860  1.4251
 6893SOL    HW232313   3.377   4.224  11.867 -0.6400 -0.5840 -0.7145
 6894SOL     OW32314   1.257   3.005  10.319  0.0123 -0.0245 -0.0677
 6894SOL    HW132315   1.251   3.032  10.411 -0.7711 -2.0300  0.4690
 6894SOL    HW232316   1.330   2.945  10.328 -0.0902 -0.3593 -1.4869
 6895SOL     OW32317   1.222   3.384   1.386  0.1821 -0.0026  0.8871
 6895SOL    HW132318   1.205   3.473   1.417 -2.9886  0.1344 -1.2774
 6895SOL    HW232319   1.193   3.333   1.460 -0.3324  0.1780  0.8108
 6896SOL     OW32320   2.868   0.993  14.180  0.3138  0.4970  0.1952
 6896SOL    HW132321   2.822   1.000  14.263  0.3663 -2.2619  0.4473
 6896SOL    HW232322   2.921   1.071  14.195 -1.2355  1.2214  1.7958
 6897SOL     OW32323   0.406   2.629   5.244 -0.3919 -0.3806 -0.0161
 6897SOL    HW132324   0.472   2.644   5.176  0.7668  0.7108  1.3403
 6897SOL    HW232325   0.351   2.559   5.210 -0.8258  0.1711 -0.4449
 6898SOL     OW32326   1.974   2.596  16.924 -0.7339  0.1407  0.1578
 6898SOL    HW132327   1.896   2.556  16.887 -0.8739  0.7693 -0.2260
 6898SOL    HW232328   2.043   2.551  16.876 -0.4534 -0.1917  0.8677
 6899SOL     OW32329   2.510   1.445   7.345  0.1980  0.2156 -0.1493
 6899SOL    HW132330   2.528   1.442   7.251 -1.2021  3.0053 -0.4898
 6899SOL    HW232331   2.489   1.352   7.356  0.3127  0.2880  0.6452
 6900SOL     OW32332   1.758   0.324   9.132 -0.4481  0.4541  0.0061
 6900SOL    HW132333   1.753   0.230   9.117  2.6361  0.3991 -0.5572
 6900SOL    HW232334   1.827   0.343   9.068 -0.8219 -1.0168 -0.8291
 6901SOL     OW32335   1.133   3.217   5.624  0.0994  0.0186 -0.4015
 6901SOL    HW132336   1.069   3.146   5.631 -2.5198  2.3116 -1.2727
 6901SOL    HW232337   1.204   3.166   5.585  0.9842  0.2576  0.8992
 6902SOL     OW32338   2.896   1.411   6.550 -0.1458  0.3452 -1.0542
 6902SOL    HW132339   2.948   1.447   6.622 -1.6911 -0.1344  0.3055
 6902SOL    HW232340   2.933   1.323   6.539 -1.1668 -0.4273  1.8574
 6903SOL     OW32341   0.899   1.082   4.083  0.8833 -0.2495  0.2907
 6903SOL    HW132342   0.978   1.035   4.111  1.3914  0.9726  0.9576
 6903SOL    HW232343   0.857   1.004   4.049 -2.2704  1.3848  0.4407
 6904SOL     OW32344   2.372   4.449   9.114  0.3628  0.0582 -0.8363
 6904SOL    HW132345   2.391   4.487   9.028 -1.4916 -0.0335 -1.2867
 6904SOL    HW232346   2.332   4.369   9.079  2.4595 -1.4140  0.1642
 6905SOL     OW32347   2.584   4.218  17.505 -0.5162 -0.6475 -0.0966
 6905SOL    HW132348   2.641   4.281  17.550 -0.3381  1.7757 -3.7186
 6905SOL    HW232349   2.515   4.232  17.570 -1.6641 -0.4576 -1.3556
 6906SOL     OW32350   4.719   1.194   3.587  1.1189 -0.2543 -0.4035
 6906SOL    HW132351   0.028   1.114   3.566  2.1151  0.3739 -0.5119
 6906SOL    HW232352   0.019   1.215   3.672 -1.0342  2.7037 -0.1325
 6907SOL     OW32353   0.429   1.379   1.632  0.4102  0.0368 -0.3263
 6907SOL    HW132354   0.387   1.374   1.546  0.9746 -0.6861 -0.5648
 6907SOL    HW232355   0.451   1.291   1.660  1.5335 -0.3016 -2.2235
 6908SOL     OW32356   0.492   2.139  10.483 -0.3350 -0.1637  0.3900
 6908SOL    HW132357   0.437   2.094  10.421 -0.4986  3.0893 -1.8328
 6908SOL    HW232358   0.571   2.164  10.434 -1.1381 -1.2106 -1.3931
 6909SOL     OW32359   2.782   0.878   5.192 -0.7919 -0.2254  0.0812
 6909SOL    HW132360   2.840   0.910   5.260 -0.7700  1.0598 -0.5338
 6909SOL    HW232361   2.732   0.960   5.183  0.1964  0.3858  0.2229
 6910SOL     OW32362   2.939   0.828   0.400 -0.3219  0.6555  0.1748
 6910SOL    HW132363   2.896   0.744   0.416 -1.7828  0.9325 -2.4231
 6910SOL    HW232364   2.977   0.848   0.486 -0.0820  0.5202  0.0999
 6911SOL     OW32365   2.528   4.053   5.980  0.3890 -0.4443  0.1504
 6911SOL    HW132366   2.585   4.111   5.930  0.2962 -0.1198  0.4117
 6911SOL    HW232367   2.437   4.068   5.953 -0.6550 -1.3877  3.0971
 6912SOL     OW32368   0.064   4.177   8.914 -0.3391  0.0731  0.2954
 6912SOL    HW132369   0.040   4.085   8.899 -1.2335  0.2757  0.5388
 6912SOL    HW232370   0.157   4.159   8.929 -0.0207  0.8183 -0.8579
 6913SOL     OW32371   3.110   4.679   7.421 -0.1468  0.2976  0.3463
 6913SOL    HW132372   3.154   4.610   7.470 -1.6401 -1.2947 -0.5217
 6913SOL    HW232373   3.060   4.622   7.363 -0.8201  0.7698  0.4586
 6914SOL     OW32374   1.305   4.364   4.963 -0.3638  0.3056 -0.2752
 6914SOL    HW132375   1.263   4.317   4.891 -0.3188 -0.3327  0.1168
 6914SOL    HW232376   1.347   4.294   5.013 -0.1751 -0.2908 -1.2785
 6915SOL     OW32377   0.051   3.629   6.792  0.2350  0.4219 -0.4598
 6915SOL    HW132378   0.044   3.538   6.762  2.1488  0.1191  0.0229
 6915SOL    HW232379   0.048   3.679   6.711  0.3284 -0.2877 -0.8973
 6916SOL     OW32380   1.844   0.509   9.962  0.1566  0.1395  0.4104
 6916SOL    HW132381   1.805   0.569  10.025 -0.7319  1.0286 -0.9845
 6916SOL    HW232382   1.766   0.496   9.908 -0.0667  3.0239  0.0394
 6917SOL     OW32383   4.226   2.246  16.647  0.6226  0.3017  0.2813
 6917SOL    HW132384   4.211   2.200  16.730 -0.0110 -0.8282 -0.4772
 6917SOL    HW232385   4.157   2.210  16.593  0.4445 -0.6434  1.1443
 6918SOL     OW32386   1.796   4.019   9.761  0.3186  0.4224  0.0011
 6918SOL    HW132387   1.731   4.020   9.831 -0.2975 -0.3610 -0.5611
 6918SOL    HW232388   1.770   3.942   9.709  0.6428 -0.7859  1.6414
 6919SOL     OW32389   3.947   1.813   2.211  0.0577 -0.5045  0.1545
 6919SOL    HW132390   3.985   1.816   2.122  1.6654 -2.0772  0.7822
 6919SOL    HW232391   4.010   1.873   2.252 -2.1162  1.7822  0.1262
 6920SOL     OW32392   2.815   1.294   3.386  0.2759 -0.5937 -0.2379
 6920SOL    HW132393   2.731   1.265   3.349  1.1167  1.8441 -3.9737
 6920SOL    HW232394   2.839   1.218   3.438  2.9115  0.8530  0.6424
 6921SOL     OW32395   3.520   1.531   3.222  0.2602  0.3883 -0.7586
 6921SOL    HW132396   3.600   1.478   3.215 -0.8153 -1.2547 -0.6281
 6921SOL    HW232397   3.551   1.611   3.264 -1.6435  0.6312  0.1695
 6922SOL     OW32398   2.031   3.527  11.590  0.9289 -0.3070  0.0489
 6922SOL    HW132399   2.011   3.503  11.680  1.3551  0.1902  0.2710
 6922SOL    HW232400   2.117   3.483  11.584  1.2986  0.5212 -0.7169
 6923SOL     OW32401   3.188   1.940   4.805  0.2966 -0.2504  0.3722
 6923SOL    HW132402   3.243   1.863   4.791 -1.0328 -1.7117  3.2483
 6923SOL    HW232403   3.134   1.919   4.881  1.0355  1.2657  1.3013
 6924SOL     OW32404   2.590   2.241   7.308  0.4884 -0.5882 -0.0158
 6924SOL    HW132405   2.682   2.233   7.333  0.8872  1.1468 -0.9174
 6924SOL    HW232406   2.590   2.204   7.220 -1.1315 -1.5378  0.3973
 6925SOL     OW32407   3.635   3.755   5.981 -0.0557 -0.1825  0.0541
 6925SOL    HW132408   3.608   3.669   5.948 -1.9023  0.9312 -1.3038
 6925SOL    HW232409   3.573   3.772   6.052  1.0399  1.2700  0.6523
 6926SOL     OW32410   2.181   0.300   5.714  0.0823 -0.6483 -0.4365
 6926SOL    HW132411   2.161   0.378   5.765  0.7592 -0.9688  0.3260
 6926SOL    HW232412   2.187   0.340   5.627 -1.3824 -3.4607 -1.8480
 6927SOL     OW32413   0.016   1.055  17.710  0.5869 -0.1451 -0.4085
 6927SOL    HW132414   0.031   1.054   0.049  1.1962 -3.6225 -0.5628
 6927SOL    HW232415   4.720   1.143  17.697  0.8742  0.4330  2.7301
 6928SOL     OW32416   1.755   0.560   3.727 -0.0787  0.4793 -0.2198
 6928SOL    HW132417   1.825   0.497   3.745  0.9411  1.8856  0.7789
 6928SOL    HW232418   1.789   0.580   3.639 -1.8174 -0.8741 -1.2023
 6929SOL     OW32419   3.100   0.516   4.321 -0.0676  0.0457 -0.1360
 6929SOL    HW132420   3.102   0.429   4.280 -0.9027 -0.4114  0.8017
 6929SOL    HW232421   3.151   0.574   4.264  2.8379 -0.0028  2.4519
 6930SOL     OW32422   1.995   3.893   8.789 -0.2736  0.0289  0.0097
 6930SOL    HW132423   2.077   3.942   8.787  0.3041 -0.9501 -0.4241
 6930SOL    HW232424   1.988   3.876   8.695  2.3976 -0.3361 -0.1079
 6931SOL     OW32425   0.643   4.353   6.332  0.4414  0.0538 -0.3514
 6931SOL    HW132426   0.576   4.354   6.400  0.5424  0.7047 -0.2599
 6931SOL    HW232427   0.712   4.408   6.370  1.7463 -1.6468 -0.2425
 6932SOL     OW32428   2.242   3.015  10.674  0.2959  0.1794  0.3902
 6932SOL    HW132429   2.173   2.960  10.636 -0.6549  1.3908  0.3815
 6932SOL    HW232430   2.326   2.981  10.643 -0.7023 -1.0034 -1.0311
 6933SOL     OW32431   4.627   2.233   2.485  0.2396  0.3906  0.3676
 6933SOL    HW132432   4.607   2.144   2.457  0.1567  0.7143 -0.6009
 6933SOL    HW232433   4.609   2.284   2.406  0.0581 -0.3750 -0.0831
 6934SOL     OW32434   2.816   4.334   1.073  0.1564 -0.7108 -0.4778
 6934SOL    HW132435   2.792   4.335   0.980 -1.3569  2.0298 -0.0791
 6934SOL    HW232436   2.728   4.353   1.105  0.1032 -3.6297  1.0346
 6935SOL     OW32437   2.972   0.501  14.930 -0.3045  0.0127 -0.4275
 6935SOL    HW132438   2.976   0.595  14.944  0.8477 -0.1760  0.5311
 6935SOL    HW232439   3.053   0.482  14.884 -0.1569  1.5596 -0.8023
 6936SOL     OW32440   3.192   3.575  17.044 -0.3726 -0.2486 -0.1360
 6936SOL    HW132441   3.105   3.554  17.077 -0.5335  0.3975 -0.1465
 6936SOL    HW232442   3.195   3.535  16.958 -0.2126 -1.4263  0.4254
 6937SOL     OW32443   0.651   4.569  12.551 -0.1966 -0.6248 -0.5888
 6937SOL    HW132444   0.637   4.475  12.544 -0.9832 -0.6469  1.3547
 6937SOL    HW232445   0.597   4.604  12.480  2.1546  3.2442 -0.5240
 6938SOL     OW32446   1.233   2.222   5.620  0.5269 -0.2788 -0.0304
 6938SOL    HW132447   1.288   2.288   5.663  0.6885  0.0732 -0.7690
 6938SOL    HW232448   1.161   2.277   5.590  1.0248 -0.9952 -2.5460
 6939SOL     OW32449   1.507   0.891   8.494 -0.4124 -0.3646 -0.0772
 6939SOL    HW132450   1.555   0.816   8.527 -0.5227 -0.1829  0.4889
 6939SOL    HW232451   1.441   0.848   8.438 -1.6942 -1.2235  2.0926
 6940SOL     OW32452   3.821   2.524   8.543  0.3758 -0.0059 -0.3445
 6940SOL    HW132453   3.858   2.437   8.557  1.2423  0.0862 -2.1363
 6940SOL    HW232454   3.753   2.536   8.609  0.2672 -1.3962 -0.2027
 6941SOL     OW32455   3.716   4.149  12.907  0.6488 -0.4616 -0.9307
 6941SOL    HW132456   3.647   4.133  12.971  0.2500  3.0430 -0.4559
 6941SOL    HW232457   3.688   4.104  12.828 -1.7810 -0.6296  0.0414
 6942SOL     OW32458   2.989   2.044   1.629  0.4329  0.7601 -0.1708
 6942SOL    HW132459   3.070   2.076   1.670 -0.5061  1.5263  1.0990
 6942SOL    HW232460   2.939   2.026   1.709  0.6945  0.0237 -0.1721
 6943SOL     OW32461   3.759   2.625   0.168 -0.3732  0.0026 -1.1154
 6943SOL    HW132462   3.698   2.577   0.112 -2.8405  0.7420  0.9326
 6943SOL    HW232463   3.830   2.564   0.186 -0.3570 -0.5532 -3.0605
 6944SOL     OW32464   4.357   2.069   5.777 -0.1642  0.4043 -0.1164
 6944SOL    HW132465   4.332   1.977   5.790  1.7328 -0.1097  0.0388
 6944SOL    HW232466   4.419   2.081   5.849 -1.1833  1.3904  0.5986
 6945SOL     OW32467   4.443   0.646  17.695 -0.2692  0.4863 -0.3016
 6945SOL    HW132468   4.440   0.710  17.624  0.1349  0.1916 -0.5851
 6945SOL    HW232469   4.379   0.677   0.004 -1.6360 -1.3197 -0.8109
 6946SOL     OW32470   0.226   3.959   9.671 -0.2062 -0.0760  0.4442
 6946SOL    HW132471   0.266   4.023   9.730 -1.0086  0.3706  0.5057
 6946SOL    HW232472   0.272   3.884   9.710  1.6792  1.9315  2.0792
 6947SOL     OW32473   1.968   4.368   8.807  0.2434  0.0560 -0.1154
 6947SOL    HW132474   1.987   4.385   8.714 -0.9973 -0.9794 -0.5471
 6947SOL    HW232475   2.023   4.441   8.836 -2.0832  1.4502  0.7637
 6948SOL     OW32476   1.945   2.835   7.351  0.0359 -0.4750  0.1017
 6948SOL    HW132477   1.858   2.853   7.388 -0.6648 -0.1565 -1.7005
 6948SOL    HW232478   1.991   2.798   7.427  1.1871  0.6372 -0.0479
 6949SOL     OW32479   3.875   3.591  15.950  0.6746 -0.0203  0.6938
 6949SOL    HW132480   3.902   3.661  16.010 -1.5169  0.6705  0.8520
 6949SOL    HW232481   3.950   3.578  15.892  0.1553  0.4524 -0.0796
 6950SOL     OW32482   1.533   1.622   7.414  0.1329  0.0028 -0.5095
 6950SOL    HW132483   1.608   1.599   7.469 -1.4342 -0.4112  1.4601
 6950SOL    HW232484   1.539   1.564   7.338  0.2115 -2.9536  1.7788
 6951SOL     OW32485   1.837   0.802   7.588  0.4177 -0.3678 -0.0560
 6951SOL    HW132486   1.870   0.887   7.619  4.1161 -1.6834 -0.3816
 6951SOL    HW232487   1.869   0.750   7.662  3.2953 -1.1757 -1.8960
 6952SOL     OW32488   4.582   3.929   9.326 -0.2555  0.3301  0.0380
 6952SOL    HW132489   4.619   3.940   9.414 -0.2273 -1.9789  0.3287
 6952SOL    HW232490   4.659   3.941   9.269  0.9691 -2.8135  1.0142
 6953SOL     OW32491   1.993   2.297  12.236  0.0790 -0.0425  0.2030
 6953SOL    HW132492   1.954   2.379  12.264 -0.1760  0.0516 -0.4354
 6953SOL    HW232493   1.959   2.241  12.306  0.1493  2.7628  2.4401
 6954SOL     OW32494   3.171   1.026  17.447  0.1064  0.3555  0.1305
 6954SOL    HW132495   3.264   1.006  17.458  0.2305  0.5134 -0.6498
 6954SOL    HW232496   3.171   1.085  17.371 -0.0998  2.9636  2.1198
 6955SOL     OW32497   4.120   4.457  11.967 -0.0200 -0.5374 -0.0439
 6955SOL    HW132498   4.072   4.539  11.958 -2.1421 -1.8534 -0.5945
 6955SOL    HW232499   4.054   4.390  11.985 -0.5411 -0.0036  0.0085
 6956SOL     OW32500   0.644   2.519   0.759 -0.1821 -0.4469 -0.1792
 6956SOL    HW132501   0.647   2.442   0.703  1.5354  0.5467 -1.4819
 6956SOL    HW232502   0.737   2.530   0.783  0.1445 -2.5607 -0.5000
 6957SOL     OW32503   2.620   2.958   3.285 -0.5933 -0.0609 -0.5109
 6957SOL    HW132504   2.686   3.022   3.313 -0.0662 -1.1361  0.7228
 6957SOL    HW232505   2.556   3.017   3.246  0.8889  1.7382 -0.2223
 6958SOL     OW32506   4.397   0.748  16.515  0.1129 -0.3179  0.1834
 6958SOL    HW132507   4.465   0.714  16.457 -0.8190  0.7972 -1.5602
 6958SOL    HW232508   4.434   0.718  16.598  0.1932  2.8571  1.2874
 6959SOL     OW32509   3.924   1.578  10.709 -0.0630  0.2082  0.2181
 6959SOL    HW132510   3.836   1.550  10.683 -0.5669  0.8152  1.2744
 6959SOL    HW232511   3.979   1.501  10.693  2.5176  2.0054  0.3067
 6960SOL     OW32512   0.169   2.544  17.069  0.4876 -1.0769  0.2160
 6960SOL    HW132513   0.255   2.539  17.028 -0.3335 -1.9646 -1.3925
 6960SOL    HW232514   0.129   2.625  17.037  0.2516 -0.9962  0.7128
 6961SOL     OW32515   1.349   3.248   6.463 -0.0766  0.1987  0.5409
 6961SOL    HW132516   1.273   3.196   6.491 -0.8034  1.6725  1.2911
 6961SOL    HW232517   1.371   3.208   6.379  3.2926  1.4634  0.8105
 6962SOL     OW32518   2.936   0.675   2.022  0.0523  1.0635 -0.4648
 6962SOL    HW132519   2.992   0.729   1.965  0.1140  1.5513  0.0631
 6962SOL    HW232520   2.852   0.712   1.995  0.6966  1.5018 -1.8606
 6963SOL     OW32521   1.712   1.520   0.027  0.7483  0.0293 -0.1670
 6963SOL    HW132522   1.775   1.488  17.717  0.3637  0.3934 -0.7168
 6963SOL    HW232523   1.759   1.532   0.110 -0.5871 -1.8475  0.8719
 6964SOL     OW32524   3.759   3.634  12.493  0.0537 -0.3569  0.0667
 6964SOL    HW132525   3.803   3.680  12.564 -1.5119 -1.4565  1.7330
 6964SOL    HW232526   3.702   3.706  12.466 -0.1563 -0.6385 -0.2348
 6965SOL     OW32527   0.018   4.390   4.559  0.0441  0.4406 -0.4445
 6965SOL    HW132528   0.056   4.302   4.566  2.3358  1.3051 -1.7591
 6965SOL    HW232529   0.018   4.423   4.649  2.5499 -1.6249  0.3192
 6966SOL     OW32530   2.493   3.211   3.474  0.0461 -0.3574  0.8445
 6966SOL    HW132531   2.490   3.181   3.383  2.1331  4.1734 -0.7245
 6966SOL    HW232532   2.400   3.194   3.490 -0.2976  0.6153 -0.1330
 6967SOL     OW32533   0.698   2.929  13.810 -0.3484  0.5785 -0.1590
 6967SOL    HW132534   0.603   2.922  13.804 -0.6054  1.1781  3.0729
 6967SOL    HW232535   0.699   3.025  13.813 -0.2227  0.5724  0.0559
 6968SOL     OW32536   0.237   4.139   4.394  0.3492  0.2694 -0.1235
 6968SOL    HW132537   0.248   4.045   4.378 -0.4591  0.5790 -2.4856
 6968SOL    HW232538   0.174   4.125   4.464  0.1997  1.0213 -0.1067
 6969SOL     OW32539   0.749   2.992   3.936  0.3193 -0.1782 -0.1132
 6969SOL    HW132540   0.724   2.973   4.027  0.0776  0.3462 -0.0719
 6969SOL    HW232541   0.707   3.077   3.926  0.7273  0.2047  1.3268
 6970SOL     OW32542   4.167   1.773   2.969 -0.1553  0.2900  0.2507
 6970SOL    HW132543   4.190   1.821   3.049 -0.9810 -1.2248  1.4020
 6970SOL    HW232544   4.252   1.732   2.952 -1.1169 -0.9415 -1.5709
 6971SOL     OW32545   3.385   4.491   1.921 -0.0409 -0.2283  0.0834
 6971SOL    HW132546   3.463   4.527   1.963  0.1060 -0.6672  0.1898
 6971SOL    HW232547   3.345   4.558   1.865  0.9764 -0.3466 -0.7617
 6972SOL     OW32548   0.821   3.848   0.146  0.4324 -0.1578 -0.0810
 6972SOL    HW132549   0.768   3.819   0.220 -1.9704  1.5271 -1.1504
 6972SOL    HW232550   0.907   3.870   0.181  1.3010 -0.0865 -2.2613
 6973SOL     OW32551   1.108   2.560   8.959  0.1754  0.4864  0.2713
 6973SOL    HW132552   1.175   2.502   8.923  0.9528  0.4711  1.7541
 6973SOL    HW232553   1.078   2.505   9.031 -0.7485  3.1135  1.8880
 6974SOL     OW32554   2.058   2.423   3.189  0.4066 -0.6493 -0.5001
 6974SOL    HW132555   1.990   2.434   3.122  0.9774  0.7618 -0.8382
 6974SOL    HW232556   2.117   2.479   3.139  1.4199 -1.1087  0.1730
 6975SOL     OW32557   4.719   3.432   4.445  0.3715 -0.2073 -0.7961
 6975SOL    HW132558   0.070   3.405   4.429  0.7389  0.1021  0.7007
 6975SOL    HW232559   4.697   3.477   4.364  0.2231  1.2831  0.0777
 6976SOL     OW32560   0.048   0.789   4.033 -0.0364 -0.0754  0.3201
 6976SOL    HW132561   4.714   0.763   3.978  1.4771  0.0293 -1.7816
 6976SOL    HW232562   0.054   0.714   4.092  1.9698 -0.1148  0.0831
 6977SOL     OW32563   2.017   4.719   8.259 -0.1268  0.0731  0.1621
 6977SOL    HW132564   1.984   0.060   8.300  1.7306 -0.0655  1.9532
 6977SOL    HW232565   2.066   4.682   8.333 -0.5549 -2.3856 -0.7763
 6978SOL     OW32566   2.075   0.659   2.370  0.3430 -0.7088 -0.2398
 6978SOL    HW132567   2.027   0.597   2.425  2.5018 -1.7095  0.5014
 6978SOL    HW232568   2.036   0.657   2.283  0.0648 -2.3994 -0.0805
 6979SOL     OW32569   1.488   4.351   4.298 -0.7938  0.3118  0.0894
 6979SOL    HW132570   1.472   4.443   4.320 -0.8453  0.4821 -0.6815
 6979SOL    HW232571   1.405   4.326   4.257 -0.7798  3.6139 -1.9623
 6980SOL     OW32572   2.413   2.953  14.011  0.3314 -0.4765  0.0187
 6980SOL    HW132573   2.319   2.972  14.010  0.4850  0.4360  2.1682
 6980SOL    HW232574   2.412   2.873  14.064  1.8861 -0.9502 -0.6801
 6981SOL     OW32575   2.291   1.410   2.037 -0.3468  0.0730 -0.3490
 6981SOL    HW132576   2.387   1.411   2.042 -0.3372 -0.3192 -0.4771
 6981SOL    HW232577   2.277   1.328   2.084  0.4380  0.6100  0.8107
 6982SOL     OW32578   2.684   1.780   3.077  0.1038 -0.0153 -0.2203
 6982SOL    HW132579   2.762   1.723   3.078  0.0631 -0.0832 -1.5727
 6982SOL    HW232580   2.606   1.725   3.069  1.4881 -1.8824 -0.9966
 6983SOL     OW32581   1.640   4.368   2.584 -0.5404  0.4498  0.2336
 6983SOL    HW132582   1.665   4.416   2.505  1.2283  0.1144  0.5941
 6983SOL    HW232583   1.659   4.437   2.648  3.4744 -0.6347  0.2274
 6984SOL     OW32584   0.051   0.305   6.514 -0.3991  0.3996  0.3954
 6984SOL    HW132585   4.727   0.256   6.566 -2.2257 -1.1332 -3.2948
 6984SOL    HW232586   0.136   0.265   6.527 -0.2544  1.1128  1.6657
 6985SOL     OW32587   3.716   3.963   4.720 -0.0461  0.2545 -0.4621
 6985SOL    HW132588   3.628   3.926   4.726  0.8107 -1.9563 -1.6917
 6985SOL    HW232589   3.700   4.038   4.662 -1.4610  1.0623  0.9844
 6986SOL     OW32590   2.273   3.230   9.886  0.2872 -0.2294  0.0658
 6986SOL    HW132591   2.246   3.305   9.833  2.3542  0.7119  0.3524
 6986SOL    HW232592   2.298   3.267   9.970 -0.0228 -3.5310  1.6397
 6987SOL     OW32593   4.664   3.362   8.738 -0.0278  0.4698 -0.4414
 6987SOL    HW132594   4.698   3.284   8.695 -1.9187 -0.4800 -0.2080
 6987SOL    HW232595   4.708   3.360   8.822  1.2260  0.9656 -1.0839
 6988SOL     OW32596   0.126   1.415   3.100  0.0148 -0.2684 -0.3341
 6988SOL    HW132597   0.196   1.468   3.139  0.0742 -0.1955 -0.5420
 6988SOL    HW232598   0.098   1.363   3.176  5.4072 -0.1544  1.7628
 6989SOL     OW32599   3.143   2.360   2.352 -0.1768 -0.5218 -0.2462
 6989SOL    HW132600   3.195   2.370   2.431  0.9035 -2.3813 -0.7250
 6989SOL    HW232601   3.066   2.408   2.383 -0.2210 -1.3762  0.9820
 6990SOL     OW32602   0.350   3.392   6.657 -0.2393 -0.0761  0.0944
 6990SOL    HW132603   0.298   3.349   6.589  0.1629 -0.3921 -0.0070
 6990SOL    HW232604   0.440   3.404   6.630  0.2932  0.1981  1.9809
 6991SOL     OW32605   1.856   3.166   9.230  0.3441 -0.6934 -0.7751
 6991SOL    HW132606   1.899   3.081   9.232  2.1899  0.2274 -0.9225
 6991SOL    HW232607   1.771   3.148   9.269  0.3323  0.9455 -0.0124
 6992SOL     OW32608   1.146   1.008   8.140  0.2416  0.1209  0.2233
 6992SOL    HW132609   1.052   1.008   8.161  0.5539 -0.5349  1.6383
 6992SOL    HW232610   1.162   1.099   8.116  3.6269 -0.3778  0.6432
 6993SOL     OW32611   4.248   0.544   2.010  0.2108  0.1078 -0.1340
 6993SOL    HW132612   4.316   0.543   1.942  0.0948  1.0355 -0.2603
 6993SOL    HW232613   4.238   0.452   2.033 -1.6423  0.2719 -0.3474
 6994SOL     OW32614   2.836   4.659   4.171 -0.3491  0.1204 -0.1039
 6994SOL    HW132615   2.753   4.681   4.127 -0.6746  0.0680  0.4757
 6994SOL    HW232616   2.867   0.007   4.192  2.4300 -0.6858 -0.8999
 6995SOL     OW32617   3.427   0.448   2.328  0.1418  0.0714 -0.0636
 6995SOL    HW132618   3.437   0.531   2.375  1.3340  0.5844 -1.2079
 6995SOL    HW232619   3.519   0.434   2.305  0.0898  0.7437 -0.7048
 6996SOL     OW32620   0.564   3.070  17.163 -0.4853  0.0656  0.4700
 6996SOL    HW132621   0.632   3.059  17.230 -0.2703 -3.1349 -0.2581
 6996SOL    HW232622   0.487   3.072  17.219 -0.2647 -1.7179  0.8390
 6997SOL     OW32623   2.714   1.580   6.419 -0.2461  0.1716 -0.2362
 6997SOL    HW132624   2.759   1.497   6.433  1.1067  0.8234 -0.7354
 6997SOL    HW232625   2.783   1.618   6.364 -0.2237 -0.1627 -0.4445
 6998SOL     OW32626   0.195   2.587   6.866  0.2795 -0.4791  0.5302
 6998SOL    HW132627   0.128   2.543   6.813 -0.1204  1.6168 -0.7098
 6998SOL    HW232628   0.277   2.579   6.817  0.4732  2.1720  0.4029
 6999SOL     OW32629   0.585   0.488   7.400  0.1576 -0.1462  0.1730
 6999SOL    HW132630   0.585   0.411   7.457 -1.5999 -0.5246 -0.3295
 6999SOL    HW232631   0.664   0.477   7.346 -0.2062  0.8512 -0.5685
 7000SOL     OW32632   1.998   2.474  11.294  0.2116 -0.2535 -0.1412
 7000SOL    HW132633   2.026   2.518  11.374 -4.8702 -0.1627  1.5722
 7000SOL    HW232634   1.979   2.391  11.337 -3.5440 -1.3466 -3.9016
 7001SOL     OW32635   4.239   0.818   8.351 -0.1013  0.1937  0.4788
 7001SOL    HW132636   4.278   0.785   8.270  0.1567  0.7549  0.3731
 7001SOL    HW232637   4.214   0.908   8.328 -1.9771 -0.3578  0.3525
 7002SOL     OW32638   4.501   1.808   6.421  0.2179  0.1518  0.6575
 7002SOL    HW132639   4.484   1.738   6.484 -1.0309 -2.1625 -2.2449
 7002SOL    HW232640   4.423   1.797   6.367 -1.1756 -0.5032  2.8194
 7003SOL     OW32641   1.118   0.198   6.842  0.1990  0.3519  0.1136
 7003SOL    HW132642   1.059   0.208   6.917 -0.1276 -1.1241  0.0580
 7003SOL    HW232643   1.204   0.197   6.884  0.3634  3.7507 -0.1536
 7004SOL     OW32644   3.115   4.355  14.041 -0.4280  0.5118 -0.5372
 7004SOL    HW132645   3.082   4.265  14.045  0.7076  0.0333 -1.8182
 7004SOL    HW232646   3.209   4.338  14.028 -0.7084 -1.7276  0.2757
 7005SOL     OW32647   1.195   3.882   9.039 -0.1243 -0.5550 -0.2852
 7005SOL    HW132648   1.178   3.928   9.121  3.5037  0.3561 -0.0577
 7005SOL    HW232649   1.151   3.797   9.048  0.2743 -0.4942  2.3197
 7006SOL     OW32650   0.770   0.670   7.011  0.3161  0.7811 -0.0515
 7006SOL    HW132651   0.685   0.710   7.033 -0.5767 -0.9764 -0.3363
 7006SOL    HW232652   0.759   0.637   6.922  0.2853 -1.5015  0.8142
 7007SOL     OW32653   2.796   2.305   8.038 -0.1201 -0.3433 -0.3426
 7007SOL    HW132654   2.807   2.214   8.063 -0.3055 -0.2353  0.1423
 7007SOL    HW232655   2.704   2.309   8.011  0.0664 -0.6846 -1.0102
 7008SOL     OW32656   1.585   2.348   6.775 -0.0575  0.5006 -0.2434
 7008SOL    HW132657   1.524   2.295   6.827  1.5427 -0.5262  0.5706
 7008SOL    HW232658   1.525   2.403   6.723  1.6096  1.6544 -0.9436
 7009SOL     OW32659   1.864   4.510  12.028 -0.2966  0.3187  0.1563
 7009SOL    HW132660   1.893   4.490  12.117 -2.0094 -0.6592  0.5017
 7009SOL    HW232661   1.781   4.551  12.052 -0.6621  1.0454 -2.3328
 7010SOL     OW32662   4.575   0.932   5.375  0.0396 -0.2949  0.1874
 7010SOL    HW132663   4.612   0.858   5.425  0.0002 -0.5840 -0.2071
 7010SOL    HW232664   4.497   0.888   5.341  0.8567  0.1319 -2.3002
 7011SOL     OW32665   4.160   2.966  14.690  0.0340 -0.4395  0.5290
 7011SOL    HW132666   4.098   2.997  14.624 -0.4971 -3.4883 -0.3962
 7011SOL    HW232667   4.165   2.874  14.664 -2.2996 -0.5100  0.2655
 7012SOL     OW32668   0.302   3.167  11.632 -0.7890  0.6788  0.7466
 7012SOL    HW132669   0.263   3.253  11.614 -0.1649  0.1727 -2.9911
 7012SOL    HW232670   0.367   3.180  11.563 -1.1869 -1.4363 -0.0021
 7013SOL     OW32671   2.973   2.345   8.570  0.3942 -0.1823 -0.5107
 7013SOL    HW132672   2.958   2.354   8.664  1.2543  0.2896 -0.4181
 7013SOL    HW232673   3.008   2.432   8.554  1.1467 -0.2373  0.8197
 7014SOL     OW32674   0.124   2.423  11.678  0.2588 -0.2577  0.1404
 7014SOL    HW132675   0.041   2.378  11.690 -0.5780  0.8801 -1.4947
 7014SOL    HW232676   0.147   2.457  11.765  3.3852  0.6753 -1.0454
 7015SOL     OW32677   1.109   3.185   9.381 -0.2552 -0.4363 -0.3052
 7015SOL    HW132678   1.165   3.252   9.419  0.9522 -1.6257  0.0348
 7015SOL    HW232679   1.173   3.122   9.348  1.0401  0.4853  0.4336
 7016SOL     OW32680   3.616   0.635   6.254  0.2225 -0.5053 -0.0662
 7016SOL    HW132681   3.540   0.576   6.246 -1.3628  1.1328  3.3132
 7016SOL    HW232682   3.592   0.709   6.198  3.4970  0.5173 -0.1100
 7017SOL     OW32683   1.375   3.348   2.233  0.2118  0.3697 -1.0759
 7017SOL    HW132684   1.380   3.408   2.307 -2.1252 -0.2424 -0.4585
 7017SOL    HW232685   1.306   3.284   2.245  0.6334 -0.0862 -1.0779
 7018SOL     OW32686   0.674   2.773  16.375  0.1005 -0.2528  0.0009
 7018SOL    HW132687   0.654   2.863  16.351 -0.0530 -0.8450 -2.1362
 7018SOL    HW232688   0.584   2.742  16.385 -0.5381  0.4660 -3.6599
 7019SOL     OW32689   0.136   2.610   4.034  0.0835  0.3554 -0.1724
 7019SOL    HW132690   0.077   2.685   4.023  0.9119  0.7181 -2.0458
 7019SOL    HW232691   0.211   2.667   4.050  0.8694 -1.6297  3.1211
 7020SOL     OW32692   1.470   1.228   5.322  0.4445 -0.2853  0.2698
 7020SOL    HW132693   1.439   1.246   5.233 -0.5163  0.3318  0.7315
 7020SOL    HW232694   1.433   1.303   5.369  0.4157  0.8290 -1.5128
 7021SOL     OW32695   1.273   4.523   7.841  0.0470 -0.1878  0.4386
 7021SOL    HW132696   1.349   4.568   7.804  0.9421 -1.4165  0.7609
 7021SOL    HW232697   1.202   4.552   7.784  1.6243  2.9168  0.0344
 7022SOL     OW32698   3.504   0.376   2.605 -0.0786  0.3335  0.2622
 7022SOL    HW132699   3.517   0.373   2.700 -1.2141  0.3700  0.4214
 7022SOL    HW232700   3.562   0.444   2.571  1.7228 -0.6252  1.4790
 7023SOL     OW32701   0.886   4.503   6.393  0.5279  0.0643 -0.1007
 7023SOL    HW132702   0.941   4.447   6.338 -0.9882  0.0404 -1.5741
 7023SOL    HW232703   0.957   4.538   6.448  0.0447 -0.0827  0.6138
 7024SOL     OW32704   3.040   1.868   4.200  0.2206  0.0123 -0.6746
 7024SOL    HW132705   3.073   1.958   4.204  1.2890 -0.4746  2.2138
 7024SOL    HW232706   2.949   1.862   4.228 -0.0622  1.3549 -1.2876
 7025SOL     OW32707   1.288   2.207   6.689 -0.0747  0.1249 -0.2401
 7025SOL    HW132708   1.315   2.169   6.773  0.7734  0.7598 -0.2220
 7025SOL    HW232709   1.368   2.196   6.638 -0.1436  1.2135 -0.5851
 7026SOL     OW32710   0.267   0.556  15.112 -0.0124 -0.9914 -0.6768
 7026SOL    HW132711   0.178   0.541  15.145 -0.1408  2.4298  0.5727
 7026SOL    HW232712   0.262   0.642  15.070  1.5823 -0.0985  0.9152
 7027SOL     OW32713   4.063   0.259   2.742 -0.3068 -0.2324 -0.0029
 7027SOL    HW132714   4.041   0.214   2.661 -0.5442 -0.6101  0.2750
 7027SOL    HW232715   4.156   0.275   2.724 -0.0202 -1.3127  0.5298
 7028SOL     OW32716   3.997   3.257   2.010  0.7887  0.0308  0.2006
 7028SOL    HW132717   3.963   3.291   1.926 -3.4361  0.9711  2.3023
 7028SOL    HW232718   4.090   3.265   1.986  1.0796  0.3608  1.4329
 7029SOL     OW32719   0.109   0.439   7.536 -0.0474 -0.3295  0.0515
 7029SOL    HW132720   0.107   0.534   7.530  1.5793 -0.3444 -0.6447
 7029SOL    HW232721   0.094   0.422   7.443  1.4188  1.6638 -0.5467
 7030SOL     OW32722   0.775   0.624   9.228 -0.1029 -1.1824  0.1622
 7030SOL    HW132723   0.745   0.533   9.222 -0.1575 -1.1806  0.4124
 7030SOL    HW232724   0.865   0.601   9.206  0.4736 -0.3534  1.6735
 7031SOL     OW32725   3.763   3.645   8.245  0.5125  0.2172  0.0240
 7031SOL    HW132726   3.792   3.667   8.156 -0.4472  0.5934 -0.1915
 7031SOL    HW232727   3.691   3.592   8.211  0.8123  0.6980 -1.4046
 7032SOL     OW32728   3.393   3.081   3.860  0.0685 -0.0209 -0.8833
 7032SOL    HW132729   3.400   2.993   3.822  0.4933 -0.1621 -0.4780
 7032SOL    HW232730   3.337   3.127   3.797 -2.5682 -1.1227  0.6550
 7033SOL     OW32731   4.230   0.257   2.352 -0.1796 -0.3073  0.3813
 7033SOL    HW132732   4.268   0.207   2.279 -2.3751  1.3182 -1.9007
 7033SOL    HW232733   4.289   0.332   2.358 -0.2093 -0.2912  0.4692
 7034SOL     OW32734   3.716   2.897   2.655 -0.4501 -0.3353  0.3979
 7034SOL    HW132735   3.710   2.993   2.658 -0.6937 -0.3959  1.6694
 7034SOL    HW232736   3.675   2.883   2.570 -1.3409 -1.0866  0.9590
 7035SOL     OW32737   1.206   2.200   3.583 -0.5077 -0.3752  0.1715
 7035SOL    HW132738   1.112   2.220   3.587 -0.1679  1.4415 -1.1411
 7035SOL    HW232739   1.220   2.179   3.491 -0.2275  0.5104  0.0145
 7036SOL     OW32740   2.829   3.815   7.103 -0.1197 -0.1975  0.5041
 7036SOL    HW132741   2.827   3.786   7.194 -1.0270 -2.0224 -0.0900
 7036SOL    HW232742   2.863   3.903   7.114 -0.6261 -0.1117  1.4021
 7037SOL     OW32743   2.764   4.654   6.932  0.2910  0.3763  0.2106
 7037SOL    HW132744   2.755   4.680   6.840 -0.1979 -0.8704 -0.0959
 7037SOL    HW232745   2.714   4.724   6.974 -1.3063  0.2555 -1.5050
 7038SOL     OW32746   3.699   3.197   9.129  0.3851 -0.5665  0.3532
 7038SOL    HW132747   3.689   3.135   9.201  3.7557  1.2318  2.3878
 7038SOL    HW232748   3.732   3.275   9.175 -0.7060  1.4513 -2.3149
 7039SOL     OW32749   2.660   0.117  17.719  0.3326 -0.0381 -0.4266
 7039SOL    HW132750   2.645   0.212  17.728 -3.6387 -0.8396  1.3867
 7039SOL    HW232751   2.647   0.093   0.056  0.5489  1.6796  0.0668
 7040SOL     OW32752   1.611   0.040   7.843 -0.1523  0.3668 -0.2231
 7040SOL    HW132753   1.605   0.012   7.751  0.3128  0.5596 -0.3118
 7040SOL    HW232754   1.656   0.124   7.833  1.8225 -0.7233 -0.6414
 7041SOL     OW32755   0.826   1.359   2.944 -0.0980  0.5828 -0.4451
 7041SOL    HW132756   0.875   1.321   2.871  2.3022  0.0036  1.4649
 7041SOL    HW232757   0.841   1.292   3.011 -3.1611 -3.4702 -3.8053
 7042SOL     OW32758   3.313   4.204   6.335  0.4489 -0.0659  0.5627
 7042SOL    HW132759   3.242   4.243   6.386  1.3041  2.2862 -0.0232
 7042SOL    HW232760   3.330   4.280   6.279 -2.4892  0.6186  0.6176
 7043SOL     OW32761   1.956   0.468   7.170  0.1400  0.5361  0.1165
 7043SOL    HW132762   1.894   0.521   7.120 -0.2627 -0.9527 -0.9435
 7043SOL    HW232763   2.039   0.495   7.129  1.0885  0.5969  2.0651
 7044SOL     OW32764   0.466   0.264   5.814  0.3180 -0.1290 -0.2478
 7044SOL    HW132765   0.443   0.349   5.853 -2.7945 -1.7941  1.5249
 7044SOL    HW232766   0.554   0.282   5.781  1.0727  0.3882  2.0365
 7045SOL     OW32767   2.003   4.298   7.018  0.1360 -0.7581  0.0807
 7045SOL    HW132768   1.920   4.263   7.050  0.5386 -1.7976 -0.0351
 7045SOL    HW232769   2.035   4.212   6.993 -0.9422 -0.9813 -0.5138
 7046SOL     OW32770   2.090   4.434   2.622  0.4125  0.2537 -0.1448
 7046SOL    HW132771   2.171   4.425   2.673 -0.7985  0.6961  1.8639
 7046SOL    HW232772   2.024   4.439   2.691  1.0335 -0.2765  0.4881
 7047SOL     OW32773   0.060   0.312   1.943 -0.1928  0.4621  0.1792
 7047SOL    HW132774   0.090   0.236   1.991  0.0203  0.8267  0.6253
 7047SOL    HW232775   0.132   0.322   1.882  1.2815  0.8086  1.9818
 7048SOL     OW32776   2.472   1.583   6.304  0.0207  0.2912  0.3357
 7048SOL    HW132777   2.496   1.498   6.268  0.5315 -0.0540  1.5231
 7048SOL    HW232778   2.540   1.609   6.367 -0.6672  2.3095  0.2507
 7049SOL     OW32779   1.067   0.152   2.284  0.5417 -0.5543  0.5351
 7049SOL    HW132780   1.149   0.173   2.328 -0.0798  3.2881 -0.0921
 7049SOL    HW232781   1.091   0.059   2.282 -1.1603 -1.0141  1.3728
 7050SOL     OW32782   0.663   4.513   4.797  0.1035  0.3351  0.0972
 7050SOL    HW132783   0.665   4.581   4.865  0.1638 -0.0452  0.4714
 7050SOL    HW232784   0.691   4.570   4.724  0.1836  1.1252  0.7445
 7051SOL     OW32785   0.897   4.146   6.970  0.0556 -0.0712 -0.0318
 7051SOL    HW132786   0.808   4.149   7.007 -0.6039 -1.8579 -1.4988
 7051SOL    HW232787   0.922   4.058   6.998  1.6899  0.9643  1.7853
 7052SOL     OW32788   0.738   0.109  17.455 -0.3984 -0.2042 -0.4584
 7052SOL    HW132789   0.768   0.178  17.395 -2.0185  0.0347 -0.9825
 7052SOL    HW232790   0.787   0.035  17.417 -3.4949 -1.8251 -1.3265
 7053SOL     OW32791   1.000   1.419   4.567  0.0260 -0.2295 -0.0623
 7053SOL    HW132792   1.032   1.449   4.652  1.1243  0.6037 -0.7624
 7053SOL    HW232793   1.072   1.436   4.506 -0.9457  1.5047 -0.7013
 7054SOL     OW32794   0.747   2.482   6.162  0.3062  0.1741 -0.3652
 7054SOL    HW132795   0.655   2.505   6.174  0.2996 -0.5006  0.8783
 7054SOL    HW232796   0.781   2.530   6.237 -2.6338 -1.2406  1.8346
 7055SOL     OW32797   1.616   3.639   9.503  0.3051  0.0071  0.4465
 7055SOL    HW132798   1.684   3.690   9.460 -1.2904  1.9850  0.2889
 7055SOL    HW232799   1.595   3.578   9.433  3.2168  0.5289 -0.8695
 7056SOL     OW32800   1.876   4.470   8.400 -0.1958  0.2220  0.3445
 7056SOL    HW132801   1.807   4.524   8.440 -0.5066 -1.4810  2.1288
 7056SOL    HW232802   1.950   4.512   8.444  0.6080  0.7326 -1.4972
 7057SOL     OW32803   0.143   1.001   7.947  0.0520 -0.2482 -0.1236
 7057SOL    HW132804   0.108   0.982   7.861  1.5773 -0.3295 -0.7264
 7057SOL    HW232805   0.114   0.920   7.991  2.4436 -0.6507  0.7338
 7058SOL     OW32806   3.529   2.880   4.155 -0.1878 -0.2948 -0.2423
 7058SOL    HW132807   3.550   2.891   4.062 -0.6289  0.3446 -0.2660
 7058SOL    HW232808   3.465   2.809   4.148 -0.9149  0.6505 -3.2682
 7059SOL     OW32809   2.994   4.629  12.348 -0.7374 -0.1611 -1.1268
 7059SOL    HW132810   3.050   4.699  12.313 -2.4392  1.2269 -1.0532
 7059SOL    HW232811   2.930   4.676  12.402  0.9154  2.7155 -1.6499
 7060SOL     OW32812   0.988   3.233   4.484  0.1026  0.2393  0.1603
 7060SOL    HW132813   1.073   3.194   4.504  0.6462  1.8167  0.9485
 7060SOL    HW232814   0.935   3.153   4.492  0.1880  0.1677  0.0038
 7061SOL     OW32815   2.688   1.141   2.288 -0.1513  0.2698  0.3837
 7061SOL    HW132816   2.722   1.230   2.292  2.3465 -0.7205  0.7424
 7061SOL    HW232817   2.766   1.089   2.304 -0.2007 -0.0760 -0.4771
 7062SOL     OW32818   0.949   1.182   6.093  0.1865  0.0199  0.5453
 7062SOL    HW132819   0.954   1.107   6.034  1.9969  0.7783 -0.2545
 7062SOL    HW232820   1.002   1.249   6.049 -2.6237  1.8155 -0.1000
 7063SOL     OW32821   0.312   2.089   2.243  0.2333 -0.0953 -0.1446
 7063SOL    HW132822   0.315   2.039   2.161  1.3675 -1.3363  0.6504
 7063SOL    HW232823   0.405   2.089   2.267 -0.1572  1.6620  1.4054
 7064SOL     OW32824   0.745   4.278   1.727 -0.5105 -0.4166 -0.3733
 7064SOL    HW132825   0.829   4.241   1.754 -0.1843  0.7311  0.1857
 7064SOL    HW232826   0.696   4.196   1.726  0.0913 -0.7625 -1.5184
 7065SOL     OW32827   1.614   0.508   4.957  0.6779 -0.4687  0.0331
 7065SOL    HW132828   1.632   0.451   4.883 -1.7985 -0.4779 -0.5597
 7065SOL    HW232829   1.691   0.565   4.950  0.6083 -0.3024  0.5958
 7066SOL     OW32830   0.160   0.180   8.143 -0.7511 -0.7104  0.2505
 7066SOL    HW132831   0.114   0.177   8.227  2.2313 -2.2243  1.8289
 7066SOL    HW232832   0.164   0.086   8.125  0.5351 -0.5627 -0.2251
 7067SOL     OW32833   3.362   2.434   4.573  0.3866  0.3263 -0.3213
 7067SOL    HW132834   3.303   2.483   4.515 -1.1682 -0.1916  0.8113
 7067SOL    HW232835   3.302   2.380   4.625 -0.0625  2.0395  0.9270
 7068SOL     OW32836   3.441   0.549  14.110 -0.3456  0.6084 -0.6588
 7068SOL    HW132837   3.396   0.545  14.195 -1.2206  5.7072 -0.8960
 7068SOL    HW232838   3.385   0.619  14.077 -1.8086 -0.5234 -0.5594
 7069SOL     OW32839   4.170   4.010   3.594  0.1762 -0.4374  0.1439
 7069SOL    HW132840   4.233   4.053   3.536 -1.0087  0.2204 -0.6528
 7069SOL    HW232841   4.225   3.997   3.671  1.6728  0.5374 -0.7576
 7070SOL     OW32842   0.208   4.172   1.546 -0.2083 -0.1692  0.3707
 7070SOL    HW132843   0.253   4.096   1.508 -0.0497  1.1385 -2.0685
 7070SOL    HW232844   0.181   4.213   1.463 -1.0372  0.9384  1.1967
 7071SOL     OW32845   0.580   1.065   4.163  0.3956 -0.2623 -0.2327
 7071SOL    HW132846   0.647   0.999   4.148  0.7641 -0.5126  2.5717
 7071SOL    HW232847   0.501   1.013   4.173  0.1078 -0.2296 -2.2628
 7072SOL     OW32848   1.710   1.371  11.945 -0.9777 -0.8082  0.6162
 7072SOL    HW132849   1.708   1.466  11.955 -2.3037 -0.8007  0.3480
 7072SOL    HW232850   1.775   1.353  12.013  2.0109  0.6875 -1.8661
 7073SOL     OW32851   0.803   3.747   2.606 -0.6951  0.4598 -0.3774
 7073SOL    HW132852   0.712   3.731   2.628 -0.9975  1.3830 -0.9462
 7073SOL    HW232853   0.833   3.661   2.635  0.3083 -0.2110 -3.3664
 7074SOL     OW32854   2.905   3.398   3.801 -0.0568  0.2413  0.4227
 7074SOL    HW132855   2.812   3.416   3.787  0.0981 -2.8325 -4.3660
 7074SOL    HW232856   2.894   3.307   3.774 -1.7753  1.1415 -1.9025
 7075SOL     OW32857   2.050   1.960  12.221 -0.1088 -0.3976 -0.0486
 7075SOL    HW132858   2.108   2.034  12.238 -1.1452  0.0575  1.4091
 7075SOL    HW232859   2.115   1.904  12.177 -0.0963  0.3282 -0.9480
 7076SOL     OW32860   3.460   0.863   3.114  0.1738 -0.0529  0.0868
 7076SOL    HW132861   3.551   0.836   3.125  0.2703  0.0496 -0.4597
 7076SOL    HW232862   3.443   0.920   3.189 -0.2883 -1.1461  0.8242
 7077SOL     OW32863   2.645   4.122   4.892  0.2164  0.3038  0.7728
 7077SOL    HW132864   2.594   4.074   4.958  1.0708 -0.1328  1.1192
 7077SOL    HW232865   2.663   4.198   4.947  1.7182  0.0104  0.6765
 7078SOL     OW32866   4.047   3.040   8.897 -0.3979 -0.0622 -0.1479
 7078SOL    HW132867   4.053   2.946   8.912 -0.7629 -0.5996 -3.2395
 7078SOL    HW232868   4.110   3.058   8.827  1.2000 -1.5817  0.9186
 7079SOL     OW32869   1.338   1.905   8.770  0.2690 -0.1627 -0.0802
 7079SOL    HW132870   1.405   1.964   8.735  0.1967  0.5044  0.9428
 7079SOL    HW232871   1.378   1.892   8.856  0.1185 -2.1742 -0.3092
 7080SOL     OW32872   1.046   0.255  11.954  0.2780 -0.3083 -0.6522
 7080SOL    HW132873   1.077   0.322  12.015 -2.1671 -0.2936  0.5870
 7080SOL    HW232874   1.019   0.184  12.013 -1.1035 -0.2262 -1.1706
 7081SOL     OW32875   0.528   2.502   9.510 -0.0103  0.0699 -0.2437
 7081SOL    HW132876   0.522   2.411   9.537  0.7416 -0.0121 -0.3466
 7081SOL    HW232877   0.508   2.499   9.416  0.0971  0.1964 -0.2710
 7082SOL     OW32878   3.481   4.303   9.715  0.5053 -0.2817  0.5418
 7082SOL    HW132879   3.456   4.242   9.646  1.0123 -0.5848  0.6273
 7082SOL    HW232880   3.397   4.348   9.727  0.1175 -0.8518 -0.0274
 7083SOL     OW32881   2.113   2.847   1.965 -0.0865 -0.0941  0.2600
 7083SOL    HW132882   2.057   2.818   2.037 -1.8951  1.3059 -0.6031
 7083SOL    HW232883   2.202   2.835   1.998 -0.6869 -1.1246  1.5173
 7084SOL     OW32884   1.433   1.659   8.495  0.5707 -0.1022 -0.3697
 7084SOL    HW132885   1.431   1.753   8.477  2.0177 -0.3273 -1.7316
 7084SOL    HW232886   1.494   1.664   8.568  0.2088 -0.4601 -0.0492
 7085SOL     OW32887   4.527   0.449  16.120  0.5769  0.4925  0.5538
 7085SOL    HW132888   4.505   0.356  16.116 -0.4476  0.7660 -0.2223
 7085SOL    HW232889   4.443   0.490  16.141  0.9773  0.5967  1.8982
 7086SOL     OW32890   2.381   3.031   1.888 -0.3942  0.3644 -0.0967
 7086SOL    HW132891   2.345   3.094   1.825 -2.5583 -1.0524 -0.2991
 7086SOL    HW232892   2.365   3.084   1.966 -0.7433  0.6798 -0.3800
 7087SOL     OW32893   0.043   3.960  12.456 -0.5253  0.0294  0.4550
 7087SOL    HW132894   4.694   3.977  12.487  0.1654  0.7960  2.0111
 7087SOL    HW232895   0.077   4.048  12.473 -0.5564 -0.0577  0.9607
 7088SOL     OW32896   0.805   3.253   0.568  0.0888  0.2400 -0.0393
 7088SOL    HW132897   0.816   3.348   0.567 -0.2655  0.2808 -0.0863
 7088SOL    HW232898   0.890   3.221   0.539  0.5249  0.3700  1.1167
 7089SOL     OW32899   0.698   2.194   2.077 -0.2667  0.2113  0.0816
 7089SOL    HW132900   0.652   2.167   2.157 -0.1083  0.9913  0.4378
 7089SOL    HW232901   0.647   2.153   2.007 -1.8636 -1.2953  2.1163
 7090SOL     OW32902   0.279   4.600  11.275 -0.1434 -0.7478  0.0620
 7090SOL    HW132903   0.324   4.629  11.355 -2.5132  0.7567  0.8666
 7090SOL    HW232904   0.324   4.647  11.205 -1.6162 -1.2845 -1.2399
 7091SOL     OW32905   1.076   1.133   6.631 -0.5957  0.3501 -0.7240
 7091SOL    HW132906   1.158   1.142   6.581  1.0379 -3.0131  1.3622
 7091SOL    HW232907   1.101   1.140   6.723 -0.7031  0.7644 -0.7274
 7092SOL     OW32908   3.857   2.761  11.471 -0.1914 -0.5322 -0.7109
 7092SOL    HW132909   3.826   2.683  11.518  0.9444  0.0969  1.1020
 7092SOL    HW232910   3.781   2.814  11.448 -1.4153 -2.8322 -1.9634
 7093SOL     OW32911   2.790   0.263   4.773 -0.4569 -0.3184 -0.3443
 7093SOL    HW132912   2.713   0.285   4.826 -0.3155 -4.3317  1.4973
 7093SOL    HW232913   2.772   0.321   4.698  1.3202 -1.7418 -1.8724
 7094SOL     OW32914   2.617   0.239   6.853  0.7701 -0.8829 -0.0390
 7094SOL    HW132915   2.608   0.220   6.946 -1.0003 -0.6635 -0.1609
 7094SOL    HW232916   2.652   0.327   6.866 -1.9296  0.1542  0.2953
 7095SOL     OW32917   0.583   0.364   8.225  0.1349 -0.0167 -0.2986
 7095SOL    HW132918   0.629   0.446   8.210  0.4719 -0.4014 -1.3348
 7095SOL    HW232919   0.569   0.341   8.133 -2.5625  0.9414 -0.1304
 7096SOL     OW32920   2.160   3.159   3.229 -0.3713 -0.5788  0.0880
 7096SOL    HW132921   2.082   3.145   3.175 -0.1139  0.6299 -0.5846
 7096SOL    HW232922   2.141   3.249   3.255  1.1871  0.1335 -1.2852
 7097SOL     OW32923   0.998   0.062  12.126 -0.6391  0.3494 -0.3326
 7097SOL    HW132924   1.000   4.706  12.136 -0.7163  0.2785 -0.9821
 7097SOL    HW232925   0.905   0.080  12.142 -1.0062 -2.3705  0.6102
 7098SOL     OW32926   4.586   3.779   4.782  0.5236  0.3637 -0.7691
 7098SOL    HW132927   4.674   3.743   4.793 -0.5493 -1.1590  2.7688
 7098SOL    HW232928   4.598   3.823   4.698 -0.7450  0.9635 -0.6384
 7099SOL     OW32929   2.814   2.442  17.145  0.1278 -0.0630 -0.4038
 7099SOL    HW132930   2.886   2.479  17.196  0.5624  1.0138 -1.7988
 7099SOL    HW232931   2.791   2.515  17.088 -1.5518  0.0605  0.4385
 7100SOL     OW32932   1.874   2.868   2.455 -0.4530 -0.3631  0.1617
 7100SOL    HW132933   1.786   2.903   2.467 -1.1547 -2.1288  0.1763
 7100SOL    HW232934   1.859   2.794   2.395  0.6124  0.9552 -1.7420
 7101SOL     OW32935   3.764   0.035   3.603 -0.4290  0.5106  0.6224
 7101SOL    HW132936   3.775   0.036   3.699 -2.0077  0.6270  0.7929
 7101SOL    HW232937   3.725   0.122   3.592 -1.2430  0.0082 -0.3737
 7102SOL     OW32938   0.740   2.121   8.280 -0.1374  0.2025 -0.0430
 7102SOL    HW132939   0.715   2.085   8.195 -0.0790 -1.4440  0.6508
 7102SOL    HW232940   0.788   2.047   8.316 -2.7591  0.0119  3.0649
 7103SOL     OW32941   1.288   4.706   6.987  0.0153  0.2911  0.7898
 7103SOL    HW132942   1.347   0.013   7.047  3.9796 -1.9685 -1.3482
 7103SOL    HW232943   1.325   4.618   6.985 -0.9817 -0.0674 -1.2714
 7104SOL     OW32944   1.832   4.345   5.333  0.0965 -0.0032 -0.8144
 7104SOL    HW132945   1.923   4.334   5.360 -1.2255 -3.6841  2.0019
 7104SOL    HW232946   1.802   4.345   5.424  1.4084 -1.4440 -0.3831
 7105SOL     OW32947   0.545   0.053   8.206 -0.0638 -0.3880 -0.3375
 7105SOL    HW132948   0.453   0.052   8.230 -0.4028 -1.9390 -1.6467
 7105SOL    HW232949   0.534   0.125   8.144 -0.2706 -0.2379 -0.1245
 7106SOL     OW32950   4.460   1.437   1.763 -0.2877  0.2622  0.0554
 7106SOL    HW132951   4.410   1.459   1.841  0.3601  1.1408  0.2207
 7106SOL    HW232952   4.482   1.519   1.719  0.4599  0.5382  0.9361
 7107SOL     OW32953   3.358   4.567   9.569  0.5001 -0.6599 -0.1824
 7107SOL    HW132954   3.434   4.510   9.556  1.9253  1.0739  0.4608
 7107SOL    HW232955   3.388   4.650   9.608  0.8344 -1.0224  0.3508
 7108SOL     OW32956   1.148   2.527   2.396 -0.3925  0.4220  0.7426
 7108SOL    HW132957   1.201   2.579   2.458  1.5066 -1.5707  0.7758
 7108SOL    HW232958   1.210   2.472   2.349  0.2740  1.9201 -0.1484
 7109SOL     OW32959   1.634   2.705   6.815  0.0796 -1.0099  0.6236
 7109SOL    HW132960   1.642   2.768   6.743 -0.8661  0.2415  1.6031
 7109SOL    HW232961   1.609   2.630   6.762 -0.6034 -1.6584  1.8606
 7110SOL     OW32962   2.905   1.954   5.710  0.7880 -0.2298  0.6438
 7110SOL    HW132963   2.931   1.914   5.627 -2.0177 -0.5294 -0.0853
 7110SOL    HW232964   2.919   2.049   5.701 -0.8549 -0.1508 -1.1277
 7111SOL     OW32965   3.572   3.848   6.416  0.4308  0.1643 -0.1696
 7111SOL    HW132966   3.604   3.937   6.400  0.0237 -0.4022 -4.0003
 7111SOL    HW232967   3.480   3.852   6.390 -0.1366 -0.6799  1.6802
 7112SOL     OW32968   1.071   4.144   5.553  0.3439  0.1409  0.6229
 7112SOL    HW132969   1.046   4.235   5.537 -1.3963 -0.2901  0.8587
 7112SOL    HW232970   1.162   4.149   5.525  0.4105 -0.7530  0.6764
 7113SOL     OW32971   1.931   1.578   5.586  0.0998  0.6430 -0.4074
 7113SOL    HW132972   1.972   1.626   5.514  0.5758 -1.1379 -1.3235
 7113SOL    HW232973   1.993   1.509   5.611 -2.6901 -1.5325  0.4466
 7114SOL     OW32974   1.867   0.296  15.159 -0.1136  0.3274 -0.0775
 7114SOL    HW132975   1.805   0.304  15.086  0.3877 -0.5527 -0.6105
 7114SOL    HW232976   1.949   0.327  15.119  0.8086 -0.8141  0.9027
 7115SOL     OW32977   4.012   1.878   3.581  0.3681  0.2012 -0.3451
 7115SOL    HW132978   4.018   1.808   3.647 -0.4764 -0.2510 -0.7500
 7115SOL    HW232979   4.025   1.951   3.642 -2.6810 -0.7715  1.4350
 7116SOL     OW32980   2.611   0.883   9.421 -0.1339  0.0738 -0.2551
 7116SOL    HW132981   2.652   0.797   9.414 -1.0647 -0.2332 -2.0475
 7116SOL    HW232982   2.587   0.890   9.513 -1.6582  2.3536 -0.8093
 7117SOL     OW32983   0.132   0.449   6.251  0.3290 -0.0189 -0.2209
 7117SOL    HW132984   0.090   0.428   6.334  0.8939 -1.3110 -0.2564
 7117SOL    HW232985   0.170   0.534   6.272 -4.5528  1.3478  2.9470
 7118SOL     OW32986   0.704   3.530   5.383  0.1073 -0.0049 -0.8554
 7118SOL    HW132987   0.780   3.533   5.440 -0.0215 -0.8818 -0.6459
 7118SOL    HW232988   0.706   3.442   5.345  1.6278 -0.7044  0.8619
 7119SOL     OW32989   4.686   2.236   6.790 -0.1560  0.0579  0.2791
 7119SOL    HW132990   0.010   2.256   6.858 -0.4188  1.3974  0.1456
 7119SOL    HW232991   4.611   2.290   6.818 -0.3794  0.7173 -1.5960
 7120SOL     OW32992   4.227   1.306  12.421 -0.2793 -0.1316  0.6050
 7120SOL    HW132993   4.250   1.213  12.429  0.5139 -0.1087 -1.2875
 7120SOL    HW232994   4.305   1.345  12.462  0.2882 -1.6340  0.9632
 7121SOL     OW32995   1.638   1.006   3.109 -0.2368  0.4324 -0.1666
 7121SOL    HW132996   1.552   1.046   3.125  0.1380 -0.0607  3.1092
 7121SOL    HW232997   1.646   0.996   3.014 -0.0777 -1.3530  0.0230
 7122SOL     OW32998   0.373   2.589   3.134  0.6239 -0.0097 -0.0652
 7122SOL    HW132999   0.424   2.654   3.086  1.6221  0.1230  1.1697
 7122SOL    HW233000   0.305   2.579   3.068  0.7966 -0.2887 -0.2016
 7123SOL     OW33001   2.251   2.408   8.523  0.0362 -0.4563  0.2783
 7123SOL    HW133002   2.259   2.503   8.513 -0.8147 -0.4368 -0.3137
 7123SOL    HW233003   2.179   2.401   8.586 -1.1160 -0.2105 -0.9840
 7124SOL     OW33004   4.199   2.242   2.889  0.2545 -0.3475 -0.4831
 7124SOL    HW133005   4.134   2.306   2.860 -0.3656 -1.0542 -0.6661
 7124SOL    HW233006   4.241   2.309   2.942  0.8657 -0.4242 -0.8739
 7125SOL     OW33007   0.804   3.640   2.287  0.1917 -0.2730  0.0367
 7125SOL    HW133008   0.858   3.637   2.366  0.7713 -1.4658 -0.3898
 7125SOL    HW233009   0.849   3.715   2.249  1.3706 -2.0456 -2.1324
 7126SOL     OW33010   2.280   4.405   0.585  0.4778  0.3131 -0.2476
 7126SOL    HW133011   2.275   4.488   0.539 -1.5801  1.1408  1.4980
 7126SOL    HW233012   2.260   4.353   0.507  2.4531 -0.2954 -0.3666
 7127SOL     OW33013   0.747   0.559   8.098 -0.5337  0.2753  0.3493
 7127SOL    HW133014   0.753   0.482   8.040 -2.0317 -0.7893  1.5968
 7127SOL    HW233015   0.728   0.630   8.037 -1.6180  0.6407  1.1124
 7128SOL     OW33016   4.060   4.084   4.540  0.2581 -0.0594  0.4292
 7128SOL    HW133017   4.113   4.014   4.503  1.9027  1.1629  0.4710
 7128SOL    HW233018   3.991   4.066   4.477 -0.0046 -0.2347  0.7620
 7129SOL     OW33019   3.069   1.937  14.803  0.2284 -0.1432 -0.6367
 7129SOL    HW133020   3.092   2.021  14.843  0.9711 -1.5899  1.9096
 7129SOL    HW233021   3.131   1.929  14.730 -0.2509  1.0140 -1.1757
 7130SOL     OW33022   0.563   1.763   8.176 -0.1460 -0.0600 -0.4696
 7130SOL    HW133023   0.569   1.688   8.236  0.6535  0.9006  0.6549
 7130SOL    HW233024   0.581   1.725   8.090 -0.6676  0.2184 -0.6955
 7131SOL     OW33025   2.562   4.409   1.187  0.1827  0.2008 -0.4041
 7131SOL    HW133026   2.532   4.447   1.105  1.0749 -1.0471 -1.3021
 7131SOL    HW233027   2.481   4.403   1.238  2.1559 -2.3394  2.4118
 7132SOL     OW33028   2.392   0.445   3.461  0.3944 -0.2094 -0.3470
 7132SOL    HW133029   2.466   0.411   3.410  2.0941  0.7389  1.5113
 7132SOL    HW233030   2.406   0.420   3.552  1.4890  2.0390  0.0958
 7133SOL     OW33031   2.430   3.410   2.253 -0.0927 -1.0985 -0.4684
 7133SOL    HW133032   2.443   3.331   2.200 -0.5721 -0.8002 -1.0306
 7133SOL    HW233033   2.337   3.403   2.275 -0.1362 -4.6539 -1.7875
 7134SOL     OW33034   0.615   2.349  15.034 -0.4491 -0.7028 -0.2084
 7134SOL    HW133035   0.615   2.433  14.988 -1.7381 -0.7585 -0.2952
 7134SOL    HW233036   0.684   2.298  14.992 -0.0606 -1.4844  1.3826
 7135SOL     OW33037   0.997   2.280  14.021  0.2709  0.3583  0.3152
 7135SOL    HW133038   1.015   2.323  13.938 -0.3142  0.5839  0.3011
 7135SOL    HW233039   1.078   2.278  14.072  0.8975  0.1884 -0.6984
 7136SOL     OW33040   3.337   1.094   6.761  0.3808  0.1260  0.9208
 7136SOL    HW133041   3.327   1.148   6.683 -2.4250 -0.5468  0.7998
 7136SOL    HW233042   3.382   1.015   6.730 -0.4684  0.1368 -0.3406
 7137SOL     OW33043   4.675   3.199  16.493  0.3440 -0.1992  0.2797
 7137SOL    HW133044   0.014   3.244  16.525 -0.8030  0.8584  1.6218
 7137SOL    HW233045   4.634   3.269  16.443  1.6076  0.1845 -0.1899
 7138SOL     OW33046   0.719   0.073   4.504  0.2420 -0.2843  0.6014
 7138SOL    HW133047   0.754   0.143   4.558 -2.1252  0.4453  1.1787
 7138SOL    HW233048   0.627   0.075   4.533 -0.0441 -3.1523 -0.0479
 7139SOL     OW33049   4.038   2.698   3.817 -0.6693 -0.1417  0.3824
 7139SOL    HW133050   4.100   2.766   3.843  1.5249 -0.8582 -2.8598
 7139SOL    HW233051   4.107   2.631   3.810  2.4602  3.1553 -0.0431
 7140SOL     OW33052   3.427   4.402  16.142 -0.3673 -0.2129  0.0680
 7140SOL    HW133053   3.460   4.378  16.055 -0.1309  1.3636 -0.2839
 7140SOL    HW233054   3.364   4.469  16.116 -0.5473  0.0868  1.3071
 7141SOL     OW33055   3.247   0.989   9.009 -0.4394 -0.6573  0.3151
 7141SOL    HW133056   3.334   1.019   8.984  0.1702 -2.2375  0.5374
 7141SOL    HW233057   3.192   1.061   8.978  1.8086  0.3811 -1.2509
 7142SOL     OW33058   4.346   2.022   1.420 -0.0384 -0.2930 -0.3542
 7142SOL    HW133059   4.371   2.005   1.511 -1.3018 -0.6303 -0.0628
 7142SOL    HW233060   4.293   2.101   1.431  1.6162  0.9221 -1.1792
 7143SOL     OW33061   2.086   2.205  13.682  0.7480  0.6428 -0.3130
 7143SOL    HW133062   1.992   2.188  13.686  0.9760 -0.9715 -2.0157
 7143SOL    HW233063   2.075   2.297  13.659  0.7104  0.5227 -0.7697
 7144SOL     OW33064   3.594   4.243   6.835 -0.7527  0.1118 -0.5675
 7144SOL    HW133065   3.503   4.213   6.833 -0.4259 -1.0197  1.5037
 7144SOL    HW233066   3.579   4.336   6.853 -0.4261  0.3969 -1.7576
 7145SOL     OW33067   3.130   0.017   7.685 -0.1487  0.0326 -0.1197
 7145SOL    HW133068   3.062   4.690   7.679 -0.5776  0.4305  0.3890
 7145SOL    HW233069   3.130   0.055   7.597  3.6886 -0.6892 -0.4201
 7146SOL     OW33070   2.628   0.364   3.917  0.2151 -0.1571  0.4559
 7146SOL    HW133071   2.606   0.396   4.004  2.2203  0.2660  0.7951
 7146SOL    HW233072   2.712   0.406   3.903  1.1297 -2.0824  0.0825
 7147SOL     OW33073   2.755   3.943   7.768 -0.3315 -0.2059 -0.0096
 7147SOL    HW133074   2.677   3.922   7.718 -0.2581  0.0336 -0.2206
 7147SOL    HW233075   2.733   4.018   7.823  0.2244 -0.1170  0.1014
 7148SOL     OW33076   3.654   1.298   5.849  0.8280 -0.2433 -0.2248
 7148SOL    HW133077   3.632   1.205   5.839 -1.5030  0.3953 -0.9071
 7148SOL    HW233078   3.673   1.319   5.757  0.5590 -0.5575 -0.3536
 7149SOL     OW33079   3.487   3.933   4.176  0.1647  0.2259 -0.2689
 7149SOL    HW133080   3.543   3.909   4.102 -0.7204 -3.8156  0.4177
 7149SOL    HW233081   3.432   3.855   4.172 -0.2265  0.5683 -1.8805
 7150SOL     OW33082   4.625   0.995   2.905  0.3147  0.0580 -0.7904
 7150SOL    HW133083   4.681   0.917   2.906  0.5518  0.2503  1.0323
 7150SOL    HW233084   4.626   1.021   2.813 -0.3267  1.3258 -0.4244
 7151SOL     OW33085   4.026   1.458   8.939 -0.2243  0.6228  0.4908
 7151SOL    HW133086   4.005   1.489   8.851  0.1217 -2.3999 -0.6447
 7151SOL    HW233087   3.976   1.377   8.941  1.4996 -0.4471  0.1807
 7152SOL     OW33088   4.491   4.628  16.682 -0.5602 -0.0323  0.1122
 7152SOL    HW133089   4.531   4.577  16.611 -4.8821 -1.9882 -0.9293
 7152SOL    HW233090   4.566   4.661  16.731 -1.6304 -1.7387  2.9445
 7153SOL     OW33091   0.701   2.912   4.242 -0.3088 -0.2592 -0.0476
 7153SOL    HW133092   0.683   2.824   4.212 -1.5997 -0.1275  0.3613
 7153SOL    HW233093   0.768   2.902   4.311  0.4570  1.1441 -0.5846
 7154SOL     OW33094   0.717   0.139   9.395 -0.1291 -0.2215  0.1551
 7154SOL    HW133095   0.661   0.070   9.430 -1.7258  0.8117 -0.3526
 7154SOL    HW233096   0.780   0.144   9.467 -1.3628 -2.2116  1.3703
 7155SOL     OW33097   3.119   1.042  13.308 -0.2411 -1.0756 -0.2328
 7155SOL    HW133098   3.200   1.065  13.353 -1.5776 -0.3982  1.8446
 7155SOL    HW233099   3.049   1.099  13.339  0.1921 -1.1655  0.9207
 7156SOL     OW33100   3.678   4.472  10.383  0.0012  0.1313 -0.5006
 7156SOL    HW133101   3.674   4.422  10.302  1.5960  2.6163 -2.1294
 7156SOL    HW233102   3.607   4.426  10.427  0.8199  3.0954  3.8959
 7157SOL     OW33103   1.882   3.138  10.872  0.6971  0.1277 -0.1688
 7157SOL    HW133104   1.976   3.154  10.882  0.8499 -1.0885  0.3749
 7157SOL    HW233105   1.871   3.125  10.778  1.5489 -1.5506 -0.0407
 7158SOL     OW33106   2.281   1.361   8.382  0.1930  0.0253  0.3666
 7158SOL    HW133107   2.302   1.425   8.314 -1.4336  0.6312  0.4533
 7158SOL    HW233108   2.373   1.344   8.404 -0.0684 -2.0598 -0.1910
 7159SOL     OW33109   4.727   0.203   7.305 -0.2382  0.0292  0.1379
 7159SOL    HW133110   0.021   0.282   7.262 -2.3129  1.3304  0.9401
 7159SOL    HW233111   0.042   0.133   7.268  1.3633  1.5167 -0.3477
 7160SOL     OW33112   3.853   1.040   4.782 -0.1033 -0.2072 -0.1391
 7160SOL    HW133113   3.780   1.068   4.727  1.3481  0.3710 -1.7763
 7160SOL    HW233114   3.820   1.063   4.869 -0.8731  0.3896 -0.5852
 7161SOL     OW33115   2.485   2.557   3.840 -0.3683  0.1856  0.0444
 7161SOL    HW133116   2.535   2.606   3.776  0.6338  1.2684  1.6764
 7161SOL    HW233117   2.550   2.545   3.909 -1.7432 -0.6448  1.2009
 7162SOL     OW33118   1.324   0.677   3.213  0.4041  0.3607 -0.1534
 7162SOL    HW133119   1.408   0.697   3.255  0.1226 -1.1279  1.1213
 7162SOL    HW233120   1.344   0.713   3.127  1.3125 -2.2316 -1.0247
 7163SOL     OW33121   4.703   2.282  14.394  0.5371 -0.0212  0.5293
 7163SOL    HW133122   4.712   2.303  14.301  0.6633  1.5081  0.8759
 7163SOL    HW233123   0.030   2.214  14.406 -0.9717 -1.3569  1.3048
 7164SOL     OW33124   2.620   2.487   5.117 -0.5193 -0.2671 -0.0017
 7164SOL    HW133125   2.593   2.506   5.027  0.1457  1.6422  0.2021
 7164SOL    HW233126   2.557   2.422   5.148  0.7248 -0.9084  1.1612
 7165SOL     OW33127   0.604   2.868   2.287 -0.1366 -0.1463  0.3046
 7165SOL    HW133128   0.660   2.880   2.364  0.5125  1.0850 -0.3524
 7165SOL    HW233129   0.598   2.956   2.249 -0.3686  0.0079  0.6989
 7166SOL     OW33130   0.557   0.558   4.423  0.5704  0.0436 -0.9297
 7166SOL    HW133131   0.473   0.522   4.394  0.3853 -0.7704  0.6453
 7166SOL    HW233132   0.613   0.482   4.405 -2.1718 -3.1095  3.9995
 7167SOL     OW33133   2.305   2.881   7.362  0.6700 -0.1743 -0.0846
 7167SOL    HW133134   2.344   2.862   7.447 -1.3872 -0.5428  0.7802
 7167SOL    HW233135   2.379   2.849   7.311 -0.9370 -0.0558 -2.4807
 7168SOL     OW33136   2.273   3.079   5.122  0.6749  0.0947 -0.0879
 7168SOL    HW133137   2.342   3.046   5.065 -0.5680 -3.2739  0.3589
 7168SOL    HW233138   2.249   3.007   5.180  1.9330  0.8985  1.4069
 7169SOL     OW33139   0.939   0.391   9.676 -0.4353  0.1680  0.1763
 7169SOL    HW133140   0.994   0.467   9.693 -0.0849 -0.0339 -0.0357
 7169SOL    HW233141   0.906   0.373   9.764 -0.4747  0.2791  0.1836
 7170SOL     OW33142   3.210   2.346  16.198 -0.5485 -0.0742  0.2988
 7170SOL    HW133143   3.158   2.312  16.125 -0.2924 -0.3005  0.2217
 7170SOL    HW233144   3.272   2.274  16.213 -0.9367 -0.3415  0.6175
 7171SOL     OW33145   4.319   4.089   7.841  0.2840  0.8426 -0.1161
 7171SOL    HW133146   4.250   4.089   7.776  0.5403  0.3841 -0.3914
 7171SOL    HW233147   4.353   4.179   7.842  0.6082  0.7176  0.1494
 7172SOL     OW33148   2.229   2.188  12.197 -0.5018 -0.2348  0.2709
 7172SOL    HW133149   2.152   2.242  12.210 -0.9425 -0.5278 -1.0878
 7172SOL    HW233150   2.286   2.210  12.270 -0.7204 -0.1026  0.3992
 7173SOL     OW33151   2.951   0.133   4.286 -0.3543 -0.0201 -0.0109
 7173SOL    HW133152   2.921   0.192   4.356 -0.5808 -0.0579 -0.0763
 7173SOL    HW233153   3.043   0.158   4.287 -0.4747  0.4191  0.7407
 7174SOL     OW33154   3.173   1.206   6.949  0.0589 -0.3017 -0.0497
 7174SOL    HW133155   3.167   1.300   6.929 -0.4533 -0.6348 -1.4652
 7174SOL    HW233156   3.222   1.169   6.875  0.8498 -0.0963  0.3743
 7175SOL     OW33157   2.120   2.632   0.438 -0.2332 -0.3518 -0.1594
 7175SOL    HW133158   2.083   2.585   0.363 -2.8601  0.0816  0.8975
 7175SOL    HW233159   2.110   2.723   0.410 -0.1808 -0.0514  0.8012
 7176SOL     OW33160   3.285   0.855   3.487  0.2586 -0.3082 -0.3940
 7176SOL    HW133161   3.315   0.936   3.445  2.2773 -0.0351  1.5442
 7176SOL    HW233162   3.192   0.863   3.504  0.2268  0.0215 -0.7172
 7177SOL     OW33163   4.065   2.780   8.158  0.1019 -0.1190 -0.1052
 7177SOL    HW133164   4.159   2.797   8.161 -0.1665  1.1225  1.2581
 7177SOL    HW233165   4.070   2.690   8.123  2.0426  0.5835 -1.6038
 7178SOL     OW33166   3.638   3.984  15.347 -0.6295  0.5611 -0.0836
 7178SOL    HW133167   3.662   4.059  15.292  3.9192 -0.9260 -0.1409
 7178SOL    HW233168   3.602   3.921  15.285 -1.8946  1.2473 -0.0521
 7179SOL     OW33169   0.759   0.985   3.047  0.4393 -0.4123 -0.1060
 7179SOL    HW133170   0.850   0.979   3.077  0.7194  0.0675 -0.8676
 7179SOL    HW233171   0.740   0.891   3.052 -2.8115  0.3050  1.2607
 7180SOL     OW33172   4.224   3.876   8.817 -0.6369  0.6877  0.0620
 7180SOL    HW133173   4.265   3.793   8.792 -0.2872  0.5600  1.0583
 7180SOL    HW233174   4.133   3.848   8.831  0.7640 -3.6945  0.5772
 7181SOL     OW33175   0.796   1.675   0.231  0.3336  0.2309 -0.3072
 7181SOL    HW133176   0.767   1.587   0.256 -0.5030  0.9054  1.1297
 7181SOL    HW233177   0.730   1.698   0.166  0.3945 -1.1490 -0.8474
 7182SOL     OW33178   3.939   0.103   2.185  0.4287  0.5666 -0.3967
 7182SOL    HW133179   3.936   0.083   2.092 -0.2476 -0.7826 -0.0878
 7182SOL    HW233180   3.849   0.079   2.208  0.6429 -1.2095 -1.4519
 7183SOL     OW33181   3.568   2.061   7.367  0.1229 -0.3655  0.0994
 7183SOL    HW133182   3.527   2.129   7.420  0.9114 -0.0862  0.3516
 7183SOL    HW233183   3.583   2.107   7.284  0.7311 -0.5793  0.0893
 7184SOL     OW33184   1.594   0.517   9.815 -0.4404  0.4874 -0.1506
 7184SOL    HW133185   1.634   0.527   9.729 -0.2995 -0.4116 -0.1912
 7184SOL    HW233186   1.534   0.443   9.808 -1.0628  0.7379  2.3473
 7185SOL     OW33187   2.787   3.971  15.844  0.1633 -0.7336 -0.2801
 7185SOL    HW133188   2.792   4.004  15.934  1.4144  0.5153 -0.8197
 7185SOL    HW233189   2.879   3.978  15.820  0.1440 -1.9471 -0.7173
 7186SOL     OW33190   2.549   4.460   6.374  0.3083 -0.7058 -0.0949
 7186SOL    HW133191   2.536   4.439   6.282  2.0469 -1.9804 -0.0467
 7186SOL    HW233192   2.632   4.417   6.394  1.1523  1.3547  0.8819
 7187SOL     OW33193   3.564   0.608   9.212 -0.3878  0.3584  0.2459
 7187SOL    HW133194   3.579   0.518   9.185  0.9148  1.2322 -1.8882
 7187SOL    HW233195   3.645   0.646   9.180 -0.8743  1.0782 -0.1462
 7188SOL     OW33196   0.021   0.785   4.803 -0.3281  0.1189  0.4549
 7188SOL    HW133197   0.038   0.826   4.888  0.1261 -2.2904  1.5479
 7188SOL    HW233198   4.716   0.704   4.829  0.7636 -1.7265 -3.4684
 7189SOL     OW33199   0.803   0.336   5.562 -0.4151  0.2697 -0.9773
 7189SOL    HW133200   0.790   0.334   5.657  4.0018  1.0548 -0.3343
 7189SOL    HW233201   0.807   0.244   5.538 -2.5448  0.2633 -1.2803
 7190SOL     OW33202   1.238   1.673  14.757 -0.4899  0.4353 -0.3015
 7190SOL    HW133203   1.196   1.736  14.816  0.1613  1.2515 -0.7021
 7190SOL    HW233204   1.325   1.663  14.795 -0.4987 -0.2516 -0.4747
 7191SOL     OW33205   1.610   3.239   2.444 -0.1777 -0.0063  0.2674
 7191SOL    HW133206   1.587   3.296   2.371 -0.7935 -0.4490  0.1224
 7191SOL    HW233207   1.593   3.158   2.396 -0.3912 -0.2948  0.8351
 7192SOL     OW33208   1.035   3.019   8.869 -0.5088 -0.0721 -0.6764
 7192SOL    HW133209   1.045   2.945   8.930 -0.1768  0.0803 -0.5486
 7192SOL    HW233210   0.954   3.063   8.897 -0.3984  0.9846 -2.0417
 7193SOL     OW33211   0.701   3.827  12.320  0.5599 -0.5416 -0.4995
 7193SOL    HW133212   0.634   3.894  12.307  1.2184  0.1964 -0.1514
 7193SOL    HW233213   0.715   3.789  12.233  2.8615 -1.1153  0.1186
 7194SOL     OW33214   4.634   3.844   4.499 -0.1572 -0.3822 -0.2005
 7194SOL    HW133215   4.702   3.809   4.443  0.3906  1.0139 -0.4158
 7194SOL    HW233216   4.566   3.866   4.435  0.8045  1.3806 -0.6156
 7195SOL     OW33217   1.655   3.839   2.590  0.5028  0.7078  0.3273
 7195SOL    HW133218   1.657   3.831   2.685 -2.7607 -1.7404  0.1953
 7195SOL    HW233219   1.723   3.905   2.577  1.4336 -0.4364 -0.6722
 7196SOL     OW33220   0.350   4.614   2.706  0.0046  0.3472 -0.4072
 7196SOL    HW133221   0.336   4.592   2.614 -3.2623  0.8577 -0.0075
 7196SOL    HW233222   0.264   4.610   2.747  0.3696  0.8781  0.4226
 7197SOL     OW33223   2.604   0.274   5.459 -0.0753  0.4837 -0.2358
 7197SOL    HW133224   2.531   0.328   5.428 -0.1326 -0.1300 -1.1639
 7197SOL    HW233225   2.667   0.288   5.388 -1.0095 -0.6694 -1.3039
 7198SOL     OW33226   3.816   3.055  11.623  0.1086  0.1352  0.3279
 7198SOL    HW133227   3.872   2.980  11.642  0.6115  0.4409  0.0437
 7198SOL    HW233228   3.802   3.094  11.709  0.8759 -0.0612  0.5405
 7199SOL     OW33229   2.122   1.685  15.874  0.4031 -0.4499 -0.3781
 7199SOL    HW133230   2.172   1.765  15.863 -1.8644  1.1595  1.0119
 7199SOL    HW233231   2.138   1.663  15.966 -1.3965  0.8545  0.2544
 7200SOL     OW33232   3.934   2.436  13.269 -0.1041  0.5723 -0.2111
 7200SOL    HW133233   3.909   2.525  13.242  0.8208  1.2907  1.3074
 7200SOL    HW233234   4.024   2.449  13.240  0.3499 -0.3687  0.7568
 7201SOL     OW33235   2.643   1.754   5.592 -0.1526 -0.1761  0.1953
 7201SOL    HW133236   2.676   1.844   5.596  2.2696 -0.9316 -2.9197
 7201SOL    HW233237   2.590   1.771   5.514 -0.2274 -0.2801  0.2249
 7202SOL     OW33238   3.622   0.101   1.646 -0.4079 -0.4816 -0.3487
 7202SOL    HW133239   3.619   0.083   1.552  1.1633  0.9166 -0.6726
 7202SOL    HW233240   3.547   0.153   1.673 -0.5762 -0.8037 -0.1992
 7203SOL     OW33241   3.711   0.888   6.963  0.3691  0.0002  0.5248
 7203SOL    HW133242   3.704   0.950   6.890 -0.6608  0.2054  0.7974
 7203SOL    HW233243   3.782   0.831   6.935  1.0841  0.4872  1.3529
 7204SOL     OW33244   2.822   3.206  11.901 -0.7999 -0.0251  0.0680
 7204SOL    HW133245   2.888   3.266  11.935 -0.7565 -0.8078  1.3904
 7204SOL    HW233246   2.767   3.196  11.979 -0.5211  0.4157  0.3183
 7205SOL     OW33247   3.964   3.243   0.208 -0.7842  0.2892 -0.2327
 7205SOL    HW133248   3.871   3.265   0.208 -0.4841  1.5976  0.8700
 7205SOL    HW233249   3.987   3.208   0.122 -2.6125  0.1769 -0.6749
 7206SOL     OW33250   3.909   1.874  14.407  0.1079  0.1493  0.1276
 7206SOL    HW133251   3.962   1.952  14.392 -0.4471  0.9056  2.0664
 7206SOL    HW233252   3.919   1.816  14.332 -1.4631 -1.2416  0.9825
 7207SOL     OW33253   1.067   3.292   0.951 -0.4768  0.2401  0.3886
 7207SOL    HW133254   0.979   3.253   0.958  0.7285 -2.0863  2.6400
 7207SOL    HW233255   1.079   3.321   1.042 -1.1223 -0.3293  0.6620
 7208SOL     OW33256   4.430   3.122   1.672  0.0078  0.2227  0.2876
 7208SOL    HW133257   4.478   3.122   1.755 -1.7353  0.5886  1.3191
 7208SOL    HW233258   4.380   3.040   1.674  0.8026 -0.3221 -2.8639
 7209SOL     OW33259   3.276   4.395  15.695 -0.6044 -0.0920 -0.0520
 7209SOL    HW133260   3.187   4.380  15.664 -0.7976 -0.4825  0.6934
 7209SOL    HW233261   3.288   4.320  15.754  0.8788  0.6919  0.6426
 7210SOL     OW33262   1.231   0.143   6.211  0.2451  0.7810  0.6988
 7210SOL    HW133263   1.140   0.145   6.240  0.4790  1.2159  1.4253
 7210SOL    HW233264   1.261   0.062   6.252  1.8116 -0.4235 -2.8592
 7211SOL     OW33265   3.032   3.520  15.013  0.2401 -0.4988 -0.7804
 7211SOL    HW133266   3.044   3.486  15.101 -2.4227 -1.4626 -0.7809
 7211SOL    HW233267   2.999   3.609  15.019  0.0211 -0.8498  2.7973
 7212SOL     OW33268   1.795   4.717   3.435 -0.3127 -0.3098 -0.4210
 7212SOL    HW133269   1.879   4.671   3.438 -0.3744 -0.4069 -0.1826
 7212SOL    HW233270   1.829   0.034   3.366  0.4987 -0.4231 -0.1227
 7213SOL     OW33271   3.191   0.501   9.149 -0.3292 -0.4771  0.0938
 7213SOL    HW133272   3.221   0.591   9.163  0.2026 -0.7695  0.8292
 7213SOL    HW233273   3.208   0.447   9.226  2.0824 -0.7727 -0.6415
 7214SOL     OW33274   4.017   0.221   9.136  0.1805  0.4471  0.1106
 7214SOL    HW133275   4.007   0.316   9.133  0.0194  0.2886 -3.5555
 7214SOL    HW233276   3.943   0.188   9.187  1.2599  0.8754  1.9734
 7215SOL     OW33277   1.093   0.529   8.330 -0.4810  0.0227 -1.3339
 7215SOL    HW133278   1.030   0.601   8.321 -0.4498  0.2299  0.0726
 7215SOL    HW233279   1.045   0.473   8.391 -0.2157  1.5203  0.2335
 7216SOL     OW33280   0.054   2.363   7.064  0.3721 -0.3121  0.1652
 7216SOL    HW133281   0.095   2.437   7.109  0.2595 -0.1869  0.0644
 7216SOL    HW233282   4.737   2.316   7.126 -1.1116  0.6966 -0.4203
 7217SOL     OW33283   2.581   1.068   8.311  0.5954 -0.0716  0.0725
 7217SOL    HW133284   2.611   1.053   8.401  0.6748  0.1348  0.0792
 7217SOL    HW233285   2.548   1.157   8.312 -1.4212 -0.8069 -0.9066
 7218SOL     OW33286   3.704   3.140   0.059  0.1411  0.2102 -0.2689
 7218SOL    HW133287   3.648   3.064   0.079 -0.3806  0.5440 -0.4572
 7218SOL    HW233288   3.711   3.117  17.721 -0.9705 -0.8080 -0.1142
 7219SOL     OW33289   3.963   2.804   2.641  0.9517 -0.4524  0.1009
 7219SOL    HW133290   3.878   2.846   2.656  1.1492  0.4262 -1.2733
 7219SOL    HW233291   3.984   2.765   2.726  0.9209 -1.8543 -0.5229
 7220SOL     OW33292   0.852   3.044   6.737 -0.2538 -0.6059 -0.8570
 7220SOL    HW133293   0.795   3.009   6.668 -3.2098  0.0454  1.2419
 7220SOL    HW233294   0.786   3.109   6.762  1.7327  1.4451 -0.9670
 7221SOL     OW33295   0.083   2.169   5.846  0.3606 -0.2292 -0.3573
 7221SOL    HW133296   0.162   2.201   5.890 -1.7566  0.7108  2.7224
 7221SOL    HW233297   0.013   2.202   5.902  1.5195 -1.7239  1.9372
 7222SOL     OW33298   4.087   4.115   8.904 -0.4392 -0.0127  0.0150
 7222SOL    HW133299   3.999   4.132   8.868  0.4417  0.8343 -1.7466
 7222SOL    HW233300   4.128   4.054   8.843  0.5544  1.7848 -1.1068
 7223SOL     OW33301   4.072   0.449   8.031  0.3466  0.0781  0.0232
 7223SOL    HW133302   4.154   0.400   8.027  0.9090  1.0125  0.1616
 7223SOL    HW233303   4.047   0.417   8.118 -0.3670 -1.3033 -0.6813
 7224SOL     OW33304   3.992   2.061   4.737  0.0420 -0.4341 -0.0944
 7224SOL    HW133305   4.081   2.092   4.720 -0.4821  0.3861 -1.3334
 7224SOL    HW233306   3.941   2.141   4.737  1.1393  0.2630  1.6109
 7225SOL     OW33307   2.121   0.236   7.019 -0.0659 -0.4997 -0.1706
 7225SOL    HW133308   2.195   0.177   7.005 -1.6919 -3.0770  2.1024
 7225SOL    HW233309   2.108   0.270   6.930 -0.4881  0.4133  0.2413
 7226SOL     OW33310   0.511   4.559   1.562 -0.2739 -0.3633 -0.5481
 7226SOL    HW133311   0.487   4.553   1.469 -2.4512  2.3504 -0.1736
 7226SOL    HW233312   0.448   4.500   1.603 -0.9325  0.5991 -0.1722
 7227SOL     OW33313   4.633   2.566  16.801 -0.1800  0.0228  0.3134
 7227SOL    HW133314   4.695   2.629  16.765  0.1193  0.0962  0.9641
 7227SOL    HW233315   4.658   2.483  16.761 -1.2229  0.3766 -1.1023
 7228SOL     OW33316   1.203   0.048   8.736 -1.2887 -0.3008  0.3036
 7228SOL    HW133317   1.237   4.728   8.803  2.6017  1.2330 -0.3310
 7228SOL    HW233318   1.121   0.073   8.778 -0.1809 -4.2703  4.8620
 7229SOL     OW33319   2.516   2.120   7.056 -0.0359  0.1709  0.0555
 7229SOL    HW133320   2.432   2.075   7.065  1.4897 -2.1679  2.5551
 7229SOL    HW233321   2.575   2.067   7.003  0.4588  1.1033 -0.3335
 7230SOL     OW33322   3.074   0.916   7.758  0.5030 -0.3889 -0.8881
 7230SOL    HW133323   3.030   0.861   7.693 -0.7563 -0.0710 -0.3068
 7230SOL    HW233324   3.062   0.854   7.830 -0.7936  2.3649  1.2798
 7231SOL     OW33325   1.307   3.730   3.014 -0.2470  0.4073  0.1936
 7231SOL    HW133326   1.401   3.746   3.022  0.0704 -2.8296  2.6970
 7231SOL    HW233327   1.278   3.791   2.946  1.1713  0.4847 -0.3559
 7232SOL     OW33328   2.328   1.875   8.596  0.6771 -0.1905  0.5487
 7232SOL    HW133329   2.286   1.954   8.562 -1.3847 -1.0023  1.2363
 7232SOL    HW233330   2.251   1.819   8.597  0.0867  0.5371 -3.5190
 7233SOL     OW33331   2.358   0.702   6.878  0.4731 -0.3020  0.3487
 7233SOL    HW133332   2.385   0.668   6.793 -0.4024 -1.7238  0.6408
 7233SOL    HW233333   2.280   0.753   6.858  1.4333  1.7134  1.6397
 7234SOL     OW33334   0.989   1.195   3.240  0.0456 -0.0525 -0.2267
 7234SOL    HW133335   0.948   1.129   3.297 -1.2716  0.4567 -0.5740
 7234SOL    HW233336   1.076   1.157   3.228  0.0329 -0.4826  0.9936
 7235SOL     OW33337   1.158   0.395   3.702  0.4831 -0.3042 -0.1554
 7235SOL    HW133338   1.246   0.412   3.668 -0.4401  0.6998 -2.0525
 7235SOL    HW233339   1.155   0.300   3.707 -0.0475 -0.2333  0.7865
 7236SOL     OW33340   4.300   3.281   7.679  0.1961  0.3598  0.6326
 7236SOL    HW133341   4.212   3.276   7.641  0.6103 -1.0875 -0.1490
 7236SOL    HW233342   4.359   3.337   7.630  0.8233 -2.7737 -2.2124
 7237SOL     OW33343   1.963   4.190   8.024 -0.4254 -0.0691 -0.0819
 7237SOL    HW133344   1.869   4.180   8.038 -0.2935 -0.4778  0.4953
 7237SOL    HW233345   1.987   4.120   7.964  2.7098 -1.1267  2.4330
 7238SOL     OW33346   4.100   1.620   1.852  0.5280 -0.1146  0.2088
 7238SOL    HW133347   4.181   1.586   1.891 -0.0641 -1.1567  0.5227
 7238SOL    HW233348   4.032   1.553   1.845 -2.6573  3.1388  0.2077
 7239SOL     OW33349   1.644   0.804   3.753 -0.0268 -0.6178  0.2376
 7239SOL    HW133350   1.596   0.833   3.675  0.3337 -0.9149 -0.0949
 7239SOL    HW233351   1.662   0.713   3.730 -1.1007  0.0199 -3.1764
 7240SOL     OW33352   3.258   0.634  15.142  0.2176  0.0466  0.3805
 7240SOL    HW133353   3.221   0.595  15.221 -0.1030 -1.1662 -0.3768
 7240SOL    HW233354   3.312   0.560  15.116  2.1450  1.7564 -0.5365
 7241SOL     OW33355   1.520   1.707   6.513 -0.1671 -0.0932  0.7988
 7241SOL    HW133356   1.442   1.762   6.503 -0.2054 -0.3268 -0.2070
 7241SOL    HW233357   1.586   1.775   6.524 -0.8894  0.6536  0.5601
 7242SOL     OW33358   3.098   1.091   2.012  0.2319  0.0129 -0.0651
 7242SOL    HW133359   3.029   1.157   2.015  0.9604  0.8253 -1.0227
 7242SOL    HW233360   3.082   1.053   1.926  0.6372 -1.8157  0.6776
 7243SOL     OW33361   2.541   4.469   5.854 -0.2898  0.1195 -0.2592
 7243SOL    HW133362   2.616   4.513   5.814 -1.8274  1.4515 -1.6701
 7243SOL    HW233363   2.509   4.425   5.775 -0.0812  1.0621 -0.8679
 7244SOL     OW33364   1.087   2.359   9.746 -0.2617 -0.6411  0.1989
 7244SOL    HW133365   1.145   2.377   9.671 -1.6876  0.2507 -0.6939
 7244SOL    HW233366   1.127   2.282   9.785 -1.1610 -0.1685  2.0448
 7245SOL     OW33367   2.960   1.480   7.166  0.1703  0.4260  0.6692
 7245SOL    HW133368   2.889   1.529   7.206 -1.9368 -0.1144 -2.4647
 7245SOL    HW233369   2.924   1.392   7.153 -0.8943  0.9386  0.2469
 7246SOL     OW33370   1.859   3.509   6.890 -0.3712 -0.3937 -0.1922
 7246SOL    HW133371   1.902   3.595   6.895 -0.7071 -0.1943 -0.8006
 7246SOL    HW233372   1.904   3.473   6.814  0.3531  1.4597 -0.6554
 7247SOL     OW33373   2.064   3.997  16.743 -0.7681  0.2641 -0.0851
 7247SOL    HW133374   1.984   4.029  16.702 -0.1391  2.5435  0.4437
 7247SOL    HW233375   2.030   4.000  16.833 -0.4400  2.2079 -0.0075
 7248SOL     OW33376   0.303   0.274   7.642 -0.1785 -0.2792 -0.5529
 7248SOL    HW133377   0.297   0.343   7.708 -1.4713 -1.4550  0.5908
 7248SOL    HW233378   0.215   0.295   7.609  0.4680 -0.9338 -2.6644
 7249SOL     OW33379   3.646   1.550   5.225 -0.4990 -1.0894  0.1426
 7249SOL    HW133380   3.639   1.496   5.147  1.9990 -2.0596  0.5779
 7249SOL    HW233381   3.648   1.480   5.290  1.0402  0.4051  1.7067
 7250SOL     OW33382   4.042   2.433   3.150  0.1731  0.3118  0.5186
 7250SOL    HW133383   3.990   2.362   3.113  0.3995 -0.0919  0.9715
 7250SOL    HW233384   4.133   2.415   3.125 -0.3438 -2.1133  0.3850
 7251SOL     OW33385   0.699   4.112   7.153 -0.4316  0.3212  0.0945
 7251SOL    HW133386   0.615   4.088   7.114 -0.7943 -0.9371  1.6557
 7251SOL    HW233387   0.686   4.207   7.149  0.5359  0.3585 -2.3194
 7252SOL     OW33388   4.338   3.592   9.874  0.8421 -0.3988  0.2215
 7252SOL    HW133389   4.315   3.503   9.900  3.7187 -0.0154  4.0449
 7252SOL    HW233390   4.422   3.614   9.915  0.4961  1.2233  0.0599
 7253SOL     OW33391   3.912   1.200  17.265  0.1906 -0.0363  0.2059
 7253SOL    HW133392   3.941   1.279  17.312  1.5183 -0.5168  0.1985
 7253SOL    HW233393   3.990   1.147  17.279  0.5386 -0.2172 -2.4434
 7254SOL     OW33394   3.787   0.191   4.536  0.4987 -0.2816  0.1180
 7254SOL    HW133395   3.814   0.169   4.447  0.5852  0.7376 -0.1057
 7254SOL    HW233396   3.744   0.273   4.514  1.9978  0.2869 -0.7074
 7255SOL     OW33397   2.513   0.438   7.788  0.1952  0.4915  0.5138
 7255SOL    HW133398   2.486   0.346   7.789 -2.1128  1.1608 -0.6362
 7255SOL    HW233399   2.436   0.483   7.822 -0.8368 -0.7348 -0.1842
 7256SOL     OW33400   3.327   3.788   6.645  0.1858  0.0661 -0.7042
 7256SOL    HW133401   3.373   3.711   6.612  0.4387 -0.3438  0.6058
 7256SOL    HW233402   3.250   3.753   6.690  0.5068 -0.5117 -0.6070
 7257SOL     OW33403   1.974   4.534   2.214  0.0467  0.1020  0.2630
 7257SOL    HW133404   2.008   4.576   2.293 -0.0638 -0.3066  0.5291
 7257SOL    HW233405   2.053   4.499   2.171 -0.2928  0.5283 -0.6998
 7258SOL     OW33406   4.196   1.909   2.267 -0.2510  0.4303  0.4765
 7258SOL    HW133407   4.222   1.817   2.276  0.8664  0.6629 -0.2707
 7258SOL    HW233408   4.164   1.926   2.355  0.7772 -1.3866  1.1917
 7259SOL     OW33409   3.147   0.696   0.195 -0.7786  0.3318  0.0949
 7259SOL    HW133410   3.084   0.745   0.141 -0.3407  0.9558  0.1452
 7259SOL    HW233411   3.174   0.759   0.262 -1.1306  0.3561  0.2155
 7260SOL     OW33412   4.020   1.565   2.294  0.2844 -0.3868 -0.4584
 7260SOL    HW133413   3.986   1.652   2.273  1.9755  0.0854 -1.2524
 7260SOL    HW233414   3.969   1.517   2.229  0.3378 -0.7882 -0.2037
 7261SOL     OW33415   1.374   4.587  11.116  0.0413 -0.6109  0.4810
 7261SOL    HW133416   1.463   4.622  11.115 -0.2631  0.1218 -1.1512
 7261SOL    HW233417   1.323   4.643  11.057  3.3277  0.5905 -1.2055
 7262SOL     OW33418   1.083   3.413   6.482 -0.3741  0.0144  0.4240
 7262SOL    HW133419   1.037   3.364   6.414  0.0016  1.0570 -0.5863
 7262SOL    HW233420   1.048   3.364   6.556  2.7812 -0.0054  1.9182
 7263SOL     OW33421   1.173   4.230  12.066  0.6193 -0.0463  0.0417
 7263SOL    HW133422   1.184   4.201  11.975 -0.9636 -0.3964 -0.0408
 7263SOL    HW233423   1.129   4.315  12.061 -2.7145 -1.8108 -0.6170
 7264SOL     OW33424   1.265   1.324  14.698  0.4243  0.6866  0.2131
 7264SOL    HW133425   1.347   1.354  14.660  1.0426  1.3531  2.1247
 7264SOL    HW233426   1.202   1.379  14.650  1.0121  0.6612 -0.5820
 7265SOL     OW33427   1.266   4.037   1.795  0.1586  0.0399 -0.7456
 7265SOL    HW133428   1.302   3.959   1.753  3.3167 -0.0856  2.1504
 7265SOL    HW233429   1.242   4.096   1.724  0.5769  2.9470  1.5009
 7266SOL     OW33430   0.643   3.680  10.715  0.3526  0.1519 -0.0426
 7266SOL    HW133431   0.651   3.697  10.809  0.2468  0.2627 -0.0531
 7266SOL    HW233432   0.724   3.719  10.681 -0.4292  1.5178 -0.3680
 7267SOL     OW33433   3.268   4.583  14.716 -0.4094 -0.3951  0.0632
 7267SOL    HW133434   3.291   4.523  14.787  1.5874 -1.0969 -1.1700
 7267SOL    HW233435   3.173   4.578  14.726 -0.4427  0.6200  0.2042
 7268SOL     OW33436   1.713   3.310   8.563 -0.0958 -0.2067 -0.2476
 7268SOL    HW133437   1.641   3.250   8.581  1.2482 -2.1277 -1.2383
 7268SOL    HW233438   1.667   3.364   8.498  0.9349 -1.1707 -1.7861
 7269SOL     OW33439   0.702   1.572   6.583  0.2075  0.8112 -0.5206
 7269SOL    HW133440   0.775   1.539   6.635  0.2492  1.3801 -0.2186
 7269SOL    HW233441   0.657   1.611   6.658 -1.6802  0.5583 -1.5087
 7270SOL     OW33442   0.142   4.550   4.371  0.6773 -0.1005 -0.2244
 7270SOL    HW133443   0.167   4.503   4.291  0.4932 -0.8691  0.1678
 7270SOL    HW233444   0.124   4.475   4.427  2.1773  0.7708  1.4387
 7271SOL     OW33445   1.479   3.470   4.517 -0.5023 -0.1522 -0.5970
 7271SOL    HW133446   1.498   3.553   4.562 -0.4521  0.4019 -1.6518
 7271SOL    HW233447   1.384   3.471   4.530 -0.3079  3.4204  0.5866
 7272SOL     OW33448   4.653   4.308  11.511 -0.1043  0.3011 -0.1575
 7272SOL    HW133449   4.704   4.382  11.541 -2.8112  1.4986  1.5093
 7272SOL    HW233450   4.697   4.299  11.426 -1.1497  0.1253 -0.6906
 7273SOL     OW33451   1.660   1.863  11.122 -0.0663 -0.2906  0.0190
 7273SOL    HW133452   1.571   1.897  11.116 -1.1940 -2.9953  1.6827
 7273SOL    HW233453   1.693   1.922  11.190  1.2816 -0.6165 -0.3461
 7274SOL     OW33454   0.395   2.757  16.490 -0.1437 -0.6086 -0.0511
 7274SOL    HW133455   0.397   2.798  16.576  0.1622 -0.6424 -0.0410
 7274SOL    HW233456   0.304   2.760  16.461 -0.3828  1.7956  0.9570
 7275SOL     OW33457   0.989   3.737   9.798 -0.1382 -0.1529  0.3389
 7275SOL    HW133458   1.070   3.711   9.755 -0.7195 -2.8138  0.8534
 7275SOL    HW233459   1.020   3.735   9.888  0.0668  0.6829  0.2927
 7276SOL     OW33460   2.709   2.012   2.972  0.4649  0.0565 -0.0642
 7276SOL    HW133461   2.620   2.030   2.940 -0.8157 -0.5516  3.1808
 7276SOL    HW233462   2.697   1.921   2.998  0.4862 -0.1338 -0.7078
 7277SOL     OW33463   1.496   4.005  14.415  0.2173  0.5572 -0.1950
 7277SOL    HW133464   1.425   4.058  14.380  0.5998  0.4583 -1.1266
 7277SOL    HW233465   1.514   4.066  14.486  0.8330 -0.4104  0.4834
 7278SOL     OW33466   3.221   2.694   0.879  0.1473  0.6709 -0.2762
 7278SOL    HW133467   3.224   2.667   0.971 -0.9862 -0.5864 -0.6023
 7278SOL    HW233468   3.128   2.704   0.856 -0.1929  0.2330  0.9124
 7279SOL     OW33469   1.271   0.372  15.316 -0.2632  0.3891  0.3048
 7279SOL    HW133470   1.275   0.302  15.250  0.7004  1.3046 -0.6034
 7279SOL    HW233471   1.331   0.432  15.271  0.1690 -1.0133 -0.9772
 7280SOL     OW33472   4.103   3.181   3.369 -0.6465 -0.0845  0.1118
 7280SOL    HW133473   4.055   3.264   3.370  0.0309  0.3014  0.4661
 7280SOL    HW233474   4.035   3.132   3.322  0.1125 -1.7362  0.7574
 7281SOL     OW33475   2.670   3.998   6.389  0.1124  1.1143  0.2221
 7281SOL    HW133476   2.578   4.020   6.401  0.0617  1.4073 -0.6902
 7281SOL    HW233477   2.681   3.947   6.469  0.4323 -0.3038 -0.7230
 7282SOL     OW33478   1.724   3.089  16.835 -0.9553 -0.1024  0.2043
 7282SOL    HW133479   1.744   2.996  16.821 -0.9618 -0.0521 -0.1576
 7282SOL    HW233480   1.630   3.089  16.851 -1.0535 -1.4900 -0.3577
 7283SOL     OW33481   1.220   1.487   8.261  0.1591 -0.5005  0.3062
 7283SOL    HW133482   1.316   1.484   8.261  0.1680 -0.2257  1.8984
 7283SOL    HW233483   1.197   1.506   8.352  0.2053  0.4661  0.1177
 7284SOL     OW33484   1.643   2.673   7.613 -0.3255 -0.9541 -0.1696
 7284SOL    HW133485   1.630   2.595   7.668 -1.6820 -0.3965  0.3043
 7284SOL    HW233486   1.643   2.634   7.525 -0.8055 -1.9351  0.2580
 7285SOL     OW33487   2.214   0.283   4.404  0.0416 -0.3796  0.0904
 7285SOL    HW133488   2.240   0.344   4.473 -3.0263  0.6073  0.3753
 7285SOL    HW233489   2.300   0.257   4.371  0.7973  0.6312  1.2400
 7286SOL     OW33490   0.148   1.566   3.942 -0.0208 -0.2222  0.3497
 7286SOL    HW133491   0.076   1.629   3.939  0.9441  0.7832 -1.9360
 7286SOL    HW233492   0.129   1.500   4.008 -0.6511 -1.9657 -1.5816
 7287SOL     OW33493   2.542   4.422   4.007  0.3379  0.3610  0.2199
 7287SOL    HW133494   2.519   4.483   4.077  0.8530  0.1271  0.5890
 7287SOL    HW233495   2.621   4.378   4.038  1.2054  1.5626 -0.3320
 7288SOL     OW33496   0.775   0.786   6.026 -0.3377  0.3015  0.1031
 7288SOL    HW133497   0.805   0.723   5.961  0.0055 -0.8347  1.3902
 7288SOL    HW233498   0.806   0.871   5.993  1.7375 -0.1161  1.0453
 7289SOL     OW33499   0.945   3.410   4.802  0.0065 -0.5865  0.4786
 7289SOL    HW133500   0.878   3.391   4.736 -1.7058  1.5392  1.5989
 7289SOL    HW233501   1.001   3.464   4.745 -0.3535 -1.2225 -0.4722
 7290SOL     OW33502   0.408   1.573   8.572  0.7618  0.0242 -1.1448
 7290SOL    HW133503   0.435   1.656   8.533  0.4036  0.1820 -1.0627
 7290SOL    HW233504   0.347   1.550   8.502 -1.0686 -0.6417  0.6447
 7291SOL     OW33505   0.456   3.962   4.204 -0.1617  0.1575  0.0217
 7291SOL    HW133506   0.544   3.982   4.233  0.0508 -3.1451  1.5843
 7291SOL    HW233507   0.440   3.998   4.116 -1.1253  0.5537  0.3513
 7292SOL     OW33508   2.524   1.232   9.402  0.0109 -0.4071  0.6599
 7292SOL    HW133509   2.459   1.164   9.385 -1.0983  0.7272  0.4067
 7292SOL    HW233510   2.608   1.213   9.359  0.0706 -1.5226  1.2500
 7293SOL     OW33511   3.007   4.156   5.086  0.1812 -0.0085 -0.0728
 7293SOL    HW133512   3.069   4.171   5.157  0.9220  0.4026 -0.8082
 7293SOL    HW233513   2.946   4.226   5.111 -0.0519  0.1092 -0.9691
 7294SOL     OW33514   4.642   1.717   2.712 -0.5857  0.1349 -0.1593
 7294SOL    HW133515   4.554   1.694   2.684  0.3723 -1.6685 -1.6502
 7294SOL    HW233516   4.643   1.810   2.687  1.1918 -0.1794 -1.3192
 7295SOL     OW33517   2.928   4.138   6.548  0.1091 -0.6218 -0.2041
 7295SOL    HW133518   2.990   4.068   6.567 -1.5307 -1.9099  0.4501
 7295SOL    HW233519   2.995   4.200   6.520  1.2775 -1.1159  1.5157
 7296SOL     OW33520   3.157   2.187   5.216 -0.4773 -0.1489 -0.2929
 7296SOL    HW133521   3.210   2.117   5.254 -1.7906 -0.4161  1.0093
 7296SOL    HW233522   3.181   2.258   5.276 -0.6490  0.2485 -0.6961
 7297SOL     OW33523   4.374   2.880  13.328  0.4280  0.0147  0.1312
 7297SOL    HW133524   4.376   2.896  13.422 -1.8076 -1.6717  0.4754
 7297SOL    HW233525   4.400   2.788  13.321  0.6617 -0.2352  4.0643
 7298SOL     OW33526   0.677   1.590   0.746  0.2864  0.1437  0.0258
 7298SOL    HW133527   0.752   1.649   0.738 -2.2426  3.1766 -1.2978
 7298SOL    HW233528   0.658   1.598   0.840 -0.1824  0.9232 -0.1419
 7299SOL     OW33529   1.272   4.461  14.273 -0.5258  0.4834  0.1741
 7299SOL    HW133530   1.244   4.403  14.202 -1.9956  1.6184 -0.1948
 7299SOL    HW233531   1.218   4.541  14.273  0.4069  1.1101 -0.0551
 7300SOL     OW33532   1.550   2.115   7.587 -0.2598 -0.1345 -0.1095
 7300SOL    HW133533   1.602   2.062   7.526 -1.9759 -3.3589  1.2753
 7300SOL    HW233534   1.478   2.137   7.528 -1.5720 -1.2889  1.0868
 7301SOL     OW33535   0.161   2.984   1.838  0.6930  0.4057  0.0146
 7301SOL    HW133536   0.082   2.987   1.785  0.1981  0.4163  0.7521
 7301SOL    HW233537   0.205   2.901   1.817  0.6180 -0.0558  1.7058
 7302SOL     OW33538   2.614   4.714   0.206  0.5848 -0.2840 -0.6387
 7302SOL    HW133539   2.637   4.623   0.189 -0.0434 -0.5818  0.0727
 7302SOL    HW233540   2.702   0.011   0.218  0.2395  1.0044 -2.0793
 7303SOL     OW33541   1.423   3.209  12.607 -0.1718  0.0289 -0.3507
 7303SOL    HW133542   1.430   3.299  12.576 -0.4093 -0.0810 -0.7236
 7303SOL    HW233543   1.376   3.217  12.690 -0.1004  1.5806 -0.4601
 7304SOL     OW33544   0.823   3.440   2.586 -0.2458  0.4999  0.5859
 7304SOL    HW133545   0.907   3.457   2.629  0.2944 -0.3264 -0.1471
 7304SOL    HW233546   0.870   3.424   2.504  0.7836 -0.9010  1.4613
 7305SOL     OW33547   0.339   1.896   2.022 -0.2670  0.4806 -0.3333
 7305SOL    HW133548   0.426   1.872   1.991 -0.6576  0.8053 -1.6616
 7305SOL    HW233549   0.313   1.831   2.088 -1.3815  0.2432 -1.0055
 7306SOL     OW33550   0.460   1.001   8.370 -0.5425  0.2271 -0.1521
 7306SOL    HW133551   0.448   0.967   8.281 -0.2891  0.3705 -0.2406
 7306SOL    HW233552   0.369   1.023   8.390 -1.4370 -2.5900 -1.0686
 7307SOL     OW33553   1.949   2.725   7.831  0.1504 -0.2799 -0.4909
 7307SOL    HW133554   1.985   2.716   7.920  2.0594  1.1372 -1.1257
 7307SOL    HW233555   1.950   2.820   7.820  0.7721 -0.0786  1.2649
 7308SOL     OW33556   3.708   0.257  11.489 -0.1543 -0.5652 -0.0728
 7308SOL    HW133557   3.722   0.274  11.396  1.3492 -1.0131  0.0555
 7308SOL    HW233558   3.784   0.200  11.504  0.6287  0.3557 -0.5249
 7309SOL     OW33559   0.091   3.670  11.684  0.0999  0.4688 -0.2622
 7309SOL    HW133560   0.073   3.754  11.641 -2.8600  0.1424  0.3427
 7309SOL    HW233561   0.140   3.711  11.755  0.0607  0.7967 -0.4229
 7310SOL     OW33562   2.247   1.520  11.490  0.0758 -0.1784  0.0824
 7310SOL    HW133563   2.294   1.441  11.466 -1.8608 -1.2548 -0.1996
 7310SOL    HW233564   2.219   1.544  11.402  0.1860  1.0765  0.3794
 7311SOL     OW33565   0.711   4.407   5.205 -0.4525  0.1559  0.1379
 7311SOL    HW133566   0.681   4.432   5.292 -3.5060 -0.9540 -0.5546
 7311SOL    HW233567   0.622   4.413   5.170 -0.2630  0.3971 -0.3032
 7312SOL     OW33568   2.289   4.197   7.082  0.2888  0.4287 -0.3645
 7312SOL    HW133569   2.323   4.269   7.029  1.2471 -0.6876 -1.2656
 7312SOL    HW233570   2.342   4.123   7.050 -0.8647 -0.1406 -0.9442
 7313SOL     OW33571   3.247   2.494   8.697 -0.1734  0.7459 -0.0115
 7313SOL    HW133572   3.171   2.550   8.715 -0.4391  0.2738  0.3374
 7313SOL    HW233573   3.312   2.542   8.747  1.2692  1.1667 -2.3080
 7314SOL     OW33574   3.296   0.613   1.983  0.0675 -0.0647  0.3052
 7314SOL    HW133575   3.341   0.696   1.999  0.0814  0.3002 -1.5725
 7314SOL    HW233576   3.265   0.605   2.073 -0.2062 -1.4543  0.0925
 7315SOL     OW33577   0.889   2.591   2.441 -0.3541 -0.3751 -0.2199
 7315SOL    HW133578   0.963   2.533   2.425 -0.1123 -0.0508 -0.2750
 7315SOL    HW233579   0.816   2.536   2.413  0.3173 -0.3675 -1.9677
 7316SOL     OW33580   3.252   1.227   6.256 -0.8365  0.2105  0.4593
 7316SOL    HW133581   3.202   1.148   6.237  1.2222 -1.0553  0.3799
 7316SOL    HW233582   3.227   1.272   6.175  2.6410  3.8109  1.3825
 7317SOL     OW33583   0.663   0.142   9.804  0.0543 -0.2966  0.2352
 7317SOL    HW133584   0.682   0.072   9.742 -1.0088 -0.4880  0.1338
 7317SOL    HW233585   0.570   0.155   9.786  0.3851  0.7315 -0.7354
 7318SOL     OW33586   3.282   4.640   8.056  0.5681 -0.3944  0.3762
 7318SOL    HW133587   3.191   4.640   8.024  0.4366  4.3689  0.8505
 7318SOL    HW233588   3.284   4.730   8.089 -2.1749 -1.1388  2.6114
 7319SOL     OW33589   3.017   4.381   3.699 -0.2039 -0.1767  0.1977
 7319SOL    HW133590   2.940   4.336   3.664  0.4642 -1.6504  0.6282
 7319SOL    HW233591   2.988   4.411   3.785 -0.7545  0.2802 -0.1466
 7320SOL     OW33592   0.497   0.399  17.283  0.2338  0.0238  0.2027
 7320SOL    HW133593   0.537   0.314  17.265 -1.2116 -0.1299 -2.3251
 7320SOL    HW233594   0.440   0.413  17.208  0.4687  1.0351  0.2048
 7321SOL     OW33595   1.263   3.705  17.462 -0.0151  0.2509 -0.1695
 7321SOL    HW133596   1.315   3.700  17.381  0.7955 -1.8472  0.4798
 7321SOL    HW233597   1.330   3.721  17.529  0.6798  1.4615 -1.1390
 7322SOL     OW33598   1.940   2.512   5.093 -0.5775 -0.0528 -0.6674
 7322SOL    HW133599   1.888   2.589   5.070  1.2366  0.8531 -1.7081
 7322SOL    HW233600   2.025   2.555   5.084 -1.3357  1.5109 -0.4172
 7323SOL     OW33601   0.574   3.501   2.284 -0.1794 -0.4688  0.1160
 7323SOL    HW133602   0.642   3.569   2.291 -0.1699 -0.2844 -1.7443
 7323SOL    HW233603   0.565   3.494   2.189  2.5189  0.7744 -0.2359
 7324SOL     OW33604   2.577   1.525   0.763  0.0376 -0.3065 -0.3485
 7324SOL    HW133605   2.605   1.557   0.678  0.6271 -0.2835 -0.1427
 7324SOL    HW233606   2.491   1.567   0.761  0.1335 -0.0038  2.2179
 7325SOL     OW33607   2.938   4.531   8.936 -0.3101  0.1144  0.1529
 7325SOL    HW133608   2.865   4.553   8.993 -1.1788  2.2982 -1.8034
 7325SOL    HW233609   3.017   4.570   8.976 -1.5642  1.4274  1.3630
 7326SOL     OW33610   2.219   3.744   3.806  0.2736  0.0646 -0.5070
 7326SOL    HW133611   2.155   3.693   3.756 -0.5142 -0.1581  0.7455
 7326SOL    HW233612   2.161   3.820   3.816  3.1996  2.3904 -1.1665
 7327SOL     OW33613   4.587   4.301   8.093  0.2816 -0.1354 -0.1171
 7327SOL    HW133614   4.564   4.230   8.154  0.2135 -3.2187 -3.7719
 7327SOL    HW233615   4.507   4.354   8.095  1.3913  1.5046  1.7637
 7328SOL     OW33616   1.322   3.882   7.007  0.3126  0.3633 -0.2272
 7328SOL    HW133617   1.230   3.902   6.996  0.5658  0.2264 -2.4804
 7328SOL    HW233618   1.335   3.817   6.939  1.5374  0.1505  0.2010
 7329SOL     OW33619   3.087   0.131  12.267  0.1765  0.2894  0.5614
 7329SOL    HW133620   3.001   0.174  12.268 -0.2698 -0.6440  2.2822
 7329SOL    HW233621   3.138   0.193  12.319  0.9405 -0.3933  0.6148
 7330SOL     OW33622   4.110   3.886   1.645 -0.3399  0.2215 -0.3857
 7330SOL    HW133623   4.053   3.963   1.650 -1.0261 -0.3102 -0.0566
 7330SOL    HW233624   4.055   3.832   1.702 -0.2824 -0.4108 -0.9285
 7331SOL     OW33625   0.920   0.663   3.985 -0.0987  0.2802  0.8588
 7331SOL    HW133626   1.001   0.629   4.022  0.3468 -0.1914 -0.5650
 7331SOL    HW233627   0.949   0.671   3.894  1.9386 -1.4511  1.3746
 7332SOL     OW33628   3.495   4.114   2.685 -0.1886  0.0047  0.5548
 7332SOL    HW133629   3.452   4.086   2.604 -2.1735  1.8996  0.9583
 7332SOL    HW233630   3.459   4.203   2.681 -0.2951 -0.1292 -1.4504
 7333SOL     OW33631   2.276   1.316   4.696  0.1127  0.5933  0.1663
 7333SOL    HW133632   2.218   1.315   4.620  0.5302  3.6634 -0.1792
 7333SOL    HW233633   2.302   1.224   4.693 -0.4852  0.5236 -2.4833
 7334SOL     OW33634   0.314   0.757   6.759 -0.7333 -0.5632 -0.8545
 7334SOL    HW133635   0.404   0.779   6.785 -0.3686 -0.3692 -2.2624
 7334SOL    HW233636   0.279   0.844   6.738  0.0080 -0.0222  0.1421
 7335SOL     OW33637   0.674   2.138  14.830 -0.3272 -0.1242 -0.2443
 7335SOL    HW133638   0.648   2.092  14.910 -1.4481 -1.2660 -1.2764
 7335SOL    HW233639   0.615   2.093  14.770 -0.5520 -1.5591  1.0508
 7336SOL     OW33640   0.508   2.970   3.385  0.0342  0.3432 -0.3457
 7336SOL    HW133641   0.590   2.964   3.435  0.3162  2.8941 -0.4960
 7336SOL    HW233642   0.508   3.065   3.369 -0.0521  0.3537 -0.2843
 7337SOL     OW33643   2.107   1.824  14.784  0.1066  0.3212  0.1366
 7337SOL    HW133644   2.032   1.829  14.724 -0.1743 -0.2588  0.4419
 7337SOL    HW233645   2.158   1.754  14.744  1.0272 -0.3750  2.5325
 7338SOL     OW33646   3.985   2.108   3.417  0.1067  0.4051 -0.1595
 7338SOL    HW133647   3.971   2.032   3.474  1.0591  0.3029 -0.0640
 7338SOL    HW233648   3.932   2.177   3.457 -1.4878 -0.6586 -0.4003
 7339SOL     OW33649   0.571   0.730   1.970 -0.3689 -0.5433  0.0634
 7339SOL    HW133650   0.505   0.736   1.901 -0.3560  0.6634  0.1649
 7339SOL    HW233651   0.527   0.662   2.023 -0.0192  0.0515  1.1161
 7340SOL     OW33652   2.299   0.877   8.891 -0.9176 -0.0709  0.1882
 7340SOL    HW133653   2.365   0.876   8.960 -2.0685  1.5835  1.2969
 7340SOL    HW233654   2.219   0.903   8.936  0.1766  0.5101  1.7560
 7341SOL     OW33655   2.451   2.859   3.640 -0.5190 -0.0848  0.2704
 7341SOL    HW133656   2.378   2.902   3.596 -1.5432 -2.4642 -0.3224
 7341SOL    HW233657   2.427   2.887   3.728 -0.1220  3.5160 -0.7543
 7342SOL     OW33658   3.338   4.699  12.564 -0.7133  0.7370  0.0897
 7342SOL    HW133659   3.392   0.027  12.605 -0.1627 -0.2015  0.8839
 7342SOL    HW233660   3.271   0.014  12.521 -1.3480  0.1837  0.3758
 7343SOL     OW33661   2.434   4.517   0.985  0.1691 -1.0448  0.1977
 7343SOL    HW133662   2.460   4.600   0.944 -0.7778  0.2003  2.1264
 7343SOL    HW233663   2.339   4.524   0.984  0.1372 -1.5558 -0.0994
 7344SOL     OW33664   4.173   1.965   7.531  0.1765 -0.0652  0.1802
 7344SOL    HW133665   4.263   1.995   7.520  0.2803 -0.1125  0.8940
 7344SOL    HW233666   4.130   2.044   7.498 -0.6794 -0.1245  1.1383
 7345SOL     OW33667   2.015   0.077   8.694 -0.4514  0.4171 -0.5859
 7345SOL    HW133668   1.975   0.161   8.671  0.8545  1.4268  0.8526
 7345SOL    HW233669   1.951   0.011   8.668 -0.6752 -0.1772  1.4929
 7346SOL     OW33670   1.203   3.649   1.428 -0.2109  0.0634 -0.1890
 7346SOL    HW133671   1.252   3.731   1.418  1.2517 -1.1454 -2.9918
 7346SOL    HW233672   1.121   3.691   1.403 -0.2791 -0.9649 -1.7037
 7347SOL     OW33673   3.148   0.519   6.724 -0.2022  0.5410  0.4580
 7347SOL    HW133674   3.160   0.425   6.732 -3.4211  0.1018 -0.2727
 7347SOL    HW233675   3.232   0.544   6.763 -0.6224  0.5411  1.3518
 7348SOL     OW33676   2.352   4.101  11.112 -0.6594  0.1540 -0.1754
 7348SOL    HW133677   2.272   4.114  11.162  0.1052  0.8006  0.8839
 7348SOL    HW233678   2.370   4.188  11.078  1.9119 -0.2848  0.0690
 7349SOL     OW33679   1.258   4.554   6.184 -0.5467 -0.2979  0.1791
 7349SOL    HW133680   1.346   4.555   6.147 -0.3317 -0.3469  0.6897
 7349SOL    HW233681   1.210   4.581   6.106 -1.3246  1.3340  1.2285
 7350SOL     OW33682   3.392   2.367   2.563 -0.4149  0.4215 -1.2866
 7350SOL    HW133683   3.318   2.343   2.618 -1.1289  0.0812 -2.3951
 7350SOL    HW233684   3.423   2.285   2.525 -1.7613 -1.1354  1.0026
 7351SOL     OW33685   4.146   1.193  17.585  0.5993 -0.1731 -0.3777
 7351SOL    HW133686   4.132   1.169  17.494  0.6677 -1.9029  0.0663
 7351SOL    HW233687   4.105   1.129  17.644  1.3682  0.3477  0.7237
 7352SOL     OW33688   0.579   0.213   1.783  0.3075  0.4075 -0.2437
 7352SOL    HW133689   0.649   0.191   1.721 -1.3396 -1.1182 -1.5459
 7352SOL    HW233690   0.516   0.256   1.725 -0.8547  0.6222  1.1827
 7353SOL     OW33691   4.027   1.823   4.916 -0.5395 -0.1719 -0.5637
 7353SOL    HW133692   3.971   1.860   4.984  0.4897  0.1879  0.0788
 7353SOL    HW233693   4.020   1.892   4.850 -0.5602  0.8603  0.5111
 7354SOL     OW33694   2.210   2.085   8.147 -0.1388 -0.5887  0.0611
 7354SOL    HW133695   2.193   1.999   8.108 -0.8934 -0.0250 -0.8733
 7354SOL    HW233696   2.254   2.125   8.072 -0.1528 -1.1863 -0.2637
 7355SOL     OW33697   3.185   3.419  12.605  0.3834  0.4643  0.2380
 7355SOL    HW133698   3.140   3.334  12.600 -1.5150  1.4322  0.7470
 7355SOL    HW233699   3.238   3.408  12.526  1.0157 -0.9477  0.8603
 7356SOL     OW33700   3.167   0.812   8.795 -0.0130  0.2704  0.4301
 7356SOL    HW133701   3.216   0.738   8.831 -0.0960 -0.3000 -0.6393
 7356SOL    HW233702   3.187   0.878   8.861 -0.4705  0.5000  0.3440
 7357SOL     OW33703   0.790   3.186  12.409  0.1767 -0.2948  0.1775
 7357SOL    HW133704   0.849   3.250  12.449 -2.4521  1.8598  0.6068
 7357SOL    HW233705   0.733   3.228  12.345 -1.0070 -0.1768  1.3024
 7358SOL     OW33706   1.919   2.926   5.701  0.0311  0.2251  0.5212
 7358SOL    HW133707   1.964   2.843   5.685  0.2929  0.5458 -0.3956
 7358SOL    HW233708   1.852   2.926   5.632  1.3484 -0.0134 -0.7645
 7359SOL     OW33709   4.147   3.573   3.937 -0.5181  0.1841  0.3608
 7359SOL    HW133710   4.068   3.599   3.890 -1.5984 -1.9282  1.0309
 7359SOL    HW233711   4.146   3.483   3.904 -0.6518  0.5430 -0.6384
 7360SOL     OW33712   3.411   3.113  12.772  0.1493  0.0765 -0.0916
 7360SOL    HW133713   3.443   3.058  12.844  0.4470 -0.2885 -0.5090
 7360SOL    HW233714   3.445   3.077  12.690 -0.2577  0.1344 -0.2855
 7361SOL     OW33715   3.128   3.038   1.843  0.2055 -0.4397 -0.2801
 7361SOL    HW133716   3.129   2.957   1.893  2.1248 -1.5799 -2.1897
 7361SOL    HW233717   3.222   3.053   1.831  0.2454 -0.8947 -0.5267
 7362SOL     OW33718   3.116   2.512   1.718 -0.1955 -0.1890  0.0728
 7362SOL    HW133719   3.163   2.440   1.760  3.2467  1.2879 -1.2398
 7362SOL    HW233720   3.046   2.526   1.781  0.6027  2.5698  0.3772
 7363SOL     OW33721   1.483   3.885  16.715 -0.1241  0.1909  0.1929
 7363SOL    HW133722   1.423   3.819  16.680  0.3837  1.0096 -2.1882
 7363SOL    HW233723   1.428   3.961  16.733 -0.1953  0.1094  0.3280
 7364SOL     OW33724   1.597   2.397  14.463 -0.2512  0.1675  0.1249
 7364SOL    HW133725   1.639   2.437  14.386 -0.6275  0.1132 -0.1067
 7364SOL    HW233726   1.567   2.472  14.513 -0.7115 -0.8716  1.4133
 7365SOL     OW33727   3.404   4.004  10.021 -0.2524  0.1789 -0.5049
 7365SOL    HW133728   3.314   4.018   9.993  0.7938 -1.3594 -4.5368
 7365SOL    HW233729   3.408   4.076  10.084 -3.2502  0.8149 -1.0443
 7366SOL     OW33730   2.004   3.217  11.772  0.2324  0.4252 -0.7929
 7366SOL    HW133731   2.014   3.130  11.734  0.1888  0.2192 -0.3390
 7366SOL    HW233732   2.061   3.210  11.848 -1.6550  1.1091  0.6900
 7367SOL     OW33733   1.574   3.073   0.664 -0.1417  0.0809 -0.6511
 7367SOL    HW133734   1.669   3.083   0.655  0.1099 -1.4302  0.3814
 7367SOL    HW233735   1.562   2.980   0.681 -2.5000  0.0415 -2.4501
 7368SOL     OW33736   2.633   1.673  11.851 -0.5792 -0.3267 -0.7388
 7368SOL    HW133737   2.638   1.702  11.942 -1.1317  0.8967 -1.0964
 7368SOL    HW233738   2.548   1.630  11.851 -0.7900  0.0911  0.1413
 7369SOL     OW33739   4.365   0.731   5.280 -0.3660  0.0997  0.0092
 7369SOL    HW133740   4.311   0.653   5.263 -0.1525 -0.1532  0.4961
 7369SOL    HW233741   4.329   0.760   5.365  0.3312 -0.9223  0.6535
 7370SOL     OW33742   2.287   1.278   6.305  0.0043  0.1176 -0.1547
 7370SOL    HW133743   2.247   1.362   6.327 -2.9727 -1.3236 -0.1118
 7370SOL    HW233744   2.363   1.306   6.253  0.1456  0.8367  0.4267
 7371SOL     OW33745   0.420   3.908   0.113  0.7341 -0.2577 -0.2227
 7371SOL    HW133746   0.422   3.966   0.189 -0.4076 -0.2408 -0.1961
 7371SOL    HW233747   0.500   3.931   0.067  1.4744  1.1190  1.7838
 7372SOL     OW33748   1.358   1.759   0.906 -0.5823 -0.0933 -0.1163
 7372SOL    HW133749   1.374   1.732   0.996 -0.9360  1.7427  0.5114
 7372SOL    HW233750   1.345   1.853   0.923  1.2208  0.1092  0.0766
 7373SOL     OW33751   3.616   0.033   7.667 -0.8304 -0.0706 -0.0925
 7373SOL    HW133752   3.548   0.069   7.723 -0.6555  0.7557 -0.4114
 7373SOL    HW233753   3.684   0.006   7.728  0.4439  1.6824 -0.7318
 7374SOL     OW33754   4.365   1.007   1.804  0.0099 -0.1220  0.2048
 7374SOL    HW133755   4.453   1.011   1.768 -0.1135 -1.9000 -0.3056
 7374SOL    HW233756   4.356   1.091   1.848  0.8194 -0.3104  0.7194
 7375SOL     OW33757   3.314   2.950   8.805 -0.2099  0.1745 -0.3618
 7375SOL    HW133758   3.403   2.983   8.792 -0.2486  0.4919  0.1689
 7375SOL    HW233759   3.291   3.027   8.857  1.4536  1.3522 -1.3665
 7376SOL     OW33760   4.623   1.354  12.288  0.0020 -0.5401 -0.2273
 7376SOL    HW133761   4.552   1.346  12.224 -0.0567 -0.0229 -0.2287
 7376SOL    HW233762   4.696   1.348  12.226  0.8951  2.5586  0.4821
 7377SOL     OW33763   4.654   0.427   1.576  0.2013  0.4387  0.1025
 7377SOL    HW133764   4.708   0.354   1.546 -0.4516  0.9949 -2.3788
 7377SOL    HW233765   4.573   0.414   1.527 -0.6328  2.4513  0.9352
 7378SOL     OW33766   1.486   4.153   2.852 -0.3594  0.5509 -0.0395
 7378SOL    HW133767   1.407   4.179   2.900 -0.1765 -0.6283  0.9025
 7378SOL    HW233768   1.512   4.240   2.821 -2.5246  1.4435  0.6500
 7379SOL     OW33769   2.462   1.290   8.569  0.0216 -0.1080  0.3197
 7379SOL    HW133770   2.465   1.215   8.628 -1.1081 -0.0177  0.4810
 7379SOL    HW233771   2.396   1.342   8.615  1.7676  2.9420 -0.6083
 7380SOL     OW33772   2.555   2.176   2.456 -0.4115  0.0246  0.9459
 7380SOL    HW133773   2.583   2.209   2.371  0.1850 -1.4279  0.5682
 7380SOL    HW233774   2.623   2.113   2.480  0.1168 -0.5814 -2.1905
 7381SOL     OW33775   1.692   2.411   2.214 -0.3987  0.2906 -0.2343
 7381SOL    HW133776   1.674   2.351   2.142 -0.8609 -0.2514  0.3266
 7381SOL    HW233777   1.783   2.405   2.245 -0.4661  2.1852  0.3072
 7382SOL     OW33778   3.371   0.144   8.167 -0.2302  0.3209 -0.5741
 7382SOL    HW133779   3.313   0.200   8.116 -0.2606 -0.3723 -1.3111
 7382SOL    HW233780   3.356   0.163   8.259  2.6698  0.7084 -0.1541
 7383SOL     OW33781   3.458   0.520   9.443  0.3439  0.5494  0.2399
 7383SOL    HW133782   3.464   0.590   9.378  1.3625  2.2831  2.1643
 7383SOL    HW233783   3.546   0.497   9.474  0.1191  0.4888  0.8469
 7384SOL     OW33784   2.881   0.713   5.515 -0.2123 -0.5419  0.1650
 7384SOL    HW133785   2.881   0.809   5.508  0.5995 -0.5399  0.1584
 7384SOL    HW233786   2.968   0.692   5.480  0.4047  0.9204  0.7798
 7385SOL     OW33787   4.167   2.725   9.655 -0.1016  0.3043 -0.0958
 7385SOL    HW133788   4.241   2.752   9.709 -2.1774  2.0174  1.9098
 7385SOL    HW233789   4.162   2.629   9.657 -0.1272  0.2753 -1.3122
 7386SOL     OW33790   3.035   4.325  11.584  0.1187  0.7517  0.0527
 7386SOL    HW133791   3.098   4.375  11.637 -0.4398  1.8517 -0.3263
 7386SOL    HW233792   2.986   4.286  11.657 -0.6160  3.2458  0.8750
 7387SOL     OW33793   2.003   3.471   4.890 -0.1146 -0.2594  0.0611
 7387SOL    HW133794   2.097   3.453   4.891 -0.0860 -0.1075  0.0090
 7387SOL    HW233795   1.988   3.475   4.796  0.8049  1.1771 -0.0203
 7388SOL     OW33796   3.617   4.687   1.883 -0.1949  0.1888 -0.4728
 7388SOL    HW133797   3.658   4.608   1.848 -1.9359 -0.8939 -0.0465
 7388SOL    HW233798   3.607   4.737   1.802  1.1826  1.1368 -0.0583
 7389SOL     OW33799   1.090   2.365   1.078 -0.3036 -0.0276 -0.3174
 7389SOL    HW133800   1.166   2.409   1.039  0.8912 -1.5894  0.2561
 7389SOL    HW233801   1.053   2.450   1.099  0.8483  0.5952 -0.8059
 7390SOL     OW33802   3.413   2.762   7.402 -0.4972 -0.0890  0.1174
 7390SOL    HW133803   3.343   2.735   7.461 -0.7012  0.0929 -0.0368
 7390SOL    HW233804   3.431   2.846   7.444  0.4952 -0.3925  0.2726
 7391SOL     OW33805   1.231   3.533  13.070  0.1659  0.2223 -0.1005
 7391SOL    HW133806   1.297   3.481  13.024  0.8889 -0.5852  1.8776
 7391SOL    HW233807   1.164   3.545  13.002  0.4784  0.3707 -0.3841
 7392SOL     OW33808   1.377   4.419   7.004  0.5490  0.4141 -0.7907
 7392SOL    HW133809   1.446   4.370   6.958  0.0995 -1.4145  0.4783
 7392SOL    HW233810   1.294   4.375   6.988  1.2067 -1.8105  1.8363
 7393SOL     OW33811   3.456   0.754   5.435  0.1700  0.3574 -0.1707
 7393SOL    HW133812   3.476   0.775   5.343  0.0279  0.3696 -0.1990
 7393SOL    HW233813   3.546   0.762   5.467  0.6234  0.2466 -1.4124
 7394SOL     OW33814   4.042   0.970   4.555  0.2599 -0.1940  0.0569
 7394SOL    HW133815   4.128   1.012   4.542 -0.5324  2.4643  3.4140
 7394SOL    HW233816   4.056   0.916   4.633 -0.6409  0.1256  0.4392
 7395SOL     OW33817   0.673   1.080   8.532  0.3864  0.1756  0.7824
 7395SOL    HW133818   0.631   1.153   8.578 -1.1561 -0.5995  0.6109
 7395SOL    HW233819   0.604   1.052   8.472  0.7373  2.1688 -0.5536
 7396SOL     OW33820   0.662   2.177   0.837 -0.0116 -0.0766  0.5265
 7396SOL    HW133821   0.756   2.185   0.853 -0.1511 -2.3106  2.5025
 7396SOL    HW233822   0.619   2.221   0.910  1.0562  2.0295 -0.1038
 7397SOL     OW33823   0.836   1.658   3.830 -0.2090 -0.2075 -0.0266
 7397SOL    HW133824   0.753   1.652   3.876 -0.8676  1.9054 -0.9241
 7397SOL    HW233825   0.843   1.753   3.833  2.1584 -0.4381  1.6521
 7398SOL     OW33826   4.504   0.878   8.648 -0.1836 -0.0709  0.2407
 7398SOL    HW133827   4.554   0.940   8.701  2.5804  0.3078 -2.8701
 7398SOL    HW233828   4.575   0.817   8.628 -0.5862 -0.6665  0.5949
 7399SOL     OW33829   1.607   3.077   6.223 -0.2357 -0.1449 -0.2149
 7399SOL    HW133830   1.602   3.014   6.151 -2.4716 -0.9611  0.6424
 7399SOL    HW233831   1.698   3.071   6.252 -0.1525  1.0924 -0.2093
 7400SOL     OW33832   3.460   0.306  15.863 -0.6640 -1.0206  0.1848
 7400SOL    HW133833   3.443   0.373  15.797 -0.4154 -1.4254 -0.2883
 7400SOL    HW233834   3.456   0.230  15.805  0.3232 -1.5939  0.8892
 7401SOL     OW33835   2.234   1.422   3.871  0.0639  0.4581  0.3413
 7401SOL    HW133836   2.317   1.433   3.917  0.9109 -0.1661 -1.0515
 7401SOL    HW233837   2.218   1.516   3.860  4.0035  1.1502  0.2731
 7402SOL     OW33838   2.420   0.605   6.641 -0.6220  0.0451  0.1319
 7402SOL    HW133839   2.416   0.692   6.602 -1.7601 -0.5522 -1.0942
 7402SOL    HW233840   2.473   0.563   6.573 -0.1125  0.5367  0.2235
 7403SOL     OW33841   1.525   3.601   6.303  0.0924 -0.3573  0.7062
 7403SOL    HW133842   1.579   3.615   6.226  0.1280 -1.0358  0.6090
 7403SOL    HW233843   1.576   3.533   6.347  0.2771 -2.1228 -2.2296
 7404SOL     OW33844   0.383   4.373   2.062 -0.2919  0.1467  0.3077
 7404SOL    HW133845   0.319   4.301   2.058 -1.4936  1.3367 -1.8633
 7404SOL    HW233846   0.458   4.329   2.023 -0.5881 -0.5322  0.5039
 7405SOL     OW33847   0.859   4.669   9.683  0.5761  0.0825  0.3972
 7405SOL    HW133848   0.864   0.011   9.632 -1.9919 -1.8596 -2.9232
 7405SOL    HW233849   0.952   4.651   9.697  0.7727 -0.0054 -1.0244
 7406SOL     OW33850   0.591   2.630   5.539 -0.1069 -0.1006 -0.7917
 7406SOL    HW133851   0.632   2.595   5.618 -0.2923 -0.1010 -0.6946
 7406SOL    HW233852   0.516   2.573   5.528  0.1481 -1.0065  1.9811
 7407SOL     OW33853   3.449   1.327   3.544 -0.2838  0.0980  0.2343
 7407SOL    HW133854   3.523   1.358   3.597 -0.9438  1.1775  0.5296
 7407SOL    HW233855   3.489   1.325   3.457 -0.7850 -0.5429  0.0200
 7408SOL     OW33856   1.668   1.583   6.311 -0.3123  0.5310  0.0928
 7408SOL    HW133857   1.598   1.564   6.248  0.3142 -1.8542  0.1268
 7408SOL    HW233858   1.616   1.603   6.389  0.7802  0.1757  0.9081
 7409SOL     OW33859   3.375   2.408  13.241 -0.4153  0.0191 -0.2530
 7409SOL    HW133860   3.452   2.374  13.196  0.4659  0.0274  1.2151
 7409SOL    HW233861   3.315   2.434  13.171  2.9142  0.0737 -3.0553
 7410SOL     OW33862   1.795   3.195   2.913 -0.0218  0.2271  0.3173
 7410SOL    HW133863   1.777   3.103   2.897 -0.1536  0.3394 -0.1929
 7410SOL    HW233864   1.703   3.220   2.923 -0.4908 -0.8277 -1.3527
 7411SOL     OW33865   1.737   2.856   3.298  0.4466  0.3151 -0.6632
 7411SOL    HW133866   1.770   2.803   3.225 -1.0815 -1.5203 -0.0405
 7411SOL    HW233867   1.663   2.905   3.264  1.1446  0.6137 -1.7310
 7412SOL     OW33868   0.192   0.861   2.882 -0.0210 -0.5910 -0.3586
 7412SOL    HW133869   0.159   0.945   2.915  1.2083 -0.1264 -0.3186
 7412SOL    HW233870   0.285   0.876   2.866 -0.0174  0.0727  0.2818
 7413SOL     OW33871   4.393   3.851  12.664  0.0244 -0.3976 -0.4743
 7413SOL    HW133872   4.418   3.922  12.605  2.7067 -0.4843  0.5267
 7413SOL    HW233873   4.464   3.862  12.728 -2.3560 -0.8125  2.2287
 7414SOL     OW33874   2.751   0.326  14.903 -0.2800 -0.5448  0.3975
 7414SOL    HW133875   2.804   0.394  14.863 -0.5462 -1.4000 -1.4290
 7414SOL    HW233876   2.758   0.251  14.843 -0.1350 -0.4418  0.2865
 7415SOL     OW33877   2.878   0.748   3.660  0.1263 -0.1663 -0.2657
 7415SOL    HW133878   2.926   0.753   3.577  1.0006 -1.7603  0.1468
 7415SOL    HW233879   2.941   0.700   3.714  0.5626 -1.0320 -1.5216
 7416SOL     OW33880   1.926   4.378  11.088 -0.5158  0.1872  0.0002
 7416SOL    HW133881   1.913   4.298  11.037  1.1481  0.7665 -1.3419
 7416SOL    HW233882   1.942   4.446  11.021  1.0493  1.1379  1.3491
 7417SOL     OW33883   2.579   1.697  10.764  0.2795 -0.1607  0.2086
 7417SOL    HW133884   2.574   1.726  10.855  2.7990  0.0993  0.2508
 7417SOL    HW233885   2.532   1.772  10.728  1.4923 -0.0071 -1.0468
 7418SOL     OW33886   0.826   0.324   9.908 -0.2022  0.4085 -0.1444
 7418SOL    HW133887   0.776   0.249   9.876  0.3344  0.7824 -1.8703
 7418SOL    HW233888   0.769   0.365   9.973 -0.2761 -0.7086  0.5054
 7419SOL     OW33889   1.260   4.232   2.985 -0.0606 -0.3308  0.5465
 7419SOL    HW133890   1.167   4.221   2.966 -0.4310 -0.0927  2.2183
 7419SOL    HW233891   1.259   4.326   3.004 -1.2569 -0.5686  1.6033
 7420SOL     OW33892   3.455   3.531   6.145  0.1452 -0.0294 -0.2485
 7420SOL    HW133893   3.430   3.575   6.064 -2.0174 -3.7764 -1.6182
 7420SOL    HW233894   3.414   3.446   6.129 -0.8143  0.4913 -0.5732
 7421SOL     OW33895   3.992   0.880  13.774  0.0075 -0.5050  0.8317
 7421SOL    HW133896   4.044   0.944  13.724 -1.9061  0.7161  0.3991
 7421SOL    HW233897   3.904   0.914  13.758  1.1669  1.5525 -1.4106
 7422SOL     OW33898   0.715   4.596   5.592  0.6022  0.1701  0.5780
 7422SOL    HW133899   0.625   4.626   5.602 -0.0561 -1.6257  0.0616
 7422SOL    HW233900   0.755   4.609   5.677 -0.8262 -0.0532  1.2824
 7423SOL     OW33901   2.910   2.603   7.730  0.0562 -0.4260  0.1854
 7423SOL    HW133902   2.934   2.554   7.809 -1.1987  0.6628  1.2255
 7423SOL    HW233903   2.980   2.668   7.718  1.0960 -1.5985 -0.1302
 7424SOL     OW33904   1.193   2.638   5.463 -0.5446  0.2381  0.4927
 7424SOL    HW133905   1.117   2.695   5.476 -0.2074  1.3574 -2.4900
 7424SOL    HW233906   1.261   2.704   5.449 -1.3924  1.2616  1.1891
 7425SOL     OW33907   2.597   3.866   8.054 -0.2230  0.5239 -0.5659
 7425SOL    HW133908   2.513   3.901   8.023  0.2547  0.4544 -1.9575
 7425SOL    HW233909   2.594   3.890   8.146 -1.5827 -3.3090  0.3913
 7426SOL     OW33910   4.359   1.570   5.291  0.1473  0.1854 -0.0880
 7426SOL    HW133911   4.298   1.641   5.310  0.3184  0.7054 -1.4760
 7426SOL    HW233912   4.444   1.602   5.321  0.6712 -2.9835  1.7729
 7427SOL     OW33913   3.771   4.423   5.706  0.5336  0.1383  0.0765
 7427SOL    HW133914   3.677   4.415   5.725  0.9186 -1.0298  1.4132
 7427SOL    HW233915   3.759   4.513   5.674  0.5251  0.0633 -0.1368
 7428SOL     OW33916   1.473   2.923   7.152  0.2505 -0.2858 -0.3384
 7428SOL    HW133917   1.531   2.988   7.191  0.2770 -0.4537 -0.0967
 7428SOL    HW233918   1.407   2.930   7.222  1.7299  2.3468  0.7903
 7429SOL     OW33919   4.177   1.433   6.164 -0.2812 -0.4958  0.5829
 7429SOL    HW133920   4.212   1.435   6.076  1.7296  1.5056  1.4170
 7429SOL    HW233921   4.154   1.340   6.161 -0.6579 -0.2785 -3.0203
 7430SOL     OW33922   1.123   4.314   2.370  0.2066 -0.4910 -0.4752
 7430SOL    HW133923   1.082   4.360   2.443 -3.2292 -1.7725 -1.5764
 7430SOL    HW233924   1.206   4.360   2.367  0.1305 -0.3323 -0.1404
 7431SOL     OW33925   0.326   3.608  12.715 -0.3707 -0.3150 -0.1892
 7431SOL    HW133926   0.237   3.643  12.720 -0.6289 -1.2485  1.8982
 7431SOL    HW233927   0.383   3.660  12.771 -2.3004  1.3463  0.2674
 7432SOL     OW33928   4.383   1.562   6.611  0.1593  0.1527  0.4294
 7432SOL    HW133929   4.456   1.533   6.557  2.2298  0.5842  2.9895
 7432SOL    HW233930   4.312   1.541   6.551 -1.4582  0.4513  2.2133
 7433SOL     OW33931   4.064   1.350  13.137 -0.5615  0.1206 -0.1064
 7433SOL    HW133932   4.032   1.437  13.113 -1.3528 -0.6583 -1.8781
 7433SOL    HW233933   4.159   1.350  13.124 -0.5298  1.5900  0.1277
 7434SOL     OW33934   2.445   0.670   7.436  0.1519  0.2803 -0.3032
 7434SOL    HW133935   2.353   0.673   7.462  0.6731  1.4251  1.4589
 7434SOL    HW233936   2.496   0.685   7.516  0.9361  0.2334 -0.7925
 7435SOL     OW33937   0.648   3.360   8.537  0.6619  0.2919 -1.1164
 7435SOL    HW133938   0.670   3.349   8.629 -0.9248  1.2634 -0.6117
 7435SOL    HW233939   0.632   3.269   8.511 -1.0849  0.6506 -1.2912
 7436SOL     OW33940   2.391   1.485   0.507 -0.2992 -0.4052  0.5066
 7436SOL    HW133941   2.481   1.513   0.490 -0.6143 -0.8060 -1.8682
 7436SOL    HW233942   2.394   1.399   0.467 -1.6195  1.4640 -3.6540
 7437SOL     OW33943   3.230   0.546   5.231  0.7621  0.4396 -0.1957
 7437SOL    HW133944   3.317   0.528   5.196  0.3549 -1.9968  0.0184
 7437SOL    HW233945   3.162   0.537   5.165 -0.2031 -1.5785  1.0611
 7438SOL     OW33946   0.948   2.421  11.207  0.4536 -0.5692  0.2035
 7438SOL    HW133947   0.933   2.374  11.289  0.4234 -1.3246 -0.2371
 7438SOL    HW233948   1.043   2.414  11.196  0.3923 -0.4300 -0.4348
 7439SOL     OW33949   1.473   1.472   8.849  0.2367  0.1268 -0.0503
 7439SOL    HW133950   1.404   1.521   8.803 -0.7963 -1.3026 -0.0285
 7439SOL    HW233951   1.484   1.521   8.931 -1.2261 -0.1899  0.3511
 7440SOL     OW33952   0.148   3.696   2.772 -0.3120  0.0034  0.1691
 7440SOL    HW133953   0.187   3.782   2.761 -0.5159  0.3012  1.7415
 7440SOL    HW233954   0.063   3.716   2.733 -0.8817 -1.8167  0.4431
 7441SOL     OW33955   1.884   0.962   6.402  0.0045 -0.4471  0.3494
 7441SOL    HW133956   1.874   0.869   6.378  0.3913 -0.9445  2.1180
 7441SOL    HW233957   1.964   0.983   6.354 -0.8077 -0.7892 -1.1409
 7442SOL     OW33958   1.804   2.432   6.942  0.1585 -0.2663 -0.3405
 7442SOL    HW133959   1.792   2.504   6.881  0.1362  0.2018  0.2175
 7442SOL    HW233960   1.726   2.379   6.923 -1.0376  1.3353  0.1138
 7443SOL     OW33961   3.969   0.866   8.944 -0.2237 -0.1698 -0.0777
 7443SOL    HW133962   4.048   0.919   8.951 -0.8088  0.6751  0.0626
 7443SOL    HW233963   3.960   0.860   8.849 -1.0758 -0.2885  0.0104
 7444SOL     OW33964   3.197   0.358   1.200  0.3399 -0.4261 -0.0871
 7444SOL    HW133965   3.204   0.268   1.231 -1.5739 -0.2454  0.8772
 7444SOL    HW233966   3.116   0.351   1.149 -0.9144 -1.1201  2.0222
 7445SOL     OW33967   0.857   3.713  17.663  0.3524  0.7530 -0.5591
 7445SOL    HW133968   0.854   3.769  17.740 -0.8343 -0.7600  0.4974
 7445SOL    HW233969   0.948   3.685  17.660 -0.6587 -2.4170 -1.9458
 7446SOL     OW33970   1.615   2.737   5.812 -1.0002 -0.1887  0.3409
 7446SOL    HW133971   1.642   2.701   5.727  1.1139  1.5949  0.2689
 7446SOL    HW233972   1.683   2.799   5.839 -1.2258 -0.4630  1.5141
 7447SOL     OW33973   4.255   1.761   3.767 -0.3053 -0.5855  0.3405
 7447SOL    HW133974   4.166   1.732   3.786 -1.3073  0.4296 -2.8809
 7447SOL    HW233975   4.268   1.823   3.839  0.9025 -0.4955  0.0502
 7448SOL     OW33976   2.018   2.447   5.413  0.2753  0.2362  0.2328
 7448SOL    HW133977   2.024   2.376   5.477 -0.0394 -0.6568 -0.7316
 7448SOL    HW233978   2.016   2.395   5.332  2.2338 -2.1001  1.6928
 7449SOL     OW33979   2.821   1.526   3.778 -0.9185  0.6248  0.2743
 7449SOL    HW133980   2.744   1.509   3.832  1.9526 -2.1919  3.5950
 7449SOL    HW233981   2.792   1.553   3.691 -0.6491 -0.7204 -0.2335
 7450SOL     OW33982   2.916   3.508   7.609 -0.0244  0.0091 -0.2704
 7450SOL    HW133983   2.895   3.527   7.700  0.5699  0.9910 -0.3337
 7450SOL    HW233984   2.964   3.591   7.600  1.3464 -0.6288  1.0677
 7451SOL     OW33985   0.888   0.824   7.426  0.9946 -0.2823 -0.0639
 7451SOL    HW133986   0.862   0.832   7.334 -1.0169 -1.3572  0.4240
 7451SOL    HW233987   0.867   0.906   7.471  0.0989 -0.6835  0.2465
 7452SOL     OW33988   0.494   2.029   2.578  0.0255  0.0125 -0.5749
 7452SOL    HW133989   0.423   2.091   2.590 -0.2464 -0.4488  0.2276
 7452SOL    HW233990   0.453   1.959   2.630  1.9386  0.0967  1.0925
 7453SOL     OW33991   2.183   4.528   2.382 -0.6033  0.3661 -0.3076
 7453SOL    HW133992   2.200   4.622   2.395  1.5629  0.0420 -0.7725
 7453SOL    HW233993   2.153   4.493   2.465  1.7134 -2.1251 -0.5175
 7454SOL     OW33994   3.215   1.103  13.845  0.1629  0.3723  0.1370
 7454SOL    HW133995   3.301   1.143  13.831 -0.5946  2.2919  0.9303
 7454SOL    HW233996   3.169   1.169  13.897  0.2951 -0.1616  0.9281
 7455SOL     OW33997   3.156   3.987   6.486  0.6759 -0.2161 -0.1800
 7455SOL    HW133998   3.196   4.027   6.408 -1.4312 -1.4622 -1.8905
 7455SOL    HW233999   3.218   3.924   6.523  0.4316 -0.7760 -0.7390
 7456SOL     OW34000   1.069   4.432   4.374  0.1291 -0.0653  0.4852
 7456SOL    HW134001   1.113   4.516   4.357 -0.7329  0.3915  0.5171
 7456SOL    HW234002   0.981   4.457   4.402 -0.1819 -2.8010  1.9092
 7457SOL     OW34003   3.324   4.687   1.736  0.1853 -0.1362 -0.2345
 7457SOL    HW134004   3.277   4.734   1.667  1.0550  0.6051 -0.3127
 7457SOL    HW234005   3.387   0.016   1.754 -0.6743  0.5281  0.2141
 7458SOL     OW34006   1.283   4.346   8.112  0.1849  0.1450 -0.0444
 7458SOL    HW134007   1.280   4.314   8.202 -1.6036 -1.4345 -0.6711
 7458SOL    HW234008   1.379   4.347   8.107  0.1283 -2.5189 -1.8507
 7459SOL     OW34009   4.165   1.573   8.503 -0.4916 -0.3523 -0.5234
 7459SOL    HW134010   4.136   1.556   8.413  2.4701 -0.2619 -1.5010
 7459SOL    HW234011   4.197   1.485   8.524  0.4051  0.3494  1.0272
 7460SOL     OW34012   3.027   1.063   5.609 -0.2471 -0.5485  0.3231
 7460SOL    HW134013   3.032   1.134   5.674  0.7145 -0.6975  0.4052
 7460SOL    HW234014   3.108   1.013   5.615  1.5362  2.1725 -0.8067
 7461SOL     OW34015   3.420   0.285   4.706  0.0978 -0.6228  0.0831
 7461SOL    HW134016   3.439   0.261   4.615  0.6585 -0.1018  0.0599
 7461SOL    HW234017   3.468   0.216   4.750 -0.7725 -0.2265  1.6448
 7462SOL     OW34018   3.838   1.097   3.655 -0.0233 -0.0506  0.6897
 7462SOL    HW134019   3.836   1.004   3.633 -0.2186  0.2456 -0.5167
 7462SOL    HW234020   3.756   1.108   3.704 -0.4936  1.1355 -0.3798
 7463SOL     OW34021   0.459   0.935   7.640 -0.8975  0.0434 -0.8765
 7463SOL    HW134022   0.534   0.884   7.610 -3.2226 -3.3882 -0.8288
 7463SOL    HW234023   0.497   0.971   7.720  1.1658 -2.6512 -0.6745
 7464SOL     OW34024   4.126   1.018  12.192  0.6129  0.0359  0.6652
 7464SOL    HW134025   4.097   1.022  12.101  1.5999  0.7113  0.3809
 7464SOL    HW234026   4.106   1.107  12.222 -3.4049 -1.0104  1.1238
 7465SOL     OW34027   3.773   1.524   8.481  0.3159 -0.0345  0.0925
 7465SOL    HW134028   3.752   1.465   8.409 -2.0533  0.1117  0.6611
 7465SOL    HW234029   3.750   1.609   8.444  0.4551 -0.6716 -1.4228
 7466SOL     OW34030   2.810   2.002   3.676  0.4994 -0.0366  0.7275
 7466SOL    HW134031   2.804   1.992   3.581  1.9713 -0.5926  0.6880
 7466SOL    HW234032   2.722   2.029   3.703  0.2568 -0.7488  0.6669
 7467SOL     OW34033   2.497   2.275   6.816  0.3737 -0.0771 -0.0957
 7467SOL    HW134034   2.507   2.238   6.904  2.3034 -2.6887 -1.3933
 7467SOL    HW234035   2.514   2.368   6.829 -0.0525  0.2036 -1.5547
 7468SOL     OW34036   0.556   2.429   6.972 -0.6089  0.0814 -0.2733
 7468SOL    HW134037   0.642   2.396   6.948  0.0757 -0.1024  2.4192
 7468SOL    HW234038   0.548   2.498   6.906  0.3887  0.1393 -0.3301
 7469SOL     OW34039   3.129   0.003   4.864 -0.1254 -1.0526 -0.0280
 7469SOL    HW134040   3.091   0.083   4.900  0.9582  0.1522 -1.5676
 7469SOL    HW234041   3.114   4.689   4.942 -0.8841  0.3936  0.7970
 7470SOL     OW34042   3.260   2.161  16.783 -0.6670  0.1455  0.2755
 7470SOL    HW134043   3.312   2.184  16.860 -0.9984  1.6779  0.0483
 7470SOL    HW234044   3.200   2.233  16.766 -0.6103 -0.0075 -0.5991
 7471SOL     OW34045   3.786   4.048   6.731  0.4034  0.2024  0.1543
 7471SOL    HW134046   3.703   4.005   6.751  0.3493 -0.0701 -0.6643
 7471SOL    HW234047   3.764   4.141   6.738  0.3735  0.1783  0.3668
 7472SOL     OW34048   3.191   0.455   6.328  0.2346  0.0493 -0.2097
 7472SOL    HW134049   3.113   0.413   6.291 -0.1792  0.7294 -0.1163
 7472SOL    HW234050   3.148   0.539   6.344  1.3479  0.4449  0.7635
 7473SOL     OW34051   2.773   3.924  12.812 -0.2034  0.3093  0.3985
 7473SOL    HW134052   2.835   3.904  12.742 -3.3423  0.0546 -2.3625
 7473SOL    HW234053   2.776   4.020  12.810  0.3392  0.2905  0.1899
 7474SOL     OW34054   4.021   4.611  11.675  0.0922  0.2637 -0.6570
 7474SOL    HW134055   4.093   4.575  11.726 -0.3577  0.3262  0.0163
 7474SOL    HW234056   3.982   4.528  11.648  0.3891 -0.1215  0.0945
 7475SOL     OW34057   0.072   3.330   7.027 -0.2286 -0.2211 -0.7222
 7475SOL    HW134058   0.162   3.348   7.056 -0.9698  2.6194 -0.2634
 7475SOL    HW234059   0.050   3.246   7.068  2.4497 -0.4916  0.1493
 7476SOL     OW34060   2.405   4.477  17.467 -0.6598  0.9470 -0.0183
 7476SOL    HW134061   2.488   4.513  17.497 -0.0817 -1.0839  0.7819
 7476SOL    HW234062   2.436   4.440  17.384  1.6784 -1.3865  1.9152
 7477SOL     OW34063   2.618   0.771   4.387  0.6749 -0.5091 -0.1090
 7477SOL    HW134064   2.640   0.763   4.295 -1.2062 -1.0224 -0.5002
 7477SOL    HW234065   2.549   0.707   4.404  1.3614 -0.6730  2.0582
 7478SOL     OW34066   1.622   0.410   8.684 -0.0944  0.5245 -0.0737
 7478SOL    HW134067   1.595   0.462   8.760  0.1118 -1.1495  1.1576
 7478SOL    HW234068   1.547   0.351   8.677 -1.0669  1.3230  3.2587
 7479SOL     OW34069   0.168   3.965   8.249 -0.5271  1.1850 -0.0088
 7479SOL    HW134070   0.127   3.942   8.332 -3.1039  0.6919 -1.4107
 7479SOL    HW234071   0.154   3.876   8.218  2.0959  0.3181  1.2729
 7480SOL     OW34072   2.265   4.457   3.956  0.9674 -0.0970 -0.0623
 7480SOL    HW134073   2.348   4.491   3.989  0.5218  0.5375  0.4099
 7480SOL    HW234074   2.264   4.366   3.985  0.4812 -0.7306 -2.0196
 7481SOL     OW34075   4.109   1.053   7.631  0.2061 -0.6753  0.6078
 7481SOL    HW134076   4.155   1.002   7.564  0.3901 -0.3900  0.5178
 7481SOL    HW234077   4.105   1.139   7.588 -1.0654  0.9131  3.8982
 7482SOL     OW34078   0.433   4.065  17.441  0.3433 -0.0988 -0.1147
 7482SOL    HW134079   0.525   4.080  17.458  0.1772  2.6531 -1.8112
 7482SOL    HW234080   0.399   4.135  17.497 -2.2879 -0.1026 -1.7157
 7483SOL     OW34081   2.828   2.662   3.644 -0.2822  0.1139 -0.0347
 7483SOL    HW134082   2.799   2.753   3.647 -0.9281 -0.0720 -0.4171
 7483SOL    HW234083   2.841   2.653   3.549 -0.8382 -4.0902  0.2768
 7484SOL     OW34084   0.235   3.447  11.604 -0.7768  0.4602 -0.0174
 7484SOL    HW134085   0.243   3.419  11.696 -0.6995 -0.7626 -0.3903
 7484SOL    HW234086   0.179   3.524  11.615 -1.1527  0.3266 -1.0066
 7485SOL     OW34087   1.778   4.119   5.180 -0.9092  0.1859  0.3116
 7485SOL    HW134088   1.864   4.124   5.136 -1.3090 -1.0674 -0.6179
 7485SOL    HW234089   1.787   4.193   5.240  1.5221 -0.2052  0.4245
 7486SOL     OW34090   0.678   4.621   7.115  0.3900 -0.3904  0.4178
 7486SOL    HW134091   0.630   4.698   7.085 -0.5812 -1.2294 -0.1844
 7486SOL    HW234092   0.764   4.640   7.077 -0.4686  0.3205 -1.1606
 7487SOL     OW34093   0.440   3.645   6.092 -0.2071 -0.0554 -0.1537
 7487SOL    HW134094   0.503   3.717   6.094  0.3379 -0.5962  1.9635
 7487SOL    HW234095   0.365   3.682   6.045  0.1453 -1.5047 -1.8516
 7488SOL     OW34096   3.991   3.483   6.805  0.2309 -0.2222 -0.5570
 7488SOL    HW134097   3.905   3.454   6.836 -0.0421  0.3542 -0.7627
 7488SOL    HW234098   3.979   3.496   6.711  0.6640  0.0179 -0.5784
 7489SOL     OW34099   1.480   3.604   3.727 -0.3464  0.2222 -0.5464
 7489SOL    HW134100   1.456   3.582   3.637 -2.0319  1.5668 -0.4070
 7489SOL    HW234101   1.392   3.612   3.763 -1.1606  1.9192 -2.9485
 7490SOL     OW34102   4.586   2.873   3.354 -0.0179  0.4829  0.0003
 7490SOL    HW134103   4.533   2.935   3.404 -0.7674 -0.0921 -0.0832
 7490SOL    HW234104   4.609   2.923   3.276 -1.6975 -0.7177 -1.2643
 7491SOL     OW34105   4.358   4.603   8.002 -0.4303 -0.2439  0.1758
 7491SOL    HW134106   4.310   4.677   8.041  2.8690  1.0986  1.7262
 7491SOL    HW234107   4.351   4.536   8.069 -1.2192  1.6402  2.0021
 7492SOL     OW34108   1.132   4.611   5.939  0.3672 -0.3183 -0.0662
 7492SOL    HW134109   1.176   4.679   5.889 -1.1794  0.9419  0.2687
 7492SOL    HW234110   1.175   4.532   5.906 -0.4755 -1.8424  2.4721
 7493SOL     OW34111   3.485   1.621   1.757 -0.3541  0.3325  0.7591
 7493SOL    HW134112   3.572   1.587   1.736 -0.5249  2.3408 -3.2588
 7493SOL    HW234113   3.479   1.694   1.696 -3.6909 -0.4982  0.1016
 7494SOL     OW34114   3.213   2.511  15.960 -0.1190 -0.4669 -0.1515
 7494SOL    HW134115   3.305   2.525  15.981 -0.5852  2.7166 -0.1997
 7494SOL    HW234116   3.184   2.504  16.051 -1.8024  0.7682 -0.5831
 7495SOL     OW34117   3.964   2.495   0.276 -0.3362  0.4129 -0.1260
 7495SOL    HW134118   3.989   2.567   0.334  1.7327 -1.7859  1.7055
 7495SOL    HW234119   3.922   2.438   0.341 -1.6953 -0.5496 -1.8409
 7496SOL     OW34120   1.888   4.157   1.979 -0.5505 -0.6131  0.1752
 7496SOL    HW134121   1.948   4.116   2.041  0.4979  1.7817  0.7871
 7496SOL    HW234122   1.818   4.182   2.039  1.1832  0.0333  1.9266
 7497SOL     OW34123   4.040   4.066  11.225 -0.4026  0.4082 -0.1856
 7497SOL    HW134124   4.120   4.109  11.256  0.7372 -0.6667 -1.5956
 7497SOL    HW234125   3.979   4.124  11.269 -0.1033  0.0301  0.7194
 7498SOL     OW34126   1.077   3.626  13.899  0.1967  0.1553  0.0604
 7498SOL    HW134127   1.030   3.642  13.981 -1.8314  1.4797 -1.3505
 7498SOL    HW234128   1.153   3.583  13.938  0.0859  1.0343  1.2525
 7499SOL     OW34129   1.061   0.767   0.810  0.7346 -0.2630 -0.2146
 7499SOL    HW134130   1.012   0.768   0.892 -0.7391 -2.0200 -1.0718
 7499SOL    HW234131   1.082   0.860   0.802  0.6243 -0.1980  0.2572
 7500SOL     OW34132   2.973   0.396   1.470 -0.2426 -0.1650  0.2616
 7500SOL    HW134133   2.976   0.492   1.469 -0.3269 -0.1588  0.7421
 7500SOL    HW234134   2.956   0.381   1.562 -0.4806 -0.8220  0.1076
 7501SOL     OW34135   3.708   2.751  13.841  0.2242  0.1698  0.1525
 7501SOL    HW134136   3.701   2.833  13.891  1.5651  1.3895 -1.6725
 7501SOL    HW234137   3.626   2.705  13.862 -1.1767  2.1276 -1.0079
 7502SOL     OW34138   3.493   3.760   7.420  0.1658  0.0235 -0.5571
 7502SOL    HW134139   3.406   3.724   7.405  0.1247  0.7430 -2.1202
 7502SOL    HW234140   3.464   3.846   7.451  0.7119 -0.2713  0.7854
 7503SOL     OW34141   0.687   0.863   7.231 -0.1126 -0.7700  0.3371
 7503SOL    HW134142   0.630   0.939   7.228  0.2827 -0.4864 -0.1064
 7503SOL    HW234143   0.628   0.796   7.196 -0.2522 -0.1958 -0.5124
 7504SOL     OW34144   3.010   1.113   7.517  0.6697  0.1416 -0.3488
 7504SOL    HW134145   3.011   1.115   7.613 -1.7433 -0.4581 -0.3139
 7504SOL    HW234146   3.094   1.066   7.514  0.2052 -0.7205  0.1625
 7505SOL     OW34147   2.105   4.712  11.118  0.0727 -0.4217 -0.1978
 7505SOL    HW134148   2.125   4.627  11.157 -0.9823 -0.0355  1.1802
 7505SOL    HW234149   2.183   4.718  11.062 -0.6762  1.7973 -0.9821
 7506SOL     OW34150   2.086   2.761   7.593  0.2032  1.0365  0.2408
 7506SOL    HW134151   2.045   2.755   7.679  1.8304 -0.7395  0.8969
 7506SOL    HW234152   2.170   2.719   7.613  0.2633  1.7086  1.4032
 7507SOL     OW34153   2.465   2.995   4.960  0.1565 -0.0225 -0.1523
 7507SOL    HW134154   2.513   3.058   4.908 -1.2369  1.8429  0.8151
 7507SOL    HW234155   2.526   2.988   5.034  1.2731  0.2017 -1.0607
 7508SOL     OW34156   0.945   2.199  13.025  0.3052  0.5830 -0.1581
 7508SOL    HW134157   0.928   2.289  12.996  1.0410  1.4178  1.9698
 7508SOL    HW234158   0.962   2.154  12.942  1.0488 -0.7829  0.7436
 7509SOL     OW34159   3.186   2.817  14.748  0.0065 -0.0836  0.5750
 7509SOL    HW134160   3.138   2.784  14.672 -2.1559 -0.8766  2.2773
 7509SOL    HW234161   3.203   2.732  14.788  2.5800 -0.6857 -1.8823
 7510SOL     OW34162   1.569   0.153   4.287 -0.0494  0.1765 -0.2646
 7510SOL    HW134163   1.606   0.065   4.280 -0.3970  0.1169 -1.4080
 7510SOL    HW234164   1.474   0.150   4.296  0.0643  1.3243  1.3204
 7511SOL     OW34165   3.258   2.729   6.322  0.5364 -0.4913 -0.4048
 7511SOL    HW134166   3.248   2.720   6.417  1.6886 -0.3170 -0.2625
 7511SOL    HW234167   3.229   2.820   6.317  1.5535 -0.2145 -1.1461
 7512SOL     OW34168   4.210   0.777   4.050  0.8714  1.3076  0.2599
 7512SOL    HW134169   4.292   0.825   4.039  1.8427 -0.3425  0.2267
 7512SOL    HW234170   4.186   0.758   3.960  1.1163 -1.2216  0.7187
 7513SOL     OW34171   1.894   1.363  12.162  0.0790  0.0814  0.5439
 7513SOL    HW134172   1.936   1.354  12.247  1.7902 -1.2790 -0.4258
 7513SOL    HW234173   1.978   1.378  12.118 -0.6514  0.5409 -0.7024
 7514SOL     OW34174   0.406   0.870   6.470 -0.7594  0.0700 -0.2862
 7514SOL    HW134175   0.398   0.823   6.553  0.4165  0.1197 -0.1444
 7514SOL    HW234176   0.478   0.926   6.498 -0.4979 -0.4230  0.0228
 7515SOL     OW34177   2.135   0.811   6.391 -0.2407 -0.7425  0.1814
 7515SOL    HW134178   2.148   0.906   6.387  1.5274 -0.9928 -0.0946
 7515SOL    HW234179   2.218   0.778   6.354 -1.5708 -1.4721 -2.1367
 7516SOL     OW34180   3.757   1.286  17.056 -0.3202 -0.1107 -0.2565
 7516SOL    HW134181   3.817   1.243  17.117  1.3131 -1.2399 -2.6730
 7516SOL    HW234182   3.811   1.358  17.024  1.2482 -1.1667  0.0130
 7517SOL     OW34183   2.960   3.625  13.236  0.6415  0.7018 -0.7221
 7517SOL    HW134184   2.867   3.650  13.242  0.4140 -0.1421 -0.7059
 7517SOL    HW234185   2.977   3.624  13.142 -0.3062 -1.4916 -0.8744
 7518SOL     OW34186   3.232   2.391  17.210  0.0408  0.0940  0.0258
 7518SOL    HW134187   3.176   2.465  17.231  0.7814  0.3660  1.0455
 7518SOL    HW234188   3.236   2.347  17.295  0.5256  0.4955  0.2098
 7519SOL     OW34189   4.206   3.029  14.271 -0.8663 -0.5069 -0.2159
 7519SOL    HW134190   4.221   3.100  14.334 -2.4536 -0.2935 -0.0735
 7519SOL    HW234191   4.265   3.048  14.199  1.1964  0.2756  1.6901
 7520SOL     OW34192   1.248   2.345   8.002  0.5689 -0.3768  0.5746
 7520SOL    HW134193   1.190   2.271   8.023 -0.3324  0.1594 -0.0048
 7520SOL    HW234194   1.233   2.394   8.083  0.0581 -0.0924  0.3079
 7521SOL     OW34195   1.615   2.425  10.508  0.4371 -0.3458 -0.1520
 7521SOL    HW134196   1.546   2.469  10.459  2.8200  1.0793 -2.1999
 7521SOL    HW234197   1.587   2.335  10.494 -1.4116  0.2366 -0.1784
 7522SOL     OW34198   2.148   2.844  12.978 -0.3297  0.2270  0.0831
 7522SOL    HW134199   2.212   2.913  12.992 -0.7506  0.4841  0.7556
 7522SOL    HW234200   2.204   2.773  12.947  0.6241  2.1513 -2.5509
 7523SOL     OW34201   4.659   4.307   3.168 -0.4820 -0.1910  0.1235
 7523SOL    HW134202   4.572   4.327   3.202 -0.2113  1.5214 -0.1814
 7523SOL    HW234203   4.677   4.216   3.194 -1.0293 -0.0491  1.0016
 7524SOL     OW34204   1.290   0.373   4.907 -0.4507  0.0366  0.7063
 7524SOL    HW134205   1.219   0.338   4.962  0.0868 -1.5238  0.4200
 7524SOL    HW234206   1.331   0.293   4.875  0.8992  1.2916 -0.6448
 7525SOL     OW34207   0.598   2.276  13.140  0.1733 -0.0356  0.3544
 7525SOL    HW134208   0.527   2.298  13.201 -0.4894  0.4670 -0.5844
 7525SOL    HW234209   0.667   2.333  13.172  1.9424 -0.7325 -2.2430
 7526SOL     OW34210   0.717   0.733   8.481 -0.2359  0.4079 -1.0256
 7526SOL    HW134211   0.766   0.765   8.556 -2.1591  0.5734  0.1772
 7526SOL    HW234212   0.769   0.763   8.407  0.6748 -1.1257 -1.0044
 7527SOL     OW34213   1.586   2.257   3.221 -0.0511  0.3792  1.0071
 7527SOL    HW134214   1.573   2.222   3.309 -0.2442 -1.1631  0.3649
 7527SOL    HW234215   1.495   2.259   3.192  0.1845 -0.9232  0.1956
 7528SOL     OW34216   2.215   4.640   7.827 -0.0843 -0.6068 -0.6880
 7528SOL    HW134217   2.140   4.683   7.869 -0.0828  0.3869 -1.6766
 7528SOL    HW234218   2.210   4.549   7.854 -0.4205 -0.1370  0.8280
 7529SOL     OW34219   3.920   1.942   4.485 -0.1294 -0.5527  0.0599
 7529SOL    HW134220   3.938   1.986   4.568  0.0457  2.4250 -1.5545
 7529SOL    HW234221   3.825   1.953   4.483 -0.1213 -0.6374 -0.8825
 7530SOL     OW34222   1.938   4.023  13.008  0.1641  0.1980  0.6245
 7530SOL    HW134223   2.029   4.003  13.029  0.0929 -0.8313 -0.0600
 7530SOL    HW234224   1.944   4.118  13.020  0.7479  0.2355  0.0581
 7531SOL     OW34225   4.048   0.245   5.211  0.3673  0.1249 -0.2830
 7531SOL    HW134226   4.118   0.236   5.146 -0.7299  0.5808 -1.5062
 7531SOL    HW234227   4.022   0.157   5.238  0.6605 -0.4439 -1.8748
 7532SOL     OW34228   2.417   0.377   1.858  0.2499  0.1255  0.6468
 7532SOL    HW134229   2.395   0.465   1.826  0.1988 -0.4351 -0.8583
 7532SOL    HW234230   2.482   0.363   1.789 -0.0168 -0.7371  0.5654
 7533SOL     OW34231   0.476   4.220   4.555  0.2600  0.7777  0.4267
 7533SOL    HW134232   0.432   4.274   4.620 -1.7940  0.0650 -0.3897
 7533SOL    HW234233   0.400   4.189   4.506  0.8367 -0.2547  0.1734
 7534SOL     OW34234   3.018   4.000   2.488  0.1670 -0.4662 -0.1676
 7534SOL    HW134235   3.067   4.077   2.460 -0.5223  0.7447  1.9341
 7534SOL    HW234236   2.986   3.964   2.406  1.1903  0.4190 -0.9562
 7535SOL     OW34237   3.214   1.166   8.330  0.1561  0.0416 -0.1903
 7535SOL    HW134238   3.218   1.117   8.412 -1.5232  0.0774 -0.1026
 7535SOL    HW234239   3.304   1.151   8.300  0.3738  1.4215 -0.2197
 7536SOL     OW34240   0.610   3.433   6.575  0.3474 -0.1647  0.2480
 7536SOL    HW134241   0.613   3.443   6.480  1.2886  1.0810  0.3976
 7536SOL    HW234242   0.678   3.494   6.605 -1.1820  0.4555  2.4404
 7537SOL     OW34243   0.672   2.720   4.776  0.0117  0.3010  0.2846
 7537SOL    HW134244   0.754   2.689   4.738  1.1017  2.0481  1.2207
 7537SOL    HW234245   0.630   2.776   4.710 -0.7501 -1.1265 -0.4482
 7538SOL     OW34246   4.255   3.243   4.820  0.2706  0.0385  0.4508
 7538SOL    HW134247   4.269   3.160   4.865 -0.2891 -0.1970  0.1999
 7538SOL    HW234248   4.212   3.296   4.887 -0.2705 -2.4501  2.1055
 7539SOL     OW34249   0.281   4.620   2.079  0.2798 -0.2704  0.0619
 7539SOL    HW134250   0.327   4.537   2.066  1.7027  0.4334  0.5292
 7539SOL    HW234251   0.309   4.677   2.007  1.1216  0.8080  1.2463
 7540SOL     OW34252   1.952   3.040   1.852 -0.5511 -0.7039  0.3697
 7540SOL    HW134253   1.976   3.004   1.767  1.2935  1.3387  0.0311
 7540SOL    HW234254   2.007   2.979   1.901 -0.7657 -1.6333 -0.5336
 7541SOL     OW34255   2.163   3.640   6.135  0.3175 -0.4095  0.3801
 7541SOL    HW134256   2.152   3.663   6.227 -1.8343 -1.2909  0.3576
 7541SOL    HW234257   2.133   3.549   6.134  1.0229 -0.6252 -2.8354
 7542SOL     OW34258   3.602   1.774   1.274 -0.1520  0.3386  0.4503
 7542SOL    HW134259   3.696   1.760   1.258 -0.1847  1.5582 -0.8480
 7542SOL    HW234260   3.573   1.683   1.265  1.1125 -0.0973  0.7683
 7543SOL     OW34261   1.873   0.309   3.708  0.3525  0.1001 -0.0883
 7543SOL    HW134262   1.952   0.272   3.671 -0.0534 -0.3262 -0.5325
 7543SOL    HW234263   1.811   0.286   3.639  0.2486  0.6361 -0.1755
 7544SOL     OW34264   4.543   2.328   7.518  0.1349  0.2148  0.0673
 7544SOL    HW134265   4.476   2.389   7.487  0.7844  1.8411  1.8838
 7544SOL    HW234266   4.586   2.382   7.585 -1.3486  1.9991 -0.4341
 7545SOL     OW34267   3.679   4.040  13.523  0.3776 -0.1467 -0.4321
 7545SOL    HW134268   3.749   3.978  13.505  0.7126 -0.4980  2.1183
 7545SOL    HW234269   3.597   3.992  13.523  0.1200  0.2914  0.4862
 7546SOL     OW34270   2.595   3.800   3.000 -0.3405  0.1380 -0.8969
 7546SOL    HW134271   2.649   3.772   2.926  0.6121  1.1254 -0.5810
 7546SOL    HW234272   2.532   3.729   3.008  0.1793 -0.1400  0.6851
 7547SOL     OW34273   3.284   0.993  16.375 -0.2683 -0.1325 -0.1510
 7547SOL    HW134274   3.280   1.014  16.468 -2.5025  0.5785 -0.4222
 7547SOL    HW234275   3.204   1.035  16.345  0.5274  0.8481 -0.8583
 7548SOL     OW34276   2.151   0.480  17.121  0.1264 -0.3017 -0.0444
 7548SOL    HW134277   2.126   0.572  17.115  0.9756 -0.1411 -1.0293
 7548SOL    HW234278   2.147   0.456  17.029 -2.0194  2.9295 -0.7998
 7549SOL     OW34279   3.176   2.305   3.715  0.0329 -0.4405 -0.0629
 7549SOL    HW134280   3.128   2.330   3.793 -0.0091  0.8337 -0.4931
 7549SOL    HW234281   3.224   2.228   3.747 -1.4151 -1.7444 -1.0091
 7550SOL     OW34282   0.528   4.706  15.044 -0.2629  0.1892 -0.2857
 7550SOL    HW134283   0.525   4.611  15.050 -0.1570  0.0899 -1.7085
 7550SOL    HW234284   0.500   4.738  15.129 -0.3969 -1.5571  0.3318
 7551SOL     OW34285   0.953   2.199   5.719 -0.1179 -0.0835 -0.3130
 7551SOL    HW134286   1.044   2.187   5.744 -0.1302 -0.0546 -0.2517
 7551SOL    HW234287   0.931   2.110   5.693  1.7162 -1.2956  2.2808
 7552SOL     OW34288   3.973   3.409   1.366 -0.4323  0.3288 -0.6721
 7552SOL    HW134289   4.002   3.384   1.278  0.2922 -3.2332  0.5584
 7552SOL    HW234290   4.039   3.476   1.384  1.9288 -2.6800  1.7953
 7553SOL     OW34291   1.921   3.501   6.255  0.1455  0.1041  0.6562
 7553SOL    HW134292   1.912   3.592   6.284  1.2545  0.1735  0.7994
 7553SOL    HW234293   1.831   3.474   6.237  0.2069  1.6997 -1.9805
 7554SOL     OW34294   3.288   3.556   7.602 -0.1084  0.0315  0.1577
 7554SOL    HW134295   3.292   3.525   7.512  0.9114  0.1442  0.1670
 7554SOL    HW234296   3.320   3.484   7.655  0.2569 -0.7770 -1.1577
 7555SOL     OW34297   4.404   3.653   2.560 -0.1921 -0.8462 -0.2898
 7555SOL    HW134298   4.405   3.733   2.506  3.3401 -0.7504 -0.0668
 7555SOL    HW234299   4.323   3.605   2.542 -1.1270  1.0714 -1.2005
 7556SOL     OW34300   0.905   0.563  13.894 -0.3585  0.2398  0.0338
 7556SOL    HW134301   0.973   0.503  13.865 -0.1699 -0.2971  1.6038
 7556SOL    HW234302   0.828   0.507  13.905 -2.1499  2.0515 -3.1430
 7557SOL     OW34303   2.711   2.430   6.471  0.3068  0.4419 -0.6139
 7557SOL    HW134304   2.687   2.340   6.450  1.5307  0.0740 -0.4108
 7557SOL    HW234305   2.805   2.434   6.455  0.3925 -1.7898 -0.6938
 7558SOL     OW34306   3.177   2.496  11.362 -0.0937 -0.3410 -0.5652
 7558SOL    HW134307   3.251   2.464  11.413  0.8909  1.3272 -0.9446
 7558SOL    HW234308   3.109   2.514  11.427 -0.5326  0.6670 -1.2986
 7559SOL     OW34309   1.148   3.582   0.635 -0.3293 -0.3302 -0.7178
 7559SOL    HW134310   1.184   3.527   0.704  1.0724  0.2114 -1.0217
 7559SOL    HW234311   1.227   3.605   0.586 -0.3827 -0.2126 -0.7485
 7560SOL     OW34312   0.013   0.145   8.377  0.1325  0.3671  0.2704
 7560SOL    HW134313   4.733   0.060   8.417  1.6527 -0.1888 -0.1699
 7560SOL    HW234314   4.685   0.186   8.430  0.0626 -0.0888  0.5371
 7561SOL     OW34315   1.403   1.363   5.699 -0.2500  0.4009  0.3755
 7561SOL    HW134316   1.395   1.459   5.707  2.3418  0.4274  2.8930
 7561SOL    HW234317   1.339   1.339   5.632 -1.2511  1.3765  0.9604
 7562SOL     OW34318   2.169   0.036   7.604  0.7326  0.0272  0.0024
 7562SOL    HW134319   2.194   4.716   7.675  0.7862 -1.3906 -1.1911
 7562SOL    HW234320   2.094   4.726   7.570  1.3974 -1.6584  1.0249
 7563SOL     OW34321   4.088   1.065  11.942 -0.6093  0.0163 -0.5091
 7563SOL    HW134322   4.135   1.148  11.945  1.1094 -0.9450 -1.0867
 7563SOL    HW234323   4.077   1.053  11.848  2.2839 -2.0120 -0.6014
 7564SOL     OW34324   2.290   2.281   1.820 -0.2139 -0.0755 -0.0037
 7564SOL    HW134325   2.263   2.217   1.886 -1.0555  1.6365  1.3043
 7564SOL    HW234326   2.220   2.264   1.757 -2.2058  4.7501  0.9749
 7565SOL     OW34327   0.679   0.323   4.351 -0.3895  0.0253 -0.1147
 7565SOL    HW134328   0.759   0.310   4.301  0.0874  2.0380  0.1221
 7565SOL    HW234329   0.618   0.279   4.291  2.0486 -1.2724 -1.6533
 7566SOL     OW34330   4.619   1.889   1.746 -0.3561  0.2261 -0.8632
 7566SOL    HW134331   4.691   1.904   1.807 -0.3341  1.0763 -1.0908
 7566SOL    HW234332   4.624   1.965   1.688 -1.0169 -0.2101 -1.4871
 7567SOL     OW34333   0.611   0.482   2.141 -0.3558  0.1697  0.0102
 7567SOL    HW134334   0.621   0.409   2.202  0.3446 -1.1572 -1.6911
 7567SOL    HW234335   0.671   0.451   2.074 -0.4542  1.5510 -0.7287
 7568SOL     OW34336   0.718   3.610   9.173  0.1952 -0.3685 -0.1667
 7568SOL    HW134337   0.764   3.541   9.220  0.0584 -0.3460  0.0013
 7568SOL    HW234338   0.661   3.556   9.118  0.1588 -1.4219  0.9039
 7569SOL     OW34339   3.486   1.446  14.089  0.4731  0.0201  0.1845
 7569SOL    HW134340   3.505   1.462  13.996 -0.5052  2.5645  0.4450
 7569SOL    HW234341   3.578   1.438  14.116  0.2507  1.3508  1.3324
 7570SOL     OW34342   4.362   1.497   3.772  0.4024  0.4951 -0.3435
 7570SOL    HW134343   4.332   1.587   3.775 -1.2548 -0.1164  1.5031
 7570SOL    HW234344   4.368   1.480   3.866  0.2258 -1.1139 -0.6112
 7571SOL     OW34345   2.992   0.471   8.183  0.1266  0.7938  0.1385
 7571SOL    HW134346   2.996   0.378   8.161 -1.1996  0.7547  0.0765
 7571SOL    HW234347   2.942   0.472   8.265  1.3291 -1.1321  0.8800
 7572SOL     OW34348   4.102   1.355  14.906  0.3996 -0.5897  0.3349
 7572SOL    HW134349   4.103   1.311  14.820 -1.2943 -0.8818  0.4588
 7572SOL    HW234350   4.045   1.293  14.952 -1.0881  1.0353  0.6884
 7573SOL     OW34351   0.025   4.665   8.526  0.2881  0.2580 -0.2700
 7573SOL    HW134352   4.725   4.579   8.543 -0.2031  0.7991  1.2281
 7573SOL    HW234353   0.020   4.697   8.616  0.8281  1.3257 -0.6197
 7574SOL     OW34354   2.270   3.717   6.850 -0.2552  0.5012 -0.0570
 7574SOL    HW134355   2.199   3.749   6.795 -0.7570 -3.1199 -1.4715
 7574SOL    HW234356   2.236   3.728   6.939 -3.3832 -5.2436 -0.5603
 7575SOL     OW34357   1.116   4.248  15.575  0.8542 -0.0956 -0.5269
 7575SOL    HW134358   1.140   4.261  15.667  0.7875 -2.0260 -0.2324
 7575SOL    HW234359   1.196   4.229  15.527  2.0668  0.5426  1.2668
 7576SOL     OW34360   3.980   2.674   3.554  0.0301  0.7213  0.1756
 7576SOL    HW134361   4.002   2.763   3.582  1.0908  0.4171  0.3342
 7576SOL    HW234362   3.981   2.633   3.641  1.2381  2.3216  0.9144
 7577SOL     OW34363   0.029   0.213   1.467  0.5316  0.1011 -0.7907
 7577SOL    HW134364   0.109   0.174   1.502 -0.7053 -0.5734  1.3034
 7577SOL    HW234365   0.002   0.174   1.384  1.7378 -0.9789 -0.6854
 7578SOL     OW34366   0.481   3.423   3.863 -0.4046  0.0282 -0.0540
 7578SOL    HW134367   0.484   3.519   3.855  1.0943 -0.0858 -0.7639
 7578SOL    HW234368   0.387   3.414   3.846 -0.2807  1.6611 -1.6797
 7579SOL     OW34369   0.394   1.429   6.243 -0.1279  0.0423  0.0402
 7579SOL    HW134370   0.459   1.483   6.288  0.2355 -0.6466  0.3438
 7579SOL    HW234371   0.387   1.352   6.300  0.2093  1.0189  1.3994
 7580SOL     OW34372   0.895   2.477   5.947  0.0199  0.2074  0.0905
 7580SOL    HW134373   0.843   2.474   6.028 -0.5147  0.8901 -0.2222
 7580SOL    HW234374   0.898   2.386   5.920  3.7198 -0.0548  1.4094
 7581SOL     OW34375   3.474   0.111  12.755  0.4154 -0.0071  0.4539
 7581SOL    HW134376   3.531   0.166  12.808  0.1765  1.1761 -0.5099
 7581SOL    HW234377   3.411   0.079  12.819  0.0165  1.6699  0.9139
 7582SOL     OW34378   2.272   1.857  12.011 -0.1822 -0.1099  0.2324
 7582SOL    HW134379   2.312   1.770  12.014  1.3655  0.6911  2.3632
 7582SOL    HW234380   2.206   1.842  11.942 -0.5961  1.9790  0.1844
 7583SOL     OW34381   1.287   0.882   0.488  0.4786  0.3344  0.0196
 7583SOL    HW134382   1.233   0.944   0.438 -0.0443 -0.9235 -0.9904
 7583SOL    HW234383   1.242   0.802   0.458 -0.0009  1.1222 -1.4031
 7584SOL     OW34384   0.952   4.077   5.917 -0.3548 -0.3021  0.5265
 7584SOL    HW134385   0.985   3.988   5.906 -2.9459 -1.3125  0.8037
 7584SOL    HW234386   0.897   4.060   5.993 -1.8144 -0.2896 -0.5181
 7585SOL     OW34387   2.922   3.991  12.405 -0.0140 -0.1225  0.0575
 7585SOL    HW134388   3.017   3.989  12.404 -0.0162 -0.9939  2.0048
 7585SOL    HW234389   2.914   4.085  12.390  2.2497  0.1226  0.4760
 7586SOL     OW34390   2.741   1.878   4.253 -0.1685 -0.4479  0.4431
 7586SOL    HW134391   2.650   1.858   4.275  0.3924 -1.8938  1.4445
 7586SOL    HW234392   2.728   1.885   4.159  0.1969 -3.8250  0.1121
 7587SOL     OW34393   0.726   2.949   3.546 -0.3132 -1.0444  0.3761
 7587SOL    HW134394   0.805   2.962   3.494  0.1698  1.2362  1.6749
 7587SOL    HW234395   0.724   3.025   3.604  0.5222  0.4219 -1.5207
 7588SOL     OW34396   1.314   2.040   1.002  0.0180 -0.5191 -0.1492
 7588SOL    HW134397   1.386   2.017   1.061  0.0832 -1.3788 -0.5759
 7588SOL    HW234398   1.339   2.130   0.980 -0.3274 -0.6135 -0.9146
 7589SOL     OW34399   1.210   0.934  13.132 -0.1726 -0.0359  0.5319
 7589SOL    HW134400   1.140   0.947  13.068  1.1113  0.7061 -0.7209
 7589SOL    HW234401   1.215   0.839  13.133 -1.1800 -0.0894  0.5224
 7590SOL     OW34402   3.966   3.693  17.751 -0.8244  0.0950 -0.1483
 7590SOL    HW134403   4.012   3.652  17.678 -1.1916 -0.2172 -0.2036
 7590SOL    HW234404   3.934   3.777  17.720  0.7828  0.6705 -0.2358
 7591SOL     OW34405   4.488   3.953   1.845 -0.3648  0.0983  0.4674
 7591SOL    HW134406   4.457   3.976   1.757 -1.1713  4.1977  1.8194
 7591SOL    HW234407   4.411   3.931   1.898  0.6627 -0.0120  1.9156
 7592SOL     OW34408   0.175   1.245   4.206  0.1441 -0.1843  0.3698
 7592SOL    HW134409   0.147   1.181   4.140 -1.1481  0.1162  0.6193
 7592SOL    HW234410   0.260   1.272   4.170  0.0686 -2.2717 -1.3989
 7593SOL     OW34411   1.894   3.026  10.045 -0.0535  0.1299  0.4737
 7593SOL    HW134412   1.904   3.050   9.953 -0.5375  1.9839  0.8988
 7593SOL    HW234413   1.952   2.950  10.051  0.1432  0.2764  0.4289
 7594SOL     OW34414   0.227   0.717   7.708  0.6637 -0.2336 -0.3315
 7594SOL    HW134415   0.160   0.717   7.639  1.9196 -4.3588 -1.5704
 7594SOL    HW234416   0.276   0.798   7.694 -0.6264  0.8079  1.1977
 7595SOL     OW34417   2.749   2.956   6.179 -0.3009  0.2995  0.4047
 7595SOL    HW134418   2.687   3.029   6.180  2.4074  2.5941  1.1400
 7595SOL    HW234419   2.699   2.880   6.208 -0.1477 -0.3500 -1.0643
 7596SOL     OW34420   4.294   3.531  17.177  0.2310  0.6395  0.1131
 7596SOL    HW134421   4.211   3.505  17.137  1.3667  0.8146 -2.4107
 7596SOL    HW234422   4.263   3.534  17.267 -0.5783  0.6780 -0.1641
 7597SOL     OW34423   2.554   1.139   4.723  0.5224  0.9390 -0.1549
 7597SOL    HW134424   2.521   1.100   4.642  0.3089  0.3296  0.2258
 7597SOL    HW234425   2.606   1.065   4.754 -2.6415 -1.4343 -0.5542
 7598SOL     OW34426   1.478   4.220   4.522 -0.1322 -0.1009 -0.0222
 7598SOL    HW134427   1.492   4.137   4.475 -1.3849 -0.3859  0.1080
 7598SOL    HW234428   1.457   4.278   4.448 -0.3579  1.1708  1.0524
 7599SOL     OW34429   1.255   1.069  13.378  0.0548 -0.4234  0.5760
 7599SOL    HW134430   1.246   1.013  13.301  0.5783  0.0761  0.1447
 7599SOL    HW234431   1.174   1.120  13.383  0.1862 -0.2173  0.6240
 7600SOL     OW34432   1.240   4.291   8.360  0.1381  0.0299  0.4479
 7600SOL    HW134433   1.211   4.378   8.387  1.7652 -0.5765  3.9904
 7600SOL    HW234434   1.320   4.285   8.411  1.5047 -2.8527 -1.9917
 7601SOL     OW34435   1.543   3.605   4.979  0.4878 -0.5661 -0.2973
 7601SOL    HW134436   1.612   3.563   4.928  0.9528  3.2975 -2.9079
 7601SOL    HW234437   1.593   3.598   5.060 -1.0410  0.8738  0.7622
 7602SOL     OW34438   4.736   4.707   1.784 -0.0442 -0.1075  0.2077
 7602SOL    HW134439   4.658   4.654   1.798 -0.9150  0.5897 -2.0400
 7602SOL    HW234440   0.033   4.711   1.873 -0.2403  1.2001  0.2306
 7603SOL     OW34441   1.367   1.037   5.547  0.3844 -0.4570  0.9004
 7603SOL    HW134442   1.313   1.104   5.589 -0.0279 -1.1215  1.4464
 7603SOL    HW234443   1.391   1.083   5.467 -0.2211 -1.2324  0.2699
 7604SOL     OW34444   3.135   1.552   0.349 -0.4943  0.6673 -0.3488
 7604SOL    HW134445   3.220   1.508   0.352 -0.3787  0.8272 -1.2046
 7604SOL    HW234446   3.084   1.474   0.370  0.6503  0.0057 -0.0077
 7605SOL     OW34447   3.942   2.268  13.000  0.3974 -0.0098 -0.3780
 7605SOL    HW134448   3.881   2.338  12.980 -0.1775  0.3225  2.5856
 7605SOL    HW234449   3.925   2.241  13.090  1.4032 -0.5499 -0.3407
 7606SOL     OW34450   2.909   4.474  10.657  0.5227  0.4644 -0.4893
 7606SOL    HW134451   2.939   4.402  10.713 -0.8910  0.5714  0.3791
 7606SOL    HW234452   2.990   4.504  10.615 -0.2558  1.7963 -1.0414
 7607SOL     OW34453   1.426   2.805   5.421  0.4580  0.2419 -0.1894
 7607SOL    HW134454   1.450   2.897   5.410  0.5893 -0.0435 -2.3016
 7607SOL    HW234455   1.509   2.760   5.407  0.5595  1.0252 -2.0469
 7608SOL     OW34456   1.552   4.263   9.666 -0.0648 -0.1271  0.4575
 7608SOL    HW134457   1.586   4.315   9.593 -0.6182 -0.1621  0.1730
 7608SOL    HW234458   1.609   4.285   9.740  1.6385  0.8671 -1.1251
 7609SOL     OW34459   2.606   4.671  17.520  0.1364 -0.1140 -0.8563
 7609SOL    HW134460   2.635   4.711  17.601  0.2250 -0.3332 -0.7810
 7609SOL    HW234461   2.665   4.713  17.458 -1.2693 -0.3066 -2.3444
 7610SOL     OW34462   1.590   2.540   4.843  0.8324 -0.2608  0.0417
 7610SOL    HW134463   1.560   2.614   4.791  1.7040  1.3478  1.8409
 7610SOL    HW234464   1.681   2.563   4.859  0.9179 -0.6869  0.1659
 7611SOL     OW34465   2.692   0.544   1.541  0.3585 -0.3717  0.1812
 7611SOL    HW134466   2.629   0.591   1.487  0.7349 -0.3262 -0.2163
 7611SOL    HW234467   2.717   0.598   1.615  0.6808  0.3500 -0.4551
 7612SOL     OW34468   3.068   3.793  13.456  0.4523  0.0173  0.0872
 7612SOL    HW134469   3.157   3.760  13.457  0.3224 -0.3534 -0.5285
 7612SOL    HW234470   3.030   3.742  13.385 -0.4191 -0.3092  0.7921
 7613SOL     OW34471   1.399   2.678   8.708  1.1551  0.3089  0.2718
 7613SOL    HW134472   1.395   2.773   8.717 -0.9789 -0.0876  3.5183
 7613SOL    HW234473   1.439   2.649   8.790  1.3375  0.5034  0.2523
 7614SOL     OW34474   1.817   2.607   6.269  0.0842  0.2150 -0.4794
 7614SOL    HW134475   1.835   2.559   6.350  1.3135 -0.6535 -1.2771
 7614SOL    HW234476   1.884   2.573   6.210 -1.4488 -1.3947 -1.2652
 7615SOL     OW34477   3.357   2.376  16.513 -0.2074  0.4357  0.6183
 7615SOL    HW134478   3.437   2.364  16.463 -0.3606  1.0875  0.2196
 7615SOL    HW234479   3.333   2.462  16.479  2.4818  1.1653  0.5942
 7616SOL     OW34480   2.093   3.852   9.480  0.3038 -0.3585  0.9230
 7616SOL    HW134481   2.014   3.831   9.430  1.6449 -0.6120 -1.0793
 7616SOL    HW234482   2.136   3.917   9.424 -0.2186  1.2240  2.3695
 7617SOL     OW34483   0.110   4.254   5.890  0.8779  0.2156 -0.3154
 7617SOL    HW134484   0.204   4.256   5.874  1.3364 -1.4960  2.2898
 7617SOL    HW234485   0.081   4.248   5.799 -0.3572  3.4643 -0.1540
 7618SOL     OW34486   3.564   0.814   0.362  0.3958 -0.1936 -0.5132
 7618SOL    HW134487   3.509   0.749   0.318 -0.4611  1.7374 -2.2383
 7618SOL    HW234488   3.576   0.773   0.448 -0.1441 -0.7578 -0.7052
 7619SOL     OW34489   3.807   1.194   8.598 -0.2145  0.0311 -0.7087
 7619SOL    HW134490   3.878   1.223   8.656 -0.8884  1.4276 -0.5974
 7619SOL    HW234491   3.785   1.110   8.639  0.5491 -0.8434 -2.0771
 7620SOL     OW34492   3.691   1.152   6.532 -0.3990 -0.1447 -0.8206
 7620SOL    HW134493   3.715   1.060   6.547  0.1417  0.4075  1.8074
 7620SOL    HW234494   3.673   1.148   6.438 -2.4366 -1.1158 -0.3897
 7621SOL     OW34495   3.295   1.823   3.615  0.0675  0.0483 -0.6907
 7621SOL    HW134496   3.345   1.741   3.612  1.0131  0.6438 -1.2984
 7621SOL    HW234497   3.209   1.784   3.603  0.7939 -1.3854 -1.2330
 7622SOL     OW34498   1.317   2.651   6.172 -0.1302  0.7337 -0.6441
 7622SOL    HW134499   1.375   2.589   6.128 -1.1814 -0.7562  0.0584
 7622SOL    HW234500   1.301   2.731   6.121 -1.4612  1.8539  1.5035
 7623SOL     OW34501   1.579   4.562   3.389 -0.5824 -0.6011 -0.4849
 7623SOL    HW134502   1.666   4.574   3.426  0.1134  0.1615 -2.3436
 7623SOL    HW234503   1.578   4.466   3.391 -2.4125 -0.5693  0.0773
 7624SOL     OW34504   2.779   3.814   4.189  0.1112 -0.2562 -0.0298
 7624SOL    HW134505   2.849   3.749   4.195  2.1168  1.8057 -1.0150
 7624SOL    HW234506   2.722   3.761   4.133 -1.6104  0.3502  1.1443
 7625SOL     OW34507   2.968   1.580   4.094  0.9131  0.3503 -0.0546
 7625SOL    HW134508   3.019   1.656   4.121 -0.0233  1.3618 -1.1443
 7625SOL    HW234509   3.018   1.551   4.018  0.7838  1.4674 -0.5715
 7626SOL     OW34510   0.179   1.713  13.451 -0.4915  0.8797 -0.0187
 7626SOL    HW134511   0.261   1.687  13.492 -0.4083  1.1269 -0.0250
 7626SOL    HW234512   0.161   1.801  13.486 -0.0500  0.7502  0.5330
 7627SOL     OW34513   1.151   3.404   4.333 -0.1716  0.1910 -0.5700
 7627SOL    HW134514   1.079   3.343   4.346  1.1402 -1.3921 -0.7268
 7627SOL    HW234515   1.181   3.423   4.422  1.0417 -0.8598 -0.7527
 7628SOL     OW34516   3.076   0.670   3.470  0.2233  0.0985 -0.6267
 7628SOL    HW134517   3.080   0.582   3.507 -0.6808  0.7656  1.0771
 7628SOL    HW234518   3.144   0.659   3.404  1.0139 -1.9128  0.5186
 7629SOL     OW34519   3.927   1.884  17.734  0.3988  0.2573  0.2076
 7629SOL    HW134520   3.975   1.901   0.060 -1.0009 -3.6724  1.8681
 7629SOL    HW234521   3.836   1.903  17.753  0.3783  1.1513 -0.8021
 7630SOL     OW34522   4.227   2.990  15.406  0.4604 -0.5255 -0.2657
 7630SOL    HW134523   4.295   3.016  15.469  0.5921 -2.0058  0.2051
 7630SOL    HW234524   4.281   2.963  15.332  1.1600 -1.1225  0.4597
 7631SOL     OW34525   0.119   2.900   5.182 -0.3003 -0.2451 -0.0656
 7631SOL    HW134526   0.071   2.948   5.115 -0.6858 -2.4736 -1.4007
 7631SOL    HW234527   0.071   2.931   5.258  1.3860  0.2349  0.7976
 7632SOL     OW34528   4.538   1.599  16.487  0.2526  0.8050 -0.2947
 7632SOL    HW134529   4.585   1.518  16.508 -0.7840  0.3024  0.0891
 7632SOL    HW234530   4.609   1.657  16.458  1.0071 -0.2325 -0.5442
 7633SOL     OW34531   4.425   2.738   1.973 -0.4983  0.0438  0.3584
 7633SOL    HW134532   4.504   2.774   2.012 -0.7357 -0.1833  1.0447
 7633SOL    HW234533   4.375   2.818   1.956  1.0488  0.7706 -0.7075
 7634SOL     OW34534   4.502   2.348   9.501 -0.1475 -0.3362 -0.0588
 7634SOL    HW134535   4.426   2.327   9.555  0.4291  0.1965  0.9372
 7634SOL    HW234536   4.523   2.438   9.524  0.8009 -0.5542 -0.0882
 7635SOL     OW34537   0.223   0.585   2.424  0.2438  0.3210 -0.7520
 7635SOL    HW134538   0.174   0.625   2.353  2.4581  0.3474 -2.2720
 7635SOL    HW234539   0.313   0.602   2.395  0.3991 -0.2367 -0.6000
 7636SOL     OW34540   1.845   0.986  16.794  0.7109  0.1457 -0.6364
 7636SOL    HW134541   1.832   0.997  16.888 -0.5353  0.3689 -0.8309
 7636SOL    HW234542   1.899   0.907  16.794  1.9983  1.0243 -1.4360
 7637SOL     OW34543   3.313   0.790   2.915 -0.5336  0.1823  0.0143
 7637SOL    HW134544   3.368   0.818   2.988 -0.7563  2.4387 -0.7038
 7637SOL    HW234545   3.388   0.795   2.856  1.1442  0.5820  2.1887
 7638SOL     OW34546   1.117   1.460   2.988  0.4257  0.3969  0.4352
 7638SOL    HW134547   1.075   1.543   2.969 -2.1815 -0.8533  0.7435
 7638SOL    HW234548   1.046   1.417   3.035 -0.5149  0.1039 -1.2918
 7639SOL     OW34549   3.487   0.865   6.768 -0.5639 -0.1932  0.1989
 7639SOL    HW134550   3.548   0.869   6.841  0.9286  0.1490 -1.0602
 7639SOL    HW234551   3.442   0.783   6.789  0.1222 -0.7474 -0.4873
 7640SOL     OW34552   1.491   2.895   2.891  0.1772  0.6204  0.3051
 7640SOL    HW134553   1.496   2.941   2.975 -0.1269 -1.7977  1.6333
 7640SOL    HW234554   1.423   2.829   2.903  0.3426  0.2791 -0.6599
 7641SOL     OW34555   4.390   0.358   2.664 -0.2535 -0.4219  0.7481
 7641SOL    HW134556   4.482   0.342   2.689  0.6349  0.1481 -2.2261
 7641SOL    HW234557   4.399   0.420   2.592  0.9266  1.3310  2.3838
 7642SOL     OW34558   0.894   2.070  12.567 -0.2626  0.1632  0.2459
 7642SOL    HW134559   0.935   2.019  12.498 -0.9575  0.9212 -0.7326
 7642SOL    HW234560   0.823   2.010  12.591  1.4204 -2.1311 -0.6222
 7643SOL     OW34561   0.568   4.435  15.161  0.0419  0.0502  0.3787
 7643SOL    HW134562   0.649   4.407  15.205  0.1155 -1.8436 -0.9575
 7643SOL    HW234563   0.526   4.355  15.129  1.8908  0.4078 -2.9339
 7644SOL     OW34564   1.473   2.223   6.483 -0.1549 -0.5763  0.6964
 7644SOL    HW134565   1.552   2.273   6.462 -1.0866  0.6501  0.0993
 7644SOL    HW234566   1.423   2.248   6.406 -0.6702  0.4409  1.3614
 7645SOL     OW34567   3.705   4.482   4.761 -0.2507  0.2367  0.5139
 7645SOL    HW134568   3.733   4.567   4.729 -2.0314  0.4327 -0.5094
 7645SOL    HW234569   3.762   4.430   4.704 -2.3464  0.0259 -1.3646
 7646SOL     OW34570   2.699   0.707   0.474 -0.0343 -0.0340  0.4313
 7646SOL    HW134571   2.633   0.744   0.532  0.4975  1.0467  0.3426
 7646SOL    HW234572   2.708   0.626   0.524 -0.2287  0.6056  1.4910
 7647SOL     OW34573   3.457   2.479  13.626  0.5297 -0.2041 -0.3752
 7647SOL    HW134574   3.537   2.495  13.575  1.1137 -1.5518  0.1103
 7647SOL    HW234575   3.432   2.390  13.602  1.8395 -0.8262  0.5507
 7648SOL     OW34576   2.089   4.165   8.959 -0.3716 -0.1131  0.0650
 7648SOL    HW134577   2.047   4.247   8.933  0.4762  0.1126 -0.5675
 7648SOL    HW234578   2.109   4.134   8.871  2.0111 -0.9920  0.9330
 7649SOL     OW34579   2.593   0.765   1.716 -0.5938 -0.4954 -0.1086
 7649SOL    HW134580   2.625   0.842   1.670  0.6074 -0.3822  0.9214
 7649SOL    HW234581   2.642   0.768   1.799  1.1122  1.6134 -1.2205
 7650SOL     OW34582   2.876   2.894   5.483  0.3333  0.5240  0.2053
 7650SOL    HW134583   2.788   2.932   5.478 -0.2536 -0.4613  2.7634
 7650SOL    HW234584   2.914   2.942   5.557  2.4380  2.5070 -2.1627
 7651SOL     OW34585   1.421   1.728   5.425  0.3633  0.2100  0.2749
 7651SOL    HW134586   1.479   1.659   5.392 -0.6942 -0.2133 -0.7187
 7651SOL    HW234587   1.371   1.748   5.345 -2.0073 -1.4238  1.3552
 7652SOL     OW34588   1.915   2.505  16.525 -0.1392  0.0333 -0.3698
 7652SOL    HW134589   1.845   2.559  16.560  1.0556  2.2740 -1.4211
 7652SOL    HW234590   1.991   2.563  16.515  0.6332 -0.7371  1.0308
 7653SOL     OW34591   2.638   0.856   6.679  0.6198  0.6058 -0.0778
 7653SOL    HW134592   2.655   0.875   6.587  0.1924  2.0589  0.1426
 7653SOL    HW234593   2.570   0.921   6.699  0.2352  0.1551  0.0715
 7654SOL     OW34594   3.718   3.207   4.096  0.3433 -0.5525 -0.3987
 7654SOL    HW134595   3.688   3.221   4.006  1.0921 -0.0072 -0.5713
 7654SOL    HW234596   3.805   3.175   4.071  0.8901  0.2567  0.4942
 7655SOL     OW34597   3.450   2.302  10.766 -0.4026 -0.0093 -0.1143
 7655SOL    HW134598   3.500   2.251  10.830 -1.4847  0.1494  0.8497
 7655SOL    HW234599   3.489   2.389  10.763  2.1915 -1.2910 -2.4675
 7656SOL     OW34600   2.470   0.284   4.295  0.6885  0.6821 -0.5688
 7656SOL    HW134601   2.491   0.223   4.225 -2.3347  0.2334 -1.0717
 7656SOL    HW234602   2.523   0.253   4.369  0.2627  3.2104  0.7902
 7657SOL     OW34603   0.662   1.391   4.771  0.1388 -0.0224  0.3757
 7657SOL    HW134604   0.706   1.319   4.726 -0.3483 -0.3168  0.3705
 7657SOL    HW234605   0.589   1.338   4.804  1.3100 -0.5976  2.0472
 7658SOL     OW34606   2.806   2.446   5.818  1.0236 -0.5738 -0.1520
 7658SOL    HW134607   2.857   2.426   5.897  1.4420 -0.8587 -0.4983
 7658SOL    HW234608   2.742   2.375   5.812 -0.6353  0.9960 -0.8338
 7659SOL     OW34609   3.813   2.593   4.677  0.3139  0.1666  0.1843
 7659SOL    HW134610   3.759   2.655   4.628 -1.2419 -0.2281  1.4137
 7659SOL    HW234611   3.788   2.632   4.760 -0.7594 -0.7082  0.2627
 7660SOL     OW34612   1.427   3.087   5.423  0.4653  0.8892  0.7612
 7660SOL    HW134613   1.518   3.119   5.430  0.7128  0.3472  0.0384
 7660SOL    HW234614   1.381   3.160   5.380  0.6062  1.2618  1.2359
 7661SOL     OW34615   3.212   4.515  17.716  0.2257 -0.1074 -0.4881
 7661SOL    HW134616   3.218   4.421  17.729  0.6896  0.0022  0.1239
 7661SOL    HW234617   3.134   4.520  17.661 -1.5697  2.0000  2.2080
 7662SOL     OW34618   3.583   4.684   3.104 -0.4402  0.0505 -0.0595
 7662SOL    HW134619   3.678   4.677   3.112 -0.2285  1.3507 -1.4111
 7662SOL    HW234620   3.582   4.627   3.027  2.0273  0.2599 -0.2416
 7663SOL     OW34621   4.277   2.925  10.930 -0.5502  0.2606  0.5731
 7663SOL    HW134622   4.306   2.847  10.882 -1.5972 -0.5612  1.2738
 7663SOL    HW234623   4.274   2.898  11.021  0.8542  0.8647  0.7893
 7664SOL     OW34624   4.638   1.277  17.592 -0.1941 -0.6908  0.3221
 7664SOL    HW134625   4.553   1.318  17.579 -0.1607 -0.7868 -0.2203
 7664SOL    HW234626   4.627   1.210  17.524 -2.1530  0.3203 -0.3592
 7665SOL     OW34627   4.399   0.936   6.533 -0.0047 -0.8937  0.3484
 7665SOL    HW134628   4.482   0.894   6.556  0.7729  0.0300 -0.7858
 7665SOL    HW234629   4.417   0.970   6.446  0.1682  3.8795  2.2274
 7666SOL     OW34630   3.546   3.326   8.016  0.3522 -0.5958  0.2864
 7666SOL    HW134631   3.621   3.280   7.980  0.9281 -0.8043  1.7440
 7666SOL    HW234632   3.521   3.269   8.089 -0.6075 -0.8987 -0.2698
 7667SOL     OW34633   3.332   0.489   7.211 -0.1264 -0.1468 -0.1063
 7667SOL    HW134634   3.396   0.532   7.154  0.0573  0.8615  0.8560
 7667SOL    HW234635   3.254   0.532   7.175  0.8112  1.1300 -0.6127
 7668SOL     OW34636   0.051   1.500   6.647  0.4928  0.4026 -0.3259
 7668SOL    HW134637   0.082   1.515   6.736 -1.0434 -4.1512  0.9721
 7668SOL    HW234638   0.104   1.426   6.618  1.2947  0.1454  1.8435
 7669SOL     OW34639   4.382   1.105   4.706 -0.1198 -0.1038  0.3790
 7669SOL    HW134640   4.351   1.095   4.615 -0.3273  1.2177  0.3048
 7669SOL    HW234641   4.303   1.131   4.753 -0.6729  0.4930 -0.8511
 7670SOL     OW34642   3.473   1.191   8.272  0.2748 -0.0521  0.9604
 7670SOL    HW134643   3.560   1.218   8.302  0.1704  0.9261  0.4200
 7670SOL    HW234644   3.499   1.192   8.179  0.2398  1.8049  0.9567
 7671SOL     OW34645   0.731   2.420  13.783  0.3622 -0.5502  0.2995
 7671SOL    HW134646   0.813   2.378  13.808  0.7881  0.3314  0.3520
 7671SOL    HW234647   0.698   2.439  13.871 -0.4170 -1.0369  0.1223
 7672SOL     OW34648   4.027   2.770   2.093  0.3831  0.5939 -0.0390
 7672SOL    HW134649   3.968   2.836   2.128  0.7301  1.8206 -1.7433
 7672SOL    HW234650   4.009   2.707   2.162  1.7208  2.4346  1.9740
 7673SOL     OW34651   0.506   1.728   4.650  0.2808 -0.4221  0.0501
 7673SOL    HW134652   0.484   1.666   4.580 -0.1373  0.2562 -0.4094
 7673SOL    HW234653   0.600   1.711   4.662  0.5761  0.9587 -0.3633
 7674SOL     OW34654   2.610   2.522   3.575  0.0455  0.1234 -0.0170
 7674SOL    HW134655   2.589   2.574   3.497  1.3571  1.5846  0.6083
 7674SOL    HW234656   2.704   2.529   3.592 -0.1476  0.9117  0.6979
 7675SOL     OW34657   4.406   1.260  17.276 -1.1779 -0.5278  0.1116
 7675SOL    HW134658   4.495   1.227  17.284 -1.7723 -1.9163  1.1549
 7675SOL    HW234659   4.417   1.354  17.285 -1.6476 -0.1764 -2.8188
 7676SOL     OW34660   1.204   2.560   6.951 -0.4581 -0.4955 -0.0825
 7676SOL    HW134661   1.298   2.576   6.951 -0.6184  0.4694  1.1358
 7676SOL    HW234662   1.176   2.588   6.863  0.2433 -0.7495 -0.3904
 7677SOL     OW34663   0.399   4.350   6.482  0.5791  0.6818 -0.1008
 7677SOL    HW134664   0.313   4.315   6.460  0.8584  1.0164 -1.7281
 7677SOL    HW234665   0.418   4.305   6.564 -1.3074  0.5090  0.2323
 7678SOL     OW34666   1.818   2.843  10.758 -0.0299  0.5819  0.0782
 7678SOL    HW134667   1.825   2.770  10.696  4.8298  1.2194 -0.0619
 7678SOL    HW234668   1.772   2.805  10.833 -0.4165  1.5365  0.3176
 7679SOL     OW34669   2.535   4.130  13.997  0.0495  0.2644  0.2602
 7679SOL    HW134670   2.492   4.205  13.957  0.4318  0.3252 -0.0339
 7679SOL    HW234671   2.626   4.159  14.002  0.5066 -1.2337  0.6740
 7680SOL     OW34672   3.865   3.576   9.059 -0.4426 -0.6061 -0.2889
 7680SOL    HW134673   3.923   3.521   9.006  0.3012 -0.7751  0.7205
 7680SOL    HW234674   3.894   3.559   9.148 -0.1296 -0.9850 -0.4620
 7681SOL     OW34675   4.399   0.223   8.278 -0.1461  0.7301 -0.3240
 7681SOL    HW134676   4.432   0.191   8.194  1.9854  0.5564  0.5913
 7681SOL    HW234677   4.480   0.263   8.311  0.6608 -0.7273 -0.5679
 7682SOL     OW34678   0.286   0.817   2.114  0.1043  0.0066 -0.2546
 7682SOL    HW134679   0.206   0.801   2.164  0.4865  1.8183  0.9521
 7682SOL    HW234680   0.355   0.766   2.155  0.1485  0.5111  0.2986
 7683SOL     OW34681   0.341   0.448   1.966  0.4049 -0.1145 -0.0118
 7683SOL    HW134682   0.386   0.412   2.043 -2.5539  1.1307  2.3236
 7683SOL    HW234683   0.375   0.400   1.891 -3.4114 -1.0222 -1.1785
 7684SOL     OW34684   3.320   3.801   6.238  0.6658 -0.3038 -0.1733
 7684SOL    HW134685   3.305   3.729   6.299  0.3506  0.5815  0.7952
 7684SOL    HW234686   3.280   3.759   6.162 -2.5735 -1.3072  2.0649
 7685SOL     OW34687   1.582   2.149   9.741  0.0325  0.2442  0.2038
 7685SOL    HW134688   1.549   2.135   9.830 -0.5761 -0.0346 -0.0608
 7685SOL    HW234689   1.549   2.238   9.728 -2.5386 -0.3621  2.4291
 7686SOL     OW34690   3.584   1.909  10.237  0.6205 -0.1353 -0.3181
 7686SOL    HW134691   3.568   1.929  10.144  0.2587 -0.1320 -0.2548
 7686SOL    HW234692   3.614   1.995  10.265  3.0805 -1.6453  1.7015
 7687SOL     OW34693   0.606   4.224   2.599 -0.2295  1.0138 -0.0593
 7687SOL    HW134694   0.579   4.287   2.665  0.6717  1.8031 -0.4482
 7687SOL    HW234695   0.637   4.159   2.662  2.1511 -0.6782 -2.9485
 7688SOL     OW34696   4.595   0.173   5.548  0.1841 -0.5923 -0.0871
 7688SOL    HW134697   4.635   0.211   5.626  1.0679  0.3368 -0.9866
 7688SOL    HW234698   4.505   0.154   5.576  0.0087 -0.4152 -0.5091
 7689SOL     OW34699   4.237   2.493  10.846 -0.0948  0.2217  0.3848
 7689SOL    HW134700   4.197   2.410  10.872 -1.3597 -0.0196 -2.3285
 7689SOL    HW234701   4.234   2.547  10.925  1.6505  0.8503  0.0194
 7690SOL     OW34702   0.346   1.023   1.561  0.5117 -0.6552 -0.0568
 7690SOL    HW134703   0.374   1.081   1.632 -0.2954  0.5533 -0.7111
 7690SOL    HW234704   0.425   1.010   1.510  1.1229  1.3486  0.3684
 7691SOL     OW34705   0.443   0.906   2.853 -0.2703 -0.5212 -0.0327
 7691SOL    HW134706   0.489   0.975   2.900  0.3172 -0.4601 -0.7032
 7691SOL    HW234707   0.511   0.855   2.808 -1.6496 -1.9229 -0.5477
 7692SOL     OW34708   2.060   3.753  17.043  0.6895 -0.3624  0.0959
 7692SOL    HW134709   1.987   3.786  16.990 -0.5595 -1.1438  1.3427
 7692SOL    HW234710   2.030   3.664  17.064  1.1207 -0.5784 -0.1969
 7693SOL     OW34711   2.049   2.812  12.711  0.2690  0.0372 -0.0367
 7693SOL    HW134712   2.060   2.813  12.806  0.4233 -0.5339 -0.0488
 7693SOL    HW234713   2.111   2.878  12.681  0.4092  0.8501  2.0327
 7694SOL     OW34714   2.853   1.395   8.362  0.3222  0.2208 -0.2362
 7694SOL    HW134715   2.857   1.485   8.328  1.6970  0.7817  1.4026
 7694SOL    HW234716   2.912   1.381   8.436 -1.6113 -3.6436  0.5754
 7695SOL     OW34717   0.690   3.845   8.233  0.1926 -0.4395 -0.1128
 7695SOL    HW134718   0.664   3.817   8.145 -1.5876  2.1560 -0.4278
 7695SOL    HW234719   0.638   3.925   8.242 -2.1058 -2.2074  2.2401
 7696SOL     OW34720   1.311   3.567  14.486 -0.1631 -0.1741  0.4950
 7696SOL    HW134721   1.229   3.609  14.511 -0.6556 -0.8366 -0.0039
 7696SOL    HW234722   1.367   3.573  14.564 -2.1730 -0.3792  1.9592
 7697SOL     OW34723   3.306   4.015  11.661 -0.2737 -0.6649  0.4921
 7697SOL    HW134724   3.384   3.978  11.701 -0.2719 -0.3487  0.7774
 7697SOL    HW234725   3.236   3.959  11.695 -0.7580  0.3976  1.2239
 7698SOL     OW34726   0.878   2.079   4.172  0.1609  0.5322 -0.0903
 7698SOL    HW134727   0.885   2.160   4.121 -1.7797 -0.0550 -1.2740
 7698SOL    HW234728   0.801   2.113   4.218 -0.7954 -1.2771 -0.3663
 7699SOL     OW34729   4.648   2.855   2.112 -0.3926 -0.4270 -0.5599
 7699SOL    HW134730   4.689   2.789   2.168  0.9081  1.9675  1.2931
 7699SOL    HW234731   4.717   2.921   2.103 -1.2063  0.5374  0.4365
 7700SOL     OW34732   2.211   4.710  17.011  0.1085 -0.0060  0.6928
 7700SOL    HW134733   2.220   4.713  17.107 -0.8094 -0.5908  0.7960
 7700SOL    HW234734   2.130   0.018  16.992  0.5171 -0.3154 -1.8298
 7701SOL     OW34735   2.390   2.836   7.865  0.1447 -0.8788 -0.0340
 7701SOL    HW134736   2.471   2.888   7.866  0.3501 -1.1944 -0.3322
 7701SOL    HW234737   2.382   2.811   7.957  0.1013  0.2204  0.2604
 7702SOL     OW34738   4.344   3.525   0.154 -0.6115 -0.1354  0.2393
 7702SOL    HW134739   4.307   3.594   0.209  1.0259  2.1983 -1.5910
 7702SOL    HW234740   4.439   3.535   0.161 -0.4589 -1.4926  0.1098
 7703SOL     OW34741   2.538   4.629   4.434 -0.0610  0.0779 -0.4567
 7703SOL    HW134742   2.555   4.598   4.523 -0.4290  1.5281  0.1190
 7703SOL    HW234743   2.609   4.585   4.388  0.7267  0.0020  0.8300
 7704SOL     OW34744   0.599   0.752  16.065 -0.5159 -0.3609 -0.3859
 7704SOL    HW134745   0.508   0.725  16.076  0.0051 -0.5531  3.4977
 7704SOL    HW234746   0.584   0.846  16.071  0.9474 -0.3072  2.6419
 7705SOL     OW34747   0.960   3.432   9.556  0.0560  0.0356  0.2537
 7705SOL    HW134748   0.988   3.420   9.647  0.1183 -0.0063  0.2287
 7705SOL    HW234749   1.038   3.413   9.504 -1.0480 -1.3005 -0.9025
 7706SOL     OW34750   1.648   0.016   6.208 -0.2766 -0.5451 -0.4685
 7706SOL    HW134751   1.738   0.047   6.203 -0.1459 -1.0109 -1.0604
 7706SOL    HW234752   1.623   0.046   6.296 -1.8093 -2.3138 -0.3006
 7707SOL     OW34753   3.599   3.860   4.998 -0.0434 -0.0718 -0.8152
 7707SOL    HW134754   3.518   3.893   5.035  0.2640  0.0876 -0.2859
 7707SOL    HW234755   3.599   3.765   5.008 -0.9699  0.3303  2.9245
 7708SOL     OW34756   1.282   3.395   8.988  0.2457 -0.5225 -0.5832
 7708SOL    HW134757   1.223   3.466   9.013  2.0130 -0.3701  3.1936
 7708SOL    HW234758   1.305   3.401   8.895 -1.8439  0.3834 -1.0306
 7709SOL     OW34759   2.932   3.085   7.652 -0.0056  0.4376 -0.2074
 7709SOL    HW134760   2.908   3.169   7.690  0.1610 -0.1017  1.1203
 7709SOL    HW234761   2.989   3.114   7.581  0.1443 -2.7573 -1.3744
 7710SOL     OW34762   3.988   3.760   8.886 -0.0125 -0.0036  0.0323
 7710SOL    HW134763   3.935   3.720   8.817 -0.5894  0.3324  0.2862
 7710SOL    HW234764   3.931   3.733   8.958  0.2899  1.4831  0.8233
 7711SOL     OW34765   3.723   4.642   4.419 -1.0026 -0.2044 -0.7059
 7711SOL    HW134766   3.757   4.677   4.337 -0.0663 -0.5325 -0.4709
 7711SOL    HW234767   3.747   4.550   4.406  1.7931  0.5034 -0.6689
 7712SOL     OW34768   4.513   3.719   7.463 -0.4293  0.3476 -0.1007
 7712SOL    HW134769   4.510   3.814   7.455  2.5491  0.5521  0.9530
 7712SOL    HW234770   4.467   3.702   7.545  0.1048 -3.0240 -0.4866
 7713SOL     OW34771   2.975   4.562   8.015 -0.0416  0.1954  0.5967
 7713SOL    HW134772   2.989   4.548   7.922 -0.7485 -1.1115  0.6805
 7713SOL    HW234773   2.927   4.645   8.010  2.2212  1.6589  2.8860
 7714SOL     OW34774   1.982   2.732   3.130 -0.4270  0.5562 -0.2918
 7714SOL    HW134775   2.059   2.774   3.092  0.4510  2.0956  3.2394
 7714SOL    HW234776   1.999   2.761   3.219  0.1911 -0.8541  0.0534
 7715SOL     OW34777   4.133   0.578   8.448 -0.4984  0.1311 -0.2075
 7715SOL    HW134778   4.119   0.507   8.385 -1.2543 -1.2964  1.5699
 7715SOL    HW234779   4.171   0.647   8.394  0.3385 -0.0047  0.2109
 7716SOL     OW34780   4.067   3.857   8.487  0.0258 -0.2634 -0.0554
 7716SOL    HW134781   4.092   3.800   8.560 -0.1288 -0.8420 -0.4558
 7716SOL    HW234782   4.073   3.942   8.531  0.5149 -2.0835  3.4185
 7717SOL     OW34783   3.927   1.026  12.555 -0.2026 -0.9129  0.5304
 7717SOL    HW134784   3.909   0.951  12.498  2.9995 -0.6432 -0.8714
 7717SOL    HW234785   3.863   1.089  12.520  1.2936  1.7762  2.6359
 7718SOL     OW34786   0.670   4.578   4.081  0.1260 -0.1710 -0.6511
 7718SOL    HW134787   0.726   4.655   4.092 -0.4496 -0.1008  1.9501
 7718SOL    HW234788   0.674   4.572   3.986 -0.3824 -0.9236 -0.6208
 7719SOL     OW34789   2.329   2.828   5.441 -0.2068  0.2188  0.2231
 7719SOL    HW134790   2.327   2.799   5.532  0.8361  0.1084  0.2100
 7719SOL    HW234791   2.243   2.868   5.436 -0.4426 -0.1519  1.4873
 7720SOL     OW34792   4.586   3.623  13.859  0.7894  0.0764 -0.7055
 7720SOL    HW134793   4.664   3.676  13.874  0.9128 -0.4583  0.5064
 7720SOL    HW234794   4.605   3.541  13.904  1.7447 -0.9534 -2.9869
 7721SOL     OW34795   1.090   3.464   3.848 -0.2276  0.2237 -0.0335
 7721SOL    HW134796   1.026   3.423   3.905 -0.7554 -0.3320 -1.0357
 7721SOL    HW234797   1.117   3.397   3.786  0.7285 -0.6563  1.3362
 7722SOL     OW34798   3.390   3.145   3.369 -0.6012 -0.3631  0.2481
 7722SOL    HW134799   3.446   3.091   3.314 -0.1431  0.7377 -0.3685
 7722SOL    HW234800   3.326   3.079   3.398 -0.7144 -0.6519 -0.6836
 7723SOL     OW34801   0.990   0.863  15.194  0.6555  0.3758 -0.4651
 7723SOL    HW134802   0.965   0.884  15.104  0.6997 -0.1881 -0.6089
 7723SOL    HW234803   1.051   0.932  15.218 -0.2372 -0.0397  2.9694
 7724SOL     OW34804   2.072   3.846   9.768 -0.3626 -0.7022  0.0238
 7724SOL    HW134805   2.032   3.905   9.705  0.7788  0.0649  0.0185
 7724SOL    HW234806   2.143   3.808   9.716 -0.2421 -0.2294 -0.1575
 7725SOL     OW34807   3.459   0.234   7.093  0.2054  0.5179 -0.1606
 7725SOL    HW134808   3.380   0.286   7.107 -0.6418 -0.7689 -0.0865
 7725SOL    HW234809   3.532   0.293   7.110  0.0665  0.2039  1.5427
 7726SOL     OW34810   2.576   3.657   0.541  0.4989 -0.2941 -0.1493
 7726SOL    HW134811   2.555   3.741   0.498  1.1206 -0.5157 -0.8971
 7726SOL    HW234812   2.629   3.686   0.615 -0.0297  2.1129 -0.6964
 7727SOL     OW34813   3.321   2.681   7.653  0.0559 -0.2197  0.2245
 7727SOL    HW134814   3.262   2.735   7.705 -1.2530 -0.2030 -1.2722
 7727SOL    HW234815   3.258   2.634   7.598 -1.0263  2.7946 -1.1082
 7728SOL     OW34816   0.238   3.354   2.658 -0.5630  0.2497  0.0394
 7728SOL    HW134817   0.261   3.405   2.581 -0.8279 -0.4010 -0.4680
 7728SOL    HW234818   0.145   3.333   2.649 -1.0990  3.0508 -0.8007
 7729SOL     OW34819   2.855   4.072  17.019  0.7235  0.2916  0.2611
 7729SOL    HW134820   2.859   3.977  17.014 -1.1005  0.2667 -0.9012
 7729SOL    HW234821   2.939   4.092  16.979 -0.3579 -0.7093 -2.5002
 7730SOL     OW34822   3.067   0.631   4.981  0.2483 -0.2025 -0.3056
 7730SOL    HW134823   3.027   0.713   4.950  3.1952  1.4422  0.2029
 7730SOL    HW234824   3.145   0.642   4.927 -0.0582  1.4950 -0.4203
 7731SOL     OW34825   1.646   1.484   4.929  0.1732 -0.4129 -0.0109
 7731SOL    HW134826   1.617   1.478   4.838 -2.2069  0.4093  0.7045
 7731SOL    HW234827   1.707   1.410   4.935 -0.7405 -1.2442 -1.0845
 7732SOL     OW34828   1.253   2.231   2.848 -0.5426  0.0186  0.3183
 7732SOL    HW134829   1.160   2.223   2.826 -0.3334 -0.5703 -0.3724
 7732SOL    HW234830   1.280   2.143   2.874 -0.2823 -0.2718 -0.9236
 7733SOL     OW34831   0.134   2.696   7.641  0.0009 -0.2328  0.1172
 7733SOL    HW134832   0.224   2.667   7.654 -0.5301 -0.7949  2.4333
 7733SOL    HW234833   0.143   2.790   7.624  1.9667 -0.7926 -1.8422
 7734SOL     OW34834   3.793   2.779   9.359  0.6097  0.2313 -0.2981
 7734SOL    HW134835   3.845   2.745   9.286  0.2300  0.3822 -0.6383
 7734SOL    HW234836   3.710   2.737   9.337  0.4065  0.9734 -0.9474
 7735SOL     OW34837   4.377   4.409   6.488 -0.4293 -0.1651 -0.2161
 7735SOL    HW134838   4.372   4.352   6.565 -0.1347 -1.8217 -1.4122
 7735SOL    HW234839   4.297   4.454   6.515  0.2920  0.8709  0.2218
 7736SOL     OW34840   2.449   3.715   5.855  0.3631 -0.0698 -0.3420
 7736SOL    HW134841   2.515   3.780   5.829  0.0708 -0.3773 -1.8421
 7736SOL    HW234842   2.369   3.767   5.847  0.1735 -0.2142  0.6660
 7737SOL     OW34843   3.941   2.373   3.643 -0.3591 -0.1730 -0.2391
 7737SOL    HW134844   3.945   2.404   3.553  0.3599 -0.9472 -0.4752
 7737SOL    HW234845   3.881   2.430   3.692  0.8347  0.8974 -0.0170
 7738SOL     OW34846   1.660   2.530   7.390 -0.6506  0.4203  0.0547
 7738SOL    HW134847   1.628   2.476   7.318 -0.8053  1.0508 -0.3547
 7738SOL    HW234848   1.742   2.484   7.407 -1.3238 -1.1187 -0.8323
 7739SOL     OW34849   1.189   0.486  15.548 -0.3615 -0.0562  0.0234
 7739SOL    HW134850   1.146   0.553  15.494 -1.1878 -1.5604 -1.2159
 7739SOL    HW234851   1.239   0.446  15.476 -0.3135  0.5726 -0.2928
 7740SOL     OW34852   3.442   1.651  15.604  0.0105 -0.8249  0.3549
 7740SOL    HW134853   3.484   1.665  15.689 -1.5178  1.3481  0.7593
 7740SOL    HW234854   3.349   1.635  15.622  0.6527 -3.6634  1.1346
 7741SOL     OW34855   0.038   3.952   5.886 -0.1859  0.2846  0.1980
 7741SOL    HW134856   0.038   3.997   5.970 -0.1934 -0.3983  0.5618
 7741SOL    HW234857   0.081   4.017   5.829  1.6150 -1.3564 -0.3347
 7742SOL     OW34858   1.373   3.185  10.090 -0.1632 -0.3560 -0.4186
 7742SOL    HW134859   1.459   3.145  10.081  0.2245  0.6649 -1.3691
 7742SOL    HW234860   1.335   3.124  10.153  0.5100  0.7968  1.1292
 7743SOL     OW34861   0.412   0.121   6.352 -0.2785 -0.2188  0.4638
 7743SOL    HW134862   0.417   0.026   6.357 -0.1482 -0.2215  0.2654
 7743SOL    HW234863   0.419   0.134   6.258 -0.8951 -1.7604  0.2044
 7744SOL     OW34864   1.503   4.174   8.635 -0.3644  0.5171  0.4096
 7744SOL    HW134865   1.539   4.203   8.552  0.2647 -1.6318 -0.0816
 7744SOL    HW234866   1.557   4.099   8.661  1.2433  1.8164  0.8011
 7745SOL     OW34867   1.920   2.918   6.841 -0.4232  0.0602  0.0513
 7745SOL    HW134868   1.942   2.889   6.929 -0.0783  0.4422  0.0877
 7745SOL    HW234869   1.825   2.911   6.856  0.1375 -1.6235  2.8032
 7746SOL     OW34870   0.901   1.861   3.008  0.1971 -0.1945 -0.6130
 7746SOL    HW134871   0.909   1.777   2.962 -0.3034  0.0505 -1.1547
 7746SOL    HW234872   0.819   1.846   3.055  0.7799 -0.0325  0.4423
 7747SOL     OW34873   3.459   0.679   2.507  0.0089  0.2587 -0.0475
 7747SOL    HW134874   3.453   0.757   2.561  1.3358  1.5638 -1.7921
 7747SOL    HW234875   3.554   0.670   2.518 -0.1677  0.4172  1.5427
 7748SOL     OW34876   4.641   3.744  15.119  0.2448 -0.0702  0.1763
 7748SOL    HW134877   4.616   3.689  15.045  2.0677 -0.1795 -0.3608
 7748SOL    HW234878   4.561   3.734  15.171 -0.0334  2.1471  0.1558
 7749SOL     OW34879   3.967   3.490   5.195  0.3469  0.7548  0.1670
 7749SOL    HW134880   3.897   3.552   5.216  1.2791  2.4255 -1.6317
 7749SOL    HW234881   4.012   3.498   5.279  1.2762 -0.6437 -0.2047
 7750SOL     OW34882   4.226   0.255  11.544  0.0709 -0.6866  0.3850
 7750SOL    HW134883   4.294   0.187  11.550 -1.5127 -2.2811  0.4454
 7750SOL    HW234884   4.283   0.321  11.581  0.9697 -1.9064  1.1669
 7751SOL     OW34885   4.070   2.156   8.065  0.2425  0.3123  0.2467
 7751SOL    HW134886   4.048   2.158   8.158 -1.3256  3.6053 -0.2007
 7751SOL    HW234887   4.025   2.229   8.023  1.8060  0.1222 -1.7408
 7752SOL     OW34888   1.326   0.037   3.094 -0.7675 -0.3851 -0.3032
 7752SOL    HW134889   1.239   0.053   3.131 -0.2299 -1.1666  1.2670
 7752SOL    HW234890   1.357   0.127   3.090 -0.6406 -0.4235 -0.1677
 7753SOL     OW34891   1.249   3.910   1.112 -0.0867  0.3838 -0.6805
 7753SOL    HW134892   1.298   3.830   1.094 -0.4927  0.2139 -1.0304
 7753SOL    HW234893   1.302   3.927   1.189 -1.7898  1.2359  0.3128
 7754SOL     OW34894   2.486   1.084  15.363 -0.2598 -0.1158  0.1187
 7754SOL    HW134895   2.515   1.147  15.429 -0.8389 -0.5464  0.7803
 7754SOL    HW234896   2.577   1.057  15.346 -0.6079 -0.7158 -0.7736
 7755SOL     OW34897   2.053   2.217   5.276  0.2214  0.4402 -0.2400
 7755SOL    HW134898   2.065   2.187   5.186  0.9906  2.5353 -0.8520
 7755SOL    HW234899   2.005   2.146   5.318  0.7247  0.2005 -0.0762
 7756SOL     OW34900   3.495   4.385  11.561  0.4117 -0.9310 -0.6048
 7756SOL    HW134901   3.457   4.351  11.642  0.9463 -0.2008 -0.0496
 7756SOL    HW234902   3.473   4.308  11.509  0.8459 -1.0061 -0.6788
 7757SOL     OW34903   3.692   2.503   6.907  0.0256  0.3722  0.3916
 7757SOL    HW134904   3.784   2.525   6.919  0.1017 -0.1474  0.7699
 7757SOL    HW234905   3.675   2.476   6.997 -0.5855  1.0819  0.4830
 7758SOL     OW34906   1.984   3.743   2.639 -0.2955  0.6021 -0.6281
 7758SOL    HW134907   2.051   3.713   2.700 -0.5048 -0.5394 -0.9612
 7758SOL    HW234908   1.908   3.690   2.663  0.5483 -0.1402  0.3816
 7759SOL     OW34909   0.621   2.985   4.547  0.4217 -0.2306 -0.5140
 7759SOL    HW134910   0.561   3.002   4.474  0.3176 -0.2422 -0.4293
 7759SOL    HW234911   0.559   2.941   4.605 -1.4544 -0.0852 -2.4283
 7760SOL     OW34912   3.281   3.149   7.516  0.4222 -0.4232  0.1697
 7760SOL    HW134913   3.316   3.216   7.575 -4.2661  0.9516  1.3640
 7760SOL    HW234914   3.196   3.186   7.492  0.1885  0.5810  2.5772
 7761SOL     OW34915   1.941   1.302   1.307 -0.4201  0.5367 -0.0718
 7761SOL    HW134916   1.918   1.364   1.238  2.2767  1.6280 -0.0251
 7761SOL    HW234917   2.009   1.257   1.256  2.1210  0.8359  3.0563
 7762SOL     OW34918   2.094   0.583  12.218  0.2739  0.4376 -0.0637
 7762SOL    HW134919   2.019   0.545  12.173  2.0971 -2.6494 -0.5237
 7762SOL    HW234920   2.132   0.613  12.135  0.7081  2.7085  0.9770
 7763SOL     OW34921   4.267   0.602  12.496 -0.1351 -0.0203 -0.3704
 7763SOL    HW134922   4.226   0.626  12.580  0.5936  0.2335 -0.0883
 7763SOL    HW234923   4.241   0.671  12.435  2.0484  0.2602 -0.9690
 7764SOL     OW34924   0.961   4.641   7.086 -0.6697  0.7082  0.4330
 7764SOL    HW134925   1.026   4.588   7.040 -1.0393 -0.2371  1.0075
 7764SOL    HW234926   0.991   4.729   7.062  0.4657  1.1603  3.5658
 7765SOL     OW34927   3.145   4.566  16.704  0.3797 -0.0828  0.7955
 7765SOL    HW134928   3.207   4.621  16.657 -0.8749  0.9121  0.3215
 7765SOL    HW234929   3.146   4.486  16.652  0.0069  2.3870 -2.9948
 7766SOL     OW34930   0.390   2.084  16.721 -0.0649  0.0559 -0.0811
 7766SOL    HW134931   0.348   2.148  16.664  0.9884 -0.1894 -1.1250
 7766SOL    HW234932   0.322   2.022  16.745  1.4552 -1.0557  1.3650
 7767SOL     OW34933   4.648   0.550   2.044 -0.0149 -0.1796  0.3213
 7767SOL    HW134934   4.729   0.510   2.015 -0.3398  0.8497 -2.0247
 7767SOL    HW234935   4.643   0.521   2.135  0.1864  2.2102  1.1189
 7768SOL     OW34936   2.074   2.108   1.339  0.0427 -0.3646 -0.2310
 7768SOL    HW134937   2.043   2.072   1.256 -1.0633 -2.6317  1.1882
 7768SOL    HW234938   2.008   2.177   1.354 -0.0444 -0.3201 -0.8083
 7769SOL     OW34939   2.412   1.028  17.362  0.8896  0.5626  0.3471
 7769SOL    HW134940   2.478   1.090  17.331  0.1021  1.8209  1.1502
 7769SOL    HW234941   2.431   1.042  17.455  0.0360  3.5198  0.0819
 7770SOL     OW34942   1.283   3.677   8.695  0.1082  0.0686 -0.0944
 7770SOL    HW134943   1.215   3.643   8.638  0.3816 -0.9673  0.1767
 7770SOL    HW234944   1.257   3.768   8.703 -0.8087 -0.1233 -1.0557
 7771SOL     OW34945   2.873   2.921  16.415 -0.0286 -0.1264  0.3755
 7771SOL    HW134946   2.809   2.910  16.345  1.1393 -1.6659 -0.4567
 7771SOL    HW234947   2.959   2.905  16.376  0.0746  0.1704  0.4816
 7772SOL     OW34948   4.671   4.196   2.495 -0.0901  0.1970 -0.2368
 7772SOL    HW134949   4.673   4.198   2.590  0.7726  0.7937 -0.2688
 7772SOL    HW234950   4.723   4.270   2.464  0.0796  0.4499  0.6744
 7773SOL     OW34951   1.643   2.877  17.397 -0.2197  0.0619  0.1948
 7773SOL    HW134952   1.675   2.796  17.356 -1.3495  0.1203 -0.8007
 7773SOL    HW234953   1.660   2.938  17.325  1.0621 -1.1829 -0.5658
 7774SOL     OW34954   4.355   0.110   5.623 -0.4456 -0.0217  0.0866
 7774SOL    HW134955   4.285   0.114   5.688  1.7274  0.9527  2.3827
 7774SOL    HW234956   4.320   0.047   5.560 -1.1996 -1.3582  1.8139
 7775SOL     OW34957   4.367   1.371   7.176 -0.2934  0.1063 -0.1762
 7775SOL    HW134958   4.293   1.327   7.218 -1.3167 -1.0216 -3.1650
 7775SOL    HW234959   4.396   1.299   7.120  0.3086  0.3434 -0.1722
 7776SOL     OW34960   1.718   3.586   1.588  0.0473 -0.0359  0.4336
 7776SOL    HW134961   1.692   3.543   1.670 -1.5522 -1.1956 -0.6852
 7776SOL    HW234962   1.737   3.512   1.530  0.3677 -0.0776  0.5907
 7777SOL     OW34963   2.146   1.052   6.253  0.5051 -0.0969  0.3723
 7777SOL    HW134964   2.133   1.059   6.158 -0.4953 -3.2403  0.3013
 7777SOL    HW234965   2.187   1.133   6.284 -1.3990  1.0680 -0.0967
 7778SOL     OW34966   3.298   4.532   1.375  0.0335 -0.4077 -0.0694
 7778SOL    HW134967   3.277   4.446   1.340  0.2605 -1.3871  2.1456
 7778SOL    HW234968   3.219   4.583   1.357  0.1651  0.0921  0.7321
 7779SOL     OW34969   3.047   3.270   7.469  0.2665 -0.0661  0.0612
 7779SOL    HW134970   3.049   3.311   7.383  0.7676 -3.1469 -1.3856
 7779SOL    HW234971   3.002   3.340   7.518  1.5035  0.4227  0.5010
 7780SOL     OW34972   4.237   2.041   4.896  0.7165  0.4240  0.0993
 7780SOL    HW134973   4.226   2.105   4.966 -2.1320 -3.0098  2.7947
 7780SOL    HW234974   4.229   1.958   4.942 -0.0146  1.4929  1.8802
 7781SOL     OW34975   2.856   0.981   5.423  0.8040  0.3741  0.6401
 7781SOL    HW134976   2.933   1.014   5.469  1.5141 -0.3023 -0.0656
 7781SOL    HW234977   2.810   1.055   5.383  4.0654  1.6318 -0.7827
 7782SOL     OW34978   3.181   1.459   6.443  0.4477  0.1867 -0.2753
 7782SOL    HW134979   3.180   1.371   6.406 -0.5599  0.7480 -1.5808
 7782SOL    HW234980   3.249   1.500   6.388  0.4851  0.6032  0.0807
 7783SOL     OW34981   0.147   0.769  15.719 -0.0260 -0.8477 -0.1357
 7783SOL    HW134982   0.088   0.840  15.693  1.6823  0.6958  0.1376
 7783SOL    HW234983   0.173   0.715  15.645 -0.1493 -0.7573 -0.2427
 7784SOL     OW34984   3.287   4.473   4.918 -0.2204  0.0618 -0.6503
 7784SOL    HW134985   3.357   4.533   4.894 -0.4313  0.1459 -1.0462
 7784SOL    HW234986   3.340   4.394   4.929 -0.1604  0.1570 -0.2441
 7785SOL     OW34987   1.467   1.831  14.584  0.2458 -0.3934 -0.3035
 7785SOL    HW134988   1.524   1.903  14.609 -0.9366  0.6507 -0.5832
 7785SOL    HW234989   1.443   1.803  14.672  0.0178 -1.3041 -0.6537
 7786SOL     OW34990   0.028   1.429  12.049  0.1923 -0.2392 -0.2406
 7786SOL    HW134991   0.037   1.500  12.112 -2.8021  0.0263 -0.0837
 7786SOL    HW234992   0.001   1.475  11.969  2.6348 -0.4404 -1.1804
 7787SOL     OW34993   2.051   3.232   2.032  0.6667 -0.4044 -0.0335
 7787SOL    HW134994   1.984   3.209   1.967  2.1287 -0.5429 -1.4908
 7787SOL    HW234995   2.005   3.240   2.115  1.3988  0.9780  0.2417
 7788SOL     OW34996   0.859   1.189   3.561  0.0302  0.0474 -0.2428
 7788SOL    HW134997   0.941   1.218   3.601 -0.2131 -1.0435  1.0590
 7788SOL    HW234998   0.801   1.217   3.631  1.0819 -1.3742  1.2202
 7789SOL     OW34999   1.012   2.836   5.516 -0.1384  0.0463  0.1067
 7789SOL    HW135000   0.983   2.904   5.455 -2.1024 -2.5536 -1.8272
 7789SOL    HW235001   0.946   2.849   5.584  1.3733  0.4821  1.4864
 7790SOL     OW35002   4.061   2.148   1.986  0.1295 -0.5656 -0.3783
 7790SOL    HW135003   4.093   2.238   1.994  0.0760 -0.2318 -3.7346
 7790SOL    HW235004   4.026   2.137   2.074 -1.0108 -1.8273 -0.9869
 7791SOL     OW35005   1.000   4.491   8.218 -0.3417  0.1458  0.0250
 7791SOL    HW135006   0.960   4.576   8.239  0.2824  1.1494 -2.8729
 7791SOL    HW235007   0.997   4.451   8.305  2.5529  1.7538  0.8634
 7792SOL     OW35008   4.318   1.128   2.580 -0.3520 -0.1398  0.2623
 7792SOL    HW135009   4.395   1.094   2.534  0.0570  0.2159  0.6850
 7792SOL    HW235010   4.253   1.149   2.513  0.0693  0.4594  0.0415
 7793SOL     OW35011   0.305   1.310   5.345 -0.8653  0.1069 -0.5244
 7793SOL    HW135012   0.285   1.231   5.296  0.7093 -0.4366 -0.2753
 7793SOL    HW235013   0.286   1.373   5.275 -1.2602  1.9938  1.2668
 7794SOL     OW35014   0.553   1.144   1.766  0.4814 -0.0586 -0.0731
 7794SOL    HW135015   0.645   1.149   1.789  1.0504  2.2064 -2.8755
 7794SOL    HW235016   0.525   1.099   1.845 -1.8758  1.4389 -0.0329
 7795SOL     OW35017   1.627   2.285  15.570 -0.1907 -0.1431 -0.0095
 7795SOL    HW135018   1.605   2.242  15.652  2.0893  2.2840  1.9029
 7795SOL    HW235019   1.688   2.350  15.607  1.0636 -1.3705  0.0770
 7796SOL     OW35020   0.072   1.789  14.473  0.2845 -0.1384  0.4465
 7796SOL    HW135021   0.025   1.746  14.401 -0.5973  0.2672  0.7791
 7796SOL    HW235022   0.018   1.764  14.549 -1.1271 -2.2228 -1.2301
 7797SOL     OW35023   0.495   4.330   5.035  0.6031 -0.2339  0.4407
 7797SOL    HW135024   0.435   4.278   4.983  0.1805 -0.2196  0.9170
 7797SOL    HW235025   0.524   4.396   4.972 -2.2947  0.3745 -0.2459
 7798SOL     OW35026   1.605   3.656   7.852 -0.2985  0.2683  0.4095
 7798SOL    HW135027   1.582   3.716   7.782  1.4670 -2.7862 -2.7978
 7798SOL    HW235028   1.578   3.571   7.816  1.9403  0.5698 -1.9769
 7799SOL     OW35029   4.355   1.376  13.160 -0.6791  0.3461 -0.1565
 7799SOL    HW135030   4.323   1.460  13.127 -1.5977  0.0597  0.0198
 7799SOL    HW235031   4.422   1.392  13.227 -1.1236  1.4117  0.0309
 7800SOL     OW35032   3.677   0.544  14.022  0.2373 -0.1092 -0.3731
 7800SOL    HW135033   3.683   0.558  14.117  0.5579 -0.2255 -0.3770
 7800SOL    HW235034   3.582   0.534  14.025  0.1097  0.8313 -1.4373
 7801SOL     OW35035   3.489   0.078  14.019  0.3742 -0.3990  0.4825
 7801SOL    HW135036   3.430   0.010  13.987  0.2493  1.1904 -2.6804
 7801SOL    HW235037   3.570   0.048  13.978 -1.0941 -3.7141 -0.0324
 7802SOL     OW35038   2.861   0.618  11.133 -0.1897  0.0774 -0.2759
 7802SOL    HW135039   2.853   0.627  11.228 -0.1331 -0.4041 -0.2268
 7802SOL    HW235040   2.871   0.524  11.118  1.9134 -0.0607  1.9653
 7803SOL     OW35041   4.349   2.753   8.101 -0.3355 -0.2421 -0.2891
 7803SOL    HW135042   4.309   2.685   8.154  1.7972 -1.5123 -0.2982
 7803SOL    HW235043   4.409   2.804   8.155 -0.2479 -1.1567  0.4640
 7804SOL     OW35044   1.085   3.213   8.158  0.1243  0.1186 -0.6524
 7804SOL    HW135045   1.055   3.230   8.068  2.2541  1.1093 -1.1954
 7804SOL    HW235046   1.028   3.138   8.171  0.6459  0.2100  1.9977
 7805SOL     OW35047   4.228   2.809  16.854 -0.3255 -0.3919 -0.1783
 7805SOL    HW135048   4.231   2.815  16.950  1.9130  0.1954 -0.2910
 7805SOL    HW235049   4.263   2.895  16.834  0.0733 -1.1604 -2.7152
 7806SOL     OW35050   1.280   1.912   6.240 -0.5683 -0.2680 -0.1605
 7806SOL    HW135051   1.297   1.888   6.332 -1.8189  0.9248  0.3738
 7806SOL    HW235052   1.283   2.006   6.254 -1.3544 -0.3062  0.2377
 7807SOL     OW35053   0.998   0.779   4.413 -0.0880 -0.4136 -0.0863
 7807SOL    HW135054   1.078   0.810   4.455  0.5382 -1.8679 -0.1868
 7807SOL    HW235055   1.012   0.684   4.407  2.2011  0.0490 -2.1498
 7808SOL     OW35056   1.667   3.518   9.731  0.0365  0.0718  0.1431
 7808SOL    HW135057   1.743   3.472   9.695 -1.1308  0.3236 -2.6198
 7808SOL    HW235058   1.628   3.568   9.660  1.1710  1.5231  0.5341
 7809SOL     OW35059   2.902   3.513   8.895 -0.4446 -0.0882 -0.1422
 7809SOL    HW135060   2.979   3.456   8.898  0.1046  0.6560 -0.2252
 7809SOL    HW235061   2.873   3.517   8.986  0.4031 -1.0525  0.1643
 7810SOL     OW35062   0.102   0.756   8.075  0.6120  0.5131  0.1477
 7810SOL    HW135063   0.050   0.775   8.154 -0.7127 -0.6035 -0.4659
 7810SOL    HW235064   0.059   0.673   8.056 -0.2202  0.9678  0.0546
 7811SOL     OW35065   2.045   0.787   0.462  0.0253  0.1080  0.1500
 7811SOL    HW135066   1.993   0.710   0.483 -0.9307  0.2113 -1.8084
 7811SOL    HW235067   2.030   0.842   0.539 -1.6193 -0.9695  0.5870
 7812SOL     OW35068   2.304   2.087   2.488  0.0918 -0.1618  0.6853
 7812SOL    HW135069   2.263   2.028   2.425  1.0314 -1.3524  1.1959
 7812SOL    HW235070   2.381   2.125   2.445  0.1343  1.3166  2.0736
 7813SOL     OW35071   2.156   3.107   9.029  0.8329  0.3685 -0.4624
 7813SOL    HW135072   2.142   3.197   9.058 -1.4585  0.2588 -1.2572
 7813SOL    HW235073   2.152   3.128   8.936  2.4716  1.4681 -0.2826
 7814SOL     OW35074   1.688   3.507   7.568  0.2568  0.1657 -0.2234
 7814SOL    HW135075   1.637   3.472   7.641 -0.0403 -1.7077 -1.3210
 7814SOL    HW235076   1.626   3.525   7.498  2.0783 -2.9850 -2.6431
 7815SOL     OW35077   1.725   2.913  12.357  0.2931 -0.1158 -0.2744
 7815SOL    HW135078   1.683   2.891  12.274  1.8254  2.4967 -1.7090
 7815SOL    HW235079   1.643   2.908  12.407 -0.7506  0.2739 -1.9409
 7816SOL     OW35080   0.090   1.587   1.703  0.1752 -0.3257 -0.4969
 7816SOL    HW135081   0.163   1.619   1.651  0.2618 -3.3018 -2.2034
 7816SOL    HW235082   0.048   1.532   1.637  0.2886  1.1814 -1.7958
 7817SOL     OW35083   1.911   2.160   6.916  0.2223 -0.3548 -0.2201
 7817SOL    HW135084   1.908   2.256   6.923  2.2215 -0.1866 -1.7086
 7817SOL    HW235085   1.920   2.142   7.009 -2.8522  0.0116  0.1544
 7818SOL     OW35086   1.930   0.332   4.080  0.5925 -0.1032 -0.1692
 7818SOL    HW135087   1.955   0.240   4.072 -0.9328 -0.6941  1.7391
 7818SOL    HW235088   1.868   0.355   4.011  1.1691  0.9651 -0.3162
 7819SOL     OW35089   2.119   1.769   4.936 -0.4369 -0.4750  0.2892
 7819SOL    HW135090   2.070   1.836   4.984 -0.5056 -0.6608  0.4766
 7819SOL    HW235091   2.056   1.709   4.899  0.2412 -1.8465  1.3491
 7820SOL     OW35092   1.666   2.627  13.361 -0.5104 -0.5212  0.2643
 7820SOL    HW135093   1.615   2.567  13.416  0.5795 -2.6788 -1.1042
 7820SOL    HW235094   1.619   2.630  13.278  0.8933 -1.7998 -0.5783
 7821SOL     OW35095   1.478   2.393   9.667 -0.0763  0.1540 -0.0486
 7821SOL    HW135096   1.521   2.413   9.584  0.6193  2.3735  0.8584
 7821SOL    HW235097   1.502   2.463   9.728  1.7552 -0.6524  0.1594
 7822SOL     OW35098   0.424   1.493   3.768 -0.2637  0.3046  0.1428
 7822SOL    HW135099   0.419   1.515   3.675 -0.9188  4.0011  1.0363
 7822SOL    HW235100   0.510   1.532   3.780 -0.2489  1.1757 -2.6395
 7823SOL     OW35101   3.975   1.214   8.295 -0.2448  0.4626  0.2256
 7823SOL    HW135102   4.017   1.183   8.375  2.4029 -0.0048 -1.3369
 7823SOL    HW235103   3.996   1.139   8.239 -0.6541  0.6031 -0.1125
 7824SOL     OW35104   4.066   1.847   4.129 -0.3029 -0.4024 -0.6221
 7824SOL    HW135105   4.103   1.818   4.212 -0.8162 -1.9577 -0.9318
 7824SOL    HW235106   4.149   1.856   4.082  0.1667  2.1185  0.6975
 7825SOL     OW35107   3.193   0.081   1.271  0.3061  0.5670 -0.2052
 7825SOL    HW135108   3.255   0.057   1.203 -1.5424 -1.3121 -1.2562
 7825SOL    HW235109   3.110   0.054   1.231 -0.4564  1.1893  0.9236
 7826SOL     OW35110   2.964   2.998   5.757 -0.1914 -0.5218  0.5057
 7826SOL    HW135111   2.910   3.052   5.815  1.3536  1.9783 -0.3692
 7826SOL    HW235112   3.053   3.030   5.771 -0.4239  0.3462 -0.0184
 7827SOL     OW35113   2.287   1.588   7.253  0.3467 -0.0172  0.0019
 7827SOL    HW135114   2.351   1.585   7.325  0.3742  3.1389  0.0897
 7827SOL    HW235115   2.326   1.664   7.211 -0.3523 -0.9180 -2.3006
 7828SOL     OW35116   1.427   1.357   5.038 -0.5646 -0.1429 -0.3387
 7828SOL    HW135117   1.431   1.264   5.018  2.1594 -0.3862  1.2901
 7828SOL    HW235118   1.483   1.396   4.971  2.0846 -0.9896  1.3757
 7829SOL     OW35119   1.900   0.260  11.484 -0.3933  0.1675  0.0534
 7829SOL    HW135120   1.984   0.222  11.456  0.1782  3.0064 -2.0960
 7829SOL    HW235121   1.868   0.256  11.393 -0.7860  0.0803  0.1965
 7830SOL     OW35122   2.407   3.171   8.212  0.4491  0.0106  0.0593
 7830SOL    HW135123   2.352   3.124   8.274  0.2523  0.7472  0.4384
 7830SOL    HW235124   2.492   3.160   8.255  1.4954  1.4285 -1.6575
 7831SOL     OW35125   0.697   2.386   3.240  0.1930  0.1770 -0.2499
 7831SOL    HW135126   0.685   2.473   3.202 -3.2002 -0.0847  0.2830
 7831SOL    HW235127   0.680   2.401   3.333 -1.4659 -1.2992 -0.3101
 7832SOL     OW35128   1.007   1.674  16.342 -0.1838  0.4150  0.2894
 7832SOL    HW135129   0.933   1.644  16.395 -1.8546  1.2387 -1.5787
 7832SOL    HW235130   1.000   1.619  16.264  0.5020 -0.3935  0.8106
 7833SOL     OW35131   2.323   2.022   3.389  0.0660  0.6920  0.1853
 7833SOL    HW135132   2.400   1.970   3.365  0.2967  1.2441 -0.2541
 7833SOL    HW235133   2.270   2.028   3.310  0.7595  0.1097 -0.3294
 7834SOL     OW35134   4.344   3.561   6.674  0.1575  0.7054 -0.1879
 7834SOL    HW135135   4.380   3.588   6.590 -0.4482 -0.7595 -0.9285
 7834SOL    HW235136   4.261   3.522   6.647  0.2346  0.2665  0.2098
 7835SOL     OW35137   1.739   4.364   6.650  0.1078  0.0223  0.3499
 7835SOL    HW135138   1.783   4.292   6.606  1.1376  1.5157 -1.0864
 7835SOL    HW235139   1.812   4.405   6.696  0.1086  0.8109 -0.3468
 7836SOL     OW35140   1.662   2.225   3.843 -0.0580  0.4935  0.0913
 7836SOL    HW135141   1.741   2.254   3.890  0.0350 -1.3340  1.0690
 7836SOL    HW235142   1.699   2.159   3.784 -1.7665 -1.0597  0.7835
 7837SOL     OW35143   2.242   0.063  14.248 -0.6685  0.2864  0.4019
 7837SOL    HW135144   2.240   4.714  14.213 -0.9093 -0.0581  1.3019
 7837SOL    HW235145   2.160   0.088  14.205 -0.7246  2.9547  2.0157
 7838SOL     OW35146   4.269   3.267   2.570 -0.2425  0.1141 -0.3809
 7838SOL    HW135147   4.361   3.269   2.542  0.1128 -0.8823  0.7342
 7838SOL    HW235148   4.251   3.173   2.572 -1.7582  0.3495 -2.6822
 7839SOL     OW35149   1.950   1.307   5.677  0.2676 -0.4281  0.1276
 7839SOL    HW135150   1.881   1.331   5.616  2.2649  0.9539 -1.6091
 7839SOL    HW235151   1.998   1.238   5.631  1.2753  1.5360 -1.7512
 7840SOL     OW35152   3.087   2.223   5.583 -0.0967  0.2712 -0.0464
 7840SOL    HW135153   3.101   2.213   5.677 -2.8264  1.5805  0.4957
 7840SOL    HW235154   3.106   2.134   5.550 -1.9112 -0.1743  0.1039
 7841SOL     OW35155   2.582   4.684   1.365  1.0500  0.1968  0.2656
 7841SOL    HW135156   2.615   4.671   1.454 -0.5027 -1.6530  0.5664
 7841SOL    HW235157   2.663   4.701   1.316 -0.3141 -0.2357 -2.1474
 7842SOL     OW35158   2.648   2.023   2.052  0.4112  0.1755 -0.2656
 7842SOL    HW135159   2.611   1.992   1.970 -0.3313  0.0988  0.1008
 7842SOL    HW235160   2.739   2.019   2.023 -0.1264  1.1108 -2.0452
 7843SOL     OW35161   2.436   0.823   4.878 -0.0077 -0.2632 -0.0595
 7843SOL    HW135162   2.523   0.835   4.840  1.0305  0.2354  2.5430
 7843SOL    HW235163   2.410   0.911   4.905  2.7413  0.0845  1.3898
 7844SOL     OW35164   4.473   4.342   5.714  0.3716 -0.0174  0.4643
 7844SOL    HW135165   4.486   4.379   5.626  0.1251 -2.0599 -0.4369
 7844SOL    HW235166   4.468   4.249   5.694  0.3011  0.1050 -0.1122
 7845SOL     OW35167   0.050   2.122  15.953  0.2831 -0.0408  0.0364
 7845SOL    HW135168   0.052   2.044  16.009 -0.5439 -1.9407 -2.5782
 7845SOL    HW235169   0.139   2.152  15.968  0.7732 -0.7658 -1.4134
 7846SOL     OW35170   0.813   1.509   7.462 -1.1074  0.0220 -0.3770
 7846SOL    HW135171   0.860   1.566   7.401  0.9254 -1.3915 -0.1065
 7846SOL    HW235172   0.804   1.425   7.418 -0.1088 -0.2374 -0.0750
 7847SOL     OW35173   0.474   4.362   9.523 -0.6665  0.2421 -0.0539
 7847SOL    HW135174   0.539   4.372   9.593  0.8085  3.8760 -1.9069
 7847SOL    HW235175   0.534   4.313   9.468  0.3193  1.0935  0.2443
 7848SOL     OW35176   0.593   1.800   1.949 -0.2103 -0.1741 -0.4685
 7848SOL    HW135177   0.590   1.726   1.889 -0.3118 -0.3864 -0.2013
 7848SOL    HW235178   0.688   1.810   1.948 -0.2637  0.4685  0.2720
 7849SOL     OW35179   3.941   0.430   4.697 -0.0846 -0.2440 -0.2536
 7849SOL    HW135180   3.965   0.416   4.789 -0.1319  1.0501 -0.0387
 7849SOL    HW235181   4.012   0.484   4.662 -2.8560  2.0635 -2.2790
 7850SOL     OW35182   2.857   0.972   5.846  0.1136 -0.7170 -0.2234
 7850SOL    HW135183   2.819   1.009   5.767  1.4170  0.9669 -0.0640
 7850SOL    HW235184   2.951   0.965   5.830  0.0063  1.1077 -1.7004
 7851SOL     OW35185   1.531   0.255   7.324 -0.0128 -0.2007  0.4766
 7851SOL    HW135186   1.441   0.289   7.327 -0.0945 -0.3645 -0.0971
 7851SOL    HW235187   1.584   0.335   7.333 -2.2841  1.0701  2.8438
 7852SOL     OW35188   2.145   3.764   4.491 -0.3809 -0.6024  0.4696
 7852SOL    HW135189   2.069   3.740   4.438 -0.6447 -0.6363  0.8656
 7852SOL    HW235190   2.219   3.727   4.442 -0.3561  0.0329  0.0356
 7853SOL     OW35191   1.535   0.472   7.742 -0.0883  0.1299  0.0514
 7853SOL    HW135192   1.483   0.395   7.764  0.6494 -0.1979  0.6401
 7853SOL    HW235193   1.469   0.540   7.759  1.3694  1.1579  1.7418
 7854SOL     OW35194   3.949   3.828   4.696 -0.1839  0.5489  0.1571
 7854SOL    HW135195   4.022   3.888   4.678 -1.8300  2.6902  0.5126
 7854SOL    HW235196   3.884   3.897   4.708  0.3362  0.5254  3.0032
 7855SOL     OW35197   3.249   0.965   7.497 -0.6751 -0.2598  0.3020
 7855SOL    HW135198   3.326   0.984   7.551  0.3638 -2.0006 -0.5683
 7855SOL    HW235199   3.253   0.870   7.488 -1.8800 -0.2499 -0.2816
 7856SOL     OW35200   2.694   1.497   0.198 -0.3112  0.1050 -0.3291
 7856SOL    HW135201   2.769   1.437   0.207 -0.9740 -0.7038 -0.1892
 7856SOL    HW235202   2.723   1.584   0.224 -2.2545  0.6382  0.0436
 7857SOL     OW35203   3.594   4.000   9.083  0.2058  0.0514  0.2385
 7857SOL    HW135204   3.505   4.011   9.050  0.4787  0.3764 -0.3825
 7857SOL    HW235205   3.615   3.909   9.061 -0.5541  0.8712 -3.8804
 7858SOL     OW35206   4.724   4.142   1.902  0.1888 -0.0707  0.1153
 7858SOL    HW135207   4.657   4.209   1.915  2.2403  1.9331  0.3596
 7858SOL    HW235208   4.677   4.059   1.906  1.4904 -0.7758  0.5917
 7859SOL     OW35209   4.493   2.749  15.383 -0.1078  0.2973  0.5337
 7859SOL    HW135210   4.528   2.708  15.304 -2.5497  1.4983 -1.1713
 7859SOL    HW235211   4.474   2.672  15.436  1.6054 -0.7517 -0.3847
 7860SOL     OW35212   1.976   3.228   2.310 -0.6470  0.6401 -0.1143
 7860SOL    HW135213   1.881   3.227   2.303 -0.7545  1.3423  1.2677
 7860SOL    HW235214   2.004   3.151   2.360 -1.3679 -0.1140 -0.8877
 7861SOL     OW35215   1.940   1.296   5.939 -0.1424 -0.7015  0.2820
 7861SOL    HW135216   1.950   1.293   5.844  0.2901 -0.2512  0.3196
 7861SOL    HW235217   1.894   1.380   5.935 -0.1934 -0.6772  1.5196
 7862SOL     OW35218   0.522   3.766   4.536  0.6234 -0.0430  0.3501
 7862SOL    HW135219   0.546   3.697   4.597 -1.7314 -1.7662 -0.7140
 7862SOL    HW235220   0.610   3.804   4.531  1.0722 -1.1508  0.0202
 7863SOL     OW35221   4.710   1.171   2.044  0.1469 -0.3456  0.5344
 7863SOL    HW135222   0.042   1.165   2.107 -0.6199 -1.0108  1.3501
 7863SOL    HW235223   0.024   1.161   1.966  0.0351  0.5648  0.3385
 7864SOL     OW35224   3.874   4.166   5.636  0.0731  0.0313 -0.8236
 7864SOL    HW135225   3.884   4.127   5.723 -2.1693  1.7579  0.2114
 7864SOL    HW235226   3.861   4.257   5.661  0.3555 -0.2904  0.5384
 7865SOL     OW35227   1.750   3.727   6.656  0.1389 -0.3907 -0.1274
 7865SOL    HW135228   1.715   3.791   6.594  1.3484 -0.7018 -1.1252
 7865SOL    HW235229   1.738   3.651   6.599  0.7647 -1.2086  0.8425
 7866SOL     OW35230   2.001   1.933   5.830  0.4151 -0.5693  0.2245
 7866SOL    HW135231   2.077   1.902   5.878 -0.3977  0.5331  2.1918
 7866SOL    HW235232   2.013   2.027   5.842  0.1393 -0.4473 -0.4553
 7867SOL     OW35233   4.565   3.008   8.909 -0.4211 -0.4342 -0.3569
 7867SOL    HW135234   4.506   2.933   8.908 -1.3487  0.2961 -1.2167
 7867SOL    HW235235   4.599   2.982   8.994  2.3194  2.3648 -0.5833
 7868SOL     OW35236   2.570   2.966  17.122 -0.5770 -0.0572  0.0860
 7868SOL    HW135237   2.529   3.013  17.195  0.0433  1.3452 -0.4683
 7868SOL    HW235238   2.535   2.878  17.136 -1.4043  0.4198  1.0085
 7869SOL     OW35239   3.331   2.388   0.200  0.4075 -0.3908 -0.0347
 7869SOL    HW135240   3.422   2.371   0.175  1.0352  0.6130  1.5362
 7869SOL    HW235241   3.353   2.433   0.282  0.6413  0.4332 -0.5511
 7870SOL     OW35242   4.256   3.637   8.640 -0.2875  0.0135  0.0724
 7870SOL    HW135243   4.260   3.580   8.717  1.3203  0.2651  0.1686
 7870SOL    HW235244   4.306   3.583   8.579 -1.7711 -2.0803  0.6987
 7871SOL     OW35245   3.555   0.134  16.813  0.2580 -0.5424 -0.1451
 7871SOL    HW135246   3.507   0.053  16.796 -2.4451  1.1231 -0.3093
 7871SOL    HW235247   3.637   0.113  16.767  0.3822  1.9873 -1.0973
 7872SOL     OW35248   3.432   2.043  11.127  0.0180 -0.2270 -0.2246
 7872SOL    HW135249   3.401   2.126  11.165  1.5989 -0.0238  0.6249
 7872SOL    HW235250   3.506   2.038  11.188  1.3582 -2.2085 -2.0339
 7873SOL     OW35251   3.577   1.697   6.991  0.1637 -0.0157 -0.0082
 7873SOL    HW135252   3.488   1.677   6.961  0.3130  1.1859 -1.2353
 7873SOL    HW235253   3.571   1.682   7.085  1.6535  1.4549  0.3202
 7874SOL     OW35254   2.281   0.537   1.508 -0.4897  0.0336 -0.3771
 7874SOL    HW135255   2.268   0.448   1.478 -0.5949  0.6383 -2.1121
 7874SOL    HW235256   2.349   0.573   1.451  0.9708  0.6150  1.7217
 7875SOL     OW35257   1.559   2.593   4.131  0.1108 -0.2213 -0.2837
 7875SOL    HW135258   1.643   2.580   4.176  1.1549  1.4225 -1.7265
 7875SOL    HW235259   1.554   2.517   4.074  1.5579  0.6062 -1.5165
 7876SOL     OW35260   1.002   1.842   5.864  0.2738  0.1473 -0.4408
 7876SOL    HW135261   1.049   1.916   5.901  1.6894 -0.5795 -0.7722
 7876SOL    HW235262   0.970   1.880   5.782  0.7479  0.7172 -0.3633
 7877SOL     OW35263   1.662   1.427   4.418  0.3032 -0.0334  0.6099
 7877SOL    HW135264   1.579   1.389   4.445  0.0458 -0.0940 -0.2768
 7877SOL    HW235265   1.643   1.447   4.327  1.0754 -2.6271 -0.1322
 7878SOL     OW35266   2.446   2.701   3.024  0.5625  0.2835  0.2977
 7878SOL    HW135267   2.391   2.654   3.087 -1.0165 -0.7125 -1.8252
 7878SOL    HW235268   2.494   2.636   2.972 -0.4843  0.5051 -0.9529
 7879SOL     OW35269   1.172   3.968   9.595  0.2532  0.0621 -0.3165
 7879SOL    HW135270   1.263   3.996   9.600  0.7297 -1.5898  0.3767
 7879SOL    HW235271   1.163   3.883   9.639  0.8035 -0.8187 -1.9036
 7880SOL     OW35272   4.716   2.233  13.107  0.2904 -0.2727 -0.3195
 7880SOL    HW135273   4.647   2.240  13.041 -1.3400 -0.4408  1.3619
 7880SOL    HW235274   0.059   2.246  13.061 -1.0675  0.4392 -2.5556
 7881SOL     OW35275   2.431   1.332   2.585 -0.0583 -0.2448 -0.1467
 7881SOL    HW135276   2.523   1.307   2.586  0.1767  0.6398 -0.0942
 7881SOL    HW235277   2.440   1.425   2.566 -2.0284  0.2714  1.3990
 7882SOL     OW35278   1.751   2.626  10.638 -0.3105 -0.3296 -0.1711
 7882SOL    HW135279   1.828   2.631  10.580  1.1702 -1.5020  1.6912
 7882SOL    HW235280   1.704   2.551  10.601  0.2694 -0.3835 -0.8088
 7883SOL     OW35281   4.426   3.793   6.816  0.2018  0.1054 -0.1260
 7883SOL    HW135282   4.386   3.712   6.782 -1.5722  0.4011  1.2556
 7883SOL    HW235283   4.440   3.771   6.908 -0.9164 -0.7939 -0.1711
 7884SOL     OW35284   3.564   0.367  17.132 -0.6687  0.3491 -0.0581
 7884SOL    HW135285   3.525   0.397  17.214  0.9658 -0.0527  0.8699
 7884SOL    HW235286   3.497   0.307  17.101  0.5928 -1.7983  1.3540
 7885SOL     OW35287   2.721   1.001   1.613 -0.6303  0.1877 -0.3204
 7885SOL    HW135288   2.762   1.007   1.527 -1.7772  0.6497 -0.8332
 7885SOL    HW235289   2.688   1.090   1.622 -0.2249  0.2901  0.1683
 7886SOL     OW35290   0.898   4.123   6.682  0.2390 -0.2248  0.0430
 7886SOL    HW135291   0.914   4.206   6.727 -1.3565 -0.0264  0.2332
 7886SOL    HW235292   0.860   4.072   6.755 -1.6794  1.2317  0.0458
 7887SOL     OW35293   0.978   3.645   5.447 -0.5102 -0.2264  0.0051
 7887SOL    HW135294   0.963   3.569   5.502 -0.6355 -0.2913 -0.1183
 7887SOL    HW235295   0.982   3.713   5.514  0.5425  0.7069 -1.0078
 7888SOL     OW35296   0.522   2.885   9.439  0.7864  0.3832  0.6978
 7888SOL    HW135297   0.479   2.922   9.361 -0.5215  1.2503  1.8284
 7888SOL    HW235298   0.555   2.969   9.472  0.5098  1.1751 -1.0380
 7889SOL     OW35299   2.389   4.339  13.913  0.0443  0.2725 -0.1410
 7889SOL    HW135300   2.388   4.429  13.880  1.5321  0.1826 -0.4023
 7889SOL    HW235301   2.309   4.298  13.878  1.1298  0.9804 -3.4852
 7890SOL     OW35302   3.481   2.202   9.938 -0.1764 -0.0393  0.1220
 7890SOL    HW135303   3.511   2.260   9.868 -0.4470 -1.0267 -0.8047
 7890SOL    HW235304   3.462   2.264  10.009  1.2106 -0.8525  1.2048
 7891SOL     OW35305   1.491   1.199   4.456 -0.0008  0.6134 -0.0241
 7891SOL    HW135306   1.401   1.232   4.454  0.0134  0.7385  1.6961
 7891SOL    HW235307   1.518   1.206   4.547 -0.7311  1.8959  0.0884
 7892SOL     OW35308   3.549   0.336  14.507 -0.1956 -0.9344  0.1551
 7892SOL    HW135309   3.615   0.288  14.557  0.6462 -0.0143 -0.0572
 7892SOL    HW235310   3.551   0.296  14.420  1.9386  1.7346 -1.0352
 7893SOL     OW35311   2.067   1.824  11.793 -1.1993 -0.3338  0.8300
 7893SOL    HW135312   1.978   1.851  11.817 -1.3272  0.2050 -0.2319
 7893SOL    HW235313   2.059   1.796  11.702  1.2615  0.4579  0.3579
 7894SOL     OW35314   0.452   0.944   9.017 -0.4241  0.3147  0.3464
 7894SOL    HW135315   0.510   0.896   9.075 -0.0887 -0.2298 -0.4428
 7894SOL    HW235316   0.418   0.875   8.960  1.7604 -0.4920  0.0401
 7895SOL     OW35317   4.415   2.595   6.121 -0.5036  0.3653  0.2809
 7895SOL    HW135318   4.445   2.605   6.031 -2.3103  2.0632 -0.1363
 7895SOL    HW235319   4.357   2.669   6.141  0.2681  0.5449  1.8180
 7896SOL     OW35320   3.782   0.446   8.861 -1.1493  0.8673  0.6802
 7896SOL    HW135321   3.740   0.465   8.945 -0.1464  1.8635  0.9513
 7896SOL    HW235322   3.723   0.493   8.803  0.4066  0.4532 -1.2557
 7897SOL     OW35323   4.666   3.394   7.776  0.2320 -0.1854 -0.4678
 7897SOL    HW135324   4.708   3.356   7.853 -1.2276  1.3302  1.0914
 7897SOL    HW235325   4.614   3.465   7.814 -1.1793 -0.6359 -1.5547
 7898SOL     OW35326   1.973   4.302   4.988  0.5682 -0.4780 -0.1164
 7898SOL    HW135327   2.004   4.339   4.904  0.6758 -0.5152 -0.0931
 7898SOL    HW235328   1.976   4.207   4.980  1.4006 -0.4859  0.3693
 7899SOL     OW35329   0.048   1.687  16.450 -0.0530  0.8652 -0.3019
 7899SOL    HW135330   0.083   1.773  16.426 -1.1220  1.1266 -0.9318
 7899SOL    HW235331   0.123   1.632  16.427  1.8371  1.6705  3.9032
 7900SOL     OW35332   0.208   4.061   7.983 -0.0005  0.1110 -0.0581
 7900SOL    HW135333   0.225   3.982   7.931 -0.3986 -1.0946  1.6365
 7900SOL    HW235334   0.180   4.037   8.071 -0.2585 -0.7892 -0.3780
 7901SOL     OW35335   0.133   3.025  17.324 -0.1583 -0.3787 -0.2181
 7901SOL    HW135336   0.085   3.058  17.400 -2.0024 -2.8807 -0.3002
 7901SOL    HW235337   0.085   2.943  17.316  1.0119 -1.2972  1.9451
 7902SOL     OW35338   2.330   0.602   4.351 -0.2217  0.1151 -0.5496
 7902SOL    HW135339   2.376   0.533   4.399  1.4228  0.6559 -1.3527
 7902SOL    HW235340   2.301   0.557   4.271 -3.6823 -0.6742  1.1501
 7903SOL     OW35341   2.684   0.879   4.738  0.6603 -0.7668  0.6272
 7903SOL    HW135342   2.682   0.788   4.707 -2.8336 -0.1472 -0.9533
 7903SOL    HW235343   2.725   0.928   4.667 -1.8135  2.4486  1.4544
 7904SOL     OW35344   3.420   1.284  11.534  0.0706 -0.1033  0.1878
 7904SOL    HW135345   3.374   1.368  11.534  1.2835  0.5443 -1.4315
 7904SOL    HW235346   3.413   1.245  11.622  0.0659 -0.9661 -0.1953
 7905SOL     OW35347   3.563   2.928   6.552  0.0204  0.0769  0.5138
 7905SOL    HW135348   3.490   2.877   6.587  0.7534 -0.5188  1.1869
 7905SOL    HW235349   3.538   3.016   6.581  3.0339  0.5706  1.7082
 7906SOL     OW35350   1.117   4.407   1.807  0.2206 -0.1147 -0.0597
 7906SOL    HW135351   1.147   4.370   1.724  0.7686  0.0757  0.0564
 7906SOL    HW235352   1.048   4.343   1.823  1.4604 -1.1732  1.0314
 7907SOL     OW35353   2.564   4.611  12.204 -0.3904 -0.4976  0.1368
 7907SOL    HW135354   2.481   4.614  12.157  1.0031  1.3330 -2.1982
 7907SOL    HW235355   2.545   4.687  12.260 -2.0713 -0.9571  0.1913
 7908SOL     OW35356   1.008   2.194   1.665  0.3270 -0.0728 -0.1045
 7908SOL    HW135357   1.045   2.233   1.744 -0.6111  0.1532  0.2214
 7908SOL    HW235358   0.927   2.245   1.662  0.5249  0.2298 -0.3629
 7909SOL     OW35359   1.653   1.210   3.447  0.2622 -0.3073  0.0411
 7909SOL    HW135360   1.601   1.192   3.368  2.5970 -2.5767 -0.9710
 7909SOL    HW235361   1.589   1.194   3.516  0.2835  0.6160  0.2636
 7910SOL     OW35362   2.563   1.808   3.473  0.0368  0.4181 -0.4293
 7910SOL    HW135363   2.602   1.866   3.407  1.6322  0.3842  0.5125
 7910SOL    HW235364   2.591   1.717   3.466 -1.3952  0.0749 -2.0332
 7911SOL     OW35365   3.275   2.579   3.398 -0.0870 -0.4097  0.1849
 7911SOL    HW135366   3.224   2.595   3.478 -0.3602  3.8356 -0.8811
 7911SOL    HW235367   3.316   2.493   3.413  0.9872 -0.1034 -0.9947
 7912SOL     OW35368   3.535   0.902   2.297 -0.4063 -0.1307 -0.7042
 7912SOL    HW135369   3.488   0.845   2.358 -0.4763 -1.2918 -1.8291
 7912SOL    HW235370   3.537   0.976   2.357 -1.0007 -0.3792 -0.3812
 7913SOL     OW35371   3.819   4.189  13.165 -0.6215  0.0914 -0.3125
 7913SOL    HW135372   3.798   4.105  13.122 -0.2182 -0.6854  1.0072
 7913SOL    HW235373   3.811   4.233  13.080  0.1210  0.2765 -0.2823
 7914SOL     OW35374   3.556   1.267  10.794  0.3886  0.3308  0.3494
 7914SOL    HW135375   3.611   1.254  10.871  1.1208 -1.0942 -0.4118
 7914SOL    HW235376   3.478   1.219  10.821  1.0373  0.2011  1.9365
 7915SOL     OW35377   4.365   3.951   1.588 -0.5436  0.1938  0.2428
 7915SOL    HW135378   4.274   3.928   1.611 -0.4726 -1.4196 -1.1166
 7915SOL    HW235379   4.395   3.865   1.560  1.5832  0.6283  1.1790
 7916SOL     OW35380   0.825   1.139   9.412 -0.8488  0.2637  0.2074
 7916SOL    HW135381   0.843   1.061   9.360  2.7880 -1.1820  3.6865
 7916SOL    HW235382   0.857   1.122   9.500 -1.3110  2.1822  0.7500
 7917SOL     OW35383   3.871   2.256   5.014 -0.3364  0.4250 -0.3382
 7917SOL    HW135384   3.966   2.264   5.005 -0.0283 -2.6448  0.2381
 7917SOL    HW235385   3.836   2.260   4.926 -0.6675 -0.8444 -0.2656
 7918SOL     OW35386   2.749   2.601   6.168 -0.1097  0.3126 -0.0388
 7918SOL    HW135387   2.805   2.553   6.229 -1.0718  2.6115  2.6527
 7918SOL    HW235388   2.799   2.612   6.087  2.6556  0.6464  1.7110
 7919SOL     OW35389   0.693   0.262  15.766  0.0952  0.1209 -0.2490
 7919SOL    HW135390   0.630   0.326  15.799  0.0842  1.7126 -3.3702
 7919SOL    HW235391   0.654   0.178  15.789  0.7735  0.1627  1.0304
 7920SOL     OW35392   1.682   1.888  11.836  0.3232 -0.1407  0.4831
 7920SOL    HW135393   1.625   1.919  11.765  0.6860 -0.2892  0.1247
 7920SOL    HW235394   1.643   1.946  11.902  0.0192 -1.5462  1.5297
 7921SOL     OW35395   2.297   2.888   6.689 -0.5531  0.4617  0.7040
 7921SOL    HW135396   2.219   2.944   6.693 -1.0361 -0.1144 -0.6500
 7921SOL    HW235397   2.284   2.831   6.614  0.6555 -0.9528  1.5821
 7922SOL     OW35398   3.186   0.870   5.293 -0.4787 -0.0086 -0.3210
 7922SOL    HW135399   3.275   0.884   5.325 -0.8854 -0.5071  1.0193
 7922SOL    HW235400   3.179   0.778   5.269  0.3292 -0.3572  0.8087
 7923SOL     OW35401   2.519   0.343   7.120 -0.0871  0.0812 -0.0845
 7923SOL    HW135402   2.527   0.439   7.123 -1.3232  0.1155  1.6352
 7923SOL    HW235403   2.503   0.322   7.212 -1.6934  0.9339 -0.1624
 7924SOL     OW35404   2.260   3.092   0.005 -0.2646 -0.3201 -0.7613
 7924SOL    HW135405   2.214   3.016   0.039 -1.2042 -0.0674 -1.4830
 7924SOL    HW235406   2.335   3.046  17.723  1.9007  2.6148 -0.0985
 7925SOL     OW35407   1.558   4.596   3.128 -0.1597  0.4778 -0.0121
 7925SOL    HW135408   1.571   4.601   3.222 -4.3346  2.9856  0.4379
 7925SOL    HW235409   1.491   4.664   3.119 -0.3684  0.5053  1.8346
 7926SOL     OW35410   1.224   0.034   5.733 -0.2235 -0.2848 -1.0096
 7926SOL    HW135411   1.226   4.702   5.670  1.5805 -0.7814 -0.4047
 7926SOL    HW235412   1.311   0.069   5.716  0.1089  0.5146  2.2377
 7927SOL     OW35413   4.547   0.530   8.050 -0.4058 -0.2359 -0.3458
 7927SOL    HW135414   4.587   0.548   7.965 -1.0581 -0.3890 -0.6850
 7927SOL    HW235415   4.491   0.606   8.066  0.3360 -0.2785  2.4979
 7928SOL     OW35416   0.711   4.182   7.974  0.0175  0.5978 -0.3086
 7928SOL    HW135417   0.772   4.134   8.030 -1.3163 -1.4091 -0.5608
 7928SOL    HW235418   0.685   4.119   7.907  1.4913  1.0668 -1.3233
 7929SOL     OW35419   4.463   0.338  14.700  0.4922 -0.2425  0.1579
 7929SOL    HW135420   4.496   0.265  14.753  1.1734  0.1344  0.2445
 7929SOL    HW235421   4.394   0.287  14.656  0.9007  1.4126 -2.3845
 7930SOL     OW35422   3.265   1.479  17.078  0.2888  0.2065 -0.1027
 7930SOL    HW135423   3.289   1.565  17.113 -1.2217  0.5859  0.0157
 7930SOL    HW235424   3.343   1.447  17.033 -0.6626 -0.8589 -1.0071
 7931SOL     OW35425   2.818   4.385  17.663 -0.1258 -0.1309 -0.6805
 7931SOL    HW135426   2.866   4.444  17.604  1.1448 -0.6516 -0.1677
 7931SOL    HW235427   2.863   4.306  17.633  0.1260  0.2911 -1.4101
 7932SOL     OW35428   2.611   4.715   5.533  0.6092 -0.5183  0.1177
 7932SOL    HW135429   2.630   4.698   5.625  2.2581 -1.7027 -0.4367
 7932SOL    HW235430   2.610   0.071   5.525 -1.1154 -0.5526 -0.0734
 7933SOL     OW35431   0.736   0.872   4.402 -0.0658  0.4902  0.3276
 7933SOL    HW135432   0.748   0.967   4.396 -1.4867  0.5492 -1.5403
 7933SOL    HW235433   0.827   0.841   4.405 -0.0332  0.7620  2.1089
 7934SOL     OW35434   2.951   1.787   2.246 -0.0993 -0.1540  0.3054
 7934SOL    HW135435   3.028   1.756   2.293  0.4492 -1.1220 -1.2659
 7934SOL    HW235436   2.963   1.881   2.257  0.0772 -0.3054  1.4059
 7935SOL     OW35437   4.180   4.700   6.479  0.0910  0.0445  0.2165
 7935SOL    HW135438   4.198   4.686   6.386  2.1377 -1.6841  0.8740
 7935SOL    HW235439   4.107   4.641   6.499  1.7105 -1.2301  2.4283
 7936SOL     OW35440   4.165   3.717   9.117 -0.3536 -0.2693  0.2669
 7936SOL    HW135441   4.114   3.757   9.046  1.3315 -1.8334 -1.8145
 7936SOL    HW235442   4.161   3.787   9.182  1.2610  0.7894 -0.7690
 7937SOL     OW35443   3.618   0.380   9.074  0.2536  0.7439 -0.2714
 7937SOL    HW135444   3.533   0.343   9.049  1.0035  1.1500 -3.4704
 7937SOL    HW235445   3.657   0.296   9.102 -1.0997 -0.1387 -1.0383
 7938SOL     OW35446   0.440   2.937   1.213 -0.2652 -0.3701  0.1453
 7938SOL    HW135447   0.389   3.001   1.163  2.7470  0.4443 -1.8947
 7938SOL    HW235448   0.398   2.861   1.174  1.0288 -1.0736  0.1200
 7939SOL     OW35449   1.384   4.203   8.997  0.0583  0.4989  0.2260
 7939SOL    HW135450   1.355   4.263   9.066 -0.0397  1.2894 -0.5106
 7939SOL    HW235451   1.310   4.191   8.938  0.0032 -1.3682  0.6730
 7940SOL     OW35452   2.986   3.204   8.762  0.3714 -0.4163  0.1690
 7940SOL    HW135453   3.044   3.237   8.830 -1.4789  1.5098  0.7820
 7940SOL    HW235454   2.970   3.272   8.697 -1.0893  0.0979  1.0751
 7941SOL     OW35455   2.304   0.555   7.883 -0.1531 -0.1840 -0.2120
 7941SOL    HW135456   2.254   0.633   7.857  2.4075  0.6422 -2.7344
 7941SOL    HW235457   2.302   0.569   7.977 -2.0902  0.1345 -0.2931
 7942SOL     OW35458   1.156   2.329   5.230  0.0459 -0.0439 -0.0972
 7942SOL    HW135459   1.189   2.418   5.225 -1.9802  0.6750 -0.8861
 7942SOL    HW235460   1.113   2.340   5.315  1.3514 -3.3832  1.0159
 7943SOL     OW35461   2.902   2.736  11.324  0.0984  0.3710 -0.5320
 7943SOL    HW135462   2.942   2.749  11.410 -0.2026 -2.2875  0.0243
 7943SOL    HW235463   2.974   2.732  11.261  0.7493  0.1438  0.2262
 7944SOL     OW35464   3.922   0.822   8.655  0.7989  0.3419  0.3761
 7944SOL    HW135465   3.914   0.734   8.617 -0.5951  0.4340  0.4619
 7944SOL    HW235466   4.015   0.838   8.643  0.4801  1.6905 -0.2384
 7945SOL     OW35467   2.880   2.393   5.538  0.1988  0.4330 -0.3199
 7945SOL    HW135468   2.848   2.432   5.619 -2.6236  3.5841 -2.9960
 7945SOL    HW235469   2.943   2.334   5.582 -2.5767 -1.4296  1.1589
 7946SOL     OW35470   1.755   4.333  12.421 -0.2014 -0.1535  0.1608
 7946SOL    HW135471   1.750   4.293  12.508 -0.0740  0.7008  0.5596
 7946SOL    HW235472   1.673   4.383  12.419  0.4251  0.8587 -0.3535
 7947SOL     OW35473   2.024   2.189  10.623  0.1902 -0.5189  0.1386
 7947SOL    HW135474   2.007   2.187  10.528 -2.3202  3.0879  0.5362
 7947SOL    HW235475   1.934   2.179  10.655 -0.2115 -0.2402 -0.9022
 7948SOL     OW35476   0.893   1.296  16.666 -0.0011 -0.3531 -0.5569
 7948SOL    HW135477   0.960   1.256  16.721 -1.9812 -2.6095  0.2538
 7948SOL    HW235478   0.909   1.390  16.675 -1.3222 -0.3600  1.7776
 7949SOL     OW35479   0.570   1.127   6.969  0.0163  0.6548  0.1651
 7949SOL    HW135480   0.594   1.075   6.892 -0.5803 -0.8810  1.0074
 7949SOL    HW235481   0.657   1.160   6.991 -0.0389  0.6171  0.4342
 7950SOL     OW35482   2.320   4.144   4.528  0.1394  0.0043  0.2991
 7950SOL    HW135483   2.271   4.107   4.454 -2.1989  0.2262  1.7322
 7950SOL    HW235484   2.366   4.067   4.559 -0.0408 -0.0155  0.5152
 7951SOL     OW35485   2.945   0.939   2.792  0.6059 -0.2520 -0.6864
 7951SOL    HW135486   2.878   0.882   2.752 -1.2562  1.5268 -0.0787
 7951SOL    HW235487   2.961   0.891   2.873 -0.4874 -1.2617 -1.0642
 7952SOL     OW35488   0.620   2.948  16.062  0.0117 -0.0523 -0.3378
 7952SOL    HW135489   0.640   3.015  15.998  0.6334 -0.2993 -0.4084
 7952SOL    HW235490   0.589   2.995  16.139  2.1911  2.6262 -1.0971
 7953SOL     OW35491   3.700   2.946  13.585 -0.0122 -0.2047 -0.3672
 7953SOL    HW135492   3.647   3.026  13.594  0.3181 -0.3966  3.2853
 7953SOL    HW235493   3.637   2.880  13.613 -0.2089 -0.7405 -2.0903
 7954SOL     OW35494   2.707   0.623   7.358 -0.0029  0.9811  0.2477
 7954SOL    HW135495   2.637   0.631   7.423 -0.5051  3.4917 -0.6029
 7954SOL    HW235496   2.678   0.668   7.279 -0.3377  0.3568  0.0163
 7955SOL     OW35497   3.777   3.207   3.250 -0.2758 -0.1788 -0.0961
 7955SOL    HW135498   3.801   3.247   3.167 -1.4947 -0.5602 -0.6380
 7955SOL    HW235499   3.810   3.120   3.229 -1.7036 -0.9851  0.9573
 7956SOL     OW35500   1.538   3.048   2.254 -0.1751  0.3771  0.1728
 7956SOL    HW135501   1.580   2.986   2.194 -0.1209 -1.1834  1.8040
 7956SOL    HW235502   1.473   2.990   2.295  1.9429 -1.4647  0.9508
 7957SOL     OW35503   1.424   4.078  14.704  0.1054  0.2895 -0.1361
 7957SOL    HW135504   1.394   3.988  14.714 -1.6413  0.8808 -0.0606
 7957SOL    HW235505   1.341   4.118  14.677  0.7693  1.4237 -0.5069
 7958SOL     OW35506   3.588   1.343  16.766  0.0928 -0.2913  0.1154
 7958SOL    HW135507   3.507   1.375  16.726  1.9223  1.4994 -2.1562
 7958SOL    HW235508   3.565   1.257  16.799  0.5467 -0.3233  0.3389
 7959SOL     OW35509   3.625   3.253   3.842  0.2128  0.4831  0.0227
 7959SOL    HW135510   3.543   3.204   3.854 -0.0298  0.6026 -1.1175
 7959SOL    HW235511   3.606   3.335   3.796  0.5188  0.8376  0.5361
 7960SOL     OW35512   2.080   2.980   9.266  0.1568 -0.7146 -0.4615
 7960SOL    HW135513   2.104   3.019   9.182 -2.6258  0.4316 -0.7373
 7960SOL    HW235514   2.150   2.999   9.328  0.1171  0.5753 -0.8134
 7961SOL     OW35515   1.753   4.233   8.408 -0.1874  0.2516  0.7891
 7961SOL    HW135516   1.818   4.174   8.369 -1.2950 -0.6996  0.3907
 7961SOL    HW235517   1.802   4.315   8.400 -0.8564  0.2337 -3.7010
 7962SOL     OW35518   0.476   1.589   4.404  0.5058 -0.4377 -0.0383
 7962SOL    HW135519   0.462   1.672   4.358 -1.5002 -1.3546 -1.0707
 7962SOL    HW235520   0.562   1.557   4.377  0.5464 -0.3272 -0.0406
 7963SOL     OW35521   2.162   2.821  11.871  0.0791  0.1522  0.7091
 7963SOL    HW135522   2.182   2.728  11.864 -1.5102  0.0531 -2.2125
 7963SOL    HW235523   2.081   2.826  11.922  0.3542 -0.1714  1.1785
 7964SOL     OW35524   3.164   3.672   9.454  0.5283 -0.0212  0.1258
 7964SOL    HW135525   3.203   3.587   9.475  0.4121 -0.6770 -2.2591
 7964SOL    HW235526   3.126   3.698   9.537  0.3081  0.2701 -0.0675
 7965SOL     OW35527   0.911   2.280   4.882 -0.5192  0.1951 -0.2268
 7965SOL    HW135528   0.820   2.305   4.899 -0.5256  0.0666 -0.0808
 7965SOL    HW235529   0.916   2.200   4.934  1.0137 -0.8267 -1.9309
 7966SOL     OW35530   3.168   4.011   9.888  0.5308  0.8912  0.3851
 7966SOL    HW135531   3.198   4.001   9.798 -0.1917 -1.8136  0.4431
 7966SOL    HW235532   3.083   4.054   9.881 -0.5163 -1.3337 -0.8347
 7967SOL     OW35533   3.014   3.217  17.012 -0.6597  0.4001 -0.2094
 7967SOL    HW135534   3.048   3.307  17.014  1.0491 -0.3380  2.5445
 7967SOL    HW235535   3.078   3.182  16.951 -0.2629  0.7853 -0.0151
 7968SOL     OW35536   1.562   1.789   3.966 -0.0434  0.2640  0.4214
 7968SOL    HW135537   1.473   1.770   3.995 -0.4393  2.1134  0.4572
 7968SOL    HW235538   1.606   1.705   3.979  1.7018  0.9009 -1.3695
 7969SOL     OW35539   2.701   3.832   9.027  0.2206 -0.0577 -0.0464
 7969SOL    HW135540   2.611   3.803   9.012  0.3969  0.9747 -3.0464
 7969SOL    HW235541   2.680   3.925   9.023  1.1337  0.1568  0.0446
 7970SOL     OW35542   4.229   4.123   4.256  0.0046  0.0555 -0.2880
 7970SOL    HW135543   4.216   4.046   4.201  0.6187  0.2897 -0.7528
 7970SOL    HW235544   4.275   4.093   4.334 -0.0470 -1.3516 -0.8022
 7971SOL     OW35545   0.478   1.438  10.365  0.5843  0.0833  0.3702
 7971SOL    HW135546   0.446   1.386  10.438 -1.7134 -0.0712 -0.7626
 7971SOL    HW235547   0.459   1.528  10.391  1.8145  0.5609 -0.3741
 7972SOL     OW35548   2.556   2.678   8.664 -0.1854 -0.1258  0.2465
 7972SOL    HW135549   2.596   2.685   8.577  2.2279 -0.9330  1.3006
 7972SOL    HW235550   2.578   2.587   8.683 -0.7024 -0.3257 -0.1336
 7973SOL     OW35551   3.949   0.481   3.893 -0.1697  0.0309 -0.8455
 7973SOL    HW135552   3.881   0.418   3.869  0.3846  0.0499 -2.4633
 7973SOL    HW235553   3.903   0.518   3.968 -1.3179 -0.6769 -1.1924
 7974SOL     OW35554   3.850   1.169   2.174 -0.0972  0.0388 -0.0533
 7974SOL    HW135555   3.914   1.099   2.189  2.9729  2.7225 -0.8908
 7974SOL    HW235556   3.802   1.139   2.096  1.3939 -1.3829 -0.4195
 7975SOL     OW35557   3.092   4.652   3.265  0.4807  0.3310  0.5236
 7975SOL    HW135558   3.040   4.622   3.191  0.2150 -0.7472  1.1511
 7975SOL    HW235559   3.181   4.620   3.248  0.9526  2.3791 -0.9290
 7976SOL     OW35560   4.371   1.072  12.483 -0.5737  0.8264 -0.4737
 7976SOL    HW135561   4.415   1.033  12.407  1.5185 -1.2211  1.7727
 7976SOL    HW235562   4.439   1.052  12.547 -2.1409 -1.1683  0.5519
 7977SOL     OW35563   0.186   1.239  12.244 -0.2349 -0.1744 -0.6217
 7977SOL    HW135564   0.156   1.222  12.333  0.1650 -1.7876 -0.7933
 7977SOL    HW235565   0.201   1.152  12.208 -1.2530 -1.1647  1.4150
 7978SOL     OW35566   4.118   0.889  11.132 -0.8881 -0.1443 -0.3306
 7978SOL    HW135567   4.101   0.900  11.225 -0.5010 -0.3809 -0.2296
 7978SOL    HW235568   4.173   0.811  11.136 -0.9462 -0.2056 -0.7062
 7979SOL     OW35569   2.278   2.059  13.813 -0.0597  0.1157  0.0556
 7979SOL    HW135570   2.326   2.141  13.799  2.0423 -1.0452  0.6085
 7979SOL    HW235571   2.199   2.095  13.771 -0.7129 -1.5013 -0.0799
 7980SOL     OW35572   3.658   0.799  10.615 -0.2653  0.7442 -0.6592
 7980SOL    HW135573   3.627   0.714  10.646  0.7291  0.7042  0.2417
 7980SOL    HW235574   3.682   0.835  10.701 -0.3325 -0.3309 -0.1981
 7981SOL     OW35575   1.829   1.134   2.156  0.1991  0.0173  0.0153
 7981SOL    HW135576   1.747   1.178   2.133 -0.4523 -0.7458  0.8483
 7981SOL    HW235577   1.806   1.057   2.208 -2.4102  0.3809 -0.5589
 7982SOL     OW35578   3.886   2.939  16.486  0.4929 -0.6596 -0.5740
 7982SOL    HW135579   3.841   2.983  16.558 -1.6582 -0.7663 -1.8411
 7982SOL    HW235580   3.956   2.889  16.527 -0.7526 -1.5050  0.5315
 7983SOL     OW35581   3.237   2.262   2.767 -0.1732 -0.4229 -0.1034
 7983SOL    HW135582   3.247   2.168   2.748 -1.9485  0.0262 -3.2205
 7983SOL    HW235583   3.223   2.258   2.862 -1.9049 -1.1256 -0.3925
 7984SOL     OW35584   0.677   4.090   3.765 -0.4146 -0.4350  0.0972
 7984SOL    HW135585   0.726   4.020   3.721 -0.0673  0.0277 -0.2510
 7984SOL    HW235586   0.587   4.082   3.732  0.0695 -0.7279 -1.1495
 7985SOL     OW35587   2.870   0.514   6.655 -0.6090 -0.2985 -0.6985
 7985SOL    HW135588   2.836   0.494   6.742  1.5259 -1.5136 -0.1312
 7985SOL    HW235589   2.963   0.535   6.667 -1.3760  0.6521  3.6723
 7986SOL     OW35590   3.310   4.025   5.346  0.0977  0.2466  0.7888
 7986SOL    HW135591   3.279   3.993   5.261  1.9611 -0.8163  0.5156
 7986SOL    HW235592   3.403   4.040   5.330 -0.1156 -1.0515 -1.6725
 7987SOL     OW35593   1.473   1.411   9.713 -0.0131 -0.0972 -0.4107
 7987SOL    HW135594   1.535   1.483   9.714  1.0322 -1.0287  3.8387
 7987SOL    HW235595   1.400   1.464   9.743  0.8017  2.4173 -2.8675
 7988SOL     OW35596   3.819   3.667   4.107  0.0818  0.2526 -0.0855
 7988SOL    HW135597   3.838   3.592   4.164 -0.9829  0.4833  0.5634
 7988SOL    HW235598   3.762   3.715   4.167 -0.1297  0.0052 -0.0859
 7989SOL     OW35599   3.019   4.609   3.538  0.0301  0.1694 -0.7416
 7989SOL    HW135600   3.026   4.516   3.561  0.0236  0.5523  0.8096
 7989SOL    HW235601   3.044   4.609   3.445 -0.6035 -0.5547 -0.9108
 7990SOL     OW35602   4.302   0.172   3.730 -0.4065 -0.3958  0.2745
 7990SOL    HW135603   4.280   0.262   3.755  1.5857  0.7830 -2.1975
 7990SOL    HW235604   4.388   0.165   3.770  0.1477 -1.3757 -1.0875
 7991SOL     OW35605   2.327   0.120  17.337 -0.0439  0.4694  0.5085
 7991SOL    HW135606   2.287   0.046  17.384 -0.9524 -0.0620 -1.1006
 7991SOL    HW235607   2.365   0.166  17.412  0.4244  1.2556 -0.2195
 7992SOL     OW35608   0.840   2.634   6.399  0.1366 -0.0648 -0.8614
 7992SOL    HW135609   0.859   2.712   6.347 -1.1382  0.4863 -0.4930
 7992SOL    HW235610   0.881   2.659   6.482 -2.0361  1.4365 -0.2484
 7993SOL     OW35611   2.575   1.417  16.846  0.2059 -0.0712 -0.1291
 7993SOL    HW135612   2.531   1.392  16.765  2.5291 -0.0625 -1.3963
 7993SOL    HW235613   2.653   1.363  16.834  0.1079 -0.2466  0.0307
 7994SOL     OW35614   3.676   0.790   3.809 -0.0113 -0.7473  0.0843
 7994SOL    HW135615   3.618   0.779   3.733  0.9254  2.0639 -1.0427
 7994SOL    HW235616   3.756   0.771   3.761  0.5070  2.6465 -0.3775
 7995SOL     OW35617   4.467   0.873  14.844 -0.1653  0.4427 -0.1881
 7995SOL    HW135618   4.467   0.785  14.806  1.4052  0.5438 -0.4101
 7995SOL    HW235619   4.557   0.886  14.874 -0.6260  2.5594  0.3308
 7996SOL     OW35620   2.083   1.430   1.862 -0.1103 -0.0237  0.2251
 7996SOL    HW135621   2.178   1.422   1.876 -0.2879 -0.7325  0.9888
 7996SOL    HW235622   2.055   1.370   1.930  1.4149 -0.7077  0.2570
 7997SOL     OW35623   2.851   2.015  14.951  0.3936 -0.6103  0.5510
 7997SOL    HW135624   2.825   1.943  15.008  0.2365  0.4153  1.7808
 7997SOL    HW235625   2.931   1.976  14.915  1.3749  0.4306  1.5841
 7998SOL     OW35626   0.807   3.192   0.953  0.9920 -0.0372 -0.0581
 7998SOL    HW135627   0.752   3.161   1.025  2.5481 -0.4829  0.9368
 7998SOL    HW235628   0.750   3.169   0.880 -0.6729 -0.1901  1.2827
 7999SOL     OW35629   2.934   0.143   5.245 -0.5356 -0.0166  0.5181
 7999SOL    HW135630   2.940   0.198   5.167  0.4469 -2.4132 -1.0976
 7999SOL    HW235631   2.955   0.183   5.329 -1.1287 -1.4420  1.3299
 8000SOL     OW35632   2.786   0.155   8.758  0.1741  0.4755 -0.2355
 8000SOL    HW135633   2.857   0.090   8.767  1.8239  2.4543  1.1056
 8000SOL    HW235634   2.829   0.240   8.767  0.0348  0.4738  0.4123
 8001SOL     OW35635   3.803   1.473   1.220 -0.1719 -0.2348 -0.8268
 8001SOL    HW135636   3.711   1.453   1.202 -0.2365  1.0188 -1.9640
 8001SOL    HW235637   3.807   1.568   1.233 -0.0916 -0.2944 -0.4239
 8002SOL     OW35638   1.003   2.006   9.073  0.0932 -0.1414  0.5235
 8002SOL    HW135639   1.046   2.050   9.146 -0.1602  3.1592 -1.3090
 8002SOL    HW235640   0.915   1.991   9.108 -0.7217 -1.1014 -1.8853
 8003SOL     OW35641   4.693   3.297   8.362 -0.1140 -0.8939 -0.2539
 8003SOL    HW135642   4.668   3.340   8.281 -1.6130  0.5955  1.0253
 8003SOL    HW235643   4.728   3.374   8.406  0.8068 -0.7123 -1.3134
 8004SOL     OW35644   2.600   3.034   1.151  0.9497  0.1531 -0.2238
 8004SOL    HW135645   2.540   3.014   1.223 -0.1665  1.5330 -0.7672
 8004SOL    HW235646   2.619   3.128   1.153 -0.5859  0.4750 -0.3455
 8005SOL     OW35647   2.125   0.737  15.170  0.0893  0.4310 -0.0567
 8005SOL    HW135648   2.082   0.796  15.233  1.3161  0.9772  0.2680
 8005SOL    HW235649   2.131   0.790  15.090 -1.2548  2.1348  0.9635
 8006SOL     OW35650   1.371   3.898   3.760  0.5034  0.5090 -0.2422
 8006SOL    HW135651   1.313   3.838   3.807  1.2656  0.4894  0.6828
 8006SOL    HW235652   1.358   3.984   3.801 -2.5694  0.3530 -0.8584
 8007SOL     OW35653   0.410   2.368   5.885 -0.1047  0.4519 -0.2435
 8007SOL    HW135654   0.496   2.329   5.903  0.1891  2.2058  2.1044
 8007SOL    HW235655   0.396   2.322   5.802 -1.0258  0.4782 -0.0983
 8008SOL     OW35656   3.496   3.182   5.674  0.0968 -0.4600  0.0305
 8008SOL    HW135657   3.551   3.185   5.596 -0.2469 -0.5018 -0.2113
 8008SOL    HW235658   3.410   3.184   5.633  1.4579  1.7503 -2.6646
 8009SOL     OW35659   4.640   3.586   9.202 -0.5220  0.0557 -0.2004
 8009SOL    HW135660   4.720   3.575   9.254 -0.0277  2.1332 -0.5085
 8009SOL    HW235661   4.579   3.526   9.244  0.0937  0.5281  1.3793
 8010SOL     OW35662   3.657   3.579   4.993 -0.9122 -0.0612 -0.2942
 8010SOL    HW135663   3.610   3.495   4.997 -0.0864 -0.5326 -0.3668
 8010SOL    HW235664   3.743   3.557   5.030  0.3384 -0.2224 -3.3267
 8011SOL     OW35665   2.032   3.884  10.029  0.3920  0.9171  0.2239
 8011SOL    HW135666   2.125   3.905  10.041  0.2442  2.4302 -1.2974
 8011SOL    HW235667   2.032   3.882   9.933 -0.1029  0.2512  0.2393
 8012SOL     OW35668   4.130   3.343   6.090  0.2900  0.4412 -0.2832
 8012SOL    HW135669   4.105   3.392   6.012 -3.3069 -0.1357  0.5034
 8012SOL    HW235670   4.081   3.262   6.074  1.0841 -0.0719 -0.1123
 8013SOL     OW35671   2.533   2.808  10.837  0.2595 -0.0411 -0.4388
 8013SOL    HW135672   2.505   2.730  10.886  1.6599 -0.8081 -0.8677
 8013SOL    HW235673   2.509   2.877  10.899  0.3261 -1.6521  1.3859
 8014SOL     OW35674   3.335   3.261  13.424 -0.1550 -0.0989 -0.0949
 8014SOL    HW135675   3.328   3.351  13.456 -0.9313 -0.8213  1.7188
 8014SOL    HW235676   3.248   3.233  13.398  0.2856 -2.0681  0.5681
 8015SOL     OW35677   3.679   0.355   3.513 -0.5664 -0.4774  0.3399
 8015SOL    HW135678   3.683   0.421   3.444 -1.2562 -1.6248 -0.7940
 8015SOL    HW235679   3.772   0.337   3.530  0.1159  0.9644 -1.8458
 8016SOL     OW35680   3.061   1.389   4.765 -0.2128  0.1569  0.1519
 8016SOL    HW135681   3.050   1.349   4.852 -0.3265 -0.5725 -0.1968
 8016SOL    HW235682   3.069   1.480   4.793 -0.0172 -0.2064  1.2771
 8017SOL     OW35683   3.974   2.769   8.569 -0.0704 -0.2020 -0.2075
 8017SOL    HW135684   3.963   2.810   8.483 -0.8833 -1.7411 -0.8381
 8017SOL    HW235685   3.934   2.683   8.556  0.8897 -0.6007 -0.5228
 8018SOL     OW35686   0.323   3.533   4.519 -0.0645 -0.6168 -0.0296
 8018SOL    HW135687   0.365   3.603   4.568 -2.1571  1.0953 -0.7053
 8018SOL    HW235688   0.322   3.563   4.428 -1.5772 -1.8731 -0.4194
 8019SOL     OW35689   0.107   2.818  17.015 -0.1716 -0.2503  0.3026
 8019SOL    HW135690   0.133   2.910  17.027  2.3810 -0.8799 -0.3798
 8019SOL    HW235691   0.018   2.833  16.983  0.1339 -0.2328 -0.5563
 8020SOL     OW35692   1.540   1.042   6.689  0.3016  0.2465 -0.1009
 8020SOL    HW135693   1.566   0.950   6.681 -0.2768  0.1357 -0.6801
 8020SOL    HW235694   1.585   1.073   6.610 -0.5641 -0.3239 -0.8203
 8021SOL     OW35695   4.167   2.255   6.442  0.0210  0.2750  0.3794
 8021SOL    HW135696   4.187   2.319   6.374 -0.9020  1.2895  1.0544
 8021SOL    HW235697   4.252   2.232   6.480 -0.9075 -3.2213  0.3718
 8022SOL     OW35698   3.743   2.586  17.592  0.2983  0.0077 -0.3414
 8022SOL    HW135699   3.658   2.625  17.613 -0.0432  0.0628 -1.8297
 8022SOL    HW235700   3.789   2.669  17.582 -0.4252  0.4918  0.3444
 8023SOL     OW35701   4.456   3.201   2.822  0.1090 -0.4553  0.2052
 8023SOL    HW135702   4.407   3.217   2.902 -0.1786  2.0896 -0.4939
 8023SOL    HW235703   4.477   3.290   2.794 -0.4847 -0.4566 -0.2549
 8024SOL     OW35704   2.644   2.901  11.791 -0.3731  0.0099  0.0297
 8024SOL    HW135705   2.614   2.931  11.704 -0.8187  0.8067  0.4519
 8024SOL    HW235706   2.739   2.909  11.790 -0.4174  0.5947  0.9570
 8025SOL     OW35707   0.143   1.893   7.152 -0.0561  0.0619  0.1346
 8025SOL    HW135708   0.081   1.942   7.099 -0.3521  2.0936  2.3478
 8025SOL    HW235709   0.090   1.815   7.168 -2.5311  1.7237 -0.0432
 8026SOL     OW35710   0.766   0.247   8.527  0.4383 -0.0813 -0.7381
 8026SOL    HW135711   0.773   0.166   8.577 -0.3461 -0.9954 -2.1041
 8026SOL    HW235712   0.858   0.266   8.508 -0.3392 -0.3909 -4.9212
 8027SOL     OW35713   4.178   1.322  12.111  0.0286  0.4877 -0.4758
 8027SOL    HW135714   4.095   1.370  12.107 -0.7987 -1.1064 -2.8551
 8027SOL    HW235715   4.178   1.307  12.205 -1.4657 -1.1703 -0.7299
 8028SOL     OW35716   1.352   4.710  15.104  0.1640  0.2828 -0.7472
 8028SOL    HW135717   1.280   0.032  15.114 -1.3152 -1.0399 -3.2974
 8028SOL    HW235718   1.424   0.034  15.116 -0.0497  0.4182 -0.1962
 8029SOL     OW35719   1.409   0.365   9.316 -0.2086  0.0580 -0.2962
 8029SOL    HW135720   1.474   0.317   9.368 -0.7363 -0.6606 -0.3007
 8029SOL    HW235721   1.396   0.301   9.245 -0.2428 -0.8471  0.5242
 8030SOL     OW35722   2.162   3.603   5.232  0.1078 -0.4534  0.4464
 8030SOL    HW135723   2.172   3.667   5.303  1.2053 -2.1197  1.7981
 8030SOL    HW235724   2.069   3.582   5.242  0.0731  0.6810  2.4700
 8031SOL     OW35725   0.931   0.876   6.555 -0.5731 -0.2184  0.1111
 8031SOL    HW135726   0.979   0.864   6.473 -3.3425  0.2601 -1.5704
 8031SOL    HW235727   0.986   0.941   6.599 -0.1446  0.0593 -0.8343
 8032SOL     OW35728   3.717   1.924   2.340 -0.5016  0.0603 -0.1541
 8032SOL    HW135729   3.738   1.863   2.411  0.7354 -0.1543 -0.7008
 8032SOL    HW235730   3.767   1.875   2.274 -0.8366  0.2534 -0.5484
 8033SOL     OW35731   1.176   4.241   1.569  0.2179 -0.7810 -0.2317
 8033SOL    HW135732   1.271   4.235   1.558  0.2725 -1.5806  0.6404
 8033SOL    HW235733   1.149   4.311   1.510  1.8308 -1.4456 -1.7524
 8034SOL     OW35734   0.168   4.598   3.537  0.1084  0.3064 -0.4301
 8034SOL    HW135735   0.100   4.551   3.488 -0.5144 -0.7658  1.4743
 8034SOL    HW235736   0.226   4.523   3.548  0.6822  0.7668 -0.3049
 8035SOL     OW35737   2.402   4.672   0.706 -0.1551 -0.1860 -0.2515
 8035SOL    HW135738   2.459   4.621   0.649  0.4653  0.5283 -0.2727
 8035SOL    HW235739   2.320   4.626   0.688 -0.5847  0.7613 -0.6933
 8036SOL     OW35740   0.455   3.208   7.981  0.0169 -0.5570  0.5697
 8036SOL    HW135741   0.507   3.275   7.936 -1.2260 -1.0747 -1.6680
 8036SOL    HW235742   0.519   3.161   8.033 -0.3257 -0.5962  0.9594
 8037SOL     OW35743   2.929   2.456   5.103 -0.0755 -0.1754 -0.0882
 8037SOL    HW135744   2.905   2.404   5.179  0.4889 -0.7874 -0.3245
 8037SOL    HW235745   2.846   2.500   5.085  0.2384 -0.3373 -1.9818
 8038SOL     OW35746   1.967   4.339   2.924  0.7904  0.2278 -0.1236
 8038SOL    HW135747   1.882   4.367   2.958  0.9531  1.3443 -0.6580
 8038SOL    HW235748   2.020   4.351   3.003 -1.5775 -2.1897  1.8567
 8039SOL     OW35749   3.240   2.938  13.518  0.4466  0.4293  0.6203
 8039SOL    HW135750   3.308   2.872  13.527  0.5955  0.7661  1.9286
 8039SOL    HW235751   3.175   2.909  13.581  0.8411 -0.7428  0.4747
 8040SOL     OW35752   0.491   1.415   7.880 -0.2029 -0.4241 -0.7398
 8040SOL    HW135753   0.517   1.507   7.879  0.7082 -0.6783  0.0471
 8040SOL    HW235754   0.396   1.423   7.893  0.1088  1.3962  0.5554
 8041SOL     OW35755   1.930   3.947   6.078 -0.4660 -0.4926 -0.4767
 8041SOL    HW135756   1.910   4.041   6.082 -0.2473 -0.3861 -1.8712
 8041SOL    HW235757   1.951   3.933   6.170 -0.2012 -0.2167 -0.4980
 8042SOL     OW35758   4.383   1.326  17.538  0.6481 -0.4991  0.5235
 8042SOL    HW135759   4.301   1.295  17.578  0.0707  1.6640  1.0365
 8042SOL    HW235760   4.373   1.294  17.449 -1.5794 -0.7136  0.8358
 8043SOL     OW35761   3.301   3.841  12.812  0.0155  0.5889 -0.4637
 8043SOL    HW135762   3.223   3.793  12.786 -0.2090 -0.3933  2.0108
 8043SOL    HW235763   3.296   3.924  12.764  0.3503 -0.6164 -2.5642
 8044SOL     OW35764   3.639   4.040   8.110  0.4795  0.5511 -0.1474
 8044SOL    HW135765   3.710   4.034   8.046 -0.4648 -0.2223 -1.1330
 8044SOL    HW235766   3.650   4.128   8.144 -2.4884  1.2612 -0.9741
 8045SOL     OW35767   2.860   2.423   8.811 -0.2060  0.4964  0.1872
 8045SOL    HW135768   2.802   2.448   8.883 -3.0857 -0.6016 -1.7853
 8045SOL    HW235769   2.795   2.431   8.742 -0.1262 -2.0382 -0.1769
 8046SOL     OW35770   3.882   4.021   5.211 -0.3990 -0.3990 -0.3074
 8046SOL    HW135771   3.873   3.962   5.136  1.0307  1.4287 -1.9017
 8046SOL    HW235772   3.901   4.097   5.155 -2.1442 -0.7685 -1.4288
 8047SOL     OW35773   2.289   2.192   5.436  0.4719 -0.2558 -0.1224
 8047SOL    HW135774   2.292   2.109   5.484  1.5001 -0.0199  0.2267
 8047SOL    HW235775   2.215   2.183   5.377  0.4132  2.4973 -0.4837
 8048SOL     OW35776   2.615   3.139   5.784 -0.2817  0.2630  0.1382
 8048SOL    HW135777   2.697   3.148   5.833 -0.4271  0.5232  0.3315
 8048SOL    HW235778   2.599   3.229   5.757  0.3220  0.3687  0.1310
 8049SOL     OW35779   0.896   3.595   8.136  0.0401 -0.0379 -0.2778
 8049SOL    HW135780   0.801   3.597   8.130  0.1142  0.7919 -1.0547
 8049SOL    HW235781   0.904   3.534   8.210  0.2138  1.3967  0.8867
 8050SOL     OW35782   1.716   2.690  15.485  0.0347  0.2340 -0.0731
 8050SOL    HW135783   1.676   2.734  15.560 -1.3034  2.1231 -1.8627
 8050SOL    HW235784   1.791   2.647  15.524 -0.3722 -0.5612 -0.1694
 8051SOL     OW35785   0.426   3.921  15.165 -0.0944 -0.3124  0.0757
 8051SOL    HW135786   0.498   3.858  15.169 -1.5097 -1.9926 -1.1870
 8051SOL    HW235787   0.359   3.886  15.224  0.8813 -1.1692  0.6765
 8052SOL     OW35788   0.212   3.247  16.862 -0.5543 -0.1394  0.2292
 8052SOL    HW135789   0.137   3.251  16.802  0.5271  1.7297 -0.9927
 8052SOL    HW235790   0.214   3.337  16.895 -0.6545 -0.3428  0.7890
 8053SOL     OW35791   0.035   1.835   4.313 -0.2949  0.0440 -0.3433
 8053SOL    HW135792   0.015   1.923   4.281 -0.3001  1.3793  3.3880
 8053SOL    HW235793   0.036   1.846   4.408 -0.3458  0.7502 -0.4257
 8054SOL     OW35794   0.561   2.601   8.335 -0.3289 -0.1493  0.3201
 8054SOL    HW135795   0.597   2.597   8.424 -0.1645  0.1451  0.2625
 8054SOL    HW235796   0.586   2.512   8.310 -0.5008 -0.3073  0.6975
 8055SOL     OW35797   4.092   3.808   5.878  0.3667 -0.4770 -0.1767
 8055SOL    HW135798   4.180   3.784   5.908 -0.1157  0.7024  2.1206
 8055SOL    HW235799   4.114   3.893   5.839  0.2378  0.2711  1.4119
 8056SOL     OW35800   0.917   4.152   8.963 -0.0656  0.3514 -0.0006
 8056SOL    HW135801   0.984   4.153   9.031  1.2889  0.8500 -1.3354
 8056SOL    HW235802   0.858   4.224   8.986 -0.2026 -0.0495  0.8971
 8057SOL     OW35803   2.386   3.831   5.495  0.1334 -0.1067 -0.2183
 8057SOL    HW135804   2.463   3.885   5.477  1.6538 -1.4621  2.2693
 8057SOL    HW235805   2.307   3.879   5.473 -0.3523 -0.0402  1.7110
 8058SOL     OW35806   1.337   3.927   7.274 -0.5302  0.7330  0.0307
 8058SOL    HW135807   1.429   3.915   7.296 -0.4759 -0.0790 -0.6444
 8058SOL    HW235808   1.343   3.899   7.183 -0.9647 -3.8586  1.4009
 8059SOL     OW35809   4.451   2.647   7.721 -0.0280  0.2583  0.3144
 8059SOL    HW135810   4.538   2.612   7.701  0.3875  1.6389 -0.3045
 8059SOL    HW235811   4.403   2.577   7.764  0.4660  0.0704  0.5565
 8060SOL     OW35812   3.983   2.538   9.139  0.4986 -0.2749  0.7631
 8060SOL    HW135813   4.002   2.459   9.089  0.2806 -0.7148  1.3722
 8060SOL    HW235814   3.889   2.534   9.156  0.0571 -0.9936 -1.7616
 8061SOL     OW35815   1.645   3.598   2.448 -0.0247  0.4548 -0.5319
 8061SOL    HW135816   1.646   3.553   2.532 -0.8632  3.5370  1.1426
 8061SOL    HW235817   1.677   3.684   2.476 -1.5670  0.8259  0.0897
 8062SOL     OW35818   2.702   1.531   4.094 -0.2324 -0.1526 -0.1935
 8062SOL    HW135819   2.689   1.510   4.187 -2.0799 -1.7328 -0.8159
 8062SOL    HW235820   2.794   1.554   4.081 -0.1973 -0.3960 -0.3796
 8063SOL     OW35821   1.817   1.365   1.794 -0.0942 -0.1173 -0.3537
 8063SOL    HW135822   1.890   1.423   1.816 -0.6408  0.7481 -0.8152
 8063SOL    HW235823   1.740   1.405   1.835  1.4953  2.8561 -0.2563
 8064SOL     OW35824   4.104   4.169   7.657  0.0167  0.6032 -0.4156
 8064SOL    HW135825   4.080   4.257   7.685 -0.9992  0.5173 -1.0295
 8064SOL    HW235826   4.031   4.151   7.598  0.5140 -0.4706 -0.7025
 8065SOL     OW35827   0.420   0.156   3.595 -0.0095 -0.3746  0.6817
 8065SOL    HW135828   0.364   0.231   3.612 -1.0550 -0.3518 -2.8136
 8065SOL    HW235829   0.391   0.141   3.505  1.2551  1.5704 -0.0586
 8066SOL     OW35830   3.953   3.270  15.625  0.1488 -0.1764 -0.6734
 8066SOL    HW135831   3.872   3.223  15.642 -0.1714 -0.1148 -1.9885
 8066SOL    HW235832   4.012   3.233  15.690 -0.7968 -0.6044 -0.0609
 8067SOL     OW35833   1.172   1.564  14.533 -0.3460 -0.3467  0.5659
 8067SOL    HW135834   1.222   1.623  14.476 -2.2272  0.7127  0.0165
 8067SOL    HW235835   1.198   1.611  14.613 -1.7546  0.2059  0.7050
 8068SOL     OW35836   1.816   3.887  10.173 -0.2302 -0.4984  0.2010
 8068SOL    HW135837   1.776   3.822  10.115 -1.0917 -1.0735  1.4317
 8068SOL    HW235838   1.893   3.912  10.122 -1.1403  1.0782 -0.3907
 8069SOL     OW35839   2.163   2.621  16.337 -0.1021 -0.4863  0.3434
 8069SOL    HW135840   2.178   2.651  16.247 -1.8828  0.0621  0.2318
 8069SOL    HW235841   2.192   2.530  16.330 -0.7367 -0.5487 -1.6353
 8070SOL     OW35842   1.134   4.359   9.750 -0.3720  0.1990 -0.0218
 8070SOL    HW135843   1.095   4.446   9.743  1.3300  1.2227  3.2054
 8070SOL    HW235844   1.055   4.319   9.786 -0.1903  1.2810  1.5867
 8071SOL     OW35845   1.596   3.852   7.352  0.3988  0.2547 -0.3464
 8071SOL    HW135846   1.573   3.760   7.345  1.9492 -0.1967  0.5212
 8071SOL    HW235847   1.608   3.857   7.447  1.7857  0.8243 -0.5473
 8072SOL     OW35848   2.266   3.503   7.582 -0.1924  0.0580  0.0013
 8072SOL    HW135849   2.235   3.412   7.583 -1.0071  0.3266 -1.6826
 8072SOL    HW235850   2.360   3.495   7.598  0.3863  2.8208 -2.1277
 8073SOL     OW35851   0.371   0.456   4.148 -0.2939  0.0186  0.0801
 8073SOL    HW135852   0.364   0.533   4.092  2.6923  0.0810 -0.1795
 8073SOL    HW235853   0.292   0.410   4.120  0.8978 -1.7776 -0.3055
 8074SOL     OW35854   3.588   2.751  12.974 -0.4172 -0.2095 -0.3891
 8074SOL    HW135855   3.543   2.835  12.965 -0.9700 -0.6298 -1.5288
 8074SOL    HW235856   3.538   2.707  12.905 -0.1365  0.3533 -0.9471
 8075SOL     OW35857   4.582   2.927   8.197 -0.3528 -0.6389  0.1550
 8075SOL    HW135858   4.551   3.016   8.181  1.0452 -0.1281  0.2071
 8075SOL    HW235859   4.628   2.937   8.280 -0.2432 -1.2355  0.1689
 8076SOL     OW35860   3.496   0.458   1.862  0.4369 -0.2469  0.0212
 8076SOL    HW135861   3.456   0.373   1.843  1.4400 -0.5781 -0.6031
 8076SOL    HW235862   3.420   0.501   1.902  1.0877  1.1168 -0.2045
 8077SOL     OW35863   3.953   1.289   6.466  0.2140 -0.2953  0.8230
 8077SOL    HW135864   3.960   1.302   6.561 -1.3210  0.5165  0.8271
 8077SOL    HW235865   3.958   1.194   6.457 -1.3539 -0.3325  0.2587
 8078SOL     OW35866   3.515   1.996  14.563 -0.9709  0.8100 -0.0480
 8078SOL    HW135867   3.581   2.062  14.584  3.6387 -3.3414 -1.3967
 8078SOL    HW235868   3.577   1.925  14.547  1.6993  2.7711  1.6073
 8079SOL     OW35869   3.259   0.553   3.310 -0.6639  0.1636 -0.4627
 8079SOL    HW135870   3.263   0.457   3.313 -0.8477  0.1532 -0.5663
 8079SOL    HW235871   3.213   0.563   3.227  0.0830 -1.7803 -1.1181
 8080SOL     OW35872   0.706   0.184   7.307 -0.7028  0.2995 -0.5749
 8080SOL    HW135873   0.633   0.182   7.370  0.5650 -0.9946  0.8284
 8080SOL    HW235874   0.649   0.225   7.242  0.1041  2.8886  0.3498
 8081SOL     OW35875   0.772   3.797   7.747 -0.0596  0.2998  0.2884
 8081SOL    HW135876   0.838   3.830   7.686  0.5870 -2.8651 -0.7814
 8081SOL    HW235877   0.707   3.771   7.681  0.4440  0.9068 -0.4448
 8082SOL     OW35878   3.601   0.639   8.544 -0.1409 -0.0992  0.0584
 8082SOL    HW135879   3.617   0.692   8.466 -0.0142 -1.0164 -0.5437
 8082SOL    HW235880   3.664   0.569   8.525 -1.0586 -1.0257  0.4256
 8083SOL     OW35881   0.126   3.105  10.866 -0.3088  0.3234  0.6374
 8083SOL    HW135882   0.156   3.018  10.837  1.3786  1.9094 -2.3809
 8083SOL    HW235883   0.092   3.151  10.789  2.0666  0.8378 -0.1020
 8084SOL     OW35884   0.881   0.259  14.698 -0.1106 -0.1629  0.6130
 8084SOL    HW135885   0.803   0.227  14.743 -1.8071  0.5911 -1.7560
 8084SOL    HW235886   0.933   0.309  14.762 -0.6231 -0.2979  1.1337
 8085SOL     OW35887   1.410   3.729   2.048 -0.1059  0.5684 -0.2577
 8085SOL    HW135888   1.478   3.662   2.057  0.7288  1.8490  3.0400
 8085SOL    HW235889   1.432   3.751   1.958  2.1584 -0.4008  0.0409
 8086SOL     OW35890   1.799   2.506   7.862 -0.2640  0.6717  0.1604
 8086SOL    HW135891   1.742   2.498   7.786 -0.4231  0.1820  0.3330
 8086SOL    HW235892   1.842   2.591   7.850 -1.4848  0.8912 -2.5194
 8087SOL     OW35893   4.486   0.641   8.447 -0.0835 -0.4670  0.0550
 8087SOL    HW135894   4.464   0.621   8.538 -1.1263 -0.5860 -0.2306
 8087SOL    HW235895   4.405   0.685   8.423  0.8178  0.7058 -0.8990
 8088SOL     OW35896   3.006   0.238   4.952 -0.0422  0.3623  0.7650
 8088SOL    HW135897   2.929   0.257   4.898  0.3981  2.2029  0.7936
 8088SOL    HW235898   3.066   0.299   4.910  1.6269 -1.3849  0.6111
 8089SOL     OW35899   4.462   1.495   4.034 -0.7271  0.0219  0.6370
 8089SOL    HW135900   4.525   1.543   4.088 -1.6323  1.3880  0.4940
 8089SOL    HW235901   4.421   1.440   4.100 -0.2279 -0.8258  0.2346
 8090SOL     OW35902   1.566   2.146  10.537  0.3185  0.3045  0.2849
 8090SOL    HW135903   1.534   2.114  10.621  0.4790 -0.8710 -0.1005
 8090SOL    HW235904   1.648   2.182  10.571  1.8222 -1.6707 -1.2686
 8091SOL     OW35905   0.650   3.091  17.550  0.0464  0.3258  0.0858
 8091SOL    HW135906   0.672   3.001  17.523 -1.5699  0.5870 -2.1243
 8091SOL    HW235907   0.559   3.081  17.579 -0.3714  2.2296 -0.5912
 8092SOL     OW35908   2.640   0.536   6.494 -0.0725 -0.6249  0.0150
 8092SOL    HW135909   2.674   0.605   6.437 -1.3035 -0.3107 -0.3191
 8092SOL    HW235910   2.714   0.538   6.555  0.3947  0.2814 -0.5817
 8093SOL     OW35911   2.224   0.558   7.059  0.2354 -0.2487 -0.5478
 8093SOL    HW135912   2.252   0.468   7.072 -2.1919 -0.5431  2.9835
 8093SOL    HW235913   2.274   0.598   6.988  1.8517  0.5245  1.0223
 8094SOL     OW35914   1.326   4.180   4.751 -0.4348  0.2306  0.5715
 8094SOL    HW135915   1.288   4.096   4.726  2.3688 -0.6489 -0.7212
 8094SOL    HW235916   1.377   4.203   4.673 -1.1919  0.6984  0.2118
 8095SOL     OW35917   4.527   0.279   1.923 -0.1855 -0.5093 -0.2768
 8095SOL    HW135918   4.544   0.248   1.834  1.1769 -0.3745 -0.0668
 8095SOL    HW235919   4.612   0.321   1.933  0.2870 -1.2405 -1.2409
 8096SOL     OW35920   0.436   0.853  15.085  0.0414 -0.3982  0.2916
 8096SOL    HW135921   0.482   0.876  15.166  0.5196 -0.4135  0.0230
 8096SOL    HW235922   0.512   0.840  15.029  0.0651  0.0401  0.2199
 8097SOL     OW35923   1.933   1.667  10.290  0.6791  0.0326  0.1678
 8097SOL    HW135924   1.984   1.638  10.215  1.1219 -1.9442  1.2439
 8097SOL    HW235925   1.999   1.694  10.354  1.2447  0.3789 -0.5692
 8098SOL     OW35926   3.376   3.241  15.624 -0.1310 -0.0429 -0.9352
 8098SOL    HW135927   3.377   3.334  15.646 -0.6240 -0.5248  1.1535
 8098SOL    HW235928   3.443   3.229  15.557 -0.4239 -0.3268 -1.1791
 8099SOL     OW35929   4.023   2.821   4.348 -0.0447 -0.3995 -0.2479
 8099SOL    HW135930   3.928   2.812   4.341 -0.0598 -1.6066  1.4973
 8099SOL    HW235931   4.056   2.764   4.278  1.1912  0.6473 -0.5127
 8100SOL     OW35932   2.579   3.810   6.595 -0.3448  0.4535 -0.1091
 8100SOL    HW135933   2.558   3.738   6.655  0.8854 -0.2980 -0.5910
 8100SOL    HW235934   2.639   3.861   6.650  0.0989  0.7542 -0.8771
 8101SOL     OW35935   3.241   0.624   7.718  0.0031 -0.0005  0.1605
 8101SOL    HW135936   3.211   0.549   7.666  2.7896 -0.5268 -0.7449
 8101SOL    HW235937   3.257   0.693   7.654  0.9008 -1.2455 -0.9803
 8102SOL     OW35938   1.134   2.153   4.473  0.3751  0.1921 -0.3070
 8102SOL    HW135939   1.145   2.210   4.550 -3.4259  2.5033 -1.4986
 8102SOL    HW235940   1.223   2.124   4.452  1.0802  0.5904  2.1481
 8103SOL     OW35941   0.198   1.435   2.367  0.3877 -0.5722  0.6540
 8103SOL    HW135942   0.227   1.484   2.444  1.7876 -0.5179  0.0846
 8103SOL    HW235943   0.112   1.473   2.349 -0.6815 -0.9637  5.0131
 8104SOL     OW35944   0.017   1.842   4.578 -0.1915  0.1441 -0.4322
 8104SOL    HW135945   0.004   1.796   4.662  1.0715  2.5413  1.0799
 8104SOL    HW235946   0.094   1.894   4.601  0.9233 -1.6715 -0.0818
 8105SOL     OW35947   1.699   2.361   5.925  0.1903  0.1125  0.1433
 8105SOL    HW135948   1.685   2.341   5.832  0.4788  0.1754  0.0849
 8105SOL    HW235949   1.773   2.422   5.921  0.5069 -0.2387  0.5787
 8106SOL     OW35950   3.009   0.280   5.482  0.3969 -0.2299 -0.8287
 8106SOL    HW135951   3.066   0.211   5.517 -0.8119 -0.2958  1.0425
 8106SOL    HW235952   2.944   0.295   5.550  0.1421 -0.0180 -1.1218
 8107SOL     OW35953   1.560   2.599   7.963  0.1138 -0.1604 -0.4011
 8107SOL    HW135954   1.636   2.554   7.927 -0.0474 -0.3799 -0.4707
 8107SOL    HW235955   1.568   2.576   8.056 -0.7887  0.7227 -0.0982
 8108SOL     OW35956   0.673   2.241   4.270  0.2803 -1.0856 -0.3554
 8108SOL    HW135957   0.711   2.328   4.256 -0.0681 -0.5216  2.1446
 8108SOL    HW235958   0.638   2.250   4.359 -0.0681 -0.7253 -0.5274
 8109SOL     OW35959   2.316   0.692  12.798 -0.3646  0.3993  0.2348
 8109SOL    HW135960   2.321   0.705  12.893 -0.0490  1.7581  0.0270
 8109SOL    HW235961   2.237   0.638  12.789 -1.0004  0.9049  2.5792
 8110SOL     OW35962   4.639   2.429  13.264  0.5699  0.1466 -0.0705
 8110SOL    HW135963   4.699   2.359  13.239 -0.3023 -0.2548 -1.0954
 8110SOL    HW235964   4.572   2.377  13.308  1.2925  1.2810  2.3465
 8111SOL     OW35965   0.015   0.098   7.560 -0.4182 -0.8216  0.2008
 8111SOL    HW135966   0.035   0.149   7.482 -2.3166  2.0325  1.5796
 8111SOL    HW235967   4.705   0.029   7.516 -2.8148  0.4349  0.8849
 8112SOL     OW35968   2.617   0.769   3.049  0.0279 -0.2180 -0.5487
 8112SOL    HW135969   2.709   0.783   3.026 -0.5321 -0.1505 -2.8217
 8112SOL    HW235970   2.599   0.690   2.998  0.3125 -0.5375 -0.1447
 8113SOL     OW35971   2.966   2.884   8.410 -0.1401 -0.3798 -0.2067
 8113SOL    HW135972   3.022   2.930   8.473  0.4066 -0.8491 -0.3489
 8113SOL    HW235973   3.026   2.824   8.365  1.3829  2.3766 -1.8594
 8114SOL     OW35974   4.258   1.003   6.769  0.4500 -0.4152 -0.3288
 8114SOL    HW135975   4.280   0.916   6.801 -2.3839 -1.1903 -0.4164
 8114SOL    HW235976   4.293   1.001   6.680 -0.7185 -1.1207 -0.7772
 8115SOL     OW35977   3.756   4.211   8.316 -0.1710 -0.2187 -0.2307
 8115SOL    HW135978   3.812   4.275   8.361  0.0116  1.2396 -2.5447
 8115SOL    HW235979   3.813   4.134   8.314 -0.7398 -0.6523  0.3772
 8116SOL     OW35980   4.235   2.874   2.394 -0.0589 -0.3172 -0.1865
 8116SOL    HW135981   4.313   2.829   2.427  0.5111 -0.0399 -1.1739
 8116SOL    HW235982   4.273   2.918   2.318 -0.2601 -0.4633 -0.3696
 8117SOL     OW35983   1.366   0.258   8.614 -0.4809  0.2257  0.0403
 8117SOL    HW135984   1.388   0.225   8.527  0.9592  1.5298 -0.0694
 8117SOL    HW235985   1.307   0.189   8.645 -0.6850  1.4306  2.3727
 8118SOL     OW35986   3.473   0.319   9.813 -0.1473  0.1617  0.6008
 8118SOL    HW135987   3.460   0.340   9.906  0.4099 -2.5296  1.2856
 8118SOL    HW235988   3.563   0.350   9.803 -0.2797 -0.2135 -1.6828
 8119SOL     OW35989   4.170   2.687  13.519  0.1615 -0.0001 -0.3003
 8119SOL    HW135990   4.198   2.737  13.596 -2.4642  0.1487  0.5795
 8119SOL    HW235991   4.177   2.594  13.540  1.8827  0.0261 -0.7963
 8120SOL     OW35992   3.409   3.666   4.104  0.1653 -0.3810 -0.6024
 8120SOL    HW135993   3.406   3.593   4.165  0.2146  0.4765  0.4180
 8120SOL    HW235994   3.333   3.639   4.051 -1.3897 -0.6667  1.7823
 8121SOL     OW35995   4.734   1.295   3.337  0.0119  0.3172  0.4686
 8121SOL    HW135996   4.662   1.354   3.315 -0.5852 -1.1609 -1.6064
 8121SOL    HW235997   4.717   1.295   3.432 -1.3618 -1.5962  0.2394
 8122SOL     OW35998   4.211   1.729   6.817  0.1737 -0.1888  0.0737
 8122SOL    HW135999   4.124   1.690   6.805 -0.3123  1.0116 -0.3243
 8122SOL    HW236000   4.258   1.668   6.761 -0.7878 -0.1242 -0.7938
 8123SOL     OW36001   1.956   4.726   4.279 -0.3051  0.4076 -0.2839
 8123SOL    HW136002   1.979   0.017   4.191 -2.3572 -0.1399 -1.0096
 8123SOL    HW236003   2.025   0.027   4.332  0.9151  0.4961 -1.9565
 8124SOL     OW36004   4.379   0.691   2.197 -0.2684  0.6408  0.4092
 8124SOL    HW136005   4.330   0.642   2.129 -0.6030  0.0353  1.0822
 8124SOL    HW236006   4.450   0.732   2.149 -0.1158  1.7973  1.6333
 8125SOL     OW36007   4.676   2.157   3.503 -0.0914  0.0828  0.2459
 8125SOL    HW136008   4.616   2.226   3.475  2.0646  0.8017 -2.6431
 8125SOL    HW236009   4.721   2.138   3.420 -0.0422 -0.1433  0.3235
 8126SOL     OW36010   0.698   1.944  12.706  0.2802 -0.0146  0.3046
 8126SOL    HW136011   0.702   2.004  12.780  1.1011 -2.0439  1.9109
 8126SOL    HW236012   0.609   1.959  12.672 -0.0565 -0.1489  1.1348
 8127SOL     OW36013   3.113   3.099  13.367  0.3221  0.5700 -0.7190
 8127SOL    HW136014   3.035   3.047  13.386  1.1180 -0.9774 -1.6742
 8127SOL    HW236015   3.170   3.055  13.430  2.3173  2.5302 -1.1746
 8128SOL     OW36016   3.295   0.505  13.268  0.5312  0.2669 -0.7335
 8128SOL    HW136017   3.208   0.466  13.267 -0.1061  1.7725 -3.7861
 8128SOL    HW236018   3.354   0.456  13.326  0.4924  0.1459 -0.7963
 8129SOL     OW36019   2.465   2.329   6.310  0.2878 -0.0567  0.2529
 8129SOL    HW136020   2.450   2.281   6.391  0.6404  2.5145  1.8480
 8129SOL    HW236021   2.532   2.390   6.340  0.1215 -0.2914  1.0926
 8130SOL     OW36022   3.185   3.295   2.734  0.3570 -0.2711  0.3251
 8130SOL    HW136023   3.176   3.283   2.828 -3.5674 -2.4728 -0.3298
 8130SOL    HW236024   3.107   3.243   2.713  0.8545 -1.3890  1.2345
 8131SOL     OW36025   1.222   2.015   0.751 -0.5647  0.4663 -0.3888
 8131SOL    HW136026   1.241   2.084   0.688  0.8613 -0.1103 -0.6003
 8131SOL    HW236027   1.252   2.055   0.833 -1.0884  1.8900 -0.8863
 8132SOL     OW36028   4.291   3.418   1.719 -0.2502  1.0167 -0.3390
 8132SOL    HW136029   4.369   3.393   1.669 -0.1340 -0.1304  0.3993
 8132SOL    HW236030   4.333   3.458   1.795 -0.3649 -0.4270  0.4885
 8133SOL     OW36031   1.233   1.662   6.129  0.0526 -0.3234 -0.1120
 8133SOL    HW136032   1.263   1.740   6.177 -1.2786  0.3994 -0.4332
 8133SOL    HW236033   1.159   1.660   6.190  0.1696 -1.0418  0.0029
 8134SOL     OW36034   0.086   3.190   2.262  0.0588  0.3958 -0.2907
 8134SOL    HW136035   0.023   3.242   2.213  0.5225 -0.2104 -1.5147
 8134SOL    HW236036   0.102   3.118   2.202  0.6571  1.7412 -1.7260
 8135SOL     OW36037   2.418   2.023   6.135  0.0678  0.3609 -0.1217
 8135SOL    HW136038   2.497   2.009   6.187 -0.2572 -1.7452 -0.1982
 8135SOL    HW236039   2.363   1.984   6.204  1.2135  1.9982  1.7294
 8136SOL     OW36040   3.825   3.340  15.259 -0.2190  0.4857  0.3169
 8136SOL    HW136041   3.890   3.270  15.257 -1.2832 -0.4913 -0.0318
 8136SOL    HW236042   3.850   3.395  15.185  3.8375 -1.7202  0.0995
 8137SOL     OW36043   0.387   3.111  17.634 -0.2963 -0.4000 -0.0934
 8137SOL    HW136044   0.328   3.064  17.693  0.6949 -0.3901  0.9047
 8137SOL    HW236045   0.341   3.195  17.622 -1.6261 -1.4163 -2.1451
 8138SOL     OW36046   2.960   3.086  11.185 -0.2083 -0.6157 -0.2783
 8138SOL    HW136047   2.930   3.118  11.270  2.0862  1.7956 -0.3721
 8138SOL    HW236048   2.894   3.019  11.172 -0.0882 -1.1727  1.9074
 8139SOL     OW36049   0.268   3.463   7.255  0.0110 -0.2479  0.1084
 8139SOL    HW136050   0.332   3.428   7.193  1.4933 -0.6961  1.8941
 8139SOL    HW236051   0.333   3.495   7.317 -0.5722  1.3566 -0.1339
 8140SOL     OW36052   4.189   0.595   3.104  0.4084  0.0103 -0.3016
 8140SOL    HW136053   4.267   0.648   3.094  0.4296 -0.0256 -0.3244
 8140SOL    HW236054   4.184   0.565   3.014  5.1621  0.1097 -0.5838
 8141SOL     OW36055   0.069   4.189   3.659 -0.6978  0.0447  0.1244
 8141SOL    HW136056   0.056   4.264   3.600  2.6095  1.5035  1.2512
 8141SOL    HW236057   0.099   4.125   3.595 -1.4184  1.8379 -2.0102
 8142SOL     OW36058   3.587   0.563   0.513  0.2342  0.3771  0.1720
 8142SOL    HW136059   3.588   0.567   0.609  1.3762 -1.8495  0.2641
 8142SOL    HW236060   3.499   0.527   0.503  0.4233  0.1875 -0.8584
 8143SOL     OW36061   4.337   1.856   3.523  0.1650 -0.1784  0.0553
 8143SOL    HW136062   4.427   1.863   3.554 -0.7448  0.4741  2.5676
 8143SOL    HW236063   4.298   1.835   3.608  0.0245  0.1897  0.0828
 8144SOL     OW36064   3.273   4.506   5.498  0.2629  0.0631 -0.5508
 8144SOL    HW136065   3.213   4.538   5.431  0.2754 -1.1001 -1.1081
 8144SOL    HW236066   3.274   4.414   5.472 -1.0302 -0.0093 -0.3186
 8145SOL     OW36067   1.197   0.553   9.704 -0.1827 -0.0613  0.0002
 8145SOL    HW136068   1.131   0.618   9.727 -1.3067 -1.4297  0.7053
 8145SOL    HW236069   1.273   0.608   9.718 -1.8400  1.9368  1.2222
 8146SOL     OW36070   1.730   2.175   6.147  0.4714 -0.1161  0.0661
 8146SOL    HW136071   1.709   2.233   6.074 -0.0807  1.1807  1.2524
 8146SOL    HW236072   1.714   2.233   6.222 -0.4867  1.2619 -1.1992
 8147SOL     OW36073   4.304   4.028   6.739 -0.1608  0.2332  0.0565
 8147SOL    HW136074   4.332   3.945   6.776  1.9295  0.4037 -1.1305
 8147SOL    HW236075   4.250   3.994   6.668  0.1397  1.2809 -0.6786
 8148SOL     OW36076   2.297   4.675   3.043 -0.1554 -0.0124  0.7928
 8148SOL    HW136077   2.266   4.660   3.133 -1.6887  1.5817  0.5253
 8148SOL    HW236078   2.347   4.596   3.022 -0.0224  0.3065 -0.0685
 8149SOL     OW36079   4.124   2.540  17.239  0.8637  0.1383 -0.4309
 8149SOL    HW136080   4.177   2.460  17.237 -3.3923 -2.7491  1.0401
 8149SOL    HW236081   4.065   2.515  17.311 -0.3682  0.1870 -1.4235
 8150SOL     OW36082   3.097   1.796   7.421  0.1873 -0.4238  0.2751
 8150SOL    HW136083   3.171   1.837   7.378 -0.5223  1.8144  1.2152
 8150SOL    HW236084   3.033   1.867   7.413  0.1840 -0.3911  0.6052
 8151SOL     OW36085   1.555   4.483   6.458  0.3063  0.1834 -0.2938
 8151SOL    HW136086   1.562   4.574   6.486 -0.1340 -0.0218  0.4755
 8151SOL    HW236087   1.619   4.446   6.519 -1.2071 -1.3735  0.3452
 8152SOL     OW36088   3.700   2.175   2.258 -0.1922  0.3980  0.4685
 8152SOL    HW136089   3.770   2.236   2.283  0.2522  0.6134 -1.2808
 8152SOL    HW236090   3.730   2.092   2.295 -2.0417  0.6472  2.5163
 8153SOL     OW36091   1.754   2.293   5.409  0.2622  0.1884  0.0557
 8153SOL    HW136092   1.701   2.373   5.401  1.1441  0.5595 -1.8831
 8153SOL    HW236093   1.692   2.227   5.378  1.1413  0.5359 -2.4298
 8154SOL     OW36094   1.860   0.859   4.707  0.3432  0.8957 -0.2836
 8154SOL    HW136095   1.813   0.851   4.624  0.9492  1.4547 -0.6777
 8154SOL    HW236096   1.921   0.787   4.689 -0.6611  0.2557 -1.1438
 8155SOL     OW36097   4.364   1.362  12.726  0.1665  0.6488 -0.2059
 8155SOL    HW136098   4.418   1.333  12.653  0.7301 -2.6687  1.5128
 8155SOL    HW236099   4.411   1.438  12.762  1.4319  0.3716 -1.2689
 8156SOL     OW36100   3.806   2.452   4.056  0.4220  0.4589 -0.5923
 8156SOL    HW136101   3.807   2.547   4.061 -2.6109  0.5655 -1.6509
 8156SOL    HW236102   3.764   2.439   3.970 -0.7229 -1.8243  0.3159
 8157SOL     OW36103   4.269   3.364   5.289 -0.3650  0.1609 -0.0361
 8157SOL    HW136104   4.286   3.295   5.353 -0.0671 -1.0595 -1.4303
 8157SOL    HW236105   4.197   3.417   5.323 -0.7698  0.4251 -1.2972
 8158SOL     OW36106   1.289   0.826   3.817 -0.0633 -0.1090 -0.4053
 8158SOL    HW136107   1.246   0.910   3.799  0.9597 -0.1718 -3.1181
 8158SOL    HW236108   1.362   0.860   3.869 -0.9629  2.0511 -0.5655
 8159SOL     OW36109   1.752   1.790   0.775  0.8379 -0.5852 -0.0102
 8159SOL    HW136110   1.831   1.843   0.763  1.0375 -1.1218 -1.0811
 8159SOL    HW236111   1.764   1.711   0.722 -0.6319 -1.9945  1.7771
 8160SOL     OW36112   4.392   3.262   8.829  0.4443  0.2999  0.2708
 8160SOL    HW136113   4.453   3.328   8.863  0.4234  0.5794 -0.2254
 8160SOL    HW236114   4.447   3.187   8.853 -0.2781  0.1663  1.4860
 8161SOL     OW36115   0.608   3.544   4.685 -0.0617 -0.0002 -0.2139
 8161SOL    HW136116   0.581   3.466   4.735  2.5289  0.5132  1.9662
 8161SOL    HW236117   0.664   3.569   4.758  1.1690 -2.6395 -0.2463
 8162SOL     OW36118   4.397   4.290   7.335 -0.1627  0.1904 -0.4204
 8162SOL    HW136119   4.485   4.267   7.366 -0.3747  0.5364  0.4243
 8162SOL    HW236120   4.425   4.335   7.255  2.9047 -1.0176 -0.0412
 8163SOL     OW36121   4.404   2.991   7.299  0.0625 -0.3397  0.0472
 8163SOL    HW136122   4.484   3.018   7.255 -0.0205 -0.3818 -0.1335
 8163SOL    HW236123   4.432   3.019   7.386  0.0130  1.7848 -0.6245
 8164SOL     OW36124   4.633   3.428   5.741  0.2543  0.1713  0.5044
 8164SOL    HW136125   4.613   3.447   5.833 -3.6069  2.0649 -0.7547
 8164SOL    HW236126   4.612   3.513   5.703 -0.3632 -0.2483 -0.0714
 8165SOL     OW36127   3.848   2.853   5.714  0.2829 -0.5404  0.1620
 8165SOL    HW136128   3.868   2.776   5.768  1.1324 -0.8328 -0.5740
 8165SOL    HW236129   3.825   2.808   5.634 -1.0560  0.4917 -0.0175
 8166SOL     OW36130   0.545   2.844   6.255  0.1092  0.1390 -0.2143
 8166SOL    HW136131   0.531   2.751   6.236 -0.5858 -0.0114  0.9742
 8166SOL    HW236132   0.454   2.873   6.267  0.8754  1.5820  2.1640
 8167SOL     OW36133   2.103   3.553   1.192 -0.0327 -0.2948  0.1329
 8167SOL    HW136134   2.013   3.549   1.160 -1.0060  4.3739  2.2840
 8167SOL    HW236135   2.137   3.506   1.116  1.9840 -0.8959  1.4214
 8168SOL     OW36136   4.586   4.554  11.738 -0.3598  0.3851  0.0129
 8168SOL    HW136137   4.634   4.554  11.655 -1.4000  2.1256 -0.5878
 8168SOL    HW236138   4.631   4.623  11.786 -0.3138  0.2500  0.1644
 8169SOL     OW36139   4.268   1.881  13.639 -0.3907  0.3076 -0.4550
 8169SOL    HW136140   4.192   1.938  13.634 -1.1382 -0.8003 -1.6823
 8169SOL    HW236141   4.285   1.870  13.733  0.8634 -0.1251 -0.7339
 8170SOL     OW36142   3.345   3.649   4.573 -0.0460  0.2306  0.0703
 8170SOL    HW136143   3.398   3.728   4.585  0.0058 -0.0287  1.5731
 8170SOL    HW236144   3.265   3.690   4.539 -0.0324 -0.2272 -0.5207
 8171SOL     OW36145   2.988   0.843   1.823  0.2146  0.1334 -0.3916
 8171SOL    HW136146   3.079   0.847   1.794  0.6107 -1.1201  0.7154
 8171SOL    HW236147   2.939   0.869   1.745 -0.7414  1.0376  0.4991
 8172SOL     OW36148   3.304   1.795   6.389  0.5357  0.0044 -0.3231
 8172SOL    HW136149   3.316   1.778   6.482 -0.1261 -0.7057 -0.3673
 8172SOL    HW236150   3.395   1.793   6.357  1.0025 -1.4925  1.1350
 8173SOL     OW36151   2.132   3.322   0.011 -0.2845  0.3697  0.3672
 8173SOL    HW136152   2.208   3.264   0.005 -0.4179  0.5148 -2.8247
 8173SOL    HW236153   2.145   3.385  17.696  0.8236  0.2704  0.4823
 8174SOL     OW36154   2.595   1.336   8.340  0.4616 -0.2181 -0.0732
 8174SOL    HW136155   2.686   1.363   8.328  0.9834 -1.6722  0.5786
 8174SOL    HW236156   2.582   1.327   8.435  1.5605  0.4282  0.1409
 8175SOL     OW36157   2.920   0.222   3.992  0.6890 -0.0557  0.1804
 8175SOL    HW136158   2.928   0.317   3.988 -1.1467  0.0412 -0.8382
 8175SOL    HW236159   2.915   0.201   4.086 -1.3827 -0.5072 -0.0451
 8176SOL     OW36160   4.643   3.182   4.138  0.5782 -0.0245 -0.2587
 8176SOL    HW136161   4.586   3.185   4.215 -0.3499  3.3471 -1.0742
 8176SOL    HW236162   4.616   3.261   4.090 -2.0454 -0.8911 -0.2146
 8177SOL     OW36163   0.896   1.827   8.005 -0.5975 -0.4635  0.7809
 8177SOL    HW136164   0.892   1.807   8.099 -0.3007 -0.1254  0.8655
 8177SOL    HW236165   0.988   1.851   7.999 -0.7709 -0.2475 -0.9402
 8178SOL     OW36166   4.701   2.643   6.420  0.0480 -0.0226 -0.8809
 8178SOL    HW136167   4.667   2.731   6.435  1.6212  0.5382 -0.6042
 8178SOL    HW236168   0.056   2.656   6.426 -0.2258  0.9965  1.3959
 8179SOL     OW36169   0.359   0.048   8.855 -0.1062 -0.1003  0.4089
 8179SOL    HW136170   0.336   4.702   8.819 -0.8328  0.3602 -0.2272
 8179SOL    HW236171   0.358   0.032   8.949  0.5110 -2.6814 -0.0122
 8180SOL     OW36172   1.246   0.339   2.645  0.2066 -0.4100  0.1354
 8180SOL    HW136173   1.186   0.301   2.708 -0.0659  0.6286  0.5110
 8180SOL    HW236174   1.212   0.426   2.624 -1.8336 -1.2739 -0.1022
 8181SOL     OW36175   4.187   4.040   5.751  0.4786  0.5515  0.6400
 8181SOL    HW136176   4.161   4.102   5.683  0.3517 -1.4195 -1.1125
 8181SOL    HW236177   4.279   4.064   5.765  0.4066  1.6083 -0.6607
 8182SOL     OW36178   1.938   4.454  12.285  0.0630 -0.9410  0.5143
 8182SOL    HW136179   1.982   4.376  12.252 -2.8675 -1.7936 -1.4240
 8182SOL    HW236180   1.883   4.413  12.352 -1.9277  0.5077 -0.2337
 8183SOL     OW36181   3.322   4.261  12.207  0.1971 -0.1278  0.9331
 8183SOL    HW136182   3.324   4.318  12.283 -1.5818  0.8593  0.2444
 8183SOL    HW236183   3.285   4.322  12.142 -1.5298 -0.7468  1.3219
 8184SOL     OW36184   0.386   0.425   3.287 -0.9031 -0.2149  0.5268
 8184SOL    HW136185   0.325   0.497   3.301  0.6592  1.1689  0.1340
 8184SOL    HW236186   0.353   0.359   3.348  0.9996 -1.9530 -0.3167
 8185SOL     OW36187   1.957   0.207   7.247 -0.1059 -0.0701  0.3519
 8185SOL    HW136188   2.014   0.171   7.178 -2.3530 -0.7474 -1.1436
 8185SOL    HW236189   1.973   0.299   7.227  0.2039 -0.1696  0.1317
 8186SOL     OW36190   4.341   3.725  15.761 -0.5286  0.0729  0.0484
 8186SOL    HW136191   4.280   3.680  15.703  0.8198  0.7385 -1.8833
 8186SOL    HW236192   4.421   3.737  15.709  0.3380 -0.4350  1.2461
 8187SOL     OW36193   0.662   2.373   8.279  0.1908 -0.3311  0.3804
 8187SOL    HW136194   0.656   2.350   8.187 -2.6882  0.2818  0.4215
 8187SOL    HW236195   0.700   2.288   8.302 -0.1341 -1.0023 -1.5547
 8188SOL     OW36196   2.088   1.374   7.220 -0.6349  0.4395 -0.2159
 8188SOL    HW136197   2.156   1.436   7.247  0.2025  0.5035 -2.5297
 8188SOL    HW236198   2.016   1.416   7.267 -1.1543  0.7100 -1.2535
 8189SOL     OW36199   0.747   3.349  13.996 -0.5390 -0.2113  0.4790
 8189SOL    HW136200   0.824   3.294  14.006 -0.5494 -0.2565  0.3129
 8189SOL    HW236201   0.783   3.433  14.024  0.1644 -0.4752  0.3648
 8190SOL     OW36202   4.358   3.486   1.430  0.1189  0.5195  0.2826
 8190SOL    HW136203   4.364   3.519   1.340 -0.4270  0.4563  0.2245
 8190SOL    HW236204   4.263   3.482   1.436  0.2014  0.3131  1.4940
 8191SOL     OW36205   4.605   2.466   3.066 -0.0428  0.0042 -0.0234
 8191SOL    HW136206   4.637   2.376   3.062  0.5148  0.2675 -1.5279
 8191SOL    HW236207   4.662   2.511   3.003 -1.5951  2.7282  0.5216
 8192SOL     OW36208   3.277   0.016   8.730  0.9370  0.1129  0.3664
 8192SOL    HW136209   3.218   0.070   8.783 -0.9938  0.6411 -2.3028
 8192SOL    HW236210   3.343   4.722   8.790 -0.8803  0.1412  2.3872
 8193SOL     OW36211   2.524   3.415   6.118 -0.4082 -0.7977  0.0029
 8193SOL    HW136212   2.498   3.506   6.127  0.6895 -0.5413  0.4906
 8193SOL    HW236213   2.556   3.398   6.206 -1.7298 -0.8452  0.4742
 8194SOL     OW36214   1.775   0.837   5.384  0.1239 -0.0837  0.1092
 8194SOL    HW136215   1.776   0.870   5.474 -0.3902  2.0732 -0.6584
 8194SOL    HW236216   1.832   0.907   5.351 -0.0360  0.8907  1.9358
 8195SOL     OW36217   3.934   0.005  14.514  0.2735  0.1693  0.0872
 8195SOL    HW136218   3.875   4.732  14.440  1.6030  0.8211 -1.0921
 8195SOL    HW236219   3.989   0.082  14.496  0.0339  0.4726  0.6542
 8196SOL     OW36220   4.493   4.331   2.280  0.0748 -0.0240  0.1259
 8196SOL    HW136221   4.427   4.356   2.345 -1.7840 -0.4157 -1.6022
 8196SOL    HW236222   4.574   4.322   2.331  1.6406  1.0379 -2.1619
 8197SOL     OW36223   1.349   3.974   8.543 -0.0524  0.6468 -1.0057
 8197SOL    HW136224   1.397   4.045   8.586  1.4037 -1.6591  1.1433
 8197SOL    HW236225   1.287   3.944   8.609  1.5266  3.5047  1.7814
 8198SOL     OW36226   3.246   0.728   8.231 -0.2251 -0.3189 -0.3112
 8198SOL    HW136227   3.165   0.727   8.282  0.0485  1.3819  0.1574
 8198SOL    HW236228   3.231   0.658   8.168  0.7899 -1.1422  0.3641
 8199SOL     OW36229   1.200   3.940   8.766  0.0301 -0.2784  0.6257
 8199SOL    HW136230   1.209   3.919   8.859 -2.8462  2.1249  1.4466
 8199SOL    HW236231   1.217   4.035   8.769 -0.6964 -0.0016 -3.4334
 8200SOL     OW36232   1.899   0.335  16.784 -0.7988  0.2592  0.5307
 8200SOL    HW136233   1.813   0.337  16.825 -0.9410 -0.0578  0.2501
 8200SOL    HW236234   1.877   0.361  16.694 -1.0286 -0.5449  0.3523
 8201SOL     OW36235   3.758   4.581   2.492 -0.2885 -0.3508  0.3415
 8201SOL    HW136236   3.704   4.613   2.420  0.7804  0.8393  0.0758
 8201SOL    HW236237   3.828   4.544   2.436  0.4743 -3.2698  3.2013
 8202SOL     OW36238   2.182   1.911   6.241  0.3836  0.2338  0.0378
 8202SOL    HW136239   2.163   1.905   6.335  1.7706 -2.3750  0.1432
 8202SOL    HW236240   2.131   1.991   6.227  1.1307  0.7062  0.0052
 8203SOL     OW36241   3.451   1.608   2.036  0.2770 -0.1674  0.3983
 8203SOL    HW136242   3.368   1.563   2.020 -0.2091  1.5343 -1.7522
 8203SOL    HW236243   3.468   1.639   1.947 -0.3826 -1.1980 -0.0807
 8204SOL     OW36244   3.325   2.388   5.077 -0.3780  0.0150  0.6059
 8204SOL    HW136245   3.353   2.302   5.108 -0.4222 -1.7844 -4.3320
 8204SOL    HW236246   3.262   2.357   5.012  0.4269  1.4486 -0.8555
 8205SOL     OW36247   4.126   3.318   9.034  0.7246 -0.1430  0.8259
 8205SOL    HW136248   4.218   3.321   9.061  0.4503  0.0422  1.7634
 8205SOL    HW236249   4.125   3.376   8.958 -1.1685 -1.3590 -0.0647
 8206SOL     OW36250   4.706   4.268  13.983 -0.3202  0.1031  0.5910
 8206SOL    HW136251   4.690   4.225  14.067  1.9809 -0.1647  0.8895
 8206SOL    HW236252   0.052   4.309  13.996 -1.9843  4.0872 -1.0214
 8207SOL     OW36253   0.875   0.684  10.629 -0.1516  0.2224 -0.5419
 8207SOL    HW136254   0.930   0.618  10.588  0.9068  0.2914  0.7477
 8207SOL    HW236255   0.808   0.689  10.562 -0.0815 -2.2854 -0.7956
 8208SOL     OW36256   4.488   0.310   6.788 -0.4263 -0.6935  0.2091
 8208SOL    HW136257   4.423   0.276   6.848 -1.0371 -0.6867 -0.4431
 8208SOL    HW236258   4.500   0.398   6.823 -0.9720 -0.2073 -0.8188
 8209SOL     OW36259   2.454   3.293   9.333  0.4964 -0.1393 -0.3082
 8209SOL    HW136260   2.370   3.248   9.343  0.9046 -0.8238  0.0052
 8209SOL    HW236261   2.485   3.297   9.423 -0.9553 -1.5676  0.2463
 8210SOL     OW36262   0.619   1.048   3.554 -0.7374 -0.3693  0.3105
 8210SOL    HW136263   0.588   1.129   3.514  0.5801 -0.6121 -1.2457
 8210SOL    HW236264   0.710   1.068   3.571 -0.0079 -2.2696 -1.2624
 8211SOL     OW36265   2.670   4.092   4.625  0.0570  0.2403 -0.6699
 8211SOL    HW136266   2.638   4.084   4.715 -1.2024 -1.0012 -1.2436
 8211SOL    HW236267   2.622   4.017   4.591 -3.2431  1.5703  1.0977
 8212SOL     OW36268   0.497   4.278   8.397 -0.0138 -0.1322  1.0852
 8212SOL    HW136269   0.407   4.278   8.364  0.1052  1.6350  0.7616
 8212SOL    HW236270   0.527   4.360   8.357  0.7234 -1.3857 -0.9387
 8213SOL     OW36271   1.891   1.698  11.175 -0.5636 -0.7136 -0.0332
 8213SOL    HW136272   1.806   1.742  11.184  0.5915  1.5503 -0.2617
 8213SOL    HW236273   1.910   1.719  11.084  0.7535  1.0808  0.6565
 8214SOL     OW36274   4.510   3.714   1.517  0.3359 -0.1360 -0.3655
 8214SOL    HW136275   4.587   3.727   1.461 -0.5798 -0.0056 -1.5780
 8214SOL    HW236276   4.451   3.654   1.474 -1.9380  0.1001  2.4023
 8215SOL     OW36277   0.147   1.689   6.491 -0.2497  0.2443 -0.0955
 8215SOL    HW136278   0.109   1.629   6.555  0.6758  0.8998  1.0716
 8215SOL    HW236279   0.140   1.639   6.409 -1.0802  0.8822 -0.4060
 8216SOL     OW36280   0.923   1.330   1.243 -0.2463  0.2016  0.4187
 8216SOL    HW136281   0.828   1.322   1.248 -0.4882  1.8468 -1.7671
 8216SOL    HW236282   0.934   1.419   1.208  0.1346  0.2453  0.6413
 8217SOL     OW36283   0.012   3.598   0.087 -0.2580  0.1121  0.6710
 8217SOL    HW136284   0.102   3.614   0.112 -0.1060 -1.6652  1.2810
 8217SOL    HW236285   0.021   3.639   0.001  4.2824 -0.7806  0.7389
 8218SOL     OW36286   1.510   1.219   4.734  0.0541  0.2210  0.5531
 8218SOL    HW136287   1.437   1.174   4.777 -0.9306  0.8106 -0.4975
 8218SOL    HW236288   1.589   1.166   4.746 -0.1189 -0.0601  0.4413
 8219SOL     OW36289   1.146   1.844   2.782 -0.5023 -0.3195  0.7344
 8219SOL    HW136290   1.227   1.798   2.805  0.1776  0.8469  0.6995
 8219SOL    HW236291   1.195   1.924   2.763 -0.1736 -0.7582 -0.2236
 8220SOL     OW36292   2.510   2.268   0.785 -0.0273 -0.2598  0.3597
 8220SOL    HW136293   2.513   2.289   0.879 -2.0408 -2.5344  0.9288
 8220SOL    HW236294   2.427   2.220   0.785 -0.5429  0.6113  0.4317
 8221SOL     OW36295   4.251   2.001   1.758 -0.6158 -0.4942 -0.1183
 8221SOL    HW136296   4.276   2.090   1.783  0.3894 -1.1716  1.2874
 8221SOL    HW236297   4.173   2.017   1.705 -1.1259 -1.3253  0.3771
 8222SOL     OW36298   0.976   0.328   4.469  0.2445  0.0690  0.5892
 8222SOL    HW136299   0.952   0.303   4.379 -0.9111 -0.8009  1.1380
 8222SOL    HW236300   0.907   0.288   4.521  1.6861 -0.7210  1.8740
 8223SOL     OW36301   1.053   1.235  17.231  0.5479  0.1342 -0.2063
 8223SOL    HW136302   1.071   1.292  17.306  2.5596  1.0958 -1.4370
 8223SOL    HW236303   0.977   1.272  17.186  0.7736  0.0806 -0.6304
 8224SOL     OW36304   2.491   2.148   1.662  0.1225 -0.0056  0.0707
 8224SOL    HW136305   2.467   2.173   1.573 -1.6513  2.5623  1.2572
 8224SOL    HW236306   2.537   2.222   1.701  1.0436 -0.2739 -0.5182
 8225SOL     OW36307   1.189   4.586   6.468 -0.2684 -0.1968  0.3518
 8225SOL    HW136308   1.210   4.564   6.377  0.8355  0.7709  0.3716
 8225SOL    HW236309   1.280   4.594   6.499 -0.8682  1.4254  1.6819
 8226SOL     OW36310   3.894   4.702   7.585  0.1776 -0.5762  0.4911
 8226SOL    HW136311   3.841   0.002   7.654  0.3167  1.4053 -0.5427
 8226SOL    HW236312   3.862   4.612   7.584  0.1883 -0.5655 -0.4521
 8227SOL     OW36313   1.021   2.095   8.792  0.3155 -0.0540 -0.2875
 8227SOL    HW136314   1.027   2.000   8.800 -0.4950 -0.1927 -1.2877
 8227SOL    HW236315   1.010   2.112   8.885  2.7127  0.5949 -0.1236
 8228SOL     OW36316   1.930   2.408  17.141  0.3583  0.4116  0.1524
 8228SOL    HW136317   1.910   2.411  17.048  0.8498  0.1854  0.0353
 8228SOL    HW236318   1.841   2.411  17.176  0.4731 -1.3446  0.6155
 8229SOL     OW36319   3.388   2.858   8.431 -0.2091 -0.2183  0.4332
 8229SOL    HW136320   3.342   2.776   8.415  0.0410 -0.3562  0.4251
 8229SOL    HW236321   3.347   2.909   8.361 -0.6447 -0.0742  0.7919
 8230SOL     OW36322   2.915   4.257   7.582  0.0834 -0.1705  0.6572
 8230SOL    HW136323   2.902   4.313   7.506  0.6129 -0.8171  0.0872
 8230SOL    HW236324   2.825   4.255   7.613 -0.1942  0.1655 -0.1443
 8231SOL     OW36325   2.003   3.385   9.342 -0.3083  0.0334 -0.1575
 8231SOL    HW136326   1.939   3.318   9.320  0.1571 -0.0483 -1.2536
 8231SOL    HW236327   2.043   3.386   9.255 -2.1294  0.2092 -0.9846
 8232SOL     OW36328   4.069   0.137   4.678 -0.3169 -0.1421  0.6676
 8232SOL    HW136329   4.055   0.151   4.772 -1.5993 -2.5680  0.8595
 8232SOL    HW236330   4.004   0.195   4.638  0.0201 -0.5527 -0.4815
 8233SOL     OW36331   3.672   3.230   1.751 -0.8682  0.1654  0.0556
 8233SOL    HW136332   3.697   3.216   1.659  2.4357 -1.3577  1.1957
 8233SOL    HW236333   3.724   3.168   1.803  0.4187  0.6301 -0.6735
 8234SOL     OW36334   0.230   0.857   7.200  0.0955 -0.3187  0.6052
 8234SOL    HW136335   0.146   0.870   7.243 -0.8110  1.6810 -1.7756
 8234SOL    HW236336   0.284   0.903   7.264 -1.3349  0.3906  1.3017
 8235SOL     OW36337   0.071   3.905   2.206  0.5597 -0.2551 -0.2677
 8235SOL    HW136338   0.128   3.829   2.204  0.7150 -0.2106  2.2590
 8235SOL    HW236339   0.025   3.885   2.125  0.3902  3.2655 -1.0639
 8236SOL     OW36340   1.852   3.926   4.782 -0.0043 -0.2579  0.2704
 8236SOL    HW136341   1.927   3.956   4.730 -1.1378  1.0977 -0.5568
 8236SOL    HW236342   1.785   3.987   4.750 -0.5459 -0.4531  1.0429
 8237SOL     OW36343   0.736   2.233  17.515 -0.0583  0.8335 -0.0212
 8237SOL    HW136344   0.828   2.215  17.536 -0.5364  0.0377  1.3776
 8237SOL    HW236345   0.720   2.152  17.468  0.3807  0.7721 -0.0629
 8238SOL     OW36346   2.775   2.772   5.809 -0.1164  0.8820  0.5840
 8238SOL    HW136347   2.800   2.682   5.831  0.7160  1.2992  1.3506
 8238SOL    HW236348   2.856   2.824   5.810  1.3904 -1.4147 -1.3591
 8239SOL     OW36349   2.263   1.680   3.112 -0.3747  0.2631  0.1236
 8239SOL    HW136350   2.265   1.775   3.099  1.6298  0.1340 -0.5780
 8239SOL    HW236351   2.344   1.656   3.066 -0.5037  0.2759 -0.1113
 8240SOL     OW36352   4.578   1.250  13.989  0.2018  0.1154  0.8806
 8240SOL    HW136353   4.602   1.168  13.945  2.6791  0.9052  0.7938
 8240SOL    HW236354   4.515   1.290  13.930  0.5636 -0.3086  0.2075
 8241SOL     OW36355   2.979   3.035   3.530 -0.1641  0.2669 -0.9540
 8241SOL    HW136356   2.908   2.971   3.539 -0.2789  0.7286  1.2975
 8241SOL    HW236357   2.955   3.073   3.446 -0.2495 -0.6290 -1.3393
 8242SOL     OW36358   2.438   0.643   3.705  0.0100  0.0860  0.3296
 8242SOL    HW136359   2.407   0.669   3.618  3.5741 -0.2388 -1.0544
 8242SOL    HW236360   2.485   0.720   3.735  1.1761 -0.8645  0.9133
 8243SOL     OW36361   3.918   4.722   5.930  0.0436  0.2941 -0.5006
 8243SOL    HW136362   3.822   4.721   5.930  0.0873 -2.2477  1.0888
 8243SOL    HW236363   3.946   4.636   5.899 -1.6478 -0.5639  0.3677
 8244SOL     OW36364   1.156   3.001   3.764  0.1697 -0.5677 -0.2553
 8244SOL    HW136365   1.149   2.994   3.859  1.4265  1.2063 -0.0514
 8244SOL    HW236366   1.078   2.951   3.736  0.4044 -1.5092  0.7508
 8245SOL     OW36367   1.418   2.543   5.882  0.0683 -0.7803  0.1726
 8245SOL    HW136368   1.401   2.495   5.801  0.5133 -0.0085 -0.3788
 8245SOL    HW236369   1.481   2.611   5.859  0.2993 -1.0114  0.1216
 8246SOL     OW36370   0.067   2.180   8.640 -0.1073  0.5089  0.6204
 8246SOL    HW136371   4.713   2.173   8.620  0.4356 -0.6084 -1.5766
 8246SOL    HW236372   0.072   2.192   8.735  0.3039  2.7869  0.2945
 8247SOL     OW36373   0.530   0.684   3.238 -0.3518  0.0224  0.5683
 8247SOL    HW136374   0.465   0.741   3.279 -1.1661 -1.5270  1.4300
 8247SOL    HW236375   0.483   0.602   3.248  2.1121 -1.1195  2.6239
 8248SOL     OW36376   4.599   2.024   4.976 -0.5569 -0.5243  0.2599
 8248SOL    HW136377   4.621   2.007   5.068  4.6536  0.1437 -0.8629
 8248SOL    HW236378   4.544   2.102   4.989 -1.0267 -0.8619  0.2928
 8249SOL     OW36379   1.178   2.887   3.124 -0.1021  0.3727 -0.3426
 8249SOL    HW136380   1.203   2.836   3.047 -0.1421 -1.4863  0.8621
 8249SOL    HW236381   1.084   2.899   3.114 -0.1186 -0.1365 -0.7945
 8250SOL     OW36382   1.303   2.390  16.695 -0.4503 -0.3247  0.2366
 8250SOL    HW136383   1.230   2.368  16.752 -0.2220  0.3033  0.7722
 8250SOL    HW236384   1.269   2.372  16.607  1.6667 -0.1316 -0.6250
 8251SOL     OW36385   4.122   3.959   7.111 -0.0624 -0.0944  0.5067
 8251SOL    HW136386   4.094   3.975   7.021 -0.1137 -0.5347  0.4439
 8251SOL    HW236387   4.122   4.047   7.150 -1.5980  0.2014 -0.1563
 8252SOL     OW36388   4.700   3.538  10.927  0.4116  0.3954  0.5473
 8252SOL    HW136389   4.705   3.516  10.834  2.1955 -0.7463  0.8935
 8252SOL    HW236390   4.717   3.454  10.969  0.6885 -1.1017 -2.5664
 8253SOL     OW36391   2.906   1.914   1.197 -0.0656 -0.1966  0.1213
 8253SOL    HW136392   2.912   1.882   1.287 -1.0661 -2.7415 -0.7099
 8253SOL    HW236393   2.911   1.827   1.157  0.4685 -0.5392  0.9261
 8254SOL     OW36394   3.022   0.777   8.392 -0.2387 -0.2117  0.1873
 8254SOL    HW136395   3.039   0.685   8.409 -1.0817 -0.0918  1.6166
 8254SOL    HW236396   2.933   0.783   8.427 -0.2901  1.5756 -0.2327
 8255SOL     OW36397   2.498   2.093   4.509 -0.3657  0.4413 -0.0473
 8255SOL    HW136398   2.526   2.089   4.601 -2.3897  1.0656  0.6019
 8255SOL    HW236399   2.406   2.070   4.523 -0.3039 -0.1927 -0.6807
 8256SOL     OW36400   4.463   2.516  16.999  0.7357  0.2250 -0.3708
 8256SOL    HW136401   4.531   2.519  16.931  0.5486  0.7075 -0.5394
 8256SOL    HW236402   4.446   2.605  17.030 -3.3262 -0.7057  0.0724
 8257SOL     OW36403   1.891   1.016   0.023  0.2727  0.1618  0.5535
 8257SOL    HW136404   1.920   0.998  17.689 -1.4785  0.1720 -0.0260
 8257SOL    HW236405   1.946   0.963   0.081  1.5722 -2.8944 -3.4541
 8258SOL     OW36406   0.408   1.731   3.012 -0.1869  0.0880  0.6012
 8258SOL    HW136407   0.498   1.702   2.999  0.3649  2.8831 -1.8859
 8258SOL    HW236408   0.384   1.682   3.091 -2.2790  0.2633  0.0931
 8259SOL     OW36409   4.153   3.659   3.305 -0.4234 -0.2733  0.6591
 8259SOL    HW136410   4.107   3.670   3.221  0.8139 -0.6206 -0.0542
 8259SOL    HW236411   4.245   3.678   3.287 -0.5396 -2.2756 -2.0631
 8260SOL     OW36412   0.106   1.118   8.848 -0.1961  0.4102 -0.1340
 8260SOL    HW136413   0.073   1.029   8.848  3.6885 -1.0441 -2.1047
 8260SOL    HW236414   0.191   1.110   8.805 -1.1576  0.6756 -2.0730
 8261SOL     OW36415   4.406   1.028  10.113  0.3612  0.4603  0.1050
 8261SOL    HW136416   4.426   1.032  10.206 -0.4025  0.2627  0.2831
 8261SOL    HW236417   4.323   1.073  10.131 -0.8763 -1.8538  0.2519
 8262SOL     OW36418   0.161   3.825  11.906 -0.0873 -0.2623 -0.2453
 8262SOL    HW136419   0.128   3.895  11.963 -4.0016 -2.0028 -0.3148
 8262SOL    HW236420   0.249   3.857  11.889 -0.5443  1.4997  0.6341
 8263SOL     OW36421   1.710   1.223   7.855 -0.0082  0.4920  0.3538
 8263SOL    HW136422   1.805   1.230   7.856  0.1860 -2.2197  0.8409
 8263SOL    HW236423   1.686   1.243   7.946 -1.4156 -0.2173  0.1419
 8264SOL     OW36424   3.575   3.249  15.448  0.2053  0.0175  0.7997
 8264SOL    HW136425   3.638   3.261  15.377  1.5166  0.3821  1.9980
 8264SOL    HW236426   3.633   3.253  15.525  1.5172 -1.1489 -0.1183
 8265SOL     OW36427   2.829   4.428   2.443  0.4929 -0.7203 -0.3817
 8265SOL    HW136428   2.815   4.350   2.390  0.7624 -1.6714  0.9534
 8265SOL    HW236429   2.902   4.401   2.498 -1.0355  0.8858  2.4180
 8266SOL     OW36430   4.608   4.513  16.431 -0.0536  0.3250 -0.0156
 8266SOL    HW136431   4.653   4.533  16.349  1.9619 -2.7827  0.3133
 8266SOL    HW236432   4.534   4.460  16.400  0.6935 -1.6796  1.6218
 8267SOL     OW36433   4.326   1.266   6.684  0.0594 -0.3526  0.2341
 8267SOL    HW136434   4.282   1.337   6.639  2.3946  0.5306 -0.6421
 8267SOL    HW236435   4.262   1.205   6.721  2.0167 -2.1029  0.7472
 8268SOL     OW36436   3.565   0.718   4.340  0.1003 -0.5025  0.0727
 8268SOL    HW136437   3.649   0.704   4.382 -0.0829 -1.4385  0.1105
 8268SOL    HW236438   3.572   0.722   4.245 -0.3623 -0.4759  0.0359
 8269SOL     OW36439   2.792   3.642   6.083 -0.2697  0.5293 -0.0707
 8269SOL    HW136440   2.879   3.681   6.073 -0.0779  0.5475  1.6498
 8269SOL    HW236441   2.736   3.719   6.095 -1.6022 -0.4124 -0.2105
 8270SOL     OW36442   3.185   1.330  15.712  0.3416  0.5012  0.2584
 8270SOL    HW136443   3.168   1.386  15.788 -2.5983  0.0129 -0.0615
 8270SOL    HW236444   3.142   1.380  15.643  1.0851 -0.8531 -1.1916
 8271SOL     OW36445   1.425   1.752   2.891  0.1956  0.3334 -0.4412
 8271SOL    HW136446   1.443   1.690   2.820  0.7052 -0.0389  0.0086
 8271SOL    HW236447   1.486   1.723   2.959 -0.5577  0.9582  0.4902
 8272SOL     OW36448   1.577   2.401   2.476  0.9222  0.5174  0.7367
 8272SOL    HW136449   1.611   2.386   2.388  0.7756  1.6013  0.4959
 8272SOL    HW236450   1.658   2.367   2.514 -0.0291  1.0576  3.1992
 8273SOL     OW36451   3.165   4.063   1.568  0.3955 -0.0482  0.6139
 8273SOL    HW136452   3.076   4.087   1.543  0.3485 -0.9965 -0.1260
 8273SOL    HW236453   3.167   4.058   1.664 -0.2842  0.0403  0.6293
 8274SOL     OW36454   4.011   4.447   7.539 -0.1762 -0.5194  0.5054
 8274SOL    HW136455   4.105   4.437   7.554 -0.3699 -0.7434  1.5861
 8274SOL    HW236456   3.993   4.433   7.446  0.9706 -0.1775  0.2365
 8275SOL     OW36457   2.710   1.955   2.498  0.1397  0.2792  0.3181
 8275SOL    HW136458   2.663   1.923   2.575 -1.2473  1.9608  0.1838
 8275SOL    HW236459   2.800   1.949   2.529  0.7747  1.5337 -1.2223
 8276SOL     OW36460   0.430   2.356   2.451  0.7490  0.6528 -0.2708
 8276SOL    HW136461   0.336   2.362   2.468  0.6036  1.4479 -1.3334
 8276SOL    HW236462   0.435   2.276   2.399  0.4015  0.6737 -0.3353
 8277SOL     OW36463   3.363   0.545   1.094 -0.1937  0.2459  0.4258
 8277SOL    HW136464   3.283   0.505   1.127  1.4711 -5.1723 -2.0974
 8277SOL    HW236465   3.425   0.486   1.138 -0.5616 -0.2408  0.2918
 8278SOL     OW36466   4.434   3.836   6.191  0.5459 -0.0199 -0.4579
 8278SOL    HW136467   4.403   3.820   6.102 -0.2158 -0.8720 -0.0391
 8278SOL    HW236468   4.511   3.780   6.191  1.4326  1.1919  0.0921
 8279SOL     OW36469   1.365   1.562   1.467  0.5637  0.1209  0.4184
 8279SOL    HW136470   1.310   1.539   1.392  1.6124  0.1594 -0.3699
 8279SOL    HW236471   1.454   1.555   1.431  0.7776  2.5447  0.4811
 8280SOL     OW36472   3.472   2.396   4.111  0.3685  0.3721  1.0045
 8280SOL    HW136473   3.539   2.417   4.176 -0.4334  0.2273  1.8777
 8280SOL    HW236474   3.454   2.303   4.123 -1.4334  0.7987  1.6368
 8281SOL     OW36475   1.270   2.082   5.355  0.1244  0.2457  0.3011
 8281SOL    HW136476   1.200   2.133   5.313  1.2699  1.5956  0.0176
 8281SOL    HW236477   1.256   2.111   5.445  1.3031  2.8285 -0.3473
 8282SOL     OW36478   0.450   4.227   3.209 -0.3132  0.3134 -0.1231
 8282SOL    HW136479   0.483   4.153   3.158  1.6588  0.3517  1.0870
 8282SOL    HW236480   0.523   4.255   3.265 -1.9319 -0.6513  2.5032
 8283SOL     OW36481   0.621   0.955   2.558  0.1859 -0.2911 -0.0884
 8283SOL    HW136482   0.654   1.006   2.632 -0.6278  0.4301 -0.2340
 8283SOL    HW236483   0.598   0.881   2.614  0.0435 -0.0458  0.1749
 8284SOL     OW36484   2.718   4.030  10.857  0.5114  0.0882  0.5235
 8284SOL    HW136485   2.710   3.965  10.787  4.0319 -0.9166  1.0494
 8284SOL    HW236486   2.704   3.978  10.937 -2.4799 -1.2313 -0.8460
 8285SOL     OW36487   2.425   0.512   1.120 -0.0667  1.1307  0.1659
 8285SOL    HW136488   2.331   0.527   1.111 -0.3495 -0.2044  0.8152
 8285SOL    HW236489   2.455   0.570   1.051  1.0429 -1.3673 -1.4457
 8286SOL     OW36490   0.875   0.050   2.612  0.0231  0.4018  0.4132
 8286SOL    HW136491   0.867   0.011   2.525  1.8178  0.9552 -0.0038
 8286SOL    HW236492   0.819   4.723   2.652  1.1549 -1.2852 -0.8446
 8287SOL     OW36493   2.515   1.830   1.509 -0.0453  0.0104 -0.0486
 8287SOL    HW136494   2.577   1.902   1.524  1.2256 -0.8594 -1.0647
 8287SOL    HW236495   2.432   1.875   1.500 -1.3835 -1.9132  2.5725
 8288SOL     OW36496   4.161   2.790   4.779  0.3139  0.1692  0.3250
 8288SOL    HW136497   4.138   2.698   4.793  1.5434 -0.1836 -0.0128
 8288SOL    HW236498   4.076   2.832   4.768 -2.3337 -5.3847 -0.1704
 8289SOL     OW36499   4.415   0.804   7.647 -0.4876  0.4327 -0.0609
 8289SOL    HW136500   4.409   0.889   7.604 -0.1761  1.7773  2.5713
 8289SOL    HW236501   4.394   0.816   7.740 -3.0637  1.6871 -0.8260
 8290SOL     OW36502   2.997   4.732   6.618 -0.1090  0.3403 -0.1231
 8290SOL    HW136503   3.048   4.727   6.699  2.6907  0.7136 -1.8581
 8290SOL    HW236504   2.995   0.087   6.604 -0.6924  0.2583 -0.6053
 8291SOL     OW36505   1.483   3.955   8.942  0.5088  0.8419 -0.2841
 8291SOL    HW136506   1.417   3.927   9.006  0.5894 -0.3211 -0.7036
 8291SOL    HW236507   1.477   4.048   8.964 -0.4648  0.5725  0.5782
 8292SOL     OW36508   2.375   1.269   5.413  0.3058  0.1489  0.7067
 8292SOL    HW136509   2.362   1.253   5.506 -1.5772 -0.6482  0.3015
 8292SOL    HW236510   2.304   1.212   5.384  0.9296  0.1148 -0.7700
 8293SOL     OW36511   3.356   1.101  15.044 -0.1357  0.6268  0.5132
 8293SOL    HW136512   3.404   1.040  15.100  2.6343  1.8464 -0.5236
 8293SOL    HW236513   3.290   1.135  15.104 -0.4017  0.7469  0.1502
 8294SOL     OW36514   0.450   4.312  11.081 -0.0148  0.0695  0.2717
 8294SOL    HW136515   0.493   4.366  11.147 -0.9838 -1.0830  1.8318
 8294SOL    HW236516   0.411   4.386  11.034 -0.8972 -0.9365 -0.5721
 8295SOL     OW36517   3.388   3.442   7.304 -0.1866 -0.5404  0.5046
 8295SOL    HW136518   3.408   3.349   7.294  0.8892 -0.1418 -1.0323
 8295SOL    HW236519   3.431   3.483   7.229  1.2477  0.6144  1.9925
 8296SOL     OW36520   2.864   0.662  11.384  0.6234  0.1993  0.2148
 8296SOL    HW136521   2.847   0.575  11.422 -0.6042  0.3237 -0.0582
 8296SOL    HW236522   2.804   0.712  11.439  0.8079 -0.1905  0.7830
 8297SOL     OW36523   1.896   2.850   9.434 -0.1158  0.1933 -0.1195
 8297SOL    HW136524   1.832   2.870   9.366 -1.5917  1.9148  1.7657
 8297SOL    HW236525   1.975   2.877   9.389 -0.1302  1.2605  0.4821
 8298SOL     OW36526   4.591   0.294   8.605 -0.2583  0.2538 -0.2355
 8298SOL    HW136527   4.599   0.327   8.516  2.9804 -0.8934 -0.3789
 8298SOL    HW236528   4.582   0.377   8.652  1.8289  0.1379  0.4010
 8299SOL     OW36529   3.492   4.402   3.631 -0.5654 -0.4416 -0.1768
 8299SOL    HW136530   3.459   4.456   3.559  0.5241 -0.1700 -0.4694
 8299SOL    HW236531   3.586   4.393   3.617 -0.2755  0.5627  1.1451
 8300SOL     OW36532   4.486   1.668   8.577  0.4245 -0.5036 -0.7909
 8300SOL    HW136533   4.524   1.683   8.491  1.0764 -1.1519 -0.6165
 8300SOL    HW236534   4.392   1.668   8.556  0.0825 -0.7063  0.7301
 8301SOL     OW36535   0.179   2.905   0.862 -0.0368 -0.4856  0.5325
 8301SOL    HW136536   0.087   2.925   0.876 -0.8572 -1.8054 -2.8954
 8301SOL    HW236537   0.168   2.833   0.799  2.2476 -0.8457  0.5568
 8302SOL     OW36538   1.834   2.253   7.922  0.1364 -0.0558 -0.4936
 8302SOL    HW136539   1.815   2.340   7.886  0.0816 -0.1349 -0.6541
 8302SOL    HW236540   1.841   2.200   7.843  0.0240 -1.2024  0.2638
 8303SOL     OW36541   0.292   1.969   7.383  0.6931  0.1560 -0.2913
 8303SOL    HW136542   0.224   1.962   7.450  1.1766  0.0113  0.1862
 8303SOL    HW236543   0.240   1.951   7.304  0.9540 -0.5020 -0.3125
 8304SOL     OW36544   4.038   1.245   3.820  0.5846  0.8430  0.7959
 8304SOL    HW136545   3.985   1.198   3.756  0.3315  1.8291  0.2774
 8304SOL    HW236546   3.972   1.249   3.890  0.9682 -1.4329  1.3029
 8305SOL     OW36547   4.402   0.458   2.379 -0.9412  0.0773 -0.3059
 8305SOL    HW136548   4.473   0.414   2.333  0.3686  1.5844  0.3014
 8305SOL    HW236549   4.401   0.545   2.340  1.9588 -0.7243 -2.1085
 8306SOL     OW36550   2.330   2.713   6.466 -0.5423 -0.2287  0.3157
 8306SOL    HW136551   2.346   2.755   6.382 -3.2594  2.4269  1.0984
 8306SOL    HW236552   2.420   2.730   6.494 -0.2698 -0.8173 -0.2108
 8307SOL     OW36553   3.580   4.124   8.726  0.0466 -0.7575  0.4758
 8307SOL    HW136554   3.564   4.034   8.755 -1.6283 -0.8849 -0.9076
 8307SOL    HW236555   3.543   4.138   8.639 -2.0734 -0.7059  1.3942
 8308SOL     OW36556   0.097   1.086   3.170 -0.2813 -0.0300  0.1528
 8308SOL    HW136557   0.125   1.162   3.119  0.6050 -0.6780 -0.3295
 8308SOL    HW236558   0.006   1.110   3.188 -0.1428  1.8594 -1.6436
 8309SOL     OW36559   4.259   4.436   5.395 -0.0510  0.1530 -0.2691
 8309SOL    HW136560   4.294   4.525   5.394 -0.3521  0.3070  1.6977
 8309SOL    HW236561   4.194   4.441   5.325 -2.5643 -0.8911  2.0022
 8310SOL     OW36562   0.289   0.731   3.580 -0.5326  0.0271 -0.6353
 8310SOL    HW136563   0.245   0.687   3.507 -0.8580 -1.4886  0.4667
 8310SOL    HW236564   0.334   0.798   3.529 -0.2138  0.9061  0.7834
 8311SOL     OW36565   3.580   0.319  13.875  0.2025 -0.4159 -0.1444
 8311SOL    HW136566   3.610   0.390  13.932 -0.5191 -1.4799  1.5964
 8311SOL    HW236567   3.557   0.256  13.944 -0.7057  2.0340  1.7746
 8312SOL     OW36568   0.940   1.082   0.555 -1.2965  0.4830  0.0783
 8312SOL    HW136569   1.005   1.068   0.486 -2.0720 -1.8586 -0.1917
 8312SOL    HW236570   0.917   1.172   0.535 -1.2950  0.3102 -0.6754
 8313SOL     OW36571   2.285   4.615   6.923  0.2185 -0.1980  0.2188
 8313SOL    HW136572   2.343   4.681   6.960  0.1928 -0.9864  1.6652
 8313SOL    HW236573   2.212   4.617   6.984  1.4619  0.0841  1.6870
 8314SOL     OW36574   2.651   4.230   8.065 -0.6915  0.3959 -0.0087
 8314SOL    HW136575   2.712   4.279   8.120  0.4090  0.6201 -1.4309
 8314SOL    HW236576   2.716   4.174   8.022  2.3199  0.8684  3.8701
 8315SOL     OW36577   3.412   3.919  17.245 -0.2602  0.3225 -0.2043
 8315SOL    HW136578   3.414   4.011  17.218 -0.2939  1.1592  2.6760
 8315SOL    HW236579   3.384   3.883  17.161 -2.3871  0.1405  0.5875
 8316SOL     OW36580   2.761   4.653   3.615  1.1529 -0.2097 -0.2320
 8316SOL    HW136581   2.853   4.668   3.594  0.9414 -1.4848 -2.0379
 8316SOL    HW236582   2.738   4.578   3.561  1.0760 -0.5150  0.2207
 8317SOL     OW36583   0.813   0.620   2.282  0.0560  0.1628  0.0329
 8317SOL    HW136584   0.757   0.560   2.232  0.2720 -1.1343  1.3442
 8317SOL    HW236585   0.769   0.705   2.279 -1.2946 -0.4779  1.3028
 8318SOL     OW36586   4.694   2.986  10.004  0.0704 -0.4658  0.2072
 8318SOL    HW136587   0.011   2.985  10.082 -1.4044  1.2190  1.2691
 8318SOL    HW236588   0.021   3.010   9.939  0.6308 -0.7960  0.6590
 8319SOL     OW36589   4.689   4.134  12.800 -0.1028  0.1284  0.7537
 8319SOL    HW136590   0.035   4.156  12.837 -0.6035  2.4146  0.5334
 8319SOL    HW236591   4.635   4.187  12.859  0.1618  0.3958  0.7525
 8320SOL     OW36592   0.827   4.115  12.460  0.2497 -0.5891 -0.2827
 8320SOL    HW136593   0.804   4.080  12.546  0.7122 -0.5598 -0.1487
 8320SOL    HW236594   0.896   4.058  12.427  0.5510 -0.5688  0.3108
 8321SOL     OW36595   4.609   3.512  11.689  0.1450 -0.1359  0.2880
 8321SOL    HW136596   4.688   3.565  11.685  0.9296 -1.4988 -1.7479
 8321SOL    HW236597   4.629   3.446  11.755 -2.1991 -0.8944  0.2354
 8322SOL     OW36598   0.668   1.465   0.292  0.7043 -0.1766 -0.2536
 8322SOL    HW136599   0.672   1.451   0.387  3.7226 -0.1370 -0.3738
 8322SOL    HW236600   0.620   1.385   0.272 -1.0282  0.7328  0.2156
 8323SOL     OW36601   3.707   3.737   8.488  0.4002  0.1376  0.0127
 8323SOL    HW136602   3.678   3.827   8.472 -1.5374 -0.4773  0.1192
 8323SOL    HW236603   3.738   3.716   8.399 -1.8670 -1.9875 -0.2699
 8324SOL     OW36604   3.830   0.314   6.292 -0.4953  0.3075  0.1399
 8324SOL    HW136605   3.778   0.321   6.212  0.5979  1.9049 -0.4483
 8324SOL    HW236606   3.867   0.228   6.274 -0.6439  0.6278 -1.7457
 8325SOL     OW36607   3.441   2.293   3.212  0.0938  0.3633  0.0046
 8325SOL    HW136608   3.501   2.232   3.168 -1.2598  0.2857 -1.7335
 8325SOL    HW236609   3.505   2.360   3.234  1.1011 -0.9359  1.0539
 8326SOL     OW36610   0.909   4.384   5.543 -0.6926 -0.6556  0.0042
 8326SOL    HW136611   0.853   4.460   5.523 -1.6598 -1.3427  0.1189
 8326SOL    HW236612   0.911   4.393   5.638  0.3327 -0.2969 -0.0557
 8327SOL     OW36613   3.687   0.407   2.283  0.0573  0.0597  0.5492
 8327SOL    HW136614   3.778   0.433   2.299 -0.3514  2.6760 -1.4798
 8327SOL    HW236615   3.677   0.389   2.190 -3.3770 -1.7822  1.2361
 8328SOL     OW36616   1.622   1.524  16.874  0.3151 -0.4541 -0.8231
 8328SOL    HW136617   1.530   1.549  16.877  0.7935  0.9607  2.2589
 8328SOL    HW236618   1.654   1.604  16.832  1.7453  0.0626  1.2283
 8329SOL     OW36619   4.590   2.903   8.605  0.2154 -0.0466 -0.3336
 8329SOL    HW136620   4.595   2.919   8.699 -2.0110 -0.4884 -0.1228
 8329SOL    HW236621   4.568   2.986   8.564  0.4293  0.3114  0.2833
 8330SOL     OW36622   3.370   0.265   5.034 -0.4097 -0.6480  0.6011
 8330SOL    HW136623   3.415   0.206   4.974  0.9842 -1.1044  2.1155
 8330SOL    HW236624   3.402   0.350   5.004 -0.8310 -1.7978 -3.1073
 8331SOL     OW36625   0.544   1.327   3.550  0.6303  0.3126 -0.4438
 8331SOL    HW136626   0.561   1.328   3.645 -1.3332 -1.3295 -0.0781
 8331SOL    HW236627   0.607   1.393   3.522 -0.7709  1.7196 -0.2334
 8332SOL     OW36628   0.618   3.804   3.392 -0.4774 -0.0763  0.3265
 8332SOL    HW136629   0.537   3.783   3.439 -1.2166  0.8988 -0.4947
 8332SOL    HW236630   0.691   3.763   3.439 -0.8814 -0.9398  0.2046
 8333SOL     OW36631   2.267   2.868  12.528  0.4085 -0.2527  0.6553
 8333SOL    HW136632   2.347   2.890  12.576  0.8557 -0.8776  0.1989
 8333SOL    HW236633   2.229   2.956  12.530 -0.1059 -0.4333 -1.8242
 8334SOL     OW36634   2.397   4.384  14.200  0.6424 -0.2436  0.0563
 8334SOL    HW136635   2.479   4.363  14.245  0.6052 -0.9740 -0.2131
 8334SOL    HW236636   2.416   4.360  14.109 -1.6631 -0.2569 -0.4176
 8335SOL     OW36637   4.385   3.618   3.124 -0.0755  0.4461  0.0180
 8335SOL    HW136638   4.384   3.532   3.166 -0.3509  1.0938  1.3175
 8335SOL    HW236639   4.374   3.592   3.032  1.8266 -0.2431 -0.0213
 8336SOL     OW36640   2.763   3.335  15.008 -0.2054  0.9374  0.2398
 8336SOL    HW136641   2.747   3.330  14.914 -2.1656 -3.6563  0.8033
 8336SOL    HW236642   2.834   3.399  15.011 -0.3684  1.2337 -2.0406
 8337SOL     OW36643   0.592   1.175   8.932  0.1307  0.2419  0.2321
 8337SOL    HW136644   0.538   1.097   8.942  0.6847  0.0308  1.7108
 8337SOL    HW236645   0.529   1.247   8.937 -2.0401 -1.6013 -0.4253
 8338SOL     OW36646   3.758   2.311   5.578 -0.3431 -0.4393 -0.4862
 8338SOL    HW136647   3.801   2.393   5.602 -0.1277 -1.2077  1.7235
 8338SOL    HW236648   3.803   2.294   5.495  1.1417  1.2931 -0.0278
 8339SOL     OW36649   3.537   3.491   5.580  0.1885  0.3366  0.6731
 8339SOL    HW136650   3.592   3.567   5.599  1.2925 -0.1213 -0.6562
 8339SOL    HW236651   3.598   3.421   5.604  1.1746  1.3521  1.1467
 8340SOL     OW36652   2.323   2.566   5.361  0.6982  0.0269  0.0563
 8340SOL    HW136653   2.310   2.534   5.450  1.6824  0.6728  0.4367
 8340SOL    HW236654   2.322   2.659   5.383  2.9396 -0.2073  1.1234
 8341SOL     OW36655   0.526   4.110   7.408  0.3284 -0.2738 -0.4639
 8341SOL    HW136656   0.615   4.110   7.441 -0.1051  3.2866  0.6198
 8341SOL    HW236657   0.538   4.194   7.363 -0.1456  0.6168  1.0770
 8342SOL     OW36658   4.357   4.305   1.732  0.3137 -0.1070  0.4480
 8342SOL    HW136659   4.291   4.350   1.785  1.2789  1.5955  0.2232
 8342SOL    HW236660   4.411   4.256   1.795 -2.9567 -2.3225  1.5264
 8343SOL     OW36661   1.939   1.278  12.686  0.1045 -0.0698 -0.1605
 8343SOL    HW136662   1.941   1.293  12.780 -3.9297  1.5904 -0.3763
 8343SOL    HW236663   1.859   1.228  12.672 -0.6176  0.3941  2.4046
 8344SOL     OW36664   2.403   0.879   2.153  0.6980 -0.5244  0.6232
 8344SOL    HW136665   2.359   0.915   2.075  4.4976  0.7562 -0.9004
 8344SOL    HW236666   2.493   0.887   2.121  0.6130  0.3245  0.6129
 8345SOL     OW36667   3.211   3.987   9.604  0.6930 -0.2234  0.9057
 8345SOL    HW136668   3.205   4.028   9.518  0.8470  1.2875  1.6130
 8345SOL    HW236669   3.287   3.928   9.598  1.4654  1.1490 -2.4915
 8346SOL     OW36670   2.873   0.711  12.593 -0.2720 -0.2063 -0.0413
 8346SOL    HW136671   2.910   0.624  12.607  1.2215  0.6049  1.2010
 8346SOL    HW236672   2.823   0.725  12.674  2.8497  1.3746  1.6458
 8347SOL     OW36673   4.532   3.837   4.018  0.8242 -0.3464  0.1613
 8347SOL    HW136674   4.560   3.746   4.013  0.6441 -0.4316  0.7111
 8347SOL    HW236675   4.579   3.881   3.946  0.0151 -0.0281 -0.1759
 8348SOL     OW36676   2.598   1.782   5.110 -0.0065 -0.1889  0.3654
 8348SOL    HW136677   2.555   1.798   5.194  1.1958 -0.3088  0.9986
 8348SOL    HW236678   2.563   1.697   5.085  1.0318 -0.2602 -0.8617
 8349SOL     OW36679   4.386   0.251  12.874 -0.1799  0.1969 -0.4139
 8349SOL    HW136680   4.385   0.304  12.794 -0.1039  2.2328  0.9422
 8349SOL    HW236681   4.333   0.178  12.843  1.0745 -1.4158  1.2820
 8350SOL     OW36682   2.302   3.501  11.609 -0.5414  0.6229 -0.2526
 8350SOL    HW136683   2.381   3.516  11.556  0.3966  3.1753  1.9261
 8350SOL    HW236684   2.334   3.518  11.697 -2.1550 -0.3631  0.5140
 8351SOL     OW36685   3.108   2.016   2.018  0.3545  0.1247 -0.3071
 8351SOL    HW136686   3.178   1.987   2.077 -1.2860 -2.3167  0.4323
 8351SOL    HW236687   3.089   1.928   1.984 -2.3042  0.4256  0.4118
 8352SOL     OW36688   1.791   1.736   1.049  0.4562  0.4946  0.0336
 8352SOL    HW136689   1.787   1.819   1.096  0.0239  0.2041  0.5105
 8352SOL    HW236690   1.743   1.759   0.970 -1.4077  1.1921  1.3508
 8353SOL     OW36691   1.448   0.065   3.452  0.4360 -0.2380 -0.4236
 8353SOL    HW136692   1.427   0.021   3.534  1.5133  0.2700  0.1138
 8353SOL    HW236693   1.491   4.728   3.413  0.2140 -0.1887 -0.7660
 8354SOL     OW36694   4.545   3.062  11.143  0.2454 -0.6566 -0.3303
 8354SOL    HW136695   4.558   3.081  11.236 -1.9474 -1.1148  0.0608
 8354SOL    HW236696   4.605   3.128  11.109 -0.2281 -0.5604 -0.9776
 8355SOL     OW36697   1.539   3.888   6.154  0.3304  0.2273  0.3677
 8355SOL    HW136698   1.498   3.942   6.221 -0.4221 -0.3784  0.3966
 8355SOL    HW236699   1.459   3.865   6.107  1.2318 -0.8418 -0.6505
 8356SOL     OW36700   3.474   2.722  15.095  0.3728  0.6210 -0.7221
 8356SOL    HW136701   3.553   2.738  15.044  0.1571 -0.2586 -1.3379
 8356SOL    HW236702   3.450   2.813  15.113  0.5995  0.6379 -0.5197
 8357SOL     OW36703   1.437   4.639  16.617  0.5934 -0.1134  0.4538
 8357SOL    HW136704   1.502   4.703  16.588  0.0011 -0.1955 -1.0678
 8357SOL    HW236705   1.434   4.581  16.542 -0.6522  3.2882 -2.1553
 8358SOL     OW36706   2.078   3.630  10.161  0.1081 -0.0158 -0.3521
 8358SOL    HW136707   2.003   3.573  10.143 -0.4655  0.2429  1.1811
 8358SOL    HW236708   2.050   3.714  10.124  0.6946 -0.0238 -0.8032
 8359SOL     OW36709   1.611   1.638  10.971 -0.2421  0.9464 -0.2119
 8359SOL    HW136710   1.655   1.583  11.037  0.8550  1.9338 -0.1188
 8359SOL    HW236711   1.639   1.725  11.001 -0.9328  0.2747  2.4501
 8360SOL     OW36712   2.222   3.892   7.719  0.2750  0.6355  0.5725
 8360SOL    HW136713   2.167   3.961   7.682 -0.4567 -0.2432  0.0228
 8360SOL    HW236714   2.154   3.836   7.756  0.0586  1.9033  2.0814
 8361SOL     OW36715   1.423   2.506   6.639  0.1644  0.0052 -0.1357
 8361SOL    HW136716   1.420   2.573   6.571  1.1050 -1.4984 -1.6584
 8361SOL    HW236717   1.332   2.501   6.667  0.5218 -4.0027  0.2761
 8362SOL     OW36718   3.303   0.738   9.171  0.7018 -0.2318 -0.1526
 8362SOL    HW136719   3.397   0.734   9.185  0.7167  1.8138  0.2518
 8362SOL    HW236720   3.279   0.812   9.116  1.8037 -1.0491 -1.7256
 8363SOL     OW36721   3.555   2.394  17.157  0.4673 -0.1697 -0.4708
 8363SOL    HW136722   3.641   2.427  17.186  0.9143 -1.0194 -0.8383
 8363SOL    HW236723   3.560   2.305  17.191 -1.5025  0.9361  2.6690
 8364SOL     OW36724   2.554   1.615   6.646  0.1655 -0.0795 -0.0582
 8364SOL    HW136725   2.641   1.596   6.610 -0.1396 -0.2808 -0.6866
 8364SOL    HW236726   2.506   1.534   6.626 -0.0171  0.3441 -1.3547
 8365SOL     OW36727   1.405   4.460   5.510  0.0601 -0.1424  0.5739
 8365SOL    HW136728   1.476   4.410   5.550  2.9657  0.3922 -3.9072
 8365SOL    HW236729   1.443   4.486   5.426 -0.7677 -0.8497 -0.0254
 8366SOL     OW36730   3.353   0.763   1.338  0.5235  0.2570  0.1470
 8366SOL    HW136731   3.370   0.743   1.245 -0.6949 -0.1867  0.0232
 8366SOL    HW236732   3.436   0.726   1.369 -0.8275 -2.6823  0.2581
 8367SOL     OW36733   2.417   1.580   3.663 -0.1318 -0.0028  0.7974
 8367SOL    HW136734   2.443   1.557   3.574 -0.0338  1.1529  0.5362
 8367SOL    HW236735   2.427   1.494   3.705 -0.8526  0.1041  1.1851
 8368SOL     OW36736   3.901   2.994   2.914 -0.5157  0.3094 -0.3200
 8368SOL    HW136737   3.818   3.042   2.914 -0.6833  0.0159 -0.7568
 8368SOL    HW236738   3.877   2.912   2.956 -0.0857  0.2592 -0.1696
 8369SOL     OW36739   1.444   3.260  14.294  0.6848 -0.4426  0.3998
 8369SOL    HW136740   1.528   3.243  14.337  2.1238  2.2489 -1.3612
 8369SOL    HW236741   1.441   3.354  14.279 -0.9154 -0.2484  1.9424
 8370SOL     OW36742   4.188   2.578   4.499 -0.5784 -0.1564 -0.1932
 8370SOL    HW136743   4.280   2.586   4.523 -0.9127  0.9645  0.6629
 8370SOL    HW236744   4.158   2.660   4.460  3.1998  0.9542 -0.7587
 8371SOL     OW36745   0.255   1.187  11.385 -0.0551 -0.2581  0.0900
 8371SOL    HW136746   0.261   1.224  11.473 -0.6039 -1.0321  0.4570
 8371SOL    HW236747   0.220   1.100  11.403 -2.5167  0.9217  0.9941
 8372SOL     OW36748   2.700   0.413  17.031 -0.1711 -0.0037  0.1109
 8372SOL    HW136749   2.696   0.391  16.938 -1.9241  1.5369 -0.1593
 8372SOL    HW236750   2.617   0.381  17.065 -0.1080 -1.5029 -1.1560
 8373SOL     OW36751   3.743   0.266   7.526  0.4188  0.0927  0.1031
 8373SOL    HW136752   3.742   0.175   7.557  0.9972  0.2022  0.4351
 8373SOL    HW236753   3.655   0.285   7.559  0.0841  0.5543 -1.0640
 8374SOL     OW36754   3.898   2.239   8.586 -0.0103  0.5194  0.0917
 8374SOL    HW136755   3.826   2.180   8.609 -0.3896 -0.1973 -2.9203
 8374SOL    HW236756   3.943   2.252   8.670 -0.3664 -4.1640  1.0038
 8375SOL     OW36757   1.776   2.036  11.279 -0.3201 -0.1704 -0.2531
 8375SOL    HW136758   1.722   2.075  11.348  2.5117  0.0986  1.8004
 8375SOL    HW236759   1.854   2.090  11.289 -0.7432  0.0617  1.8214
 8376SOL     OW36760   0.009   4.258   7.874  0.3354  0.0773  0.6019
 8376SOL    HW136761   0.072   4.190   7.899  0.8652 -0.1922 -1.5037
 8376SOL    HW236762   4.692   4.266   7.952 -2.1343 -1.4709 -1.0460
 8377SOL     OW36763   3.666   2.184   2.913  0.6654 -0.0067  0.2960
 8377SOL    HW136764   3.662   2.215   2.822  0.5281 -0.8953  0.0024
 8377SOL    HW236765   3.585   2.133   2.908 -0.7223  2.3411 -1.0988
 8378SOL     OW36766   0.883   3.384   9.187 -0.7767 -0.5014  0.0917
 8378SOL    HW136767   0.815   3.337   9.234  0.9784 -2.2301  0.9426
 8378SOL    HW236768   0.964   3.349   9.226  0.7397  0.7948 -1.8656
 8379SOL     OW36769   4.551   2.845  10.958 -0.3775  0.1119 -0.0262
 8379SOL    HW136770   4.483   2.874  10.897 -0.9412  0.3555  0.7165
 8379SOL    HW236771   4.535   2.902  11.033  0.5156 -0.3973  0.5511
 8380SOL     OW36772   1.210   3.270   7.376  0.3751  0.3030 -0.2415
 8380SOL    HW136773   1.203   3.301   7.466  0.6673  0.4722 -0.2777
 8380SOL    HW236774   1.188   3.354   7.336  0.3922 -0.0760 -1.0397
 8381SOL     OW36775   0.646   4.415   4.308 -0.0085  0.4020 -0.1712
 8381SOL    HW136776   0.630   4.323   4.287 -0.0800  0.0664  1.3302
 8381SOL    HW236777   0.621   4.462   4.229 -0.1000 -0.3115 -0.5648
 8382SOL     OW36778   2.521   1.121   9.088  0.0832  0.6741 -0.2485
 8382SOL    HW136779   2.445   1.140   9.143 -0.4664 -1.8176 -0.1269
 8382SOL    HW236780   2.510   1.026   9.080 -1.2625  0.9317 -1.5073
 8383SOL     OW36781   3.164   2.686  11.151 -0.6180 -0.0309 -0.2842
 8383SOL    HW136782   3.161   2.622  11.222 -0.2436  0.4231  0.1477
 8383SOL    HW236783   3.239   2.658  11.099 -2.0920  0.7415 -2.8369
 8384SOL     OW36784   1.486   0.647   8.176 -0.1763 -0.1903  0.7678
 8384SOL    HW136785   1.410   0.696   8.210 -1.4008 -0.6313 -1.3496
 8384SOL    HW236786   1.555   0.700   8.216  0.7949 -0.5050 -0.5149
 8385SOL     OW36787   4.124   2.433  12.890 -0.1038 -0.1596 -0.1842
 8385SOL    HW136788   4.071   2.367  12.936 -0.0276  0.6472  1.0484
 8385SOL    HW236789   4.152   2.482  12.967 -0.8402 -1.0319  0.6371
 8386SOL     OW36790   3.085   4.456   6.728 -0.1190  0.3216  0.0697
 8386SOL    HW136791   3.059   4.393   6.796  0.6222  1.7487  1.6607
 8386SOL    HW236792   3.009   4.514   6.735 -1.1147 -0.8807 -0.7759
 8387SOL     OW36793   0.785   1.290   5.611 -0.7386 -0.1841 -0.0351
 8387SOL    HW136794   0.814   1.335   5.691  2.7549  0.1208 -1.4919
 8387SOL    HW236795   0.765   1.363   5.552 -1.2663  0.3202  0.7597
 8388SOL     OW36796   2.871   3.587   2.956  0.1377 -0.4804 -0.0533
 8388SOL    HW136797   2.965   3.603   2.947  0.5688 -2.0972  1.6898
 8388SOL    HW236798   2.863   3.527   2.882 -1.5351  0.3410 -0.5391
 8389SOL     OW36799   0.559   1.347   8.603 -0.3958 -0.1262 -0.1472
 8389SOL    HW136800   0.525   1.435   8.586  0.2500  0.3478  1.0805
 8389SOL    HW236801   0.636   1.367   8.655  0.4852 -2.8243 -0.4013
 8390SOL     OW36802   3.891   3.409  16.830  0.0497 -0.1922 -0.2347
 8390SOL    HW136803   3.968   3.466  16.836 -1.5553  2.1565 -2.0134
 8390SOL    HW236804   3.827   3.471  16.865 -0.0560 -0.0070 -0.7526
 8391SOL     OW36805   0.066   3.582  15.597 -0.4685 -0.1076  0.3680
 8391SOL    HW136806   0.035   3.509  15.651 -1.4752 -1.8054 -2.5010
 8391SOL    HW236807   0.089   3.641  15.668  0.8339 -2.0511  1.5730
 8392SOL     OW36808   0.114   2.058  14.260  0.4063  0.2793  0.0745
 8392SOL    HW136809   0.163   1.977  14.243  0.9444  0.9065 -1.3442
 8392SOL    HW236810   0.097   2.085  14.170  1.4336  0.6169 -0.0154
 8393SOL     OW36811   3.896   3.612   9.694 -0.3454  0.7945  0.0677
 8393SOL    HW136812   3.954   3.652   9.758  0.0532 -0.0733  0.2414
 8393SOL    HW236813   3.852   3.690   9.660  0.0968  1.7776  1.7440
 8394SOL     OW36814   3.712   1.665   4.285  0.0768 -0.3390 -0.3381
 8394SOL    HW136815   3.640   1.709   4.331 -0.6042  0.3860 -2.1034
 8394SOL    HW236816   3.726   1.729   4.215  1.3929 -1.3973 -1.0265
 8395SOL     OW36817   2.452   1.816  16.449 -0.5828 -0.0742  0.7093
 8395SOL    HW136818   2.423   1.740  16.499  0.0132  0.2337  1.5032
 8395SOL    HW236819   2.401   1.802  16.369 -0.3801 -1.8985  0.9028
 8396SOL     OW36820   1.240   3.113   6.996  0.5482  0.5790  0.9638
 8396SOL    HW136821   1.298   3.046   6.960 -1.5641 -0.6828 -0.0813
 8396SOL    HW236822   1.162   3.065   7.025  1.3518 -0.9039  0.6394
 8397SOL     OW36823   2.912   1.269   1.967 -0.6620  0.0367 -0.4178
 8397SOL    HW136824   2.833   1.319   1.945 -0.0055  1.8575  1.4465
 8397SOL    HW236825   2.975   1.304   1.904  2.8843  1.1574  3.7982
 8398SOL     OW36826   4.459   2.250   5.042 -0.1326 -0.2454  0.0442
 8398SOL    HW136827   4.396   2.317   5.066  0.7332  1.0806 -1.4335
 8398SOL    HW236828   4.479   2.234   5.135  3.4274  2.2657 -0.2857
 8399SOL     OW36829   2.334   2.632   3.283  0.2950  0.5736 -0.0843
 8399SOL    HW136830   2.356   2.539   3.289  0.9397  0.5611 -2.4458
 8399SOL    HW236831   2.410   2.677   3.321  1.9928 -3.9310  1.8275
 8400SOL     OW36832   0.985   2.663   3.028  0.7049  0.4584  0.5715
 8400SOL    HW136833   1.072   2.660   2.988 -0.0059 -3.2975 -0.6731
 8400SOL    HW236834   1.008   2.685   3.119 -0.1082  1.2807  0.5772
 8401SOL     OW36835   3.492   3.555   5.863 -0.2271  0.0559  0.2783
 8401SOL    HW136836   3.488   3.466   5.898 -0.2436 -0.3671 -0.7949
 8401SOL    HW236837   3.487   3.539   5.769  0.6428  1.2475  0.0253
 8402SOL     OW36838   2.431   1.689  13.858  0.6016  0.6239  0.6274
 8402SOL    HW136839   2.404   1.600  13.834 -0.4372  0.1803  3.5113
 8402SOL    HW236840   2.475   1.731  13.783  0.1519  0.4578  0.2685
 8403SOL     OW36841   2.454   3.006   6.353 -0.5174  0.2084 -0.1127
 8403SOL    HW136842   2.514   3.081   6.352  1.2252 -1.1755  0.4581
 8403SOL    HW236843   2.512   2.936   6.322  0.2657  0.8574 -0.1048
 8404SOL     OW36844   3.380   4.679  16.880 -0.2273 -0.0387  0.7763
 8404SOL    HW136845   3.300   4.629  16.892 -0.5796  0.0648 -1.0558
 8404SOL    HW236846   3.385   4.668  16.785 -2.1184 -0.6949  0.7598
 8405SOL     OW36847   0.459   0.931   5.227  0.0519 -0.1232  0.3982
 8405SOL    HW136848   0.545   0.896   5.253 -0.3893 -0.2236  1.7448
 8405SOL    HW236849   0.438   0.870   5.156 -0.9931 -1.6497  1.9990
 8406SOL     OW36850   0.128   2.820  15.412 -0.5240 -0.0985  0.4395
 8406SOL    HW136851   0.135   2.828  15.317  1.0327  1.7341  0.6890
 8406SOL    HW236852   0.054   2.761  15.419  0.2485 -1.1978 -0.6189
 8407SOL     OW36853   1.509   2.776   8.390 -0.0527  0.6912 -0.1771
 8407SOL    HW136854   1.533   2.806   8.303 -1.8219  0.9528 -0.5667
 8407SOL    HW236855   1.591   2.791   8.437  0.5103 -0.2385 -0.8617
 8408SOL     OW36856   3.481   3.312  13.177  0.2671  0.4322  0.0377
 8408SOL    HW136857   3.536   3.278  13.248  0.7291  1.7799  0.3157
 8408SOL    HW236858   3.408   3.250  13.175  0.9608 -0.4434  2.6115
 8409SOL     OW36859   3.542   0.632   7.093  0.2254 -0.3176  0.0330
 8409SOL    HW136860   3.593   0.708   7.121 -0.1650 -0.2588  0.5874
 8409SOL    HW236861   3.598   0.555   7.097  0.5643 -0.2366 -3.1608
 8410SOL     OW36862   0.619   0.020  13.746  0.4775  0.0257 -0.4500
 8410SOL    HW136863   0.606   4.671  13.781 -0.9070  0.4699  0.1695
 8410SOL    HW236864   0.707   0.038  13.778 -0.6269  2.3380  1.2612
 8411SOL     OW36865   1.842   0.767   5.081 -0.1930 -0.2850  0.2959
 8411SOL    HW136866   1.929   0.728   5.072  0.0821  0.3387  0.2937
 8411SOL    HW236867   1.877   0.855   5.092  0.6427 -0.7928  1.6692
 8412SOL     OW36868   0.031   3.205   7.616 -0.4902 -1.0151 -0.2118
 8412SOL    HW136869   0.032   3.135   7.681 -0.8571  0.0335  0.9193
 8412SOL    HW236870   0.012   3.277   7.676  1.1122 -0.5522 -0.2593
 8413SOL     OW36871   3.389   3.724   9.971  0.1876  0.0198  0.1720
 8413SOL    HW136872   3.465   3.691  10.018 -1.4472 -3.5474  0.2761
 8413SOL    HW236873   3.411   3.817   9.969 -0.0309  0.1263  2.2497
 8414SOL     OW36874   4.327   0.828   4.309 -0.0345 -0.1090 -0.2547
 8414SOL    HW136875   4.251   0.834   4.251 -1.3381 -1.3889  1.3239
 8414SOL    HW236876   4.370   0.751   4.272  0.8348 -0.5462  1.6566
 8415SOL     OW36877   2.568   1.671   2.106  0.2958  0.2809  0.1635
 8415SOL    HW136878   2.581   1.714   2.191 -0.2410  0.4725  0.1460
 8415SOL    HW236879   2.474   1.679   2.095  0.0797 -1.2427  0.9329
 8416SOL     OW36880   3.693   4.165   5.032  0.7027 -0.3980  0.3269
 8416SOL    HW136881   3.683   4.076   4.998  0.0929  0.3262 -1.3622
 8416SOL    HW236882   3.785   4.185   5.018  0.5744  1.5676  2.2556
 8417SOL     OW36883   1.877   3.456   9.033 -0.0329 -0.3729  0.8620
 8417SOL    HW136884   1.857   3.546   9.008  0.7720  0.3266  2.7016
 8417SOL    HW236885   1.789   3.419   9.034 -0.3830  0.4051 -1.6362
 8418SOL     OW36886   0.436   0.200  11.219  0.1669 -0.6219 -0.2983
 8418SOL    HW136887   0.506   0.191  11.284  1.3069  0.8017 -1.3313
 8418SOL    HW236888   0.432   0.111  11.184  0.2242  0.0703 -2.0621
 8419SOL     OW36889   2.920   3.594   5.224 -0.1269 -0.1288  0.4110
 8419SOL    HW136890   2.981   3.628   5.158 -0.2850 -1.1141 -0.2421
 8419SOL    HW236891   2.868   3.673   5.243 -0.5522  0.0380 -1.4072
 8420SOL     OW36892   3.320   2.538   9.350 -0.0216  0.0504  0.1881
 8420SOL    HW136893   3.275   2.540   9.435  1.3378 -0.0310  0.9257
 8420SOL    HW236894   3.412   2.535   9.375  0.3219 -2.5642 -1.3789
 8421SOL     OW36895   3.813   1.267   3.953 -0.3500  0.3637  0.1448
 8421SOL    HW136896   3.751   1.196   3.938 -1.9176  2.2643 -2.5061
 8421SOL    HW236897   3.787   1.298   4.039  1.7249  0.6626  0.6681
 8422SOL     OW36898   2.905   0.927  12.433 -0.2927  0.4206  0.1071
 8422SOL    HW136899   2.856   0.972  12.502  0.6740  0.3447  0.8436
 8422SOL    HW236900   2.901   0.837  12.465  2.9765  0.8550  1.8163
 8423SOL     OW36901   0.436   3.535   0.153  0.1110 -0.0083  0.1791
 8423SOL    HW136902   0.483   3.543   0.070 -1.7176  2.7734 -0.5613
 8423SOL    HW236903   0.507   3.510   0.213 -1.1390 -3.6137  0.1564
 8424SOL     OW36904   1.165   2.077  10.474 -0.3513 -0.1046  0.0804
 8424SOL    HW136905   1.153   2.132  10.552 -0.6228 -0.6429  0.4191
 8424SOL    HW236906   1.120   1.997  10.500  0.4269 -0.0664  1.5898
 8425SOL     OW36907   1.979   4.294   3.760 -0.0154 -0.4555 -0.2049
 8425SOL    HW136908   1.997   4.343   3.680  1.2507 -1.3583 -0.4653
 8425SOL    HW236909   1.905   4.237   3.737 -0.6004 -0.3451  1.3819
 8426SOL     OW36910   0.506   3.688   0.617 -0.2531  0.3888 -0.1689
 8426SOL    HW136911   0.537   3.776   0.597  0.7136  0.0504 -0.1613
 8426SOL    HW236912   0.587   3.656   0.657 -0.4051  1.7482  1.2109
 8427SOL     OW36913   2.965   1.866  11.161  0.1363 -0.9411  0.0595
 8427SOL    HW136914   3.053   1.900  11.176 -0.5306  0.2949  1.1210
 8427SOL    HW236915   2.920   1.884  11.244  1.7754 -0.0429  0.7638
 8428SOL     OW36916   3.531   2.668   1.235 -0.4461 -0.4902  0.4652
 8428SOL    HW136917   3.504   2.584   1.273  1.8681  0.2374  3.7498
 8428SOL    HW236918   3.618   2.659   1.196 -2.2085 -1.6730 -3.1655
 8429SOL     OW36919   2.129   0.416   1.218 -0.0428  0.1060  0.3006
 8429SOL    HW136920   2.075   0.459   1.285  0.3637  2.1222 -0.6679
 8429SOL    HW236921   2.170   0.356   1.280 -0.1164  1.0355  1.2543
 8430SOL     OW36922   2.373   4.013   2.794  0.2185  0.4378  0.4568
 8430SOL    HW136923   2.459   4.038   2.826 -1.0312  1.9840  2.6642
 8430SOL    HW236924   2.316   4.030   2.869 -0.6796  1.2331 -0.4061
 8431SOL     OW36925   3.268   0.151  16.328 -0.2803  0.1132 -0.1467
 8431SOL    HW136926   3.350   0.174  16.283 -0.5398 -0.1217 -0.7337
 8431SOL    HW236927   3.238   0.242  16.322  0.7399  0.4910  0.3893
 8432SOL     OW36928   2.818   1.370   5.016  0.1115  0.0432 -0.5899
 8432SOL    HW136929   2.846   1.446   5.066 -1.7748 -1.2332  2.4634
 8432SOL    HW236930   2.753   1.401   4.953  0.9064  0.6535 -1.0990
 8433SOL     OW36931   2.505   2.373   8.203 -0.3399  0.6490  0.0260
 8433SOL    HW136932   2.519   2.426   8.125 -1.5354 -0.2381 -0.7934
 8433SOL    HW236933   2.518   2.290   8.157  0.8197  0.6126  0.4214
 8434SOL     OW36934   0.810   0.305   2.649 -0.0550  0.6402  0.1710
 8434SOL    HW136935   0.834   0.358   2.573 -0.0952 -0.5211 -0.6459
 8434SOL    HW236936   0.867   0.229   2.635 -2.0318 -1.2007  2.1388
 8435SOL     OW36937   3.428   3.080   4.609  0.5255 -0.4763 -0.4693
 8435SOL    HW136938   3.407   3.038   4.525 -0.9540  0.2377 -0.4708
 8435SOL    HW236939   3.506   3.130   4.584 -1.0173  1.7141 -0.9509
 8436SOL     OW36940   0.592   0.943  14.655  0.2696 -0.0464  0.0606
 8436SOL    HW136941   0.569   0.893  14.577 -1.9614  1.2810 -0.1190
 8436SOL    HW236942   0.685   0.925  14.641  0.6193  0.9072  1.2077
 8437SOL     OW36943   3.172   0.139  10.355 -0.3645  0.2055  0.1717
 8437SOL    HW136944   3.172   0.054  10.311  0.9258 -0.4195  1.3916
 8437SOL    HW236945   3.124   0.200  10.299  0.0707  0.2437 -0.1573
 8438SOL     OW36946   3.869   3.738   1.753 -0.2696 -0.5688 -0.1515
 8438SOL    HW136947   3.838   3.826   1.774  0.5218 -0.9809  2.7429
 8438SOL    HW236948   3.783   3.698   1.743 -1.2815  1.1958  1.5050
 8439SOL     OW36949   4.074   0.767   0.286 -0.4302 -0.1151  0.8493
 8439SOL    HW136950   4.138   0.784   0.217 -0.4612 -2.2023  0.2971
 8439SOL    HW236951   3.996   0.811   0.253  0.3639 -0.0676 -0.9760
 8440SOL     OW36952   4.668   0.279   3.273  0.0692 -0.2745  0.1877
 8440SOL    HW136953   4.673   0.184   3.278  0.1836 -0.2209  1.0598
 8440SOL    HW236954   4.674   0.307   3.364 -0.0888  0.1184  0.0789
 8441SOL     OW36955   2.267   4.383   2.821  0.1771 -0.7319  0.1810
 8441SOL    HW136956   2.343   4.382   2.879  1.2609 -2.0673 -1.2739
 8441SOL    HW236957   2.214   4.315   2.864 -1.1436 -1.3802 -2.4909
 8442SOL     OW36958   2.938   1.644   8.302 -0.1584  0.1951 -0.0440
 8442SOL    HW136959   2.883   1.718   8.329 -0.6509 -0.4304  0.6421
 8442SOL    HW236960   2.953   1.663   8.209  0.6494 -0.9488 -0.1476
 8443SOL     OW36961   1.281   2.184  14.565  0.1777 -0.2042 -0.2971
 8443SOL    HW136962   1.339   2.203  14.491  0.4796 -1.0191 -0.2669
 8443SOL    HW236963   1.297   2.259  14.622  0.2745  0.3753 -1.0901
 8444SOL     OW36964   3.594   3.641  12.852  0.0827 -0.1568 -0.0685
 8444SOL    HW136965   3.515   3.587  12.856  0.1437 -0.1614  1.1826
 8444SOL    HW236966   3.633   3.594  12.925 -0.6956  1.6700  1.5247
 8445SOL     OW36967   3.961   4.588   3.775  0.9766  0.4112 -0.0741
 8445SOL    HW136968   4.028   4.542   3.826 -0.4356 -0.3624  1.1083
 8445SOL    HW236969   3.888   4.598   3.837  1.1193  0.3293  0.1061
 8446SOL     OW36970   0.632   1.712   2.442 -0.0691  0.3071  0.3145
 8446SOL    HW136971   0.633   1.805   2.462 -4.5307 -0.1948  2.6416
 8446SOL    HW236972   0.628   1.671   2.528  0.3679 -3.0316 -1.2263
 8447SOL     OW36973   2.893   3.860   1.706 -0.2363 -0.2141  0.0763
 8447SOL    HW136974   2.887   3.795   1.636 -3.2811  0.9004 -0.7135
 8447SOL    HW236975   2.970   3.823   1.750 -0.3298  0.3612  0.7190
 8448SOL     OW36976   3.864   3.907   4.979 -0.2783 -0.5756  0.3959
 8448SOL    HW136977   3.840   3.905   4.887 -0.1663 -0.6988  0.3680
 8448SOL    HW236978   3.787   3.861   5.013 -0.0056  0.8887  3.0025
 8449SOL     OW36979   4.412   3.526   3.635 -0.3719  0.8034 -0.6409
 8449SOL    HW136980   4.352   3.478   3.578  1.2112 -0.3774 -1.3349
 8449SOL    HW236981   4.417   3.464   3.707 -1.2261  0.2982 -1.0247
 8450SOL     OW36982   1.909   1.474   1.087 -0.2535 -0.5674  0.2356
 8450SOL    HW136983   1.859   1.554   1.104  0.8779 -0.0285  1.0486
 8450SOL    HW236984   1.959   1.494   1.008  1.0525  0.0563  1.2174
 8451SOL     OW36985   3.136   2.013   6.343 -0.4425 -0.2450  0.4699
 8451SOL    HW136986   3.196   1.939   6.340  0.6763  0.7099 -0.3142
 8451SOL    HW236987   3.155   2.051   6.428 -2.2211 -0.5035  0.9941
 8452SOL     OW36988   0.843   2.487   9.306 -0.6790 -0.5944  0.0231
 8452SOL    HW136989   0.790   2.567   9.314  0.5381  0.2276 -0.0604
 8452SOL    HW236990   0.793   2.414   9.343  0.3463 -1.2546  0.0958
 8453SOL     OW36991   0.909   1.062   5.516 -0.5235 -0.1379  0.4854
 8453SOL    HW136992   0.875   1.148   5.542  1.1767  1.0009 -1.0659
 8453SOL    HW236993   0.824   1.018   5.522  0.0532 -1.3905 -0.5345
 8454SOL     OW36994   0.126   0.840  16.275  0.3343 -0.0788  0.0341
 8454SOL    HW136995   0.174   0.761  16.249 -0.0597 -0.9643  1.9609
 8454SOL    HW236996   0.052   0.834  16.216  0.3876  1.9849 -0.2433
 8455SOL     OW36997   2.019   0.800   7.995 -0.2860  0.0647 -0.1800
 8455SOL    HW136998   2.027   0.862   8.068  0.4423  1.0905 -1.1439
 8455SOL    HW236999   2.069   0.841   7.925 -1.8613 -0.1789 -1.4641
 8456SOL     OW37000   3.147   4.478   7.600  0.0239 -0.3728  0.1379
 8456SOL    HW137001   3.062   4.440   7.624  0.0264  1.4630  3.0718
 8456SOL    HW237002   3.187   4.459   7.685  1.6167  1.4665 -0.1914
 8457SOL     OW37003   0.373   0.244   2.929 -0.4265 -0.0109 -0.8164
 8457SOL    HW137004   0.330   0.289   3.002  0.6526  1.6761 -1.2379
 8457SOL    HW237005   0.435   0.311   2.899  0.9306 -1.5372 -1.4095
 8458SOL     OW37006   4.695   1.770   4.837  0.0535 -0.1033  0.1079
 8458SOL    HW137007   4.627   1.707   4.862 -0.7124  0.6152 -0.1193
 8458SOL    HW237008   4.659   1.856   4.860 -0.7114 -0.1583 -0.8844
 8459SOL     OW37009   2.093   4.317   5.402  0.0185  0.1192 -0.6452
 8459SOL    HW137010   2.111   4.242   5.458  0.1565  0.1690 -0.6239
 8459SOL    HW237011   2.168   4.326   5.342  0.1100  2.1391 -0.2124
 8460SOL     OW37012   2.017   0.259   5.432 -0.1524  0.7159 -0.6147
 8460SOL    HW137013   2.049   0.195   5.369  1.1825 -0.4145  1.2212
 8460SOL    HW237014   2.028   0.222   5.520  1.7358 -0.8178 -1.5298
 8461SOL     OW37015   0.659   1.677   6.816  0.3797 -0.1294  0.2763
 8461SOL    HW137016   0.709   1.618   6.871  1.6918  0.8676  0.1482
 8461SOL    HW237017   0.645   1.756   6.868 -0.3587  0.4615 -0.8178
 8462SOL     OW37018   1.034   3.683   3.315  0.2470 -0.2246  0.2536
 8462SOL    HW137019   0.945   3.648   3.316 -0.4519  1.4849 -0.8743
 8462SOL    HW237020   1.079   3.639   3.386  1.3644  0.5710  0.0400
 8463SOL     OW37021   2.614   0.426   0.351  0.6045 -0.0634  0.4425
 8463SOL    HW137022   2.523   0.441   0.377  0.4562  0.3967 -0.3416
 8463SOL    HW237023   2.629   0.489   0.281  2.3814  0.0615  0.9361
 8464SOL     OW37024   2.674   1.945   3.954 -0.2449 -0.2371  0.2863
 8464SOL    HW137025   2.630   1.869   3.914  0.2248 -0.7204  0.6929
 8464SOL    HW237026   2.594   1.988   3.984  0.5317  1.2137  0.2681
 8465SOL     OW37027   3.683   0.032   2.291 -0.0569  0.1279 -0.1599
 8465SOL    HW137028   3.622   0.015   2.219 -1.0840 -1.3499  1.0466
 8465SOL    HW237029   3.627   0.091   2.343 -2.0517 -1.2303 -0.7444
 8466SOL     OW37030   3.976   0.536   4.342  0.0733 -0.6141 -0.6817
 8466SOL    HW137031   3.975   0.629   4.316  1.1906  0.2086  2.1898
 8466SOL    HW237032   3.909   0.499   4.285  1.0752 -2.5927 -0.5509
 8467SOL     OW37033   1.815   1.637   7.978  0.4178 -0.2675 -0.7548
 8467SOL    HW137034   1.806   1.619   8.071 -2.5829 -1.4291 -1.2815
 8467SOL    HW237035   1.726   1.610   7.956 -0.1956 -0.4397  1.9191
 8468SOL     OW37036   3.516   0.845  12.520 -0.4436 -0.4490 -0.5034
 8468SOL    HW137037   3.425   0.818  12.533  0.0594 -1.7313  0.3236
 8468SOL    HW237038   3.507   0.853  12.425  0.6669  2.4246 -0.3619
 8469SOL     OW37039   1.691   4.145   7.642  0.0207  0.0750 -0.7065
 8469SOL    HW137040   1.670   4.221   7.695 -1.8137 -0.9894  0.0938
 8469SOL    HW237041   1.786   4.136   7.654  0.1605  1.5704 -0.7196
 8470SOL     OW37042   1.230   1.559   8.007 -0.3182 -0.3625 -0.1121
 8470SOL    HW137043   1.247   1.527   8.095 -0.2552 -1.6094 -0.5876
 8470SOL    HW237044   1.298   1.625   7.990 -0.2811  0.5507  3.5575
 8471SOL     OW37045   1.432   2.495   8.476 -0.5697  0.6392  0.3015
 8471SOL    HW137046   1.401   2.532   8.558  2.4914 -2.2555  2.7607
 8471SOL    HW237047   1.483   2.569   8.443 -1.0496  0.9349  0.2135
 8472SOL     OW37048   1.539   4.344   0.028  0.2462  0.2139 -0.2265
 8472SOL    HW137049   1.567   4.372  17.696 -0.2479 -1.4013 -0.9219
 8472SOL    HW237050   1.574   4.422   0.071  1.7396 -0.6232  0.0743
 8473SOL     OW37051   2.891   1.384   2.312  0.3514  0.1474 -0.3726
 8473SOL    HW137052   2.917   1.462   2.262  2.1269 -0.1309  0.1237
 8473SOL    HW237053   2.969   1.330   2.312  1.3680  1.6235  0.7095
 8474SOL     OW37054   0.266   3.214   4.052  0.2445  0.1418  0.6417
 8474SOL    HW137055   0.188   3.178   4.008  1.2171 -0.7731 -0.3177
 8474SOL    HW237056   0.232   3.229   4.140 -0.9549 -0.5140  0.2930
 8475SOL     OW37057   4.537   0.042   5.888  0.6060 -0.0334  0.0998
 8475SOL    HW137058   4.508   0.114   5.832  3.6966  0.0475 -1.4321
 8475SOL    HW237059   4.511   0.061   5.978  1.0279 -1.1168  0.4504
 8476SOL     OW37060   0.743   4.135  16.201  0.6134 -0.1721  0.5527
 8476SOL    HW137061   0.652   4.147  16.173  0.7917  0.2089  0.1355
 8476SOL    HW237062   0.766   4.056  16.152  1.8538  0.9604 -0.6733
 8477SOL     OW37063   1.860   2.148   4.593  0.0729  0.0973 -1.3342
 8477SOL    HW137064   1.942   2.109   4.561 -0.0293  1.2965 -3.0522
 8477SOL    HW237065   1.795   2.100   4.541 -1.0396  0.2497 -0.0733
 8478SOL     OW37066   0.423   2.277   6.725  0.3802 -0.1332  0.2584
 8478SOL    HW137067   0.416   2.306   6.816  0.6814  0.9386 -0.0568
 8478SOL    HW237068   0.341   2.228   6.725 -0.2585  0.9295  0.9313
 8479SOL     OW37069   2.141   4.050   4.346 -0.0774  0.3064 -0.4936
 8479SOL    HW137070   2.048   4.048   4.368 -0.6637 -0.3107 -2.9928
 8479SOL    HW237071   2.145   4.003   4.263 -0.5336 -0.6382  0.0086
 8480SOL     OW37072   1.796   2.153  13.684  0.0479 -0.5859  0.0095
 8480SOL    HW137073   1.797   2.072  13.634  0.5018  0.5747 -1.8582
 8480SOL    HW237074   1.740   2.131  13.758  0.5732  1.3844  1.0173
 8481SOL     OW37075   3.106   1.632   3.843  0.4463  0.1978  0.1786
 8481SOL    HW137076   3.153   1.705   3.884 -0.0783 -0.0601  1.2355
 8481SOL    HW237077   3.022   1.672   3.820 -0.6198 -1.5104  1.0882
 8482SOL     OW37078   1.535   4.221   5.601 -0.2176 -0.5508 -0.3358
 8482SOL    HW137079   1.514   4.217   5.694 -0.4909  0.0915 -0.3659
 8482SOL    HW237080   1.461   4.176   5.561  0.8486  0.0718 -3.0185
 8483SOL     OW37081   0.270   1.431   8.335  0.0592  0.3779  0.1890
 8483SOL    HW137082   0.354   1.467   8.306  0.4819 -0.7422  0.0082
 8483SOL    HW237083   0.206   1.495   8.302 -2.7482 -2.4153  0.2387
 8484SOL     OW37084   3.684   1.435   4.969  0.1512  0.2843  0.6041
 8484SOL    HW137085   3.719   1.412   4.883  0.6565  2.8034  0.1466
 8484SOL    HW237086   3.759   1.419   5.026 -0.6830 -0.3855  1.5141
 8485SOL     OW37087   0.214   1.472   7.884  0.1687  0.2100  0.1938
 8485SOL    HW137088   0.203   1.377   7.882  0.7026  0.1542 -0.1168
 8485SOL    HW237089   0.124   1.500   7.865 -0.0352 -1.5047 -1.3295
 8486SOL     OW37090   2.182   3.760   1.798  0.6243 -0.4284 -0.0928
 8486SOL    HW137091   2.133   3.763   1.880  1.3154  0.5037  0.2867
 8486SOL    HW237092   2.150   3.843   1.762  1.0374 -0.7231 -1.1390
 8487SOL     OW37093   0.558   1.473  14.373  0.4332 -0.1098 -0.1385
 8487SOL    HW137094   0.614   1.549  14.392 -0.5511  0.7998 -0.8393
 8487SOL    HW237095   0.472   1.515  14.386  0.3144 -1.3598  3.1543
 8488SOL     OW37096   1.867   2.083   2.279 -0.1174  0.5423  0.7510
 8488SOL    HW137097   1.790   2.055   2.230  1.3480 -0.1146 -1.1961
 8488SOL    HW237098   1.854   2.058   2.370  1.4782  0.0579  0.8505
 8489SOL     OW37099   0.097   3.823   7.299 -0.0497  0.0847 -0.0055
 8489SOL    HW137100   0.063   3.868   7.376  1.8565 -0.1636  0.9877
 8489SOL    HW237101   0.183   3.866   7.296  0.2482 -0.5307 -0.4032
 8490SOL     OW37102   4.110   0.195   6.686  0.0100 -0.3402  0.0811
 8490SOL    HW137103   4.184   0.142   6.657 -1.0114 -2.3974  1.2347
 8490SOL    HW237104   4.131   0.233   6.771 -0.2156  0.0966 -0.0527
 8491SOL     OW37105   3.509   0.359   7.666 -0.1885 -0.6588 -0.0083
 8491SOL    HW137106   3.451   0.287   7.690  0.7971 -1.0740  1.1211
 8491SOL    HW237107   3.455   0.417   7.613 -0.8635 -2.7178 -1.5612
 8492SOL     OW37108   2.861   0.088   7.964 -0.5114 -0.5681  0.2681
 8492SOL    HW137109   2.816   0.172   7.976  1.7449  0.3935  2.0887
 8492SOL    HW237110   2.801   0.042   7.906 -1.5739  1.2949 -0.1190
 8493SOL     OW37111   0.655   3.246   5.554 -0.5760  0.1885 -0.2649
 8493SOL    HW137112   0.745   3.231   5.583 -0.8332 -1.7726 -0.5396
 8493SOL    HW237113   0.678   3.312   5.488 -2.0202  2.4205  1.4720
 8494SOL     OW37114   3.490   4.491   7.947 -0.1207  0.4287  0.2220
 8494SOL    HW137115   3.569   4.510   7.996  0.3812 -0.5125 -0.2155
 8494SOL    HW237116   3.434   4.562   7.979 -1.9390  0.0498 -2.0812
 8495SOL     OW37117   4.001   2.757   0.448 -0.3731 -0.0927  0.0217
 8495SOL    HW137118   4.071   2.804   0.493  0.8401  0.9480 -2.9601
 8495SOL    HW237119   3.978   2.828   0.388 -2.4647 -1.7632 -1.1373
 8496SOL     OW37120   3.418   1.280   1.699  0.2328 -0.4438 -0.2714
 8496SOL    HW137121   3.395   1.371   1.714  2.4605  0.0606  0.1906
 8496SOL    HW237122   3.372   1.254   1.619  0.9401  1.0493 -1.1476
 8497SOL     OW37123   4.223   0.764   1.769 -0.1802 -1.2198  0.8179
 8497SOL    HW137124   4.286   0.724   1.830 -0.1579 -1.6539  0.5085
 8497SOL    HW237125   4.249   0.855   1.783 -1.5302 -0.5121 -1.3181
 8498SOL     OW37126   4.234   0.490   4.210  0.2291 -0.3638  0.0934
 8498SOL    HW137127   4.182   0.421   4.168 -0.4305  0.4671 -0.4626
 8498SOL    HW237128   4.155   0.535   4.242 -0.4398 -0.5925 -1.2275
 8499SOL     OW37129   1.465   3.204   4.403 -0.7058  0.6237 -0.5244
 8499SOL    HW137130   1.549   3.235   4.368 -0.9026  1.1071 -0.5668
 8499SOL    HW237131   1.436   3.275   4.460 -0.1497  0.6251 -0.2489
 8500SOL     OW37132   0.575   2.804  11.849  0.0145 -0.7545  0.0924
 8500SOL    HW137133   0.511   2.764  11.790  0.7444 -0.2730 -1.0185
 8500SOL    HW237134   0.652   2.818  11.793 -0.6328 -0.3770 -0.7131
 8501SOL     OW37135   3.992   2.162   2.452 -0.1041  0.0909 -0.2262
 8501SOL    HW137136   4.086   2.141   2.451 -0.2266 -0.6918  3.1930
 8501SOL    HW237137   3.947   2.107   2.516 -1.6098 -0.5712 -1.8657
 8502SOL     OW37138   0.045   0.783  17.636 -0.0266 -0.1819  0.0277
 8502SOL    HW137139   0.026   0.874  17.658 -0.8234 -0.4763  0.5541
 8502SOL    HW237140   0.053   0.742  17.722 -0.1343  0.3381  0.2836
 8503SOL     OW37141   3.167   3.229   6.029  0.1234 -0.3211 -0.1975
 8503SOL    HW137142   3.136   3.155   6.080 -0.5296  0.0698 -0.0365
 8503SOL    HW237143   3.262   3.219   6.033 -0.1362 -1.4552  2.5639
 8504SOL     OW37144   3.355   3.999   3.401 -0.0687 -0.1972 -0.1261
 8504SOL    HW137145   3.334   3.938   3.472 -0.5063 -0.1864 -0.2457
 8504SOL    HW237146   3.450   4.007   3.409  0.2585 -1.9588 -2.2311
 8505SOL     OW37147   3.113   1.876  17.750 -0.1188  0.2739  0.1787
 8505SOL    HW137148   3.198   1.866  17.707 -0.5124  0.1699 -0.5569
 8505SOL    HW237149   3.081   1.787  17.740 -0.3917  0.4688 -0.6863
 8506SOL     OW37150   3.001   2.677   5.361  0.9469  0.2499 -0.1608
 8506SOL    HW137151   2.957   2.743   5.415 -1.2209 -1.7044  0.5188
 8506SOL    HW237152   2.943   2.601   5.359  0.3840  0.6604  0.3719
 8507SOL     OW37153   4.554   0.555   6.930  0.0721 -0.2981 -0.1559
 8507SOL    HW137154   4.527   0.519   7.014 -0.5535 -3.0757 -1.5155
 8507SOL    HW237155   4.646   0.575   6.949 -0.0987  0.0357  0.3035
 8508SOL     OW37156   3.999   1.485  15.715 -0.3908  0.2705  0.0585
 8508SOL    HW137157   4.005   1.510  15.622  0.2139 -1.4138 -0.3523
 8508SOL    HW237158   3.910   1.451  15.718  0.5713 -2.0843  1.1539
 8509SOL     OW37159   4.705   0.943   1.677  0.0218 -0.3010 -0.0044
 8509SOL    HW137160   0.049   0.962   1.718 -0.4782  0.8471  0.4780
 8509SOL    HW237161   4.692   0.848   1.673  0.0507 -0.2619 -1.1308
 8510SOL     OW37162   1.424   1.040   8.688  0.3024  0.1387  0.1863
 8510SOL    HW137163   1.510   1.037   8.730 -0.2990 -1.2641  1.2832
 8510SOL    HW237164   1.452   1.004   8.604 -2.6380 -0.6464 -0.4455
 8511SOL     OW37165   1.942   2.436   7.405  0.6770  0.0346  0.1041
 8511SOL    HW137166   1.996   2.505   7.443  1.6313 -1.4365  1.4656
 8511SOL    HW237167   1.957   2.365   7.468  0.1346 -1.0331 -0.9524
 8512SOL     OW37168   1.782   4.135  14.622 -0.4265 -0.1265  0.4101
 8512SOL    HW137169   1.858   4.188  14.644 -0.9652  1.5122 -1.7203
 8512SOL    HW237170   1.809   4.113  14.533  0.6422 -0.3732  0.8044
 8513SOL     OW37171   3.364   4.319   7.438  0.2635 -0.2530 -0.5213
 8513SOL    HW137172   3.294   4.288   7.496 -0.0385  0.1315 -0.6750
 8513SOL    HW237173   3.408   4.375   7.501 -1.1840  0.3849 -0.0720
 8514SOL     OW37174   0.408   0.630   8.303 -0.2342 -0.1000  0.3807
 8514SOL    HW137175   0.442   0.558   8.357  0.5500 -0.3441 -0.4354
 8514SOL    HW237176   0.385   0.693   8.371 -2.4222 -0.9419  0.4024
 8515SOL     OW37177   2.658   1.981   6.839  0.3452  0.1779  0.3460
 8515SOL    HW137178   2.687   1.984   6.748  1.9505  1.5098  0.9008
 8515SOL    HW237179   2.579   1.929   6.822 -0.3057  1.3679 -0.2846
 8516SOL     OW37180   1.959   3.390  15.979 -0.3181 -0.4033  0.2000
 8516SOL    HW137181   1.996   3.446  16.047 -0.8392 -0.2087  0.3281
 8516SOL    HW237182   1.942   3.306  16.022  1.0203 -1.3786 -1.1947
 8517SOL     OW37183   2.512   1.634   1.695 -0.0624  0.0559 -0.2560
 8517SOL    HW137184   2.517   1.674   1.608 -1.7539 -2.1334 -1.3371
 8517SOL    HW237185   2.441   1.678   1.741 -0.8326  0.0204 -1.4226
 8518SOL     OW37186   1.900   1.894   8.261  0.1131 -0.1511 -0.3450
 8518SOL    HW137187   1.834   1.882   8.192  0.8178 -4.6795 -0.2536
 8518SOL    HW237188   1.967   1.950   8.221 -1.1994  1.6646  0.0114
 8519SOL     OW37189   1.973   4.540  10.896 -0.4162  1.0704  0.2675
 8519SOL    HW137190   1.925   4.559  10.815 -0.2389  2.6356  0.5204
 8519SOL    HW237191   2.017   4.624  10.911  1.0982  0.5798 -1.4169
 8520SOL     OW37192   0.087   0.018   8.787  0.2657 -0.5410 -0.1154
 8520SOL    HW137193   0.031   4.723   8.857 -1.0283  2.7936  0.5079
 8520SOL    HW237194   0.159   0.054   8.840 -1.1498 -0.1426  1.5436
 8521SOL     OW37195   2.920   2.787  16.635  0.3493  0.1128  0.2605
 8521SOL    HW137196   2.875   2.840  16.570 -0.3773 -1.2885 -0.3820
 8521SOL    HW237197   2.994   2.760  16.581 -0.1727  0.8446 -0.8142
 8522SOL     OW37198   3.545   0.950   1.662  0.8213 -0.0556  0.3504
 8522SOL    HW137199   3.598   0.943   1.583  1.5265 -2.1003  0.9996
 8522SOL    HW237200   3.580   0.879   1.716  1.0128  0.7293  1.2731
 8523SOL     OW37201   2.995   4.086  12.095  0.1381 -0.2204 -0.1918
 8523SOL    HW137202   2.924   4.147  12.074  1.8343  1.5585 -0.7607
 8523SOL    HW237203   3.037   4.132  12.167  0.5115  0.7702 -1.0425
 8524SOL     OW37204   4.123   0.752   6.205  0.2525 -0.5826 -0.3727
 8524SOL    HW137205   4.056   0.684   6.195  0.8367 -1.5025  2.0115
 8524SOL    HW237206   4.195   0.708   6.161  0.3626 -1.3008  0.5178
 8525SOL     OW37207   2.268   1.170   7.187  0.1718  0.0544  0.3429
 8525SOL    HW137208   2.310   1.149   7.270 -1.5769  0.5642  1.3528
 8525SOL    HW237209   2.201   1.235   7.208  1.5347  1.2891  0.9047
 8526SOL     OW37210   4.638   0.711   3.802 -0.1543  0.4461  0.4111
 8526SOL    HW137211   4.583   0.744   3.731 -1.3085 -3.5976 -0.5552
 8526SOL    HW237212   4.728   0.713   3.769 -0.5340 -0.8782 -0.6820
 8527SOL     OW37213   2.866   1.042   1.382  0.4880 -0.2269  0.4538
 8527SOL    HW137214   2.961   1.052   1.372  0.3308 -0.0490 -0.8210
 8527SOL    HW237215   2.851   0.970   1.320  0.1096  0.4242 -0.2079
 8528SOL     OW37216   0.095   0.974   2.368  0.6097 -0.1663 -0.2385
 8528SOL    HW137217   0.169   1.002   2.421 -0.0874  1.1467  0.0485
 8528SOL    HW237218   0.091   1.043   2.302 -0.5385 -0.0851 -0.0814
 8529SOL     OW37219   0.340   3.092   1.003  0.1610 -0.1729  0.5236
 8529SOL    HW137220   0.374   3.153   0.938 -1.1463  1.5931  1.4904
 8529SOL    HW237221   0.272   3.040   0.959  0.8899 -0.7107  0.0482
 8530SOL     OW37222   2.130   4.640  17.269 -0.1318  0.5100  0.7926
 8530SOL    HW137223   2.086   4.574  17.323 -0.4562  1.5201  1.7562
 8530SOL    HW237224   2.057   4.687  17.228 -2.7601 -1.9690  2.5790
 8531SOL     OW37225   1.296   1.839   5.207 -0.0258 -0.2928 -0.4906
 8531SOL    HW137226   1.315   1.912   5.267  0.4150 -0.9145  0.1317
 8531SOL    HW237227   1.347   1.858   5.129  2.0658 -1.1353  0.6647
 8532SOL     OW37228   2.386   2.782   7.608 -0.1505  0.0718 -0.1492
 8532SOL    HW137229   2.474   2.819   7.601  0.2264 -0.6965  0.5698
 8532SOL    HW237230   2.371   2.806   7.700  2.1069 -1.4958  0.6124
 8533SOL     OW37231   3.673   1.267   1.744  0.1101 -0.0332  0.2103
 8533SOL    HW137232   3.702   1.244   1.656 -0.3928  0.6371 -0.1326
 8533SOL    HW237233   3.579   1.274   1.726  0.1711 -0.3630 -0.2495
 8534SOL     OW37234   3.614   3.749   9.021 -0.2094  0.2005 -0.1273
 8534SOL    HW137235   3.692   3.693   9.017 -1.2204 -1.1272 -1.5622
 8534SOL    HW237236   3.568   3.709   9.095 -1.0666  1.9972  0.3139
 8535SOL     OW37237   4.122   4.193   3.039  0.5885 -0.0443 -0.2067
 8535SOL    HW137238   4.170   4.239   3.109 -1.9903  1.0862  0.8115
 8535SOL    HW237239   4.110   4.102   3.067  2.9498 -0.0162  0.9605
 8536SOL     OW37240   1.822   0.680   6.319  0.0596  0.4638  0.1175
 8536SOL    HW137241   1.735   0.666   6.356 -1.0280 -1.3687 -3.1124
 8536SOL    HW237242   1.801   0.654   6.230 -0.3296  0.9463  0.0725
 8537SOL     OW37243   4.301   4.392   8.196  0.5233 -0.3348 -0.2442
 8537SOL    HW137244   4.288   4.397   8.291  2.2658  1.0703 -0.0841
 8537SOL    HW237245   4.252   4.317   8.162 -0.3619 -0.6884  1.8215
 8538SOL     OW37246   1.775   4.280  11.326 -0.3960 -0.2670  0.1512
 8538SOL    HW137247   1.838   4.254  11.259 -1.1520  1.2356 -1.1370
 8538SOL    HW237248   1.830   4.283  11.404  3.6904  0.4848 -2.8005
 8539SOL     OW37249   3.696   2.194  14.656 -0.4380 -0.0291 -0.9865
 8539SOL    HW137250   3.741   2.124  14.704  0.2642  0.3004 -1.1532
 8539SOL    HW237251   3.762   2.263  14.654 -0.4506 -0.0299 -1.6151
 8540SOL     OW37252   1.028   2.850   4.279 -0.0750 -0.2330 -0.6607
 8540SOL    HW137253   0.998   2.763   4.306  0.4523 -0.2551 -0.1519
 8540SOL    HW237254   0.982   2.911   4.336 -1.1193  0.7618 -2.5592
 8541SOL     OW37255   2.017   2.473  13.365  0.3706 -0.1989  0.2461
 8541SOL    HW137256   1.958   2.407  13.328 -0.6515  1.5595 -1.2533
 8541SOL    HW237257   2.047   2.520  13.288  1.7650 -0.2706  0.7379
 8542SOL     OW37258   2.725   3.955   2.375  0.7334  0.0133 -0.2561
 8542SOL    HW137259   2.643   3.909   2.394  0.6919 -0.3409 -1.3223
 8542SOL    HW237260   2.790   3.886   2.387  2.4185  1.9785  1.9783
 8543SOL     OW37261   3.168   0.388   4.734 -0.4314 -0.5939  0.6518
 8543SOL    HW137262   3.200   0.472   4.766  0.3000 -0.5383 -0.2199
 8543SOL    HW237263   3.252   0.342   4.729  0.0890  0.6967 -2.2573
 8544SOL     OW37264   2.472   2.158  13.528 -0.3799  0.0685  0.5341
 8544SOL    HW137265   2.501   2.207  13.451  0.0399 -3.4410 -1.5433
 8544SOL    HW237266   2.453   2.229  13.589 -2.6627 -0.1794  0.1188
 8545SOL     OW37267   0.577   3.462   8.995 -0.0387 -0.3259 -0.3010
 8545SOL    HW137268   0.554   3.373   8.970  0.5547 -0.2407 -1.1476
 8545SOL    HW237269   0.546   3.518   8.923 -1.6703  1.2655  1.6215
 8546SOL     OW37270   3.277   1.897  14.629  0.3890 -0.4864  0.4141
 8546SOL    HW137271   3.312   1.808  14.631  2.1618  0.1883 -0.8803
 8546SOL    HW237272   3.356   1.949  14.615  0.4580 -0.9117 -0.8228
 8547SOL     OW37273   4.679   3.301   2.047 -0.0824 -0.6690 -0.1101
 8547SOL    HW137274   0.006   3.305   1.978  2.5329 -1.9307  2.3526
 8547SOL    HW237275   4.660   3.394   2.057  2.3903 -0.2093  0.3960
 8548SOL     OW37276   2.970   4.401   5.895 -0.1340  0.3330  0.1858
 8548SOL    HW137277   2.896   4.457   5.916 -0.4363  0.1967 -0.5306
 8548SOL    HW237278   2.956   4.331   5.959  0.5089  0.4665  0.4726
 8549SOL     OW37279   2.983   3.870  14.335 -0.6065 -0.4813 -1.0312
 8549SOL    HW137280   3.059   3.812  14.342 -0.5651 -0.5303 -1.8870
 8549SOL    HW237281   3.011   3.954  14.371  0.3664 -0.9610 -0.6534
 8550SOL     OW37282   0.576   0.158   4.864  0.3810 -0.5561 -0.1035
 8550SOL    HW137283   0.573   0.155   4.769 -1.3250 -0.6622 -0.0571
 8550SOL    HW237284   0.506   0.217   4.895  1.3665  2.0481 -2.8706
 8551SOL     OW37285   3.207   1.493   1.998 -0.3626  0.1501 -0.1996
 8551SOL    HW137286   3.181   1.424   1.936 -1.5922  0.4037  0.0313
 8551SOL    HW237287   3.198   1.451   2.084 -0.6507  1.0805  0.2194
 8552SOL     OW37288   2.331   2.974  10.058 -0.5744  0.1799  0.0253
 8552SOL    HW137289   2.302   3.058  10.023 -1.1222  0.4990  1.2596
 8552SOL    HW237290   2.376   2.998  10.138 -0.2299 -0.2812 -0.0277
 8553SOL     OW37291   4.247   3.225   8.477  0.6169  0.4088 -0.3531
 8553SOL    HW137292   4.272   3.303   8.429 -0.5938 -0.3543 -2.2255
 8553SOL    HW237293   4.172   3.264   8.521  0.0526 -1.7495  0.6042
 8554SOL     OW37294   0.376   4.586   6.321  0.6405  0.0975  0.3014
 8554SOL    HW137295   0.285   4.594   6.295  0.1826  0.2290  1.9090
 8554SOL    HW237296   0.368   4.541   6.405  1.0016 -0.3278  0.1054
 8555SOL     OW37297   2.198   1.049   8.399  0.0302  0.3221 -0.2174
 8555SOL    HW137298   2.118   1.048   8.451  0.9277 -0.8228  1.1427
 8555SOL    HW237299   2.237   1.133   8.425 -1.2058 -0.0330  2.7673
 8556SOL     OW37300   4.326   1.230   1.955 -0.0178  0.3514  0.3071
 8556SOL    HW137301   4.303   1.323   1.953 -1.4821 -0.0184 -0.4483
 8556SOL    HW237302   4.401   1.234   2.014 -0.0178  1.1171  0.2529
 8557SOL     OW37303   2.789   3.501   3.502  0.4822  0.5950  0.2638
 8557SOL    HW137304   2.820   3.591   3.505 -0.0573  0.7491  1.2856
 8557SOL    HW237305   2.870   3.456   3.479 -0.7775 -2.6115  1.9432
 8558SOL     OW37306   4.608   1.696   3.859 -0.1805 -0.2990 -0.2884
 8558SOL    HW137307   4.550   1.708   3.783 -0.3975 -2.5767 -0.4915
 8558SOL    HW237308   4.556   1.626   3.899 -0.9708 -0.7353 -2.0326
 8559SOL     OW37309   2.571   1.419  12.110 -0.6913 -0.5254 -0.3274
 8559SOL    HW137310   2.608   1.355  12.171  0.0967 -1.5473 -1.9060
 8559SOL    HW237311   2.486   1.407  12.152 -0.9097  1.6766 -0.1240
 8560SOL     OW37312   1.970   2.698  12.044  0.0035 -0.0474 -0.0651
 8560SOL    HW137313   1.959   2.604  12.055 -2.6477  0.2750  0.0753
 8560SOL    HW237314   2.004   2.732  12.127  1.9966 -1.9273 -0.1392
 8561SOL     OW37315   4.077   1.053   4.210  0.8247 -0.1275  0.6661
 8561SOL    HW137316   4.151   1.102   4.175 -1.9632  2.7240 -1.2275
 8561SOL    HW237317   4.005   1.116   4.203  0.8272  0.0843  2.4564
 8562SOL     OW37318   4.054   3.228  14.971 -0.2288 -0.3016 -0.1843
 8562SOL    HW137319   3.964   3.197  14.959 -0.4844 -0.0808  1.1378
 8562SOL    HW237320   4.088   3.146  15.006 -0.2467 -0.2148  0.0317
 8563SOL     OW37321   3.940   2.893  17.326 -0.3674 -0.0513 -0.1723
 8563SOL    HW137322   3.899   2.815  17.288  0.7425 -0.9621  0.5037
 8563SOL    HW237323   3.941   2.948  17.248 -0.0955  0.6963  0.3564
 8564SOL     OW37324   2.472   4.318   3.448 -1.0257 -0.2348 -0.0923
 8564SOL    HW137325   2.459   4.225   3.468  0.5184 -0.2296  0.9306
 8564SOL    HW237326   2.567   4.334   3.449 -1.2953  1.3298 -0.5209
 8565SOL     OW37327   2.844   0.672   2.322 -0.0233 -0.1899  0.5709
 8565SOL    HW137328   2.778   0.623   2.272  1.5274  0.4129 -2.0709
 8565SOL    HW237329   2.918   0.621   2.290 -0.3993 -0.2855 -0.1575
 8566SOL     OW37330   0.202   3.427   3.835 -0.5642 -0.4300 -0.6037
 8566SOL    HW137331   0.162   3.377   3.764  1.6305 -0.1114 -2.0525
 8566SOL    HW237332   0.242   3.354   3.882  1.2113 -1.5955 -3.8973
 8567SOL     OW37333   4.516   1.180   5.682 -0.1092  0.4008 -0.4987
 8567SOL    HW137334   4.478   1.267   5.685 -0.4115  0.2499 -0.0520
 8567SOL    HW237335   4.530   1.161   5.589 -1.6055 -3.5353  0.0476
 8568SOL     OW37336   4.140   4.034   8.023  0.1014 -0.2162  0.6019
 8568SOL    HW137337   4.206   4.052   7.956 -0.1686 -0.1294  0.3580
 8568SOL    HW237338   4.165   4.088   8.098  0.2326 -0.2059  0.5500
 8569SOL     OW37339   4.129   3.690  15.547 -0.0927  0.0921  0.0753
 8569SOL    HW137340   4.132   3.747  15.469  1.2334  2.7584  2.0425
 8569SOL    HW237341   4.201   3.632  15.521 -0.0193  1.5588 -3.1035
 8570SOL     OW37342   3.314   0.614   8.892  0.2680 -0.1424 -0.5074
 8570SOL    HW137343   3.316   0.562   8.973 -0.9547 -1.8316 -1.5669
 8570SOL    HW237344   3.385   0.571   8.844  0.3228  0.7260 -1.1867
 8571SOL     OW37345   0.941   0.639   6.718 -0.3628 -0.0506 -0.0725
 8571SOL    HW137346   1.013   0.621   6.659 -0.2412 -0.6485  0.2554
 8571SOL    HW237347   0.861   0.635   6.666 -1.3439  1.3055  1.3273
 8572SOL     OW37348   1.642   4.683   8.345 -0.1192  0.0423 -0.0042
 8572SOL    HW137349   1.701   4.677   8.269  1.3035  2.1052  0.9389
 8572SOL    HW237350   1.667   0.032   8.370  0.6819 -0.5412  1.2856
 8573SOL     OW37351   2.573   2.557   5.649 -0.2950 -0.5526  0.2333
 8573SOL    HW137352   2.558   2.648   5.625 -1.0365 -0.7256  0.0285
 8573SOL    HW237353   2.641   2.573   5.714 -0.2978 -0.1627  0.1356
 8574SOL     OW37354   2.728   1.492   1.603  0.6154 -0.3167  0.0835
 8574SOL    HW137355   2.659   1.538   1.651  0.6062 -0.9469  0.6623
 8574SOL    HW237356   2.800   1.553   1.615  0.2940  0.5187 -2.1960
 8575SOL     OW37357   1.997   2.964  11.677  0.0169  0.4055 -0.7752
 8575SOL    HW137358   2.069   2.914  11.714 -1.6383 -1.4568 -0.0457
 8575SOL    HW237359   1.950   2.894  11.631 -0.4702 -0.2118  0.6596
 8576SOL     OW37360   4.403   2.706   3.559  0.6615 -0.3139  0.0844
 8576SOL    HW137361   4.440   2.685   3.473 -1.6248 -2.9000 -0.2626
 8576SOL    HW237362   4.404   2.617   3.595  0.5102 -0.0466  0.7613
 8577SOL     OW37363   4.542   0.771   3.561  0.4987  0.3150 -0.7529
 8577SOL    HW137364   4.539   0.862   3.533 -0.8445  0.4909 -0.0212
 8577SOL    HW237365   4.451   0.747   3.544  0.3353  1.5735 -1.6243
 8578SOL     OW37366   0.939   0.903  14.920 -0.5223 -0.2717 -0.2557
 8578SOL    HW137367   1.011   0.956  14.886 -1.7590  0.7617 -1.2094
 8578SOL    HW237368   0.899   0.860  14.845 -0.1260  0.6380 -0.9801
 8579SOL     OW37369   1.332   4.681   2.130  0.0146 -0.2805  0.0709
 8579SOL    HW137370   1.314   4.725   2.046  1.6011 -3.1355 -1.7577
 8579SOL    HW237371   1.332   4.591   2.097 -1.6006 -0.0804 -0.4594
 8580SOL     OW37372   3.303   1.724  17.177 -0.2778  0.1896  0.1023
 8580SOL    HW137373   3.209   1.711  17.169 -0.2654 -1.1776  2.0768
 8580SOL    HW237374   3.306   1.819  17.179  5.6248  0.0108  0.3258
 8581SOL     OW37375   1.391   1.314  14.971 -0.6031 -0.9274 -0.4614
 8581SOL    HW137376   1.362   1.296  14.882  1.2390  0.2180 -1.3068
 8581SOL    HW237377   1.457   1.383  14.960  1.3898 -3.0721 -2.1371
 8582SOL     OW37378   0.053   3.453  15.362  0.0762  0.1204 -0.3325
 8582SOL    HW137379   0.050   3.514  15.435 -2.1143  0.1128 -0.4164
 8582SOL    HW237380   0.131   3.487  15.316 -0.1375 -0.7637 -1.3482
 8583SOL     OW37381   4.206   2.515   6.903  0.4132  0.3540  0.0902
 8583SOL    HW137382   4.171   2.428   6.885 -0.1811  0.8623 -1.2038
 8583SOL    HW237383   4.300   2.506   6.884 -0.1770  0.6616 -2.9406
 8584SOL     OW37384   4.126   3.632   1.417  0.2400  0.1702 -0.1335
 8584SOL    HW137385   4.098   3.714   1.459 -0.8502  0.4536 -1.4180
 8584SOL    HW237386   4.114   3.662   1.327  0.7076 -0.0987 -0.2812
 8585SOL     OW37387   1.971   2.848   8.728  0.1022 -0.3869 -0.0295
 8585SOL    HW137388   2.065   2.855   8.744  0.2206 -0.9091 -0.5337
 8585SOL    HW237389   1.984   2.842   8.634  0.5674  0.9189 -0.0558
 8586SOL     OW37390   1.713   0.880   6.905 -0.0496 -0.3401 -0.0364
 8586SOL    HW137391   1.678   0.850   6.821  0.0336 -0.1666 -0.1333
 8586SOL    HW237392   1.799   0.915   6.881  0.3479  0.4676  2.5448
 8587SOL     OW37393   3.733   0.124   9.165 -0.2205  0.2466 -0.1228
 8587SOL    HW137394   3.764   0.034   9.160 -0.6023  0.1103 -0.0314
 8587SOL    HW237395   3.654   0.123   9.219  0.9687 -0.5813  1.5890
 8588SOL     OW37396   4.413   2.597   9.767 -0.4512  0.2393 -0.2993
 8588SOL    HW137397   4.449   2.626   9.684 -0.1910 -2.1062 -0.9967
 8588SOL    HW237398   4.482   2.604   9.833 -0.6290 -3.2665  0.2420
 8589SOL     OW37399   4.605   4.447   8.562  0.8442  0.3352  0.0202
 8589SOL    HW137400   4.656   4.384   8.612  0.8321  1.6042  1.6456
 8589SOL    HW237401   4.635   4.418   8.476  1.2739  1.1293 -0.0980
 8590SOL     OW37402   2.548   2.775  10.417  0.6115  0.2808  0.4415
 8590SOL    HW137403   2.538   2.731  10.332  1.6599 -2.0656  1.5238
 8590SOL    HW237404   2.569   2.702  10.476 -3.0789  2.8221  4.8385
 8591SOL     OW37405   2.638   3.782   1.045 -0.1783  0.7120 -0.2066
 8591SOL    HW137406   2.633   3.876   1.027  0.6716  0.4698 -1.7611
 8591SOL    HW237407   2.557   3.782   1.096 -0.5700 -0.2411 -0.8291
 8592SOL     OW37408   4.515   4.601   2.670  0.0016  0.5830  0.6800
 8592SOL    HW137409   4.459   4.653   2.613 -0.4066  1.6519  2.0642
 8592SOL    HW237410   4.570   4.568   2.599 -1.8669 -1.9828  0.4241
 8593SOL     OW37411   3.212   2.681   4.716  0.3882  0.3633 -0.3694
 8593SOL    HW137412   3.159   2.619   4.665 -3.4295  0.0216  3.9683
 8593SOL    HW237413   3.162   2.680   4.798 -1.2564 -0.5221 -1.3679
 8594SOL     OW37414   1.108   3.448  12.369 -0.4433  0.2803  0.2565
 8594SOL    HW137415   1.113   3.366  12.320 -0.4884  0.1100  0.5381
 8594SOL    HW237416   1.082   3.407  12.451 -1.4187 -2.0645 -1.2212
 8595SOL     OW37417   4.247   0.902   2.913  0.3592  0.4170 -0.0797
 8595SOL    HW137418   4.321   0.882   2.856 -0.1177 -0.5034 -0.3777
 8595SOL    HW237419   4.266   0.852   2.993 -0.6154  2.0865  1.1874
 8596SOL     OW37420   2.042   2.146   6.434  0.2546  0.0764 -0.2213
 8596SOL    HW137421   2.089   2.214   6.482 -0.8698 -0.2220  1.2930
 8596SOL    HW237422   1.951   2.143   6.465 -0.3330  1.9137 -1.7748
 8597SOL     OW37423   0.169   1.755  16.116  0.3740 -0.6013 -0.3460
 8597SOL    HW137424   0.181   1.731  16.208  1.3311  2.0254  0.2206
 8597SOL    HW237425   0.076   1.734  16.109 -0.0876  1.8526 -1.5549
 8598SOL     OW37426   2.411   3.610  13.131 -0.3066 -0.0220 -0.1660
 8598SOL    HW137427   2.355   3.625  13.054  1.2836  2.6753 -0.7909
 8598SOL    HW237428   2.343   3.580  13.190  1.1926 -1.0864  1.0184
 8599SOL     OW37429   4.146   4.600   4.035 -0.1111 -0.6422 -0.0821
 8599SOL    HW137430   4.139   4.587   4.129 -0.0127 -0.3065 -0.0298
 8599SOL    HW237431   4.208   4.528   4.023  0.1535 -0.3906 -0.2255
 8600SOL     OW37432   1.797   3.286   4.512  0.0049  0.1362 -0.9500
 8600SOL    HW137433   1.749   3.313   4.433  2.6563  0.8587 -2.3011
 8600SOL    HW237434   1.806   3.192   4.494 -0.5642 -0.4734  2.0733
 8601SOL     OW37435   0.367   4.119   3.998 -0.3389  1.3059  0.1951
 8601SOL    HW137436   0.408   4.205   3.989  0.8688  0.5653 -1.4569
 8601SOL    HW237437   0.378   4.090   3.907 -0.8020 -4.0278  1.8547
 8602SOL     OW37438   2.673   2.032  11.093 -0.4575 -0.7351 -0.4709
 8602SOL    HW137439   2.710   1.944  11.085  0.1036 -0.4884 -0.5756
 8602SOL    HW237440   2.753   2.073  11.126  1.1381 -2.3918 -2.2594
 8603SOL     OW37441   2.100   0.164   3.590 -0.1004 -0.2701  0.7869
 8603SOL    HW137442   2.173   0.102   3.587  0.0411  0.0397 -1.7197
 8603SOL    HW237443   2.113   0.223   3.516  0.4901  0.5462  1.5356
 8604SOL     OW37444   2.688   1.663  16.913 -0.1776 -0.2264 -0.0162
 8604SOL    HW137445   2.630   1.591  16.890  0.2408 -1.4792  2.9162
 8604SOL    HW237446   2.633   1.741  16.902  0.5293  0.0740 -1.4169
 8605SOL     OW37447   3.892   2.473   3.376 -0.7210  0.1414 -0.2898
 8605SOL    HW137448   3.900   2.569   3.378 -1.2498  0.1709  0.9625
 8605SOL    HW237449   3.948   2.446   3.304 -0.7872  2.3576 -1.1804
 8606SOL     OW37450   1.034   0.298   7.741 -0.0519  0.7985 -0.1186
 8606SOL    HW137451   0.969   0.313   7.810 -1.1102  0.8980 -1.1268
 8606SOL    HW237452   1.017   0.370   7.681 -0.0266 -1.7832 -3.2094
 8607SOL     OW37453   3.186   1.399   7.390  1.3479 -0.3038 -0.8302
 8607SOL    HW137454   3.150   1.392   7.302 -0.6952  0.1383 -0.0221
 8607SOL    HW237455   3.239   1.320   7.379 -0.0700 -1.5455  1.2604
 8608SOL     OW37456   3.138   2.230   4.918 -0.0678 -0.4123  0.1894
 8608SOL    HW137457   3.184   2.155   4.880 -0.6419  0.4680 -2.2141
 8608SOL    HW237458   3.127   2.208   5.011 -1.1875 -1.7374 -0.2698
 8609SOL     OW37459   3.098   3.734   3.245 -0.2501  0.0304  0.0530
 8609SOL    HW137460   3.107   3.789   3.167 -0.4494  3.9376  2.7893
 8609SOL    HW237461   3.188   3.717   3.273  0.0901  0.8499 -0.5364
 8610SOL     OW37462   3.684   0.570   1.674  0.3247  0.5025 -0.4340
 8610SOL    HW137463   3.619   0.517   1.720 -1.2146  0.7261 -2.3790
 8610SOL    HW237464   3.684   0.643   1.736  1.8600  0.1157  0.0300
 8611SOL     OW37465   0.353   0.123  13.864 -0.1062  0.4348 -0.2997
 8611SOL    HW137466   0.374   0.033  13.842  2.7858  0.9457  0.4094
 8611SOL    HW237467   0.435   0.168  13.845  0.4343 -0.4887 -0.1301
 8612SOL     OW37468   3.759   3.409   2.169 -0.2830 -0.3273  0.1039
 8612SOL    HW137469   3.824   3.474   2.142 -0.4766 -0.2297 -0.1257
 8612SOL    HW237470   3.809   3.330   2.191  1.0937 -0.2025 -2.5356
 8613SOL     OW37471   2.417   3.465   9.130 -0.1292  0.4523 -0.3781
 8613SOL    HW137472   2.426   3.411   9.208 -1.5515 -1.1692 -1.3286
 8613SOL    HW237473   2.324   3.462   9.108 -0.5571 -1.0201  1.7489
 8614SOL     OW37474   0.169   2.771  13.446  0.2159  0.0604 -0.0144
 8614SOL    HW137475   0.218   2.718  13.509  1.7899  1.6693  0.1199
 8614SOL    HW237476   0.230   2.769  13.373  0.3815 -0.9577  0.1526
 8615SOL     OW37477   4.726   3.922   8.474 -0.0112 -0.3186 -0.1806
 8615SOL    HW137478   0.032   3.859   8.530 -1.7226  0.3669  1.9739
 8615SOL    HW237479   4.637   3.906   8.504  0.6622 -0.4553  1.6897
 8616SOL     OW37480   3.779   2.010   8.021 -0.4555  0.8227 -0.3058
 8616SOL    HW137481   3.759   1.945   7.953 -1.4981  1.0226 -0.1862
 8616SOL    HW237482   3.874   2.020   8.014  0.0186 -2.1854  1.6729
 8617SOL     OW37483   0.011   2.681   8.478  0.0348 -0.6154  0.3130
 8617SOL    HW137484   4.739   2.690   8.573  2.1959 -0.6425  0.5800
 8617SOL    HW237485   0.089   2.736   8.469  0.5057 -1.6209 -1.6422
 8618SOL     OW37486   0.931   3.769   6.279  0.0762  0.1186  0.3722
 8618SOL    HW137487   1.009   3.820   6.302  1.4746 -2.2720  0.8678
 8618SOL    HW237488   0.955   3.719   6.201  2.4464  0.0137  1.1432
 8619SOL     OW37489   0.429   1.921   3.742  0.2842 -0.1301 -0.3495
 8619SOL    HW137490   0.367   1.885   3.805  0.1918 -1.1171 -1.0054
 8619SOL    HW237491   0.454   2.002   3.786 -1.9513  0.0539  0.5858
 8620SOL     OW37492   4.686   3.983   3.136  0.1184 -0.6080 -0.0023
 8620SOL    HW137493   0.036   3.982   3.172  0.2710 -0.2261 -0.3761
 8620SOL    HW237494   4.685   3.904   3.082 -1.5506 -0.6441  0.0997
 8621SOL     OW37495   3.652   1.858   6.796 -0.4593 -0.0499  0.3034
 8621SOL    HW137496   3.656   1.798   6.869  0.8040 -2.6496 -1.8971
 8621SOL    HW237497   3.633   1.796   6.726 -0.9387  0.9753 -0.4815
 8622SOL     OW37498   0.911   3.747   4.371 -0.3646 -0.0401 -0.3847
 8622SOL    HW137499   0.876   3.812   4.433 -0.6639 -0.0189 -0.5739
 8622SOL    HW237500   0.843   3.680   4.372 -1.4263  1.0011 -2.2481
 8623SOL     OW37501   0.193   3.171   6.147 -0.2803  0.0613  0.1852
 8623SOL    HW137502   0.255   3.133   6.085 -0.6681 -1.3429  0.6521
 8623SOL    HW237503   0.175   3.103   6.213 -0.5521 -0.6715 -0.6348
 8624SOL     OW37504   1.206   2.705  10.621  0.1296  0.0609  0.6202
 8624SOL    HW137505   1.300   2.715  10.603  0.2224 -0.3609  0.8552
 8624SOL    HW237506   1.208   2.664  10.708 -2.5496 -0.6039  0.3461
 8625SOL     OW37507   0.832   2.376   4.618  0.5450  0.0709  0.7055
 8625SOL    HW137508   0.883   2.455   4.597  0.2889 -0.2244 -0.9804
 8625SOL    HW237509   0.865   2.347   4.703  0.3426 -0.9287  0.4325
 8626SOL     OW37510   3.884   4.394  11.578 -0.5607  0.4659 -0.1943
 8626SOL    HW137511   3.864   4.306  11.608  2.6266  0.1231  0.9426
 8626SOL    HW237512   3.904   4.373  11.487  0.6208 -0.7814  0.3585
 8627SOL     OW37513   0.465   2.750   0.927 -0.2814 -0.2542  0.0498
 8627SOL    HW137514   0.543   2.786   0.884  1.0010 -1.3427  1.4463
 8627SOL    HW237515   0.395   2.771   0.865  0.7273  0.1341 -0.9732
 8628SOL     OW37516   3.123   3.779   1.987 -0.1411 -0.2015 -0.2595
 8628SOL    HW137517   3.065   3.706   1.966  0.6491 -0.3253 -2.0169
 8628SOL    HW237518   3.206   3.749   1.951 -0.0991 -0.2660 -0.1102
 8629SOL     OW37519   1.024   2.695  11.220 -0.6563  0.1307 -0.2178
 8629SOL    HW137520   0.985   2.668  11.137 -0.2996 -2.0224  0.3245
 8629SOL    HW237521   1.087   2.757  11.181  1.6216 -1.4548  0.9427
 8630SOL     OW37522   2.198   3.016   6.972 -0.2905  0.2294  1.1335
 8630SOL    HW137523   2.162   2.941   6.926  0.9986  0.0391  0.4413
 8630SOL    HW237524   2.158   3.090   6.926  1.5554 -0.0978 -0.9786
 8631SOL     OW37525   2.859   3.853   8.608 -0.1917  0.1226  0.5176
 8631SOL    HW137526   2.815   3.926   8.651  1.2727  0.4939  1.3919
 8631SOL    HW237527   2.921   3.896   8.549 -1.5171  0.9583 -0.2588
 8632SOL     OW37528   3.672   3.985   0.837 -0.1594  0.2334  0.4519
 8632SOL    HW137529   3.629   3.922   0.895  1.5842  1.0444  2.5965
 8632SOL    HW237530   3.762   3.991   0.869 -0.0044 -0.1463  0.0770
 8633SOL     OW37531   1.082   3.640   4.726  0.3005  0.1630  0.2574
 8633SOL    HW137532   1.117   3.728   4.713 -0.5260 -0.1633 -4.1264
 8633SOL    HW237533   1.057   3.646   4.818 -1.9849  2.5884 -0.4990
 8634SOL     OW37534   0.178   0.092   9.093 -0.5280 -0.1273 -0.3113
 8634SOL    HW137535   0.089   0.075   9.063 -0.4479 -0.7224 -0.2143
 8634SOL    HW237536   0.177   0.150   9.169 -0.1664 -0.9436  0.3186
 8635SOL     OW37537   3.323   0.556   0.423 -0.2545 -0.0013  0.6088
 8635SOL    HW137538   3.277   0.495   0.365  2.3796 -0.9597 -0.4636
 8635SOL    HW237539   3.276   0.635   0.398 -1.6934 -1.7255 -2.2030
 8636SOL     OW37540   0.077   3.186  10.550 -1.0181  0.7285 -0.3045
 8636SOL    HW137541   0.099   3.245  10.622  0.3270 -0.0890 -0.0568
 8636SOL    HW237542   0.125   3.217  10.474  0.8665  0.6231  0.8479
 8637SOL     OW37543   3.922   4.356  14.867 -0.5612  0.1989  0.0246
 8637SOL    HW137544   3.860   4.408  14.816  1.0319 -0.4389 -2.5764
 8637SOL    HW237545   3.884   4.270  14.848 -1.9450  0.8836 -0.3215
 8638SOL     OW37546   0.574   2.911  10.641 -0.4592 -0.3246 -0.4049
 8638SOL    HW137547   0.491   2.956  10.655  0.0682  0.4081  0.3685
 8638SOL    HW237548   0.605   2.940  10.556 -0.9202  4.9291  1.2436
 8639SOL     OW37549   4.062   1.130   9.156 -0.8783 -0.2634 -0.3067
 8639SOL    HW137550   4.048   1.088   9.241  0.0587  1.1016  0.5160
 8639SOL    HW237551   4.080   1.219   9.187 -3.2267 -0.5789  2.0214
 8640SOL     OW37552   0.552   3.067   9.212 -0.3722  0.3708 -0.1310
 8640SOL    HW137553   0.600   3.010   9.152  0.9712 -0.6126  1.8788
 8640SOL    HW237554   0.465   3.076   9.173 -0.0187 -1.8319 -1.4167
 8641SOL     OW37555   3.048   1.038   6.222  0.2515  0.4061  0.2580
 8641SOL    HW137556   3.033   0.944   6.223  3.1114 -0.0420  1.1249
 8641SOL    HW237557   2.975   1.070   6.170  0.1306 -0.2530  0.0304
 8642SOL     OW37558   1.810   0.315  11.190 -0.0863  0.3417 -0.2339
 8642SOL    HW137559   1.855   0.363  11.121  1.5934 -0.1730  0.5221
 8642SOL    HW237560   1.802   0.228  11.150  0.0447 -0.0674  0.6191
 8643SOL     OW37561   0.667   0.731   7.598  0.1417  0.2194  0.1407
 8643SOL    HW137562   0.637   0.673   7.529 -1.5317  3.0081 -1.4826
 8643SOL    HW237563   0.761   0.727   7.581  0.2955  3.4384  0.2850
 8644SOL     OW37564   4.697   4.069  10.373  0.2057 -0.4759  0.3772
 8644SOL    HW137565   4.678   4.107  10.458  1.7888 -2.2826  1.5226
 8644SOL    HW237566   0.046   4.100  10.353 -0.6718 -0.0056 -2.8149
 8645SOL     OW37567   0.887   2.856   7.842 -0.0212 -0.1278  0.0015
 8645SOL    HW137568   0.856   2.852   7.751 -0.0491  0.9709 -0.0415
 8645SOL    HW237569   0.977   2.823   7.846 -0.0666 -0.0716  1.2714
 8646SOL     OW37570   1.188   3.705   5.247  0.4644 -0.3866 -0.1272
 8646SOL    HW137571   1.256   3.653   5.289 -0.7533 -0.0617  2.2339
 8646SOL    HW237572   1.116   3.701   5.309 -0.3107  1.7338 -0.8913
 8647SOL     OW37573   0.585   4.660   9.521  0.5044  0.7637  0.1235
 8647SOL    HW137574   0.501   4.637   9.481  0.5748 -0.3199  0.5912
 8647SOL    HW237575   0.609   4.570   9.544  0.1385  0.5691 -0.2355
 8648SOL     OW37576   2.879   2.775  12.036  0.5447  0.0130 -0.2387
 8648SOL    HW137577   2.830   2.785  12.117 -0.5578  1.8122 -1.1245
 8648SOL    HW237578   2.839   2.694  12.005  0.2435 -0.1663  0.6289
 8649SOL     OW37579   0.165   4.034  16.178  0.2733  0.5066 -0.0781
 8649SOL    HW137580   0.160   3.939  16.162  2.1302  0.2302  0.8904
 8649SOL    HW237581   0.100   4.038  16.248 -2.6528  2.3332 -2.9190
 8650SOL     OW37582   3.826   1.181   3.382  0.3617  0.2712  0.3077
 8650SOL    HW137583   3.916   1.204   3.361 -0.8256  2.2851 -2.6290
 8650SOL    HW237584   3.831   1.164   3.476  1.2083 -4.2230 -0.5239
 8651SOL     OW37585   4.694   3.569   8.415  0.0036 -0.0317  0.3734
 8651SOL    HW137586   4.723   3.597   8.502  0.1391  0.1584  0.2672
 8651SOL    HW237587   0.016   3.615   8.358 -0.6847 -1.5854 -1.6374
 8652SOL     OW37588   2.463   1.559   5.841  0.1833 -0.1022 -0.3766
 8652SOL    HW137589   2.558   1.566   5.839  0.2470 -1.0567 -0.7862
 8652SOL    HW237590   2.454   1.583   5.933  2.6210  0.3733 -0.2794
 8653SOL     OW37591   4.577   4.531   7.848  0.4728  0.1282 -0.3630
 8653SOL    HW137592   4.519   4.551   7.921  0.5189  0.8367 -0.5193
 8653SOL    HW237593   4.540   4.596   7.789  0.4101  1.6850  1.3730
 8654SOL     OW37594   2.872   4.677  14.523  0.3315  0.1575 -0.2572
 8654SOL    HW137595   2.782   4.669  14.491  0.0526  1.3475  0.2056
 8654SOL    HW237596   2.929   4.693  14.448 -1.0862  0.1100 -1.3490
 8655SOL     OW37597   1.501   1.861   9.611 -0.2770  0.0266 -0.3528
 8655SOL    HW137598   1.567   1.792   9.624 -0.4259 -0.0642 -0.0808
 8655SOL    HW237599   1.540   1.927   9.668  0.0945 -1.0195  0.6031
 8656SOL     OW37600   3.522   2.193   0.850  0.6506  0.2987  0.4342
 8656SOL    HW137601   3.544   2.100   0.839  1.3233  0.8612 -2.7675
 8656SOL    HW237602   3.432   2.182   0.881  0.8375  1.5515  1.4363
 8657SOL     OW37603   0.967   1.260   2.732 -0.1367 -0.9168 -0.1999
 8657SOL    HW137604   0.940   1.272   2.641 -1.1932  2.1452  0.5033
 8657SOL    HW237605   1.056   1.226   2.723  0.7050  0.9047  1.1461
 8658SOL     OW37606   4.723   1.642  17.710 -0.0516 -0.5385 -0.3620
 8658SOL    HW137607   4.685   1.595  17.635 -1.0460 -0.6218  0.1962
 8658SOL    HW237608   0.024   1.700  17.645  0.2472  0.8412  1.0677
 8659SOL     OW37609   1.769   4.102  15.053 -0.9413  0.2211 -0.6117
 8659SOL    HW137610   1.719   4.029  15.016 -0.3405 -1.9449  2.8455
 8659SOL    HW237611   1.789   4.062  15.138 -0.5298 -2.1588 -1.8159
 8660SOL     OW37612   0.246   2.396  12.334 -0.8526 -0.5559 -0.4135
 8660SOL    HW137613   0.284   2.461  12.394 -1.1706 -0.3717 -0.4128
 8660SOL    HW237614   0.231   2.450  12.256  3.3485  1.8878  0.4526
 8661SOL     OW37615   1.785   3.793   6.306  0.1860  0.6669 -0.7631
 8661SOL    HW137616   1.789   3.858   6.376  0.9728  0.4402 -0.6006
 8661SOL    HW237617   1.690   3.782   6.317  0.5556 -0.3389  1.4899
 8662SOL     OW37618   3.841   1.283  12.685 -0.0031 -0.5798  0.1623
 8662SOL    HW137619   3.752   1.259  12.658  0.0593 -0.4731 -0.1299
 8662SOL    HW237620   3.888   1.212  12.730  1.2803  0.2396  0.1084
 8663SOL     OW37621   2.191   1.187   7.753 -0.2922 -0.1069  0.3033
 8663SOL    HW137622   2.254   1.244   7.708  0.7167 -0.9694  0.6504
 8663SOL    HW237623   2.246   1.112   7.772 -1.1018 -0.4625  1.2244
 8664SOL     OW37624   4.368   1.637   6.093  0.5844 -0.4906 -0.2481
 8664SOL    HW137625   4.382   1.550   6.130 -1.5204 -0.2251  1.1838
 8664SOL    HW237626   4.459   1.658   6.073  0.4973  1.5055  1.5274
 8665SOL     OW37627   1.019   1.707   6.281 -0.4342 -0.2337 -0.2320
 8665SOL    HW137628   0.958   1.648   6.236 -1.7951  0.3774  0.8127
 8665SOL    HW237629   0.959   1.739   6.348  0.0780  0.4652 -0.1087
 8666SOL     OW37630   4.281   3.261  12.668  0.0276 -0.6124 -0.0119
 8666SOL    HW137631   4.377   3.260  12.660  0.1524  2.3515  0.9317
 8666SOL    HW237632   4.263   3.236  12.578 -0.4547  1.0586 -0.3803
 8667SOL     OW37633   4.372   3.024   6.111  0.4180 -0.0566  0.3416
 8667SOL    HW137634   4.345   3.019   6.019 -1.6376 -1.5476  1.0302
 8667SOL    HW237635   4.356   2.936   6.144  0.7994  0.3233  1.5409
 8668SOL     OW37636   3.523   2.695  16.454  0.8063 -0.0967 -0.6205
 8668SOL    HW137637   3.454   2.668  16.394  0.0809  0.5229 -0.0544
 8668SOL    HW237638   3.590   2.731  16.396  1.4631 -1.2703 -0.5970
 8669SOL     OW37639   2.513   1.905  17.530 -0.6398 -0.2623 -0.2423
 8669SOL    HW137640   2.480   1.992  17.554 -1.1705 -0.5056 -0.0815
 8669SOL    HW237641   2.434   1.868  17.490  0.5145 -0.3344 -2.4479
 8670SOL     OW37642   0.840   0.205   4.698  0.4637 -0.8935  0.4110
 8670SOL    HW137643   0.895   0.155   4.759 -0.4079 -2.0888  0.2073
 8670SOL    HW237644   0.840   0.296   4.729 -0.3493 -0.0717 -2.0050
 8671SOL     OW37645   1.407   2.578  15.843 -0.0222 -0.2397  0.6779
 8671SOL    HW137646   1.432   2.524  15.768 -1.3735  0.8586 -0.5777
 8671SOL    HW237647   1.470   2.649  15.833  0.7895 -0.9862  0.4706
 8672SOL     OW37648   3.398   2.746   5.569 -0.4329  0.1449 -0.4694
 8672SOL    HW137649   3.361   2.789   5.492  0.5805  0.6462 -0.6787
 8672SOL    HW237650   3.327   2.687   5.593  1.0014  0.0501  3.4888
 8673SOL     OW37651   3.382   1.077   3.357 -0.0859 -0.1868 -0.3148
 8673SOL    HW137652   3.341   1.163   3.363 -2.0797 -1.2816  1.9507
 8673SOL    HW237653   3.463   1.106   3.315  0.6109 -0.7314  0.6411
 8674SOL     OW37654   3.900   3.071   5.571  0.1810 -0.4984  0.8434
 8674SOL    HW137655   3.984   3.028   5.554 -2.2060 -4.5663 -0.8006
 8674SOL    HW237656   3.847   2.998   5.604 -1.0026 -0.3022 -0.5869
 8675SOL     OW37657   0.248   4.496   5.582  0.6737  0.4429  0.3774
 8675SOL    HW137658   0.295   4.504   5.665 -0.0577 -0.4055  0.8701
 8675SOL    HW237659   0.221   4.586   5.563 -0.5655  0.0868  0.4914
 8676SOL     OW37660   2.002   1.383   2.248 -0.0180  0.3771  0.1971
 8676SOL    HW137661   2.086   1.389   2.293  0.4712  0.0729 -0.6749
 8676SOL    HW237662   1.988   1.288   2.255  1.7435 -0.0469 -2.0950
 8677SOL     OW37663   1.863   3.647   5.235  0.0289 -0.4597  0.1042
 8677SOL    HW137664   1.875   3.675   5.144 -0.1295  2.1756  0.8814
 8677SOL    HW237665   1.801   3.712   5.270 -0.8879 -1.4851  0.4013
 8678SOL     OW37666   1.113   3.208  12.215  0.1750  0.3106  0.5466
 8678SOL    HW137667   1.097   3.245  12.128  0.9843  1.9435  1.0910
 8678SOL    HW237668   1.181   3.150  12.182 -0.0433 -0.2794  1.1266
 8679SOL     OW37669   4.222   3.119   4.496  0.1987  0.0072 -0.3101
 8679SOL    HW137670   4.145   3.145   4.546 -1.2617 -2.2516 -1.3816
 8679SOL    HW237671   4.273   3.061   4.552 -1.8789 -0.3022  1.2498
 8680SOL     OW37672   0.817   0.374  17.314  0.0175  0.2452  0.2933
 8680SOL    HW137673   0.799   0.460  17.276 -0.0974 -1.0486 -2.6139
 8680SOL    HW237674   0.797   0.403  17.403  0.1482  0.9558  0.0955
 8681SOL     OW37675   0.914   1.592   3.172  0.2071 -0.1353  0.1118
 8681SOL    HW137676   0.877   1.641   3.245  1.5018  0.6044  0.2784
 8681SOL    HW237677   0.836   1.547   3.140  1.0675 -1.7552  0.2914
 8682SOL     OW37678   1.490   2.176  16.689  0.0907 -0.9006 -0.5591
 8682SOL    HW137679   1.534   2.163  16.773 -0.2491 -1.9006 -0.5389
 8682SOL    HW237680   1.433   2.253  16.696  0.2193 -0.9171  0.5816
 8683SOL     OW37681   3.017   1.364  17.141  0.1004  1.0814 -0.1465
 8683SOL    HW137682   3.105   1.396  17.120 -0.1037 -0.8775 -3.8721
 8683SOL    HW237683   2.963   1.442  17.129  0.1269  0.9391 -1.2237
 8684SOL     OW37684   1.034   2.062   0.177  0.1066  0.1719  0.0118
 8684SOL    HW137685   1.067   1.973   0.191  1.4981  0.4853 -1.1999
 8684SOL    HW237686   0.950   2.059   0.222  0.0619 -1.4004 -0.1639
 8685SOL     OW37687   1.137   0.544   6.557  0.1810 -0.0702  0.2946
 8685SOL    HW137688   1.189   0.521   6.480 -2.1592 -0.7184 -1.1085
 8685SOL    HW237689   1.085   0.465   6.572 -1.4789  0.9431 -0.0460
 8686SOL     OW37690   0.942   2.907  17.627 -0.4979 -0.1164 -0.0874
 8686SOL    HW137691   0.851   2.879  17.633  0.2283 -2.6926 -1.1330
 8686SOL    HW237692   0.987   2.827  17.652 -2.9039 -0.8980  1.7391
 8687SOL     OW37693   2.061   1.747   0.757 -0.5503 -0.5951 -0.0069
 8687SOL    HW137694   2.028   1.658   0.740  1.8417 -1.5952  0.6423
 8687SOL    HW237695   2.002   1.803   0.707 -1.0042  0.4906  1.7491
 8688SOL     OW37696   2.288   3.459   4.638  0.5801 -0.3288  0.4533
 8688SOL    HW137697   2.241   3.401   4.578  0.7049 -0.6610  0.6833
 8688SOL    HW237698   2.321   3.523   4.574 -0.6887 -0.7742 -0.6480
 8689SOL     OW37699   1.043   3.775   4.101  0.3205  0.4201  0.0383
 8689SOL    HW137700   1.036   3.775   4.196 -1.2263  1.3749 -0.0936
 8689SOL    HW237701   0.957   3.811   4.080  0.9667  1.8464 -0.1494
 8690SOL     OW37702   3.179   3.295  14.125 -0.4840 -0.4334  0.0324
 8690SOL    HW137703   3.136   3.354  14.063  1.0257  0.6740  0.0240
 8690SOL    HW237704   3.271   3.310  14.101 -0.1016  1.4765  2.6577
 8691SOL     OW37705   0.216   3.133  12.846  0.2323 -0.1865  0.0766
 8691SOL    HW137706   0.273   3.204  12.816  0.1346 -0.1580 -0.0392
 8691SOL    HW237707   0.173   3.175  12.921 -1.5697 -2.5136  0.3304
 8692SOL     OW37708   1.535   3.383  10.032  0.4241  0.2342  0.1129
 8692SOL    HW137709   1.462   3.324  10.049 -0.9082  1.2395 -2.0793
 8692SOL    HW237710   1.618   3.337  10.042 -0.3663 -1.2806 -0.2770
 8693SOL     OW37711   3.106   0.200   2.367 -0.0868  0.2742  0.6263
 8693SOL    HW137712   3.099   0.284   2.323  0.0995  0.3361  0.7183
 8693SOL    HW237713   3.013   0.190   2.389 -0.0644 -1.0783  0.1295
 8694SOL     OW37714   2.917   0.525   5.750 -0.1257  0.1375  0.0336
 8694SOL    HW137715   2.880   0.582   5.682  3.1255  1.8654 -0.3319
 8694SOL    HW237716   2.874   0.443   5.728  1.5153 -0.3529 -1.3155
 8695SOL     OW37717   2.936   0.056   5.748 -0.0323 -0.0669 -0.0101
 8695SOL    HW137718   2.991   0.133   5.763 -1.1988  1.0500 -1.5698
 8695SOL    HW237719   2.891   0.096   5.674  0.0350 -1.1775 -0.6420
 8696SOL     OW37720   2.261   1.225  11.132 -0.0621  0.0936  0.6039
 8696SOL    HW137721   2.312   1.206  11.210 -1.5632  0.5262  1.6821
 8696SOL    HW237722   2.317   1.298  11.105  1.8248 -1.8238 -0.6264
 8697SOL     OW37723   3.298   1.995  17.111  0.9068 -0.3326 -0.6141
 8697SOL    HW137724   3.313   2.027  17.199 -2.6874 -0.4943  0.0408
 8697SOL    HW237725   3.295   2.077  17.061  0.3770  1.1423  1.8809
 8698SOL     OW37726   4.205   2.859   8.681  0.8730 -0.2007 -0.6458
 8698SOL    HW137727   4.110   2.848   8.673  0.6770  0.3386  0.9542
 8698SOL    HW237728   4.221   2.866   8.587 -2.3941  0.2525 -1.1512
 8699SOL     OW37729   1.786   3.030  13.378  0.4715  0.3246 -0.0110
 8699SOL    HW137730   1.791   2.942  13.416  0.7668  0.1332 -0.4971
 8699SOL    HW237731   1.731   3.076  13.441  0.6263 -0.8788  1.0186
 8700SOL     OW37732   3.740   2.247   3.483  1.0725  0.0885  0.0049
 8700SOL    HW137733   3.774   2.313   3.422  2.8988 -1.5452 -0.7612
 8700SOL    HW237734   3.691   2.313   3.532  2.5065 -0.5357  2.2983
 8701SOL     OW37735   4.449   2.880   9.468 -0.4982  0.6721 -0.3699
 8701SOL    HW137736   4.366   2.926   9.455 -0.2906  1.8253  2.3507
 8701SOL    HW237737   4.502   2.923   9.401  1.6018 -0.0474  0.8282
 8702SOL     OW37738   1.840   4.424   9.150 -0.2153  0.2834 -0.6747
 8702SOL    HW137739   1.786   4.368   9.094  0.8476 -1.1915 -0.2140
 8702SOL    HW237740   1.926   4.385   9.133  0.2547  0.8428  0.4260
 8703SOL     OW37741   4.099   3.811   2.206  0.7432 -0.1827 -0.0206
 8703SOL    HW137742   4.038   3.883   2.189  1.2268  0.2524  0.0794
 8703SOL    HW237743   4.145   3.844   2.283  0.1006  0.9599 -0.1349
 8704SOL     OW37744   1.691   0.055   2.372 -0.1986  0.0900 -0.6888
 8704SOL    HW137745   1.599   0.037   2.353 -0.1589 -0.5691 -0.2353
 8704SOL    HW237746   1.728   0.032   2.286  2.8159 -1.1071  0.9283
 8705SOL     OW37747   4.232   0.839   0.508  0.1278 -0.4543 -0.1337
 8705SOL    HW137748   4.317   0.832   0.464 -0.8457  2.1433 -2.5214
 8705SOL    HW237749   4.164   0.819   0.443  0.3525  1.0972 -0.8545
 8706SOL     OW37750   1.460   2.148   6.947 -0.4073 -0.2743  0.0002
 8706SOL    HW137751   1.520   2.111   7.011  0.4638  1.7268  0.3021
 8706SOL    HW237752   1.379   2.103   6.972 -0.3862 -0.3559 -0.0755
 8707SOL     OW37753   4.247   1.978   3.157 -0.4953 -0.2500  0.0144
 8707SOL    HW137754   4.196   1.949   3.232  1.1791  0.3609  1.3828
 8707SOL    HW237755   4.247   2.074   3.155  2.1518 -0.2588 -1.0228
 8708SOL     OW37756   1.088   0.073   9.144  0.1674  0.2188  0.4170
 8708SOL    HW137757   1.057   4.733   9.187 -0.7599  0.3409 -0.0179
 8708SOL    HW237758   1.046   0.071   9.058 -3.5146  0.0918  2.2021
 8709SOL     OW37759   0.366   2.824   2.110  0.7460  0.2849 -0.1760
 8709SOL    HW137760   0.420   2.806   2.033 -0.3634 -0.0192 -0.8741
 8709SOL    HW237761   0.432   2.828   2.179  3.4053 -1.2484 -2.6132
 8710SOL     OW37762   0.822   3.376   8.305 -0.5294  0.7470  0.3998
 8710SOL    HW137763   0.859   3.288   8.310 -1.5544  0.2097 -1.7136
 8710SOL    HW237764   0.779   3.393   8.389  1.0007 -2.0305  1.7238
 8711SOL     OW37765   2.158   3.104  13.961 -0.7661 -0.0410 -0.3331
 8711SOL    HW137766   2.074   3.098  14.007  0.3683  1.4471  1.9493
 8711SOL    HW237767   2.129   3.118  13.871  0.7726  2.5623 -0.4059
 8712SOL     OW37768   0.794   1.419   5.865  0.1672 -0.5114  0.1651
 8712SOL    HW137769   0.815   1.510   5.842 -1.2507  0.6893  3.5585
 8712SOL    HW237770   0.883   1.395   5.889  0.7732  0.6285 -0.9183
 8713SOL     OW37771   0.352   0.245   8.340 -0.6128  0.3618 -0.5245
 8713SOL    HW137772   0.300   0.260   8.261 -2.3678 -1.8564  0.2261
 8713SOL    HW237773   0.298   0.206   8.408  0.3010 -2.1856 -1.2440
 8714SOL     OW37774   4.150   1.250   7.279 -0.1438 -0.0499  0.1281
 8714SOL    HW137775   4.094   1.181   7.243 -0.3744  0.4132 -0.3895
 8714SOL    HW237776   4.180   1.208   7.360 -0.1304  0.2912  0.2993
 8715SOL     OW37777   3.080   0.775   9.351 -0.3509 -0.2584  0.1376
 8715SOL    HW137778   3.148   0.752   9.287 -0.8389 -1.0271 -0.1031
 8715SOL    HW237779   3.117   0.745   9.434  0.7906 -0.6611 -0.5055
 8716SOL     OW37780   0.280   0.158   6.573 -0.2926  0.6405  0.1345
 8716SOL    HW137781   0.236   0.073   6.575 -1.1693  1.0901 -0.3535
 8716SOL    HW237782   0.336   0.141   6.497 -0.0400 -0.8436  0.6579
 8717SOL     OW37783   0.704   3.778   4.065  0.4104 -0.3698 -0.4240
 8717SOL    HW137784   0.713   3.872   4.078  0.4499 -0.5933  1.1192
 8717SOL    HW237785   0.638   3.770   3.995 -1.3740  0.5120  1.1435
 8718SOL     OW37786   0.882   4.149  15.446  0.7968  0.1292  0.6264
 8718SOL    HW137787   0.963   4.173  15.492  0.1902  1.3630  1.0477
 8718SOL    HW237788   0.820   4.187  15.508 -0.8193  1.0089 -1.5675
 8719SOL     OW37789   3.794   0.897  15.046  0.8185  0.3846 -0.2234
 8719SOL    HW137790   3.772   0.989  15.052  1.3651  0.4364  0.9620
 8719SOL    HW237791   3.888   0.908  15.031  0.7208  0.6499 -0.6328
 8720SOL     OW37792   2.438   0.706  17.597 -0.2582 -0.1512  0.2077
 8720SOL    HW137793   2.383   0.711  17.675 -1.0206  1.0847 -0.4057
 8720SOL    HW237794   2.390   0.637  17.552 -0.8403  0.2155  0.2614
 8721SOL     OW37795   1.917   3.583   4.316 -0.7691 -0.1160  0.5200
 8721SOL    HW137796   1.875   3.540   4.241 -2.0294  0.5986  0.8307
 8721SOL    HW237797   1.875   3.668   4.320 -1.0464 -0.1255 -1.7729
 8722SOL     OW37798   1.767   3.131  11.902 -0.2578 -0.2871 -0.7173
 8722SOL    HW137799   1.754   3.037  11.918  1.1852 -0.2947  0.4237
 8722SOL    HW237800   1.852   3.128  11.858  0.9824  3.1023  1.4373
 8723SOL     OW37801   1.473   1.998  11.685 -0.3879  0.2948 -0.6231
 8723SOL    HW137802   1.437   1.913  11.708 -2.0269  1.7422  2.1661
 8723SOL    HW237803   1.411   2.061  11.721  0.3254  0.6755 -0.0587
 8724SOL     OW37804   4.630   2.468   6.202 -0.2550  0.1335 -0.3178
 8724SOL    HW137805   4.544   2.506   6.184 -1.6510 -2.9061 -0.0282
 8724SOL    HW237806   4.649   2.503   6.289  0.3252  2.5379 -1.4220
 8725SOL     OW37807   3.840   3.846   7.654 -0.1140 -0.0013 -0.1728
 8725SOL    HW137808   3.886   3.917   7.700  1.1895 -0.2467 -1.1140
 8725SOL    HW237809   3.905   3.817   7.591 -1.0715 -0.1521 -1.1042
 8726SOL     OW37810   0.015   3.439  11.922 -0.7894 -0.6147  0.6459
 8726SOL    HW137811   0.005   3.509  11.986 -1.9880 -0.0922 -0.1246
 8726SOL    HW237812   0.111   3.442  11.920 -0.7084 -4.2745 -1.5288
 8727SOL     OW37813   4.502   2.612  15.152 -0.0834 -0.3743 -0.0998
 8727SOL    HW137814   4.581   2.577  15.193 -0.1917 -0.6818 -0.1536
 8727SOL    HW237815   4.453   2.531  15.135 -0.5012 -0.1537  0.0405
 8728SOL     OW37816   0.949   1.788   4.492 -0.4850  0.7067  0.1339
 8728SOL    HW137817   0.922   1.873   4.457  2.3061  0.9604 -1.3857
 8728SOL    HW237818   0.876   1.783   4.554  0.3104 -2.0185  0.8238
 8729SOL     OW37819   4.321   0.245   4.499 -0.0886  0.2346 -0.0617
 8729SOL    HW137820   4.383   0.298   4.450  0.2923 -0.1878 -0.0383
 8729SOL    HW237821   4.249   0.308   4.506  0.5873  1.0654 -0.6198
 8730SOL     OW37822   1.187   4.437   4.695 -0.2841 -0.0982  0.4337
 8730SOL    HW137823   1.222   4.513   4.648  1.1261 -1.7085 -1.0930
 8730SOL    HW237824   1.234   4.360   4.664  1.4985  0.7814  0.9420
 8731SOL     OW37825   0.343   2.538   9.076 -0.5358  0.3899  0.7027
 8731SOL    HW137826   0.394   2.491   9.142 -2.0231 -0.3269  1.3317
 8731SOL    HW237827   0.330   2.472   9.008  2.1482 -0.0002  0.5555
 8732SOL     OW37828   2.635   4.442   4.941  0.1036 -0.0885  0.0978
 8732SOL    HW137829   2.719   4.447   4.895 -0.3117 -1.2382 -0.7650
 8732SOL    HW237830   2.654   4.511   5.004  2.4868  0.6651 -1.4610
 8733SOL     OW37831   1.629   2.826  17.013 -0.1440 -0.5060 -0.3895
 8733SOL    HW137832   1.595   2.762  17.076 -2.4442  1.8789  0.7801
 8733SOL    HW237833   1.688   2.879  17.067 -0.4267 -0.0327 -0.5469
 8734SOL     OW37834   0.708   2.024   8.948  0.5982 -0.0199  0.3262
 8734SOL    HW137835   0.628   2.062   8.984  1.4377  1.5078  0.6255
 8734SOL    HW237836   0.743   2.104   8.908 -1.4298 -0.0542 -1.4680
 8735SOL     OW37837   4.489   2.225   7.175 -0.6850  0.1816 -0.0216
 8735SOL    HW137838   4.446   2.310   7.174 -1.9348 -0.4411  1.6455
 8735SOL    HW237839   4.446   2.188   7.098 -1.0408  1.0812 -0.2562
 8736SOL     OW37840   2.126   3.896   4.129  0.3715  0.6248  0.3655
 8736SOL    HW137841   2.040   3.937   4.132 -0.2990 -0.7034 -1.2251
 8736SOL    HW237842   2.141   3.915   4.037 -1.6978  2.2246  0.3477
 8737SOL     OW37843   2.706   2.902   4.570 -0.2393  0.6606 -0.4980
 8737SOL    HW137844   2.772   2.877   4.635  0.6406  0.0552 -1.6245
 8737SOL    HW237845   2.650   2.824   4.583  0.4671  0.7992  3.4556
 8738SOL     OW37846   2.482   3.803   4.907  0.3650 -0.0246 -0.3544
 8738SOL    HW137847   2.557   3.749   4.931 -0.3029 -0.2456  1.2472
 8738SOL    HW237848   2.447   3.788   4.819 -0.2011  2.3710 -0.5303
 8739SOL     OW37849   4.526   2.709   5.169 -0.1397 -0.6178  0.1901
 8739SOL    HW137850   4.490   2.634   5.215 -1.4587 -0.6257 -0.8651
 8739SOL    HW237851   4.620   2.690   5.162  0.2457  0.7042  1.6694
 8740SOL     OW37852   1.805   0.352   2.260  0.4488 -0.4291 -0.0988
 8740SOL    HW137853   1.710   0.357   2.256  0.3387 -2.3059  0.3426
 8740SOL    HW237854   1.822   0.352   2.354  2.6495  1.6520 -0.4929
 8741SOL     OW37855   1.979   1.246   6.664 -0.1508  0.2332 -0.8943
 8741SOL    HW137856   1.971   1.315   6.598  1.9598 -0.5381 -1.9359
 8741SOL    HW237857   1.992   1.297   6.744 -2.1549 -1.6119  0.6133
 8742SOL     OW37858   4.448   0.380   5.201 -0.0710  0.6775  0.0526
 8742SOL    HW137859   4.388   0.435   5.150  1.1238  0.2070 -1.8640
 8742SOL    HW237860   4.396   0.372   5.281 -0.9419  3.4771 -0.2404
 8743SOL     OW37861   1.024   3.516   8.908  0.2436 -0.3758 -0.2744
 8743SOL    HW137862   0.994   3.427   8.928  1.6080 -1.1238 -1.5015
 8743SOL    HW237863   0.968   3.534   8.833 -1.3126 -0.4852  0.8616
 8744SOL     OW37864   3.401   2.992   4.360  0.3225  0.6125  0.4159
 8744SOL    HW137865   3.347   3.045   4.303 -0.3626  0.6323  1.0802
 8744SOL    HW237866   3.455   2.945   4.297  0.2348 -1.5158  1.9337
 8745SOL     OW37867   3.314   2.657   6.069  0.0287 -0.0987  0.2401
 8745SOL    HW137868   3.298   2.691   6.157 -1.0753 -1.4304  0.5659
 8745SOL    HW237869   3.377   2.719   6.033 -1.0373  0.3436 -0.8548
 8746SOL     OW37870   1.479   2.276   4.054 -0.2239  0.1253 -0.2871
 8746SOL    HW137871   1.549   2.248   3.995 -1.5807 -0.8151 -1.4674
 8746SOL    HW237872   1.520   2.253   4.137  0.3518  0.3583 -0.5073
 8747SOL     OW37873   1.445   1.573   2.658 -0.3325 -0.4786  0.7341
 8747SOL    HW137874   1.489   1.488   2.670 -0.1345 -0.3195  1.1374
 8747SOL    HW237875   1.507   1.623   2.605 -0.6495 -0.8053  0.0535
 8748SOL     OW37876   4.694   2.420   1.650  0.0384 -0.1562 -0.1786
 8748SOL    HW137877   4.690   2.495   1.591  2.5380 -0.9227 -1.3009
 8748SOL    HW237878   4.637   2.441   1.724  0.3945  0.1496  0.0091
 8749SOL     OW37879   3.952   4.451   2.339  0.0186 -0.4920  0.5187
 8749SOL    HW137880   3.927   4.366   2.374  3.2403 -1.4083  0.6485
 8749SOL    HW237881   3.937   4.437   2.246  1.0343 -0.0509  0.2762
 8750SOL     OW37882   2.853   0.772   3.330 -0.2491  0.9612  0.0180
 8750SOL    HW137883   2.934   0.730   3.359  0.9623  1.7563 -2.1698
 8750SOL    HW237884   2.830   0.693   3.280  1.2379  0.2173  0.5097
 8751SOL     OW37885   2.010   1.394   8.075 -0.8081 -0.6451  0.0284
 8751SOL    HW137886   1.928   1.391   8.124 -0.5262 -0.8133  0.4856
 8751SOL    HW237887   2.012   1.304   8.043  0.7483  0.6495 -3.6072
 8752SOL     OW37888   2.573   3.461   4.724  0.1552 -0.6949 -0.2140
 8752SOL    HW137889   2.477   3.453   4.722  0.2430 -1.6666 -0.2562
 8752SOL    HW237890   2.576   3.555   4.745  0.0269 -0.4318 -1.3606
 8753SOL     OW37891   3.904   0.549   8.583  0.0021 -0.3319 -0.2973
 8753SOL    HW137892   3.839   0.499   8.535 -0.2197 -0.5506  0.2296
 8753SOL    HW237893   3.972   0.565   8.518  1.6830  0.0674  1.5414
 8754SOL     OW37894   2.375   0.088   3.378  0.0447  0.3461 -0.1894
 8754SOL    HW137895   2.326   0.170   3.385  2.1809  1.5487  0.3648
 8754SOL    HW237896   2.452   0.101   3.432 -1.5145 -0.6134  2.2703
 8755SOL     OW37897   1.901   1.424   4.311  0.1053  0.1562 -0.7896
 8755SOL    HW137898   1.885   1.467   4.227 -0.8610 -0.8577 -1.1139
 8755SOL    HW237899   1.817   1.437   4.354 -0.2099  0.4902 -1.5026
 8756SOL     OW37900   4.287   0.242   5.395  0.9557  0.0312 -0.4335
 8756SOL    HW137901   4.318   0.193   5.471  1.3547  0.5702 -0.2440
 8756SOL    HW237902   4.216   0.296   5.428 -0.4974 -0.9961 -1.9024
 8757SOL     OW37903   4.275   0.012   1.996  0.3527 -0.1540  0.2909
 8757SOL    HW137904   4.282   0.025   1.902  0.0335  2.0370  0.5585
 8757SOL    HW237905   4.367   0.008   2.020  0.0623  2.2370  1.8311
 8758SOL     OW37906   1.992   0.117  12.744  0.2501  0.0870  0.0437
 8758SOL    HW137907   1.936   0.181  12.702 -0.5704 -0.5502  0.1704
 8758SOL    HW237908   2.046   0.168  12.804  0.8951  0.1818 -0.6191
 8759SOL     OW37909   3.585   4.251   2.303 -0.1076 -0.1848 -0.6872
 8759SOL    HW137910   3.513   4.314   2.294 -1.0323 -1.4957 -2.6959
 8759SOL    HW237911   3.526   4.184   2.338  0.0476  0.7056  1.2926
 8760SOL     OW37912   3.860   3.565   7.147  0.0141 -0.1275 -0.3793
 8760SOL    HW137913   3.947   3.592   7.117  0.3847  0.6826  1.4005
 8760SOL    HW237914   3.851   3.478   7.107  0.6701 -1.6192  2.7313
 8761SOL     OW37915   2.520   3.366   7.675 -0.1486  0.2654 -0.0464
 8761SOL    HW137916   2.611   3.343   7.694 -0.2573 -1.1074 -1.1467
 8761SOL    HW237917   2.488   3.286   7.715 -1.6295  1.3094  0.8450
 8762SOL     OW37918   0.472   0.532   2.822  0.3407  0.0497 -0.0307
 8762SOL    HW137919   0.498   0.470   2.753 -1.9825  0.2309 -1.0806
 8762SOL    HW237920   0.475   0.614   2.772 -2.1857 -0.0737 -0.3715
 8763SOL     OW37921   2.054   0.767  17.143 -0.1839  0.3479  0.8092
 8763SOL    HW137922   2.075   0.743  17.233  3.1828 -1.8936 -0.5502
 8763SOL    HW237923   2.144   0.784  17.116 -1.0905 -2.0472 -3.7043
 8764SOL     OW37924   0.776   1.454   4.413  0.1606 -0.5237 -0.5662
 8764SOL    HW137925   0.797   1.379   4.358  0.3498 -2.1377  1.7046
 8764SOL    HW237926   0.861   1.461   4.457 -2.1713 -0.8020  4.0383
 8765SOL     OW37927   0.521   1.528   8.307  0.0978 -0.1448  0.0437
 8765SOL    HW137928   0.572   1.563   8.380  1.3617 -1.4863 -0.2064
 8765SOL    HW237929   0.591   1.473   8.272 -1.3228 -2.5337  0.9303
 8766SOL     OW37930   1.105   1.258   1.952 -0.5930  0.7463  0.1362
 8766SOL    HW137931   1.115   1.174   1.907 -0.2652  1.6109 -1.3944
 8766SOL    HW237932   1.056   1.299   1.881 -1.7500  0.0866  0.5494
 8767SOL     OW37933   3.295   4.335   3.996  0.2425  0.3258 -0.2249
 8767SOL    HW137934   3.262   4.423   3.976 -0.4455  0.1890  0.3090
 8767SOL    HW237935   3.380   4.342   3.953  0.6813  0.5601  0.6753
 8768SOL     OW37936   0.327   3.691   1.885  0.0058  0.3111  0.1259
 8768SOL    HW137937   0.382   3.620   1.850  0.8870  0.3613  1.3949
 8768SOL    HW237938   0.312   3.741   1.805  0.9945  0.2539 -0.1034
 8769SOL     OW37939   4.148   1.228  12.788 -0.4426 -0.0687 -0.0372
 8769SOL    HW137940   4.136   1.224  12.693 -2.8433  0.8642  0.2133
 8769SOL    HW237941   4.227   1.281  12.787 -0.7463  0.3616 -2.3280
 8770SOL     OW37942   3.463   3.408   7.768  0.6326  0.3651  0.3641
 8770SOL    HW137943   3.486   3.501   7.774  0.0562  0.5585 -0.4275
 8770SOL    HW237944   3.503   3.375   7.848 -0.3781 -2.0595 -0.1278
 8771SOL     OW37945   4.383   0.796   0.204  0.0381  0.0209 -0.8563
 8771SOL    HW137946   4.464   0.806   0.254 -0.7733  0.4405  0.3999
 8771SOL    HW237947   4.372   0.884   0.169  3.6094  1.0230  0.4877
 8772SOL     OW37948   1.293   0.751   1.521  0.4019  0.5658  0.0791
 8772SOL    HW137949   1.322   0.666   1.555  2.1082  0.6185 -1.2820
 8772SOL    HW237950   1.344   0.769   1.442 -0.1407 -0.1897 -0.4537
 8773SOL     OW37951   1.360   1.831   2.065  0.2522 -0.2012 -0.1179
 8773SOL    HW137952   1.268   1.852   2.080  0.9703  1.4383  1.9294
 8773SOL    HW237953   1.373   1.744   2.103 -0.1833  0.4942  1.6403
 8774SOL     OW37954   4.633   0.519   4.824  0.1458  0.2935  0.0224
 8774SOL    HW137955   4.683   0.453   4.873  0.1275  0.5960  0.4481
 8774SOL    HW237956   4.643   0.488   4.734 -1.2690 -0.2326  0.0450
 8775SOL     OW37957   3.096   2.496  15.255  0.3323  0.3418 -0.1434
 8775SOL    HW137958   3.007   2.517  15.226 -0.1558 -3.3122 -1.1757
 8775SOL    HW237959   3.084   2.484  15.349 -2.0288 -2.5983 -0.8397
 8776SOL     OW37960   1.686   1.007   4.850  0.2311  0.0282 -0.4704
 8776SOL    HW137961   1.620   0.951   4.891 -0.2695  1.1698  0.2672
 8776SOL    HW237962   1.748   0.937   4.828  0.5007 -0.3360  1.4872
 8777SOL     OW37963   0.087   2.817   6.711 -0.7835 -0.4131  0.2641
 8777SOL    HW137964   0.144   2.841   6.784  0.2843  1.4773 -1.1749
 8777SOL    HW237965   0.154   2.784   6.650  1.4391  1.9024  1.4410
 8778SOL     OW37966   1.702   4.103   2.655  0.3782 -0.2169 -0.2532
 8778SOL    HW137967   1.622   4.084   2.704  0.7265 -0.4433  0.2382
 8778SOL    HW237968   1.691   4.196   2.638  0.2421 -0.1174  0.3606
 8779SOL     OW37969   2.253   1.621   7.719 -0.0187  0.3568 -0.5506
 8779SOL    HW137970   2.283   1.693   7.775 -0.0873  0.3541 -0.5111
 8779SOL    HW237971   2.250   1.548   7.781 -2.0273  0.3903 -0.6184
 8780SOL     OW37972   2.908   0.745   4.117 -0.0774  0.4940  0.0497
 8780SOL    HW137973   2.937   0.777   4.202  0.2376 -0.3922  0.2755
 8780SOL    HW237974   2.819   0.780   4.116 -0.0915  0.4537 -0.2009
 8781SOL     OW37975   0.692   3.412   6.238 -0.2688  0.1082  0.2755
 8781SOL    HW137976   0.757   3.342   6.235  0.6656  0.9857 -0.0944
 8781SOL    HW237977   0.636   3.389   6.163 -1.8786  1.1417  1.1479
 8782SOL     OW37978   3.933   3.462   4.303 -0.1679 -0.1112 -0.6235
 8782SOL    HW137979   3.910   3.547   4.338 -0.8755  0.6431 -2.9159
 8782SOL    HW237980   3.972   3.423   4.381 -0.4613  1.3821  0.2666
 8783SOL     OW37981   3.558   3.069   8.909  0.3906  0.4707  0.5008
 8783SOL    HW137982   3.559   3.060   8.814  1.1962  1.1775  0.4428
 8783SOL    HW237983   3.645   3.096   8.937 -0.1388  3.3096 -0.6190
 8784SOL     OW37984   2.889   2.848  14.885  0.6830  0.4112 -0.0106
 8784SOL    HW137985   2.874   2.788  14.811 -1.4332 -0.2084  0.9070
 8784SOL    HW237986   2.983   2.835  14.898  0.0480 -0.8491  3.2887
 8785SOL     OW37987   0.648   4.708  10.254 -0.4649 -0.0971 -0.0643
 8785SOL    HW137988   0.668   4.735  10.164  0.3745  1.6634  0.6313
 8785SOL    HW237989   0.654   0.061  10.279  0.2485  0.0184 -0.6699
 8786SOL     OW37990   4.564   1.695   9.124  0.4088 -0.0572  0.2030
 8786SOL    HW137991   4.560   1.730   9.035  3.3354 -2.6462 -0.9637
 8786SOL    HW237992   4.595   1.607   9.101  0.8166 -0.1399  1.0494
 8787SOL     OW37993   2.220   1.075   3.297  0.6860 -0.0714  0.2383
 8787SOL    HW137994   2.288   1.071   3.230  0.1459 -1.8188 -0.1937
 8787SOL    HW237995   2.265   1.026   3.366 -1.3776  1.5074  2.6908
 8788SOL     OW37996   2.470   0.980   3.201 -0.0978 -0.3162  0.7808
 8788SOL    HW137997   2.479   1.016   3.113  1.6203 -1.8128  0.3371
 8788SOL    HW237998   2.521   0.900   3.187  0.3936 -0.0567  1.0533
 8789SOL     OW37999   2.293   1.999  15.211  0.7336 -0.3544  0.4643
 8789SOL    HW138000   2.295   2.006  15.116  0.7776 -1.6680  0.3683
 8789SOL    HW238001   2.215   2.053  15.225  0.5268 -0.1754 -1.4197
 8790SOL     OW38002   3.279   1.216   4.465 -0.6623  0.3331 -0.0740
 8790SOL    HW138003   3.286   1.243   4.557  0.5487  2.2430 -0.7202
 8790SOL    HW238004   3.266   1.302   4.424  0.9764  0.5755 -0.0868
 8791SOL     OW38005   3.384   2.780  11.899  0.4597 -0.0055 -0.2007
 8791SOL    HW138006   3.360   2.868  11.872 -1.1743 -0.2640  0.3518
 8791SOL    HW238007   3.301   2.731  11.904 -0.5261  1.4130 -2.7251
 8792SOL     OW38008   3.347   0.665   6.881 -0.1161  0.4597  0.1446
 8792SOL    HW138009   3.263   0.693   6.917  0.4955  1.0270  1.1282
 8792SOL    HW238010   3.390   0.637   6.962  0.3219  0.3826 -0.1086
 8793SOL     OW38011   1.859   2.743  11.580  0.0238 -0.6325 -0.4850
 8793SOL    HW138012   1.862   2.667  11.637  1.9462 -0.0866  0.1322
 8793SOL    HW238013   1.795   2.716  11.514 -0.6984 -0.2183  0.0409
 8794SOL     OW38014   2.244   3.434   6.563 -0.1384 -0.0026 -0.3425
 8794SOL    HW138015   2.196   3.431   6.480 -1.2450 -0.5614  0.3313
 8794SOL    HW238016   2.322   3.480   6.532 -1.0685  1.0221 -1.1940
 8795SOL     OW38017   2.085   3.842  11.105 -0.8049  0.7794  0.5036
 8795SOL    HW138018   2.095   3.936  11.115 -1.2902  0.8476  0.3718
 8795SOL    HW238019   2.085   3.842  11.009  1.0091 -2.2496  0.5151
 8796SOL     OW38020   4.096   2.706   2.884  0.3041  0.1877 -0.2802
 8796SOL    HW138021   4.179   2.672   2.848  0.8064  0.0888  0.9555
 8796SOL    HW238022   4.053   2.621   2.894  1.4092 -0.2846  0.4149
 8797SOL     OW38023   0.404   1.213   6.376 -0.0400 -0.0388  0.0978
 8797SOL    HW138024   0.433   1.126   6.347 -0.0027 -0.5111  1.5614
 8797SOL    HW238025   0.455   1.215   6.457  1.7761 -2.6752 -0.9911
 8798SOL     OW38026   0.726   1.287   0.539 -0.5804  0.1561  0.8861
 8798SOL    HW138027   0.640   1.327   0.530 -0.9565 -0.8752 -0.1450
 8798SOL    HW238028   0.708   1.209   0.592 -1.5414 -0.3968 -0.2585
 8799SOL     OW38029   0.486   2.406  13.623  0.3758  0.9916  0.4825
 8799SOL    HW138030   0.565   2.430  13.670  0.5650  0.8702  0.2262
 8799SOL    HW238031   0.489   2.312  13.607  0.3430  1.5906 -3.0175
 8800SOL     OW38032   3.636   2.148  10.325 -0.1484 -0.0626  0.3519
 8800SOL    HW138033   3.590   2.231  10.312  0.4906  0.4067  1.0351
 8800SOL    HW238034   3.658   2.167  10.417  0.1408  1.0696  0.0512
 8801SOL     OW38035   2.903   0.643   4.487  0.5737 -0.0341 -0.4929
 8801SOL    HW138036   2.908   0.739   4.487 -3.1998  0.1433  3.7758
 8801SOL    HW238037   2.970   0.630   4.419  0.6213  0.2667 -0.5054
 8802SOL     OW38038   1.149   1.447  11.550 -0.1512 -0.1243 -0.0779
 8802SOL    HW138039   1.208   1.457  11.476  0.5104 -0.7603  0.3716
 8802SOL    HW238040   1.196   1.391  11.611 -1.2533 -0.1651  0.7406
 8803SOL     OW38041   1.527   4.045   6.705  0.0031  0.1084  0.2430
 8803SOL    HW138042   1.534   4.105   6.779  2.0042  0.4729 -0.2410
 8803SOL    HW238043   1.443   4.083   6.678  0.4880  1.5718  0.8068
 8804SOL     OW38044   3.527   4.659   4.873  0.3019 -0.5199 -0.0528
 8804SOL    HW138045   3.564   4.584   4.828  1.4921  0.5506 -0.8592
 8804SOL    HW238046   3.585   4.732   4.849 -0.0985 -0.3356 -0.4697
 8805SOL     OW38047   3.462   2.254   2.142  0.5976 -0.7939 -0.2221
 8805SOL    HW138048   3.541   2.239   2.195  0.0405 -2.9749  0.0020
 8805SOL    HW238049   3.497   2.321   2.083 -0.1512 -0.2239 -0.0107
 8806SOL     OW38050   2.041   1.397   0.830 -0.1134 -0.1107 -0.4040
 8806SOL    HW138051   2.059   1.372   0.740  0.2670 -0.0191 -0.3531
 8806SOL    HW238052   1.952   1.361   0.838  0.0827 -0.1179  1.9872
 8807SOL     OW38053   1.518   4.192   1.902  0.1149 -0.0073  0.1147
 8807SOL    HW138054   1.575   4.158   1.971  1.1961 -0.3978 -0.9591
 8807SOL    HW238055   1.458   4.119   1.894  0.3897 -0.1876 -0.3213
 8808SOL     OW38056   2.807   2.755   9.031 -0.0912  0.2057 -0.1932
 8808SOL    HW138057   2.776   2.763   8.941  0.3256 -1.0604 -0.4472
 8808SOL    HW238058   2.807   2.846   9.061 -0.2707 -0.3506  1.4693
 8809SOL     OW38059   0.283   2.214   2.675 -0.0683 -0.0134 -0.7343
 8809SOL    HW138060   0.198   2.169   2.671  0.0314 -0.0236 -2.7493
 8809SOL    HW238061   0.298   2.234   2.767  1.4141 -0.3388 -0.9123
 8810SOL     OW38062   3.415   3.512   4.773  0.1813 -0.2531  0.1748
 8810SOL    HW138063   3.378   3.556   4.697 -0.0171 -0.2651  0.2649
 8810SOL    HW238064   3.499   3.555   4.785 -0.0944  0.4725 -0.5185
 8811SOL     OW38065   0.024   3.042   4.699  0.1258 -0.3084 -0.0875
 8811SOL    HW138066   0.050   3.006   4.614  1.6232  0.8689 -0.1392
 8811SOL    HW238067   4.675   3.071   4.680 -0.5313 -1.6848  0.8082
 8812SOL     OW38068   3.673   2.080  11.278 -0.0223  0.5450  0.2622
 8812SOL    HW138069   3.702   2.169  11.295  0.7758  0.3082  0.1643
 8812SOL    HW238070   3.760   2.039  11.283 -0.6481 -0.9306 -0.8516
 8813SOL     OW38071   4.400   3.371   3.270  0.6837 -0.1128 -0.4559
 8813SOL    HW138072   4.339   3.327   3.211  0.4109 -1.9336  1.2003
 8813SOL    HW238073   4.358   3.339   3.350  0.3120 -0.0599 -0.6301
 8814SOL     OW38074   3.280   2.686  13.263  0.4454 -0.5929 -0.1738
 8814SOL    HW138075   3.288   2.595  13.291  1.4901 -0.5710 -0.3983
 8814SOL    HW238076   3.372   2.708  13.251  0.2950  1.0849  1.7543
 8815SOL     OW38077   3.045   3.832  10.421 -0.6780  0.4661  0.2895
 8815SOL    HW138078   2.999   3.841  10.338 -0.3853  1.2719  0.2095
 8815SOL    HW238079   3.135   3.816  10.390 -0.4434  3.4868 -0.5646
 8816SOL     OW38080   3.406   2.264   5.849 -0.3190  0.1645 -0.3201
 8816SOL    HW138081   3.496   2.294   5.843 -0.3347  0.0625 -1.0645
 8816SOL    HW238082   3.377   2.274   5.758  0.0029 -1.6314 -0.6282
 8817SOL     OW38083   1.314   3.014   7.780  0.3035 -0.5388  0.0644
 8817SOL    HW138084   1.392   3.068   7.787 -0.8004  1.3261 -1.9735
 8817SOL    HW238085   1.336   2.950   7.712  0.6769  1.5066 -1.7216
 8818SOL     OW38086   2.793   4.071   2.619 -0.4975  0.1642 -0.8317
 8818SOL    HW138087   2.882   4.044   2.595 -0.2072  0.4502 -0.0823
 8818SOL    HW238088   2.747   4.038   2.541 -2.3759  0.6627  0.0607
 8819SOL     OW38089   2.969   3.879  12.640 -0.2442 -0.0917  0.0470
 8819SOL    HW138090   3.050   3.836  12.612 -0.2727 -0.0865 -0.0406
 8819SOL    HW238091   2.949   3.916  12.554 -0.5853 -0.4401 -0.0202
 8820SOL     OW38092   4.115   0.248   1.725 -0.3958 -0.2710 -0.6317
 8820SOL    HW138093   4.057   0.274   1.797 -0.2039 -2.3794  0.2949
 8820SOL    HW238094   4.150   0.332   1.695  2.3043 -0.9472  0.6687
 8821SOL     OW38095   0.966   1.341   2.179 -0.5011 -0.5270  0.2340
 8821SOL    HW138096   0.934   1.404   2.115 -0.0100 -2.1339 -1.5977
 8821SOL    HW238097   1.013   1.295   2.110 -0.7272  0.7931 -0.7990
 8822SOL     OW38098   2.432   1.658  12.098  0.4978 -0.1951 -0.1558
 8822SOL    HW138099   2.480   1.575  12.101  2.0279  0.6944 -0.1816
 8822SOL    HW238100   2.500   1.716  12.132  0.1824 -0.9923  1.8813
 8823SOL     OW38101   3.094   4.070  14.093 -0.0007 -0.2923  0.4649
 8823SOL    HW138102   3.178   4.081  14.048 -0.5110  0.5097 -0.2981
 8823SOL    HW238103   3.111   3.994  14.148 -0.5450 -1.9394 -1.6647
 8824SOL     OW38104   1.147   3.903   6.519  0.1959 -0.1596  0.0104
 8824SOL    HW138105   1.211   3.842   6.482 -1.0861 -1.3478 -0.2637
 8824SOL    HW238106   1.203   3.977   6.539  1.1540 -0.9514  0.2191
 8825SOL     OW38107   0.199   1.897  16.400  0.3831 -0.1232  0.4120
 8825SOL    HW138108   0.269   1.868  16.459  0.9892 -0.2055 -0.3506
 8825SOL    HW238109   0.257   1.926  16.330 -2.7500  3.2706 -0.7474
 8826SOL     OW38110   2.582   4.012   7.362 -0.2693  0.6133  0.3150
 8826SOL    HW138111   2.552   3.942   7.304 -0.9510  0.5553  0.7295
 8826SOL    HW238112   2.519   4.082   7.348 -0.9439  0.0287  0.3960
 8827SOL     OW38113   4.062   1.832   8.539 -0.2934 -0.2474  0.0502
 8827SOL    HW138114   4.021   1.835   8.453  0.2077  0.7995 -0.1464
 8827SOL    HW238115   4.100   1.744   8.535  0.2928  0.0968 -1.9176
 8828SOL     OW38116   2.844   0.119   9.166  0.1640 -0.2478 -0.3682
 8828SOL    HW138117   2.884   0.132   9.252  3.0813  1.2142 -1.9390
 8828SOL    HW238118   2.884   0.182   9.106 -0.3375 -2.5308 -3.0862
 8829SOL     OW38119   1.920   3.048   7.127  0.1310 -0.3579 -0.3772
 8829SOL    HW138120   1.837   3.002   7.136 -0.2758  0.2381 -1.0990
 8829SOL    HW238121   1.887   3.121   7.074  0.4265 -0.0828 -0.1852
 8830SOL     OW38122   3.492   4.739  14.407 -0.5767 -0.1873  0.0275
 8830SOL    HW138123   3.476   0.087  14.372 -1.6231 -0.1164  0.6947
 8830SOL    HW238124   3.588   0.001  14.396 -0.7665  1.5293 -1.3361
 8831SOL     OW38125   1.622   4.723  11.131  0.2487  0.0399  0.1537
 8831SOL    HW138126   1.700   0.009  11.083  1.0917 -1.1686  0.8997
 8831SOL    HW238127   1.658   4.677  11.207 -0.7727 -0.8439  0.1089
 8832SOL     OW38128   2.876   2.040   8.133  0.8956  0.7375  0.3540
 8832SOL    HW138129   2.803   1.993   8.172  1.0065  1.8725  1.9496
 8832SOL    HW238130   2.951   1.996   8.172 -0.1662 -1.3522  0.0122
 8833SOL     OW38131   4.623   2.423   8.037  0.2209  0.6794 -0.2490
 8833SOL    HW138132   4.615   2.472   8.119 -1.4713 -0.8172  0.4878
 8833SOL    HW238133   4.684   2.482   7.994  1.2181 -0.6197 -0.5993
 8834SOL     OW38134   1.139   0.003  14.225 -0.3336  0.2031  0.6956
 8834SOL    HW138135   1.111   0.094  14.218  0.9480  0.4681 -1.0156
 8834SOL    HW238136   1.221   0.005  14.176 -0.4300 -0.7771  0.4766
 8835SOL     OW38137   0.032   2.630   1.488 -0.2870  0.5781  0.2206
 8835SOL    HW138138   0.108   2.663   1.440 -0.8120 -2.0367 -2.3843
 8835SOL    HW238139   4.716   2.601   1.415  1.1529 -1.3441 -0.1018
 8836SOL     OW38140   0.315   2.810   7.912 -0.0024 -0.3810 -0.0493
 8836SOL    HW138141   0.401   2.769   7.915  0.1603  0.0184  0.6959
 8836SOL    HW238142   0.314   2.842   7.821  1.1951  0.6118  0.2776
 8837SOL     OW38143   0.851   0.495  14.550 -0.2250 -0.0511  0.3581
 8837SOL    HW138144   0.864   0.407  14.584 -1.0416 -0.2770  0.0811
 8837SOL    HW238145   0.936   0.535  14.567 -0.6273  0.8115  0.3765
 8838SOL     OW38146   0.642   0.138   7.837 -0.0883  0.2218 -0.1505
 8838SOL    HW138147   0.555   0.122   7.873  0.4277 -0.3597  0.8251
 8838SOL    HW238148   0.635   0.069   7.771  0.5645 -1.1866  1.2524
 8839SOL     OW38149   2.816   1.301   7.484  0.2687  0.2303  0.4703
 8839SOL    HW138150   2.889   1.240   7.494 -1.6933 -2.3566 -1.1158
 8839SOL    HW238151   2.854   1.380   7.522 -1.9914  1.2453  0.5908
 8840SOL     OW38152   4.553   3.442   8.166  0.4405 -0.1509 -0.6792
 8840SOL    HW138153   4.490   3.473   8.102 -1.3854 -1.5988  0.3902
 8840SOL    HW238154   4.551   3.501   8.241  1.0011 -0.6472 -0.2682
 8841SOL     OW38155   2.933   0.824  15.279  0.0963  0.6038  0.1213
 8841SOL    HW138156   2.880   0.757  15.234  1.0315  0.2201 -0.3990
 8841SOL    HW238157   3.005   0.843  15.219 -0.3309 -0.2183 -0.6603
 8842SOL     OW38158   0.637   4.655   5.015  0.2691  0.2776 -0.5257
 8842SOL    HW138159   0.609   4.648   5.106 -0.3794  1.3306 -0.6531
 8842SOL    HW238160   0.599   4.733   4.976  0.0635  0.2202 -0.4372
 8843SOL     OW38161   0.345   4.290   8.080 -0.2964  0.1707  0.6615
 8843SOL    HW138162   0.431   4.327   8.061 -0.3396  0.9706  1.9947
 8843SOL    HW238163   0.332   4.212   8.027 -1.1595  0.0944  0.9712
 8844SOL     OW38164   1.533   3.025  10.636 -0.1172  0.0936  0.3062
 8844SOL    HW138165   1.473   3.086  10.679  0.1903  1.1969 -0.8299
 8844SOL    HW238166   1.611   3.079  10.629 -0.9271  1.2915  0.5149
 8845SOL     OW38167   2.117   4.690   5.403  0.4407 -0.3404  0.8395
 8845SOL    HW138168   2.122   4.676   5.309  0.8793  0.5327  0.7384
 8845SOL    HW238169   2.185   4.628   5.428  1.5967  1.1274  1.3435
 8846SOL     OW38170   0.525   2.162   8.699  0.3020 -0.2225  0.2634
 8846SOL    HW138171   0.465   2.151   8.625  0.1103  2.9671 -0.0582
 8846SOL    HW238172   0.602   2.124   8.655  1.0998  0.6867  0.8797
 8847SOL     OW38173   3.085   0.986  14.677 -0.4311  0.1755  0.7435
 8847SOL    HW138174   3.048   1.052  14.737  1.9173  2.6001 -0.4950
 8847SOL    HW238175   3.030   1.015  14.604 -0.2551  0.0784  0.5743
 8848SOL     OW38176   2.053   2.840   6.339 -0.2213  0.0146  0.4553
 8848SOL    HW138177   2.042   2.811   6.429 -0.8876 -0.1539  0.3207
 8848SOL    HW238178   2.129   2.787   6.317  0.5313  0.2949  2.4631
 8849SOL     OW38179   4.616   1.076   7.548  0.0998 -0.1276  0.1604
 8849SOL    HW138180   4.561   1.058   7.471  1.6167 -0.6353 -0.8107
 8849SOL    HW238181   4.653   1.158   7.513  1.4305 -1.8346 -2.4329
 8850SOL     OW38182   1.154   0.191   0.473 -0.0537  0.3199 -0.2918
 8850SOL    HW138183   1.120   0.242   0.547  0.7309  1.7616 -0.9258
 8850SOL    HW238184   1.090   0.223   0.409 -0.5544  4.4567  2.2641
 8851SOL     OW38185   2.447   1.133   4.047 -0.0944  0.1322  0.0132
 8851SOL    HW138186   2.352   1.143   4.061 -0.4068 -0.5615 -1.6094
 8851SOL    HW238187   2.449   1.050   3.999 -1.3637  0.9261 -1.4266
 8852SOL     OW38188   4.615   4.557   9.744  0.3560 -0.1108 -0.2010
 8852SOL    HW138189   4.573   4.491   9.689  1.3170 -0.9406  0.0799
 8852SOL    HW238190   4.706   4.561   9.713 -0.2144  2.0108 -1.6304
 8853SOL     OW38191   0.233   1.348  14.481  0.2467 -1.1328 -0.1448
 8853SOL    HW138192   0.260   1.435  14.509  0.6505 -0.9566 -1.0993
 8853SOL    HW238193   0.217   1.304  14.565  0.4091  1.4420  1.2161
 8854SOL     OW38194   2.360   1.354   7.604 -0.8331  0.0060 -0.1837
 8854SOL    HW138195   2.353   1.313   7.518 -2.3635 -0.6990  0.2706
 8854SOL    HW238196   2.446   1.394   7.605 -0.4864 -0.6611 -2.1416
 8855SOL     OW38197   4.624   0.428  11.961 -0.0107 -0.0710  0.5787
 8855SOL    HW138198   4.568   0.504  11.945  0.2871 -0.1354 -0.7297
 8855SOL    HW238199   4.562   0.382  12.018 -0.3359 -0.6270 -0.2361
 8856SOL     OW38200   0.133   3.636   7.633 -0.4046  0.0994  0.0047
 8856SOL    HW138201   0.088   3.713   7.597  0.7033 -0.7850 -3.3164
 8856SOL    HW238202   0.069   3.565   7.623  0.6871 -0.8371 -0.3352
 8857SOL     OW38203   2.135   4.351   0.035  0.2056  0.4303  0.4916
 8857SOL    HW138204   2.181   4.332   0.117  0.5297 -0.3855  0.1257
 8857SOL    HW238205   2.055   4.393   0.066  1.4144  1.4829  2.2107
 8858SOL     OW38206   1.657   4.432   0.961 -0.8798 -0.7173  0.3563
 8858SOL    HW138207   1.663   4.526   0.976 -2.4982 -0.4119 -0.9384
 8858SOL    HW238208   1.735   4.391   1.000  1.2719  2.0914 -1.0330
 8859SOL     OW38209   0.884   1.719   2.683  0.2571  0.0964 -0.1379
 8859SOL    HW138210   0.839   1.768   2.615 -0.2128 -1.3061 -0.8353
 8859SOL    HW238211   0.960   1.770   2.710  0.7941 -0.1147 -1.2803
 8860SOL     OW38212   3.266   1.675   4.302  0.1432  0.3286  0.1115
 8860SOL    HW138213   3.342   1.722   4.337  0.3266 -0.8084  1.2114
 8860SOL    HW238214   3.200   1.687   4.370  0.5275  0.8812  0.3940
 8861SOL     OW38215   1.043   4.461   3.301  0.7387  0.0399 -0.2380
 8861SOL    HW138216   1.116   4.476   3.362  0.6027  1.8107 -0.5177
 8861SOL    HW238217   1.084   4.501   3.224 -3.1548  0.7602 -1.8991
 8862SOL     OW38218   3.881   2.227   0.948 -0.2528  0.1020 -0.5556
 8862SOL    HW138219   3.961   2.206   0.998 -1.0151 -0.7528  0.3105
 8862SOL    HW238220   3.904   2.315   0.918 -1.6755  0.9679  0.8638
 8863SOL     OW38221   2.646   3.427   4.166 -0.1806 -0.7094 -0.3601
 8863SOL    HW138222   2.575   3.367   4.187  0.9791 -0.9649  2.8576
 8863SOL    HW238223   2.718   3.370   4.140 -2.2164 -3.8515  0.9813
 8864SOL     OW38224   1.231   4.605  15.703 -0.1008  0.1284  0.5432
 8864SOL    HW138225   1.286   4.527  15.696 -0.8183 -0.5315  2.2235
 8864SOL    HW238226   1.248   4.642  15.616  0.4285 -0.5299  0.3665
 8865SOL     OW38227   0.887   3.053   5.654  0.4403 -0.0349 -0.0441
 8865SOL    HW138228   0.802   3.009   5.649  0.3450 -0.0875  1.8878
 8865SOL    HW238229   0.894   3.071   5.748  3.7864  0.9056 -0.4544
 8866SOL     OW38230   1.883   0.913   3.166 -0.4180  0.0169 -0.0334
 8866SOL    HW138231   1.913   0.935   3.255  3.1469  1.7340 -1.6154
 8866SOL    HW238232   1.799   0.957   3.155 -0.8706 -0.4449  1.5901
 8867SOL     OW38233   4.481   4.299   7.792 -0.2636  0.3343  0.2401
 8867SOL    HW138234   4.521   4.384   7.806  0.5078  0.0530 -0.2773
 8867SOL    HW238235   4.540   4.243   7.844  0.0009  1.2420  0.9201
 8868SOL     OW38236   1.322   3.971   4.074  0.3615 -0.2151 -0.4548
 8868SOL    HW138237   1.234   3.942   4.049 -0.4758  3.4697 -1.6975
 8868SOL    HW238238   1.291   4.013   4.154  2.4056  3.3963 -1.5549
 8869SOL     OW38239   1.154   4.635  16.675 -0.2858  0.0365 -0.3933
 8869SOL    HW138240   1.231   4.606  16.625  0.9639  1.2900  0.8327
 8869SOL    HW238241   1.111   4.673  16.598 -1.3672  1.0379  0.7252
 8870SOL     OW38242   0.897   0.744   2.500  0.7211  0.5281  0.3099
 8870SOL    HW138243   0.862   0.711   2.418 -0.5844  0.5049  0.8689
 8870SOL    HW238244   0.947   0.820   2.471  1.6700 -0.3668 -0.3892
 8871SOL     OW38245   1.941   4.461   4.006 -0.5199 -0.9917  0.0899
 8871SOL    HW138246   2.006   4.458   4.076  0.0442 -0.9001 -0.4374
 8871SOL    HW238247   1.984   4.401   3.945  2.7706 -0.2120  1.6468
 8872SOL     OW38248   0.391   2.515   0.080  0.0967 -0.8948 -0.1096
 8872SOL    HW138249   0.446   2.497   0.004  0.4737 -2.7321  0.5883
 8872SOL    HW238250   0.337   2.587   0.050  0.1196 -0.9001 -0.1632
 8873SOL     OW38251   2.195   1.838   8.014  0.7631 -0.1144  0.1267
 8873SOL    HW138252   2.281   1.836   7.972 -0.5705  0.5711 -2.6725
 8873SOL    HW238253   2.215   1.795   8.097 -1.7367  0.0744  0.8013
 8874SOL     OW38254   3.606   0.236  12.939 -0.2516 -0.3866  0.7760
 8874SOL    HW138255   3.614   0.227  13.034 -1.0484 -2.0889  0.6778
 8874SOL    HW238256   3.559   0.319  12.930  0.0480 -0.2383  0.5778
 8875SOL     OW38257   3.339   3.081   2.066  0.2967  0.3055 -0.3171
 8875SOL    HW138258   3.302   3.169   2.058  0.1519  0.3538  0.9060
 8875SOL    HW238259   3.374   3.075   1.977  2.0506 -1.7147  0.5020
 8876SOL     OW38260   3.331   4.258   0.099 -0.2789 -0.2887 -0.1642
 8876SOL    HW138261   3.334   4.242   0.005 -0.8271  2.1196 -0.5864
 8876SOL    HW238262   3.296   4.177   0.137  1.8737 -1.2673 -0.2624
 8877SOL     OW38263   4.599   2.017  11.257 -0.8391  0.1871  0.0934
 8877SOL    HW138264   4.655   2.039  11.183 -1.2899  0.5973 -0.1236
 8877SOL    HW238265   4.570   1.935  11.217  3.4656 -1.9264  1.2988
 8878SOL     OW38266   4.612   0.917   3.295  0.2204 -0.5080  0.7106
 8878SOL    HW138267   4.599   0.991   3.354  2.2979 -0.2248  0.7928
 8878SOL    HW238268   4.683   0.871   3.338  0.8686 -0.5997 -0.4501
 8879SOL     OW38269   3.161   1.641   8.478 -0.2308 -0.2225 -0.1530
 8879SOL    HW138270   3.080   1.613   8.436 -2.7070  2.7842  2.6325
 8879SOL    HW238271   3.224   1.571   8.462  0.3262 -0.0744  1.4244
 8880SOL     OW38272   0.944   3.818   5.679 -0.1007 -0.5119  0.3594
 8880SOL    HW138273   0.867   3.857   5.721  0.5640 -1.4647  2.4443
 8880SOL    HW238274   1.001   3.892   5.659  0.7752 -1.7542 -1.6848
 8881SOL     OW38275   4.181   3.898   7.640 -0.4658  0.3181  0.0269
 8881SOL    HW138276   4.130   3.863   7.567  0.1511 -2.2501  0.8286
 8881SOL    HW238277   4.163   3.991   7.622 -1.3693 -0.0888 -1.1458
 8882SOL     OW38278   2.084   1.024   5.607  0.2699 -0.1603  0.0925
 8882SOL    HW138279   2.165   1.048   5.652 -1.4061  5.3576  0.1575
 8882SOL    HW238280   2.112   1.029   5.515 -0.2068 -0.0738 -0.0512
 8883SOL     OW38281   1.222   1.704  13.583  0.2280  0.1867  0.2659
 8883SOL    HW138282   1.241   1.754  13.503 -1.6219  1.1205  0.4262
 8883SOL    HW238283   1.141   1.658  13.559  1.9928 -2.3011 -1.0121
 8884SOL     OW38284   1.011   3.366  17.525 -0.4255  0.2310 -0.3804
 8884SOL    HW138285   0.916   3.355  17.514 -0.1641 -0.9224 -1.4557
 8884SOL    HW238286   1.044   3.284  17.489 -0.7363 -0.4530  0.8982
 8885SOL     OW38287   0.964   4.097   0.272  0.2358  0.3205 -0.4082
 8885SOL    HW138288   1.033   4.155   0.240  0.2883 -0.8970 -2.4934
 8885SOL    HW238289   1.023   4.049   0.331  1.4929  0.5334 -1.5012
 8886SOL     OW38290   0.343   3.862   5.381 -0.0051 -0.1965 -0.0557
 8886SOL    HW138291   0.354   3.767   5.383 -1.4246 -0.3770 -0.1740
 8886SOL    HW238292   0.433   3.885   5.400  0.3154 -0.1399 -1.6822
 8887SOL     OW38293   2.543   0.086   6.338  0.4439 -0.1939 -0.2955
 8887SOL    HW138294   2.482   0.132   6.280  0.8680 -0.0408 -0.6162
 8887SOL    HW238295   2.480   0.035   6.389  0.7857 -0.7075 -0.3809
 8888SOL     OW38296   2.635   1.125  16.246 -0.0217 -0.3848 -0.5792
 8888SOL    HW138297   2.541   1.141  16.251  0.0732 -0.1685  0.3867
 8888SOL    HW238298   2.669   1.178  16.318  0.4625 -0.6463 -0.6187
 8889SOL     OW38299   0.451   1.521   1.849 -0.2375  0.2039  0.5871
 8889SOL    HW138300   0.451   1.490   1.759 -0.5246  0.3482  0.5353
 8889SOL    HW238301   0.356   1.527   1.863 -0.1475  2.8201  0.2263
 8890SOL     OW38302   3.640   4.135  16.629  0.1346 -0.2683 -0.2012
 8890SOL    HW138303   3.693   4.139  16.708  1.9805  1.9523 -1.5694
 8890SOL    HW238304   3.715   4.152  16.572 -0.2691 -0.4656 -0.7962
 8891SOL     OW38305   1.319   2.006   2.966  0.2575  0.2030 -0.0569
 8891SOL    HW138306   1.275   1.960   3.037 -0.7715  2.4695  0.7754
 8891SOL    HW238307   1.372   1.931   2.940  1.5755  0.8634  0.7612
 8892SOL     OW38308   3.244   4.423   9.308  0.2562 -0.1543 -0.2507
 8892SOL    HW138309   3.307   4.403   9.377 -0.8595  0.8487  1.0414
 8892SOL    HW238310   3.154   4.418   9.339 -0.5215  0.2629 -2.4022
 8893SOL     OW38311   0.252   2.100  10.579  0.1683 -0.2011  0.3484
 8893SOL    HW138312   0.233   2.059  10.494  2.8638 -1.0779  0.1616
 8893SOL    HW238313   0.344   2.117  10.557  0.2071  0.5721  1.1366
 8894SOL     OW38314   2.385   2.377   3.342 -0.0812 -0.0737  0.1053
 8894SOL    HW138315   2.350   2.303   3.293 -3.2838 -0.0112  2.2845
 8894SOL    HW238316   2.477   2.360   3.362  0.3486  2.3891  0.2961
 8895SOL     OW38317   1.081   0.338   1.467  0.2542  0.2117 -0.7667
 8895SOL    HW138318   1.108   0.355   1.377  1.0170 -1.0308 -0.7764
 8895SOL    HW238319   1.091   0.243   1.480 -2.7951 -0.2977 -2.0852
 8896SOL     OW38320   3.806   0.242   3.846 -0.5728 -0.5515 -0.0595
 8896SOL    HW138321   3.803   0.240   3.942 -0.8988 -1.1968 -0.0814
 8896SOL    HW238322   3.727   0.295   3.831 -0.7894 -0.8227  0.1172
 8897SOL     OW38323   3.337   2.318   1.855 -0.8594  0.1062  0.1691
 8897SOL    HW138324   3.334   2.325   1.950 -1.9658 -0.1172  0.1427
 8897SOL    HW238325   3.424   2.353   1.835 -0.2623 -1.1277  0.6016
 8898SOL     OW38326   3.803   3.563  10.975  0.4596  0.4808  0.5987
 8898SOL    HW138327   3.842   3.477  10.993  1.4339  1.1269  1.5887
 8898SOL    HW238328   3.709   3.544  10.980 -0.0616  3.0752  0.3932
 8899SOL     OW38329   1.159   4.650   2.451 -0.0031  0.0637  0.4474
 8899SOL    HW138330   1.221   4.658   2.524  1.1181 -1.3683 -0.3330
 8899SOL    HW238331   1.104   4.583   2.492 -0.4453  0.9150  1.2424
 8900SOL     OW38332   2.624   4.724   6.087  0.6616 -0.5318 -0.2498
 8900SOL    HW138333   2.616   4.672   6.167 -1.3400  0.2382  0.0338
 8900SOL    HW238334   2.562   0.055   6.102  1.4166  0.1749 -0.4192
 8901SOL     OW38335   0.702   0.143  14.931  0.2195  0.0573  0.2207
 8901SOL    HW138336   0.655   0.205  14.876  0.0251  0.4353  0.8174
 8901SOL    HW238337   0.630   0.087  14.961 -1.7357  0.6489 -3.2354
 8902SOL     OW38338   0.812   1.409   8.707  0.3260  0.3834  0.3981
 8902SOL    HW138339   0.831   1.499   8.682 -1.4617  0.3452 -1.1521
 8902SOL    HW238340   0.892   1.367   8.675 -0.7998 -1.9534  0.6397
 8903SOL     OW38341   4.012   4.555   4.813  0.6112 -0.2611 -0.1018
 8903SOL    HW138342   3.976   4.613   4.746 -0.0762 -0.9779 -0.3435
 8903SOL    HW238343   4.019   4.475   4.760  0.4107 -0.4562  0.1658
 8904SOL     OW38344   1.286   3.358   8.487 -0.6499 -0.3913 -0.1736
 8904SOL    HW138345   1.220   3.424   8.506  0.9749  0.6516  1.8057
 8904SOL    HW238346   1.244   3.275   8.510 -0.9218 -0.4731 -0.9525
 8905SOL     OW38347   3.386   0.919   8.090 -1.3659  0.1866  0.2997
 8905SOL    HW138348   3.368   0.994   8.145 -0.6371 -0.5737  1.5666
 8905SOL    HW238349   3.335   0.847   8.128 -1.9569 -1.5428 -3.7345
 8906SOL     OW38350   4.732   4.456  10.495 -0.0310  0.7186  0.1228
 8906SOL    HW138351   0.057   4.408  10.444 -0.0157 -0.1896  0.9906
 8906SOL    HW238352   4.686   4.505  10.426  0.8080  2.6277  0.9154
 8907SOL     OW38353   2.615   0.540  12.898  0.4544 -0.7218  0.3317
 8907SOL    HW138354   2.557   0.478  12.942  0.8013 -1.8370 -0.7836
 8907SOL    HW238355   2.695   0.489  12.890 -0.2155 -1.7507  0.1777
 8908SOL     OW38356   2.061   0.733  17.414 -0.4463 -0.1014  0.4421
 8908SOL    HW138357   2.130   0.688  17.461 -0.3732 -0.0200  0.4123
 8908SOL    HW238358   1.989   0.669  17.413  0.8904 -1.5985  3.9917
 8909SOL     OW38359   2.629   1.444   7.639 -0.5807 -0.0762  0.4160
 8909SOL    HW138360   2.647   1.412   7.728 -2.5117 -0.5797  0.6152
 8909SOL    HW238361   2.669   1.379   7.582  0.0230  1.3231 -0.7535
 8910SOL     OW38362   2.052   2.338   2.754  0.1833  0.8830  0.1739
 8910SOL    HW138363   1.992   2.295   2.814 -0.0421  0.3386 -0.4397
 8910SOL    HW238364   2.026   2.429   2.770  0.5709  1.1039 -0.4256
 8911SOL     OW38365   0.894   3.613   1.178 -0.0333  0.5216 -0.5736
 8911SOL    HW138366   0.947   3.693   1.184  1.7568 -0.6783 -0.3519
 8911SOL    HW238367   0.830   3.625   1.248 -2.6558 -0.0135 -2.8765
 8912SOL     OW38368   3.682   3.041   5.851 -0.0015 -0.2890 -0.2481
 8912SOL    HW138369   3.732   2.969   5.812 -0.0921  0.0143 -0.9328
 8912SOL    HW238370   3.644   3.091   5.779  0.1034  0.3972  0.1812
 8913SOL     OW38371   3.190   2.122   6.579 -0.5572  0.8945  0.5030
 8913SOL    HW138372   3.105   2.131   6.622 -2.2491  1.2209 -2.8319
 8913SOL    HW238373   3.228   2.057   6.637 -1.0740  0.2138  0.0762
 8914SOL     OW38374   3.724   1.638  12.459  0.0774  0.3300  0.5449
 8914SOL    HW138375   3.671   1.632  12.538  1.2220 -1.4068  1.1973
 8914SOL    HW238376   3.691   1.724  12.434 -1.9949 -0.2574  1.2542
 8915SOL     OW38377   3.392   4.219   9.458  0.1504 -0.0622 -0.4895
 8915SOL    HW138378   3.318   4.187   9.407 -1.2323  2.0411  0.1932
 8915SOL    HW238379   3.439   4.136   9.451 -3.5072 -2.0603 -1.1616
 8916SOL     OW38380   3.536   0.487   8.181 -0.0203 -0.1769  0.0625
 8916SOL    HW138381   3.537   0.440   8.098 -1.9967 -1.2634  0.6323
 8916SOL    HW238382   3.454   0.446   8.211  1.4310 -0.9921  2.9785
 8917SOL     OW38383   1.415   1.436   7.687  0.8725 -0.3328 -0.1168
 8917SOL    HW138384   1.358   1.414   7.613 -1.1437  1.9586  0.7336
 8917SOL    HW238385   1.474   1.363   7.669  2.6654  0.9484  0.5501
 8918SOL     OW38386   3.773   0.528  15.846 -0.0795  0.5945 -0.1955
 8918SOL    HW138387   3.782   0.582  15.925  0.0966  0.3723 -0.0644
 8918SOL    HW238388   3.716   0.588  15.798  0.1471  0.5797 -0.4774
 8919SOL     OW38389   4.161   0.368  12.098  0.0952 -0.2310 -0.3831
 8919SOL    HW138390   4.176   0.333  12.185 -1.4335  0.9596  0.3798
 8919SOL    HW238391   4.104   0.304  12.055  1.2544 -1.6905  0.2801
 8920SOL     OW38392   4.514   4.014   5.885  0.5280  0.2098  0.5850
 8920SOL    HW138393   4.513   4.038   5.793 -0.8584 -1.3493  0.2150
 8920SOL    HW238394   4.609   4.001   5.888  0.7831  1.3967 -2.1193
 8921SOL     OW38395   2.864   3.915  10.605  0.1649 -0.3100  0.3852
 8921SOL    HW138396   2.935   3.879  10.552 -1.3986 -1.1441 -1.1380
 8921SOL    HW238397   2.787   3.871  10.569  0.8914 -0.3754 -1.1101
 8922SOL     OW38398   1.588   0.651   8.562 -0.0373  0.3069 -0.7406
 8922SOL    HW138399   1.614   0.567   8.601 -2.7756 -0.5955 -0.8928
 8922SOL    HW238400   1.512   0.624   8.511 -1.2936  1.4681  0.5344
 8923SOL     OW38401   0.233   4.172   1.824 -0.2571 -0.3694  0.1040
 8923SOL    HW138402   0.143   4.152   1.850 -0.7364 -0.9111 -2.0047
 8923SOL    HW238403   0.237   4.165   1.729 -2.0771  1.2670 -0.0909
 8924SOL     OW38404   0.507   0.326  13.135 -0.6473  0.4276 -0.6861
 8924SOL    HW138405   0.460   0.402  13.101 -0.2362  0.0586 -2.1015
 8924SOL    HW238406   0.463   0.255  13.089  3.3239 -3.2393  1.2432
 8925SOL     OW38407   1.644   1.571   4.655 -0.3708 -0.2635 -0.0450
 8925SOL    HW138408   1.574   1.629   4.625  1.6784  2.0232 -0.4130
 8925SOL    HW238409   1.685   1.543   4.574  2.2504  1.7697  0.5552
 8926SOL     OW38410   3.168   4.167   7.611  0.4829  0.4187 -0.2045
 8926SOL    HW138411   3.088   4.217   7.597  1.6961  1.9589 -1.7547
 8926SOL    HW238412   3.136   4.092   7.660 -0.2227  0.9846  0.1933
 8927SOL     OW38413   1.336   2.508   2.730  0.1204 -0.1586  0.1117
 8927SOL    HW138414   1.315   2.424   2.772 -0.3869  0.4266  1.0426
 8927SOL    HW238415   1.250   2.545   2.711  1.2702  1.7010 -1.3528
 8928SOL     OW38416   1.922   1.803  15.686 -0.8450  0.5036  0.0238
 8928SOL    HW138417   2.005   1.782  15.730 -1.0108 -0.9000 -0.3113
 8928SOL    HW238418   1.888   1.714  15.673 -1.7965  0.7098  1.0911
 8929SOL     OW38419   2.627   2.531   2.883  0.1718  1.0494  0.1670
 8929SOL    HW138420   2.602   2.495   2.798 -1.2878  2.4605 -0.0193
 8929SOL    HW238421   2.722   2.536   2.877  0.0409  0.9787 -1.7706
 8930SOL     OW38422   0.386   4.655   4.373  0.0887 -0.0334  0.2847
 8930SOL    HW138423   0.298   4.619   4.375 -0.8277  2.1043 -1.6518
 8930SOL    HW238424   0.406   4.651   4.279  0.4760  1.5103  0.3061
 8931SOL     OW38425   1.321   1.075   5.036 -0.0456  0.1966  0.3447
 8931SOL    HW138426   1.341   0.981   5.038  0.3720  0.2688 -0.5192
 8931SOL    HW238427   1.226   1.072   5.035  0.0117 -0.6318 -1.3278
 8932SOL     OW38428   4.338   0.276   6.371  0.6511  0.1494  0.1181
 8932SOL    HW138429   4.288   0.309   6.296  1.0100 -1.2677 -0.7706
 8932SOL    HW238430   4.279   0.299   6.443 -1.7796  0.9286 -2.1186
 8933SOL     OW38431   3.344   3.624  11.752 -0.7303 -0.2568  0.0533
 8933SOL    HW138432   3.324   3.557  11.816 -1.4156  0.6592  0.7914
 8933SOL    HW238433   3.379   3.695  11.806 -0.4169 -0.9841  0.8053
 8934SOL     OW38434   1.569   1.040   5.735 -0.1225  0.1860  0.3489
 8934SOL    HW138435   1.537   0.983   5.805 -0.4694 -0.0017  0.0359
 8934SOL    HW238436   1.493   1.041   5.677  1.9144 -0.3785 -2.3432
 8935SOL     OW38437   4.478   1.066   7.269 -0.1621 -0.3108 -0.5278
 8935SOL    HW138438   4.468   0.996   7.205 -1.0355 -0.2827 -0.4297
 8935SOL    HW238439   4.510   1.142   7.220 -0.6562  0.7175  0.7193
 8936SOL     OW38440   3.319   2.634   9.091  0.1472 -0.7409 -0.3802
 8936SOL    HW138441   3.323   2.603   9.182  1.4018 -1.1419 -0.5639
 8936SOL    HW238442   3.225   2.620   9.086 -0.0665  0.0591  1.2500
 8937SOL     OW38443   1.604   0.060  15.213  0.4006 -0.4785  0.0480
 8937SOL    HW138444   1.546   0.073  15.288 -0.4560 -1.3594 -0.4687
 8937SOL    HW238445   1.646   0.145  15.197 -1.3309  0.3938  0.1388
 8938SOL     OW38446   2.179   3.169   7.260 -0.3395 -0.2182 -0.0040
 8938SOL    HW138447   2.194   3.245   7.204 -0.4462  0.9344  1.5214
 8938SOL    HW238448   2.243   3.181   7.331  0.5369  0.2755 -0.8624
 8939SOL     OW38449   2.973   4.552   1.461 -0.0356 -0.6495 -0.1110
 8939SOL    HW138450   2.906   4.488   1.437 -0.3139 -0.5572  0.4101
 8939SOL    HW238451   2.944   4.624   1.405 -2.8244 -1.5926  0.1076
 8940SOL     OW38452   0.245   3.014   5.391 -0.0908 -0.5433  0.3168
 8940SOL    HW138453   0.332   3.054   5.395 -0.3789 -0.1418  2.1872
 8940SOL    HW238454   0.254   2.984   5.300  0.6905  3.0357 -0.7968
 8941SOL     OW38455   2.745   3.981  17.334 -0.0709 -0.7883  1.0467
 8941SOL    HW138456   2.650   3.972  17.327 -0.1201  0.0347  0.6854
 8941SOL    HW238457   2.765   4.074  17.331 -0.5371 -0.7163  0.1622
 8942SOL     OW38458   1.696   2.444   4.494  0.0900  0.1780 -0.3147
 8942SOL    HW138459   1.603   2.457   4.478  0.5847  1.3301 -2.3173
 8942SOL    HW238460   1.701   2.466   4.587  0.4345 -0.5353 -0.1632
 8943SOL     OW38461   1.832   3.023   4.482 -0.0680  0.0242  0.8186
 8943SOL    HW138462   1.786   2.987   4.407 -0.1734  1.5970  0.1233
 8943SOL    HW238463   1.817   2.944   4.534  2.3248 -1.4722 -0.8015
 8944SOL     OW38464   1.281   2.299  10.280 -0.1089 -0.1353 -0.3599
 8944SOL    HW138465   1.236   2.234  10.334  1.0968 -0.0145  0.7849
 8944SOL    HW238466   1.302   2.363  10.349 -0.7318 -1.3326  0.9486
 8945SOL     OW38467   3.086   2.585   4.042 -0.4625 -0.3539  0.1718
 8945SOL    HW138468   3.095   2.502   4.089  0.3783  0.5092  1.4898
 8945SOL    HW238469   3.048   2.550   3.961 -0.3162 -0.2669  0.0661
 8946SOL     OW38470   2.249   3.181   7.767  0.4029 -0.2217 -0.2295
 8946SOL    HW138471   2.228   3.134   7.848  0.3566 -1.5798 -1.0463
 8946SOL    HW238472   2.222   3.120   7.699  0.5543 -1.5218  0.8672
 8947SOL     OW38473   4.403   2.144   4.712  0.1204 -0.2053 -0.4024
 8947SOL    HW138474   4.487   2.164   4.753 -0.1133 -0.2072  0.0781
 8947SOL    HW238475   4.346   2.112   4.782 -0.0749  0.6135 -0.1940
 8948SOL     OW38476   3.470   0.857  12.025  0.1152 -0.0353  0.0198
 8948SOL    HW138477   3.529   0.845  11.951  0.9028 -1.0008  0.7861
 8948SOL    HW238478   3.397   0.803  11.994  2.4491 -1.2323 -3.3878
 8949SOL     OW38479   2.422   4.360   7.536  0.4810  0.1982 -0.1189
 8949SOL    HW138480   2.348   4.341   7.594  0.4432 -1.0457 -0.5726
 8949SOL    HW238481   2.406   4.298   7.465 -1.7406 -0.5228  0.9644
 8950SOL     OW38482   4.281   0.889   9.131  0.2193 -0.1045 -0.0962
 8950SOL    HW138483   4.352   0.900   9.068 -1.5877 -0.3965 -2.1649
 8950SOL    HW238484   4.304   0.948   9.203  0.0037  0.1372 -0.2228
 8951SOL     OW38485   4.708   0.665   1.698 -0.5889  0.0497 -0.0580
 8951SOL    HW138486   0.037   0.662   1.764 -1.1344 -1.9420  0.4143
 8951SOL    HW238487   4.690   0.575   1.670  0.6157 -0.7056  1.6324
 8952SOL     OW38488   2.977   0.169   9.394 -0.0974 -0.1792 -0.4505
 8952SOL    HW138489   3.027   0.093   9.423  0.1853  0.4818  0.7826
 8952SOL    HW238490   2.941   0.195   9.479  1.6022 -1.1130  0.5578
 8953SOL     OW38491   0.982   1.503   0.900  0.4415 -0.2780 -0.3339
 8953SOL    HW138492   0.965   1.447   0.824  1.4309  0.5708 -1.1716
 8953SOL    HW238493   1.074   1.484   0.915 -0.1026 -1.3804  1.6589
 8954SOL     OW38494   0.018   0.079  16.194  0.3162 -0.0312 -0.5954
 8954SOL    HW138495   4.681   0.104  16.142  0.5322  2.4396  0.2613
 8954SOL    HW238496   0.006   4.725  16.180 -0.8634  0.1462 -0.7216
 8955SOL     OW38497   4.604   3.177   5.681 -0.0542 -0.0296 -0.2609
 8955SOL    HW138498   4.692   3.143   5.669  0.4302  1.5481 -1.1369
 8955SOL    HW238499   4.610   3.268   5.709  1.2248 -0.8518  2.0567
 8956SOL     OW38500   4.631   0.817   8.299 -0.0961  0.1492 -0.1816
 8956SOL    HW138501   4.587   0.750   8.351  1.8859 -0.3837  0.7940
 8956SOL    HW238502   4.627   0.901   8.345 -1.3476 -0.4088  0.7506
 8957SOL     OW38503   3.956   2.455   7.513  0.8259 -0.1905 -0.3732
 8957SOL    HW138504   3.986   2.531   7.464 -0.8575  1.0835  0.5669
 8957SOL    HW238505   3.891   2.486   7.576  1.5818  0.5668  0.0343
 8958SOL     OW38506   1.978   3.013   7.910 -0.4978  0.1760  0.5831
 8958SOL    HW138507   1.960   3.106   7.893 -0.3948 -0.1619 -1.3066
 8958SOL    HW238508   2.064   3.016   7.952 -0.9182  2.2752  1.3024
 8959SOL     OW38509   1.868   2.317   4.036 -0.7958 -0.0065 -0.0159
 8959SOL    HW138510   1.904   2.401   4.005  1.2253 -1.3622 -1.3528
 8959SOL    HW238511   1.945   2.264   4.015 -1.5947 -0.6847 -1.2573
 8960SOL     OW38512   3.728   2.427   9.074 -0.4823 -0.1201  0.6070
 8960SOL    HW138513   3.663   2.376   9.025 -0.1014  0.9628 -1.0126
 8960SOL    HW238514   3.757   2.371   9.146  3.5144  2.1153  0.7266
 8961SOL     OW38515   2.493   2.618   8.302  0.1542 -0.2216  0.5230
 8961SOL    HW138516   2.495   2.522   8.292 -4.4728 -0.5451  2.5448
 8961SOL    HW238517   2.429   2.628   8.373  1.5121 -2.4990  2.0676
 8962SOL     OW38518   3.895   4.110  11.545 -0.2984  0.5803  0.0883
 8962SOL    HW138519   3.888   4.017  11.523  0.4816  0.5712 -0.1466
 8962SOL    HW238520   3.990   4.116  11.534  0.1416 -1.4686  2.6294
 8963SOL     OW38521   1.304   2.536   0.991 -0.2929 -0.3621 -0.6127
 8963SOL    HW138522   1.254   2.570   0.917  1.3862 -0.8833 -1.9939
 8963SOL    HW238523   1.333   2.610   1.045 -0.9640 -1.0432  0.6850
 8964SOL     OW38524   3.647   3.661   7.708  0.1530 -0.2689  0.1276
 8964SOL    HW138525   3.628   3.617   7.625  0.5275 -2.4108  1.1627
 8964SOL    HW238526   3.710   3.730   7.689  0.4821 -0.3828  0.8281
 8965SOL     OW38527   1.822   2.025   7.717 -0.4889  0.4502 -0.6392
 8965SOL    HW138528   1.878   1.947   7.719  0.3823  1.0685 -0.8523
 8965SOL    HW238529   1.736   1.984   7.720 -0.1238 -0.2406  0.7331
 8966SOL     OW38530   3.279   4.057   4.457 -0.6464  0.0729 -0.3858
 8966SOL    HW138531   3.298   4.034   4.366 -0.5823 -0.5725 -0.2098
 8966SOL    HW238532   3.295   4.151   4.443  0.2973 -0.2329 -1.3371
 8967SOL     OW38533   3.810   0.911   2.384  0.2816 -0.2155  0.5293
 8967SOL    HW138534   3.753   0.961   2.442 -0.5160  0.6756 -1.0279
 8967SOL    HW238535   3.752   0.898   2.308  0.6124 -1.0760  0.4237
 8968SOL     OW38536   4.248   4.294   6.720  0.1791 -0.0555 -0.0494
 8968SOL    HW138537   4.290   4.208   6.730 -0.9394 -1.0856 -4.1792
 8968SOL    HW238538   4.163   4.281   6.762 -1.2471  2.5902 -2.0987
 8969SOL     OW38539   2.728   3.890   1.923  0.1527  0.0492  0.1482
 8969SOL    HW138540   2.788   3.858   1.856  0.7030  0.7056  0.3348
 8969SOL    HW238541   2.782   3.945   1.979 -0.4425  1.3525 -0.5625
 8970SOL     OW38542   3.395   3.164   6.575  0.3375  0.0616 -0.2158
 8970SOL    HW138543   3.384   3.252   6.539  0.0123  0.3267  0.5328
 8970SOL    HW238544   3.351   3.110   6.509 -2.5527  2.0149  0.1639
 8971SOL     OW38545   3.684   3.647   1.983  0.0032 -0.2675 -0.5185
 8971SOL    HW138546   3.776   3.632   2.006  0.2626  0.1727 -1.2577
 8971SOL    HW238547   3.679   3.593   1.904 -0.6796 -0.5275 -0.2959
 8972SOL     OW38548   0.591   4.033   3.051  0.2382  0.7740 -0.0234
 8972SOL    HW138549   0.616   3.943   3.073 -1.1052  0.7458  1.3498
 8972SOL    HW238550   0.613   4.056   2.961  0.2335  2.4175  0.3821
 8973SOL     OW38551   3.871   3.915  17.642  0.0344 -0.0943  0.0552
 8973SOL    HW138552   3.777   3.926  17.660 -0.0688  1.2449 -1.3530
 8973SOL    HW238553   3.867   3.883  17.552 -1.3122 -1.5804  0.6394
 8974SOL     OW38554   1.746   1.718   5.038  0.3224 -0.4610  0.3896
 8974SOL    HW138555   1.691   1.644   5.012  0.4291 -1.5334  3.2262
 8974SOL    HW238556   1.805   1.683   5.105  0.2013  0.5571  1.0365
 8975SOL     OW38557   1.808   0.812   4.158  0.3858 -0.1312  0.1395
 8975SOL    HW138558   1.726   0.769   4.183  0.7264 -1.3634 -0.8821
 8975SOL    HW238559   1.876   0.780   4.217  2.2283  0.4223 -1.6814
 8976SOL     OW38560   4.569   0.889   9.630 -0.2638 -0.4014 -0.0835
 8976SOL    HW138561   4.648   0.839   9.608 -0.0443 -0.6644  1.2893
 8976SOL    HW238562   4.508   0.856   9.563 -0.6847 -3.2397  1.6824
 8977SOL     OW38563   0.705   1.655   7.940 -0.1922  0.0545  0.2246
 8977SOL    HW138564   0.761   1.732   7.955  1.0205 -0.3807 -2.1461
 8977SOL    HW238565   0.725   1.619   7.854 -0.1867  0.0506  0.2275
 8978SOL     OW38566   4.204   1.165   2.826 -0.3611  0.2470 -0.0275
 8978SOL    HW138567   4.218   1.079   2.867  0.0666  0.4623  0.2750
 8978SOL    HW238568   4.246   1.149   2.742 -0.7677 -1.6102  0.1211
 8979SOL     OW38569   1.965   3.175   1.579 -0.0078 -0.3950 -0.2324
 8979SOL    HW138570   1.922   3.173   1.665 -0.1778  0.4592 -0.2906
 8979SOL    HW238571   1.936   3.097   1.533  4.6143 -1.2194 -1.6967
 8980SOL     OW38572   2.765   4.482   2.057 -0.1308  0.1615 -0.5518
 8980SOL    HW138573   2.727   4.395   2.070 -0.8133  0.7018  1.0812
 8980SOL    HW238574   2.761   4.491   1.962  0.7745 -4.3541 -1.0429
 8981SOL     OW38575   0.029   4.281   4.850  0.6619 -0.0174  1.6799
 8981SOL    HW138576   0.044   4.345   4.920 -0.5086  0.7329  1.2349
 8981SOL    HW238577   4.674   4.278   4.833  0.8216  1.0207  0.6287
 8982SOL     OW38578   3.557   3.780  13.282  0.2351  0.0052 -0.3886
 8982SOL    HW138579   3.518   3.755  13.199  1.2351  2.3979 -1.5992
 8982SOL    HW238580   3.615   3.705  13.292  1.1316  0.8011  0.5374
 8983SOL     OW38581   2.168   0.529   3.231  0.0749  0.2505 -0.4934
 8983SOL    HW138582   2.117   0.511   3.152 -1.1497 -0.4150  0.4526
 8983SOL    HW238583   2.206   0.613   3.205 -0.2047  0.4762 -0.1726
 8984SOL     OW38584   1.088   3.008   7.528  0.3766 -0.2650  0.1221
 8984SOL    HW138585   1.087   2.926   7.578  0.4001  1.2224  2.5826
 8984SOL    HW238586   0.996   3.033   7.525 -0.0853 -2.1840 -1.3954
 8985SOL     OW38587   1.346   3.372   6.926  0.0410 -0.5312  0.0677
 8985SOL    HW138588   1.281   3.302   6.918 -0.1449 -0.2845 -0.5813
 8985SOL    HW238589   1.412   3.313   6.962  0.8967 -0.2141 -0.9817
 8986SOL     OW38590   3.467   3.312  14.055 -0.4094  0.5151  0.0493
 8986SOL    HW138591   3.494   3.395  14.095 -0.1450 -1.3073  3.6962
 8986SOL    HW238592   3.492   3.323  13.964  1.0767 -2.3358  0.1057
 8987SOL     OW38593   0.073   3.821   4.278  0.7080 -0.5923  0.1948
 8987SOL    HW138594   0.080   3.879   4.202  0.9815 -0.5268  0.2681
 8987SOL    HW238595   0.163   3.806   4.307  0.3592  0.3659  1.8264
 8988SOL     OW38596   3.772   2.548  10.528  0.0128  0.3094 -0.3295
 8988SOL    HW138597   3.710   2.619  10.545  0.1756  0.1755  0.8602
 8988SOL    HW238598   3.850   2.602  10.513  2.3495 -2.6610  1.0615
 8989SOL     OW38599   2.184   2.438   5.874  0.0841  0.2517 -0.3378
 8989SOL    HW138600   2.267   2.396   5.899 -0.1691 -0.4876 -0.7492
 8989SOL    HW238601   2.209   2.474   5.789  2.9870  0.6167  0.6727
 8990SOL     OW38602   1.576   3.480   1.810  0.1039  0.4378 -0.1499
 8990SOL    HW138603   1.491   3.517   1.787  0.7719  2.5585  0.8438
 8990SOL    HW238604   1.553   3.399   1.857  0.9728  1.6339  2.3135
 8991SOL     OW38605   1.974   0.474   5.279 -0.0198  0.0946 -0.8727
 8991SOL    HW138606   1.883   0.498   5.298 -0.3078 -2.1802  0.5179
 8991SOL    HW238607   1.981   0.393   5.329 -1.0556 -0.0483 -0.9604
 8992SOL     OW38608   3.600   1.724   8.269  0.0504  0.4632 -0.0373
 8992SOL    HW138609   3.553   1.794   8.223  1.4582  0.9515 -0.7151
 8992SOL    HW238610   3.554   1.712   8.352  1.0250  0.3283  0.4866
 8993SOL     OW38611   1.065   1.505   9.137 -0.0091 -0.1840 -0.3387
 8993SOL    HW138612   0.996   1.545   9.083 -0.8809  0.6246  1.3769
 8993SOL    HW238613   1.012   1.478   9.212  2.2597 -2.2005  0.5103
 8994SOL     OW38614   1.714   4.412   7.965 -0.1019 -0.2077  0.2389
 8994SOL    HW138615   1.725   4.319   7.985  1.5599 -0.2578 -0.9206
 8994SOL    HW238616   1.655   4.405   7.889 -1.5553 -4.5931  1.7844
 8995SOL     OW38617   1.916   4.622   6.531  0.3292 -0.2046  0.0630
 8995SOL    HW138618   1.892   4.706   6.570 -0.0243 -0.2678 -0.0173
 8995SOL    HW238619   1.985   4.600   6.593  0.5747  1.9117  0.5385
 8996SOL     OW38620   1.425   0.197   0.389 -0.0072 -0.3923 -0.2635
 8996SOL    HW138621   1.362   0.223   0.457 -0.3603 -1.1067 -0.3190
 8996SOL    HW238622   1.432   0.102   0.403 -0.0482 -0.5558 -1.4047
 8997SOL     OW38623   1.280   2.069   1.847  0.2297 -0.2040  0.9127
 8997SOL    HW138624   1.285   2.125   1.924  0.0756  0.7042  0.2711
 8997SOL    HW238625   1.307   2.129   1.777  1.5433 -2.1367 -0.2359
 8998SOL     OW38626   3.890   1.942   8.762  0.4930  0.0698 -0.0379
 8998SOL    HW138627   3.815   1.973   8.712 -0.9803 -0.5674  1.7671
 8998SOL    HW238628   3.947   1.896   8.700  1.8200  1.6307  0.0101
 8999SOL     OW38629   2.360   1.421   4.316  0.4984 -0.1863  0.2471
 8999SOL    HW138630   2.291   1.421   4.250 -0.7426 -0.0513  1.5681
 8999SOL    HW238631   2.313   1.362   4.375 -0.3557 -1.9246 -2.1751
 9000SOL     OW38632   2.637   4.214   7.636 -0.0773 -0.4189 -0.1046
 9000SOL    HW138633   2.610   4.125   7.613  0.5380 -0.3877 -0.9558
 9000SOL    HW238634   2.568   4.266   7.596  1.5548  3.0523  1.6324
 9001SOL     OW38635   4.707   4.578   2.022 -0.1705 -0.2448  0.1271
 9001SOL    HW138636   4.658   4.497   2.034 -1.6101  0.0993 -3.4535
 9001SOL    HW238637   4.634   4.638   2.038 -0.1070  0.4655 -2.3087
 9002SOL     OW38638   4.616   1.323   2.773  0.5401 -0.4456 -0.2597
 9002SOL    HW138639   4.622   1.335   2.678 -3.2360 -2.6449 -0.8092
 9002SOL    HW238640   4.697   1.276   2.793 -0.1555 -1.6982 -0.3584
 9003SOL     OW38641   1.375   1.033   2.763  0.3185  0.3428 -0.0788
 9003SOL    HW138642   1.352   1.118   2.801  0.5959  0.9597 -1.2948
 9003SOL    HW238643   1.288   0.994   2.777  0.1717  0.7908  0.2626
 9004SOL     OW38644   2.901   0.257   3.707  0.3335  0.2043  0.3715
 9004SOL    HW138645   2.843   0.334   3.707 -0.5373 -0.4417  2.1440
 9004SOL    HW238646   2.928   0.242   3.798 -2.1153 -2.6964  0.6448
 9005SOL     OW38647   2.192   1.635   5.190  0.2981  0.1868 -0.2813
 9005SOL    HW138648   2.275   1.592   5.210  0.6348 -0.1274 -2.3702
 9005SOL    HW238649   2.195   1.644   5.094 -1.8317 -0.8757 -0.4562
 9006SOL     OW38650   0.537   4.481  16.837  0.2084  0.3196  0.0068
 9006SOL    HW138651   0.542   4.412  16.771 -0.8035  2.8034 -2.7021
 9006SOL    HW238652   0.592   4.549  16.798  0.4099 -0.4001 -0.9609
 9007SOL     OW38653   0.260   3.290   8.858  0.1057  0.1074 -0.4939
 9007SOL    HW138654   0.259   3.326   8.947 -0.3819  1.6267 -1.1115
 9007SOL    HW238655   0.181   3.236   8.856 -0.8003  1.3651  1.0439
 9008SOL     OW38656   1.526   1.850   0.107 -0.4376 -0.6490  0.4886
 9008SOL    HW138657   1.554   1.856   0.198  0.1635  0.0552  0.2580
 9008SOL    HW238658   1.570   1.927   0.070  1.3827 -2.4375 -1.1068
 9009SOL     OW38659   2.243   0.479   4.107 -0.3421 -0.1269  0.0431
 9009SOL    HW138660   2.204   0.495   4.021 -0.1165 -1.9483 -0.4040
 9009SOL    HW238661   2.218   0.387   4.115  2.1168 -0.7774  0.2986
 9010SOL     OW38662   3.827   4.447   5.302 -0.0375 -0.5647 -0.4945
 9010SOL    HW138663   3.738   4.442   5.265 -0.3496 -0.8322  0.2926
 9010SOL    HW238664   3.841   4.356   5.328 -1.6750 -0.1582  1.8310
 9011SOL     OW38665   3.407   0.121   6.164  0.1722  0.5088 -0.1593
 9011SOL    HW138666   3.338   0.113   6.098 -2.0996  1.9306  2.0444
 9011SOL    HW238667   3.364   0.143   6.247  1.8563 -1.6444  1.2656
 9012SOL     OW38668   4.399   4.416  11.881 -0.0145  0.0544 -0.2392
 9012SOL    HW138669   4.317   4.459  11.903 -0.9596 -1.0904 -1.5031
 9012SOL    HW238670   4.452   4.482  11.837 -0.5609  1.5683  1.3903
 9013SOL     OW38671   1.591   2.061  15.321  0.5984 -0.7972  0.3860
 9013SOL    HW138672   1.648   1.984  15.330  0.7922 -0.7821 -0.7080
 9013SOL    HW238673   1.567   2.082  15.411 -4.8903 -0.5447 -1.1738
 9014SOL     OW38674   0.633   3.219   6.733  0.4109 -0.0743 -0.3573
 9014SOL    HW138675   0.554   3.181   6.693  1.0090 -0.9385 -0.7286
 9014SOL    HW238676   0.637   3.299   6.681  0.5056  0.4175  0.4272
 9015SOL     OW38677   0.779   1.118   5.888 -0.3937  0.3738 -1.2614
 9015SOL    HW138678   0.695   1.153   5.859 -1.6557 -0.6434  1.1872
 9015SOL    HW238679   0.774   1.140   5.981  0.7455  1.6125 -1.4995
 9016SOL     OW38680   2.593   4.080   2.995  0.4498 -0.0464  0.1330
 9016SOL    HW138681   2.680   4.115   3.014 -0.8770  2.0414  2.4433
 9016SOL    HW238682   2.614   3.996   2.955 -1.7714 -1.5147  1.9728
 9017SOL     OW38683   0.166   1.624   4.816  0.2047  0.1104 -0.2464
 9017SOL    HW138684   0.235   1.687   4.835 -0.0413  0.6484 -1.1276
 9017SOL    HW238685   0.085   1.671   4.838  0.3001  1.5063 -2.9416
 9018SOL     OW38686   2.639   0.183   4.487  0.0218  0.1943 -0.5650
 9018SOL    HW138687   2.572   0.175   4.556  2.4167 -3.0710  1.3625
 9018SOL    HW238688   2.654   0.089   4.484 -0.1282  0.1096  1.3944
 9019SOL     OW38689   3.689   3.267   7.227  0.2842  0.3181 -0.8070
 9019SOL    HW138690   3.595   3.250   7.221  0.1267  0.0019  2.3823
 9019SOL    HW238691   3.712   3.304   7.141  0.2313  1.9860 -0.1062
 9020SOL     OW38692   1.102   4.343   6.993 -0.1999 -0.0556  0.4879
 9020SOL    HW138693   1.099   4.370   7.084  1.5653 -0.7510  0.7338
 9020SOL    HW238694   1.023   4.288   6.989 -1.5850  1.8641  1.1641
 9021SOL     OW38695   3.713   1.041   3.074  0.4660 -0.0571 -0.2398
 9021SOL    HW138696   3.722   0.956   3.118  0.4496  0.5844  0.9907
 9021SOL    HW238697   3.809   1.044   3.066  0.4089  2.2439 -0.0292
 9022SOL     OW38698   3.394   2.093   5.025 -0.1982 -0.0211  0.1968
 9022SOL    HW138699   3.330   2.022   5.028 -1.1188  0.7517 -1.3970
 9022SOL    HW238700   3.471   2.048   4.991 -0.3008 -1.1049  1.3513
 9023SOL     OW38701   0.184   1.157   6.059 -0.5237 -0.4288  0.1830
 9023SOL    HW138702   0.253   1.095   6.082 -1.1047 -0.7424  1.0832
 9023SOL    HW238703   0.175   1.148   5.964 -1.8985 -0.3757  0.3045
 9024SOL     OW38704   2.440   3.222  13.779  0.4032 -0.3665 -0.1484
 9024SOL    HW138705   2.487   3.283  13.835  1.4997  0.7796 -2.3388
 9024SOL    HW238706   2.377   3.277  13.732 -0.7877 -2.2997 -0.8085
 9025SOL     OW38707   0.755   0.853   4.075  0.6545 -0.0954 -0.1799
 9025SOL    HW138708   0.815   0.785   4.043  1.5696 -0.3305  2.0172
 9025SOL    HW238709   0.673   0.805   4.067  0.1527  1.0903 -1.9731
 9026SOL     OW38710   1.801   1.482   2.096 -0.7091  0.2035 -0.0295
 9026SOL    HW138711   1.887   1.447   2.115  0.1356  1.3502 -1.7526
 9026SOL    HW238712   1.738   1.417   2.127  2.4974 -2.5224  0.7193
 9027SOL     OW38713   3.050   4.389   3.079 -0.2126  0.2732 -0.0821
 9027SOL    HW138714   3.005   4.438   3.011  0.2166  0.5459 -0.1710
 9027SOL    HW238715   3.143   4.401   3.058 -0.5487  0.5986 -1.4183
 9028SOL     OW38716   4.616   2.240   7.789 -0.4054  0.3593 -0.1808
 9028SOL    HW138717   4.633   2.271   7.878 -1.7984  0.2314  0.1331
 9028SOL    HW238718   4.705   2.247   7.755 -0.2266  0.3832  0.2855
 9029SOL     OW38719   4.166   3.966   6.516  0.0708  0.7535  0.9067
 9029SOL    HW138720   4.167   3.887   6.463 -0.9405  0.8361  0.7642
 9029SOL    HW238721   4.162   4.043   6.460 -0.7089  0.7016  0.8892
 9030SOL     OW38722   1.573   2.383   3.560  0.0592  0.4412 -0.2095
 9030SOL    HW138723   1.601   2.337   3.639 -0.4494 -0.2829 -0.4463
 9030SOL    HW238724   1.508   2.321   3.526  0.9144 -0.5361 -0.0586
 9031SOL     OW38725   1.112   0.142   3.196  0.6069  0.3737 -0.1483
 9031SOL    HW138726   1.027   0.157   3.237  0.1064  0.2513 -1.1410
 9031SOL    HW238727   1.156   0.112   3.275  1.2228  0.4747 -0.4556
 9032SOL     OW38728   1.622   0.718   5.215  0.5491 -0.9661  0.1121
 9032SOL    HW138729   1.702   0.720   5.162  0.4443 -1.5682 -0.0729
 9032SOL    HW238730   1.653   0.763   5.293 -1.0297  1.2370 -0.5267
 9033SOL     OW38731   1.275   3.715   9.379 -0.3260 -0.4840  0.1352
 9033SOL    HW138732   1.222   3.765   9.317 -2.0993 -1.2982  0.9784
 9033SOL    HW238733   1.357   3.763   9.372  0.7320 -2.5011 -1.0849
 9034SOL     OW38734   3.773   2.235   4.261 -0.0596 -0.0929  0.2375
 9034SOL    HW138735   3.743   2.239   4.351  1.6099  2.5610  0.6714
 9034SOL    HW238736   3.784   2.328   4.240  2.5623 -0.4306  0.2145
 9035SOL     OW38737   0.072   3.918   7.576 -0.2414 -0.0070 -0.0718
 9035SOL    HW138738   4.728   3.900   7.620  0.1084 -0.4945  0.3956
 9035SOL    HW238739   0.104   4.000   7.613 -0.4813 -0.2061  0.5845
 9036SOL     OW38740   3.074   4.639   0.254 -0.2601  0.1934 -0.3639
 9036SOL    HW138741   3.164   4.637   0.222 -0.7528 -1.0048 -1.6564
 9036SOL    HW238742   3.053   4.547   0.268  3.6002 -0.4820  1.0480
 9037SOL     OW38743   1.761   4.445   2.347  0.2695  0.2291  0.2350
 9037SOL    HW138744   1.702   4.419   2.277 -1.9107  4.9020  0.3594
 9037SOL    HW238745   1.837   4.489   2.308  1.1883 -1.6304 -0.0687
 9038SOL     OW38746   3.971   3.051  13.172 -0.2451  0.1097  0.0315
 9038SOL    HW138747   3.979   2.962  13.206 -0.1446  0.3451  0.6232
 9038SOL    HW238748   4.006   3.098  13.247  0.9668  0.7877 -0.9590
 9039SOL     OW38749   1.477   1.489   6.135  0.0147 -0.3604  0.6405
 9039SOL    HW138750   1.464   1.454   6.047 -0.0603 -1.1842  0.9803
 9039SOL    HW238751   1.386   1.517   6.145  0.3237  1.7818 -2.5475
 9040SOL     OW38752   1.383   0.502   8.430 -0.2545  0.3012  0.0528
 9040SOL    HW138753   1.300   0.529   8.390  0.2302  2.5985  0.5738
 9040SOL    HW238754   1.341   0.481   8.514  1.4254 -0.4163  0.7047
 9041SOL     OW38755   3.375   1.713   5.213  0.2036 -0.3918  0.0645
 9041SOL    HW138756   3.357   1.665   5.132 -2.1902  1.9865 -0.8392
 9041SOL    HW238757   3.468   1.693   5.226 -0.3399 -2.3291  0.8286
 9042SOL     OW38758   3.970   0.381   8.295  0.0579  0.1258  0.3798
 9042SOL    HW138759   4.017   0.308   8.334 -0.0982 -0.5016 -0.6047
 9042SOL    HW238760   3.883   0.343   8.304 -0.1458  0.7699  1.0965
 9043SOL     OW38761   1.499   2.349   9.105  0.2032  0.1605  0.0553
 9043SOL    HW138762   1.428   2.310   9.157  0.4933 -1.2479 -0.5881
 9043SOL    HW238763   1.572   2.310   9.154  0.0232  1.4652  1.3360
 9044SOL     OW38764   2.598   2.822   5.377  0.0001 -0.6284  0.6034
 9044SOL    HW138765   2.625   2.883   5.446 -1.5969 -1.2346  1.7604
 9044SOL    HW238766   2.506   2.804   5.395 -0.6239  2.3762  0.4971
 9045SOL     OW38767   0.195   1.600   2.589 -0.1326  0.0039 -0.0684
 9045SOL    HW138768   0.104   1.612   2.619  0.0547  0.6471  0.2553
 9045SOL    HW238769   0.223   1.573   2.677  0.7786 -1.9312 -0.9690
 9046SOL     OW38770   4.599   1.208   4.168 -0.2597  0.1103  1.0524
 9046SOL    HW138771   4.619   1.130   4.219 -0.9140 -0.6797  0.1018
 9046SOL    HW238772   4.668   1.271   4.189 -1.0185  0.5351  2.2941
 9047SOL     OW38773   2.954   2.127   2.228 -0.5742  0.5775 -0.2937
 9047SOL    HW138774   3.035   2.140   2.179 -0.8655 -0.5484 -1.0733
 9047SOL    HW238775   2.954   2.189   2.301 -0.3428  1.8186 -1.3641
 9048SOL     OW38776   1.769   1.630   3.692  0.8229 -0.9573 -0.0784
 9048SOL    HW138777   1.750   1.585   3.609  0.4265 -2.4700  0.8289
 9048SOL    HW238778   1.699   1.601   3.751  0.5925 -2.7904 -1.2332
 9049SOL     OW38779   1.111   2.555   6.405  0.1501 -0.4917  0.0342
 9049SOL    HW138780   1.151   2.528   6.322 -3.3945 -1.6387 -1.3038
 9049SOL    HW238781   1.033   2.501   6.397 -0.3076  0.0217  1.0964
 9050SOL     OW38782   0.034   2.636   5.113  0.0900 -0.0261 -0.6865
 9050SOL    HW138783   0.045   2.609   5.022 -0.2320 -0.2004 -0.6703
 9050SOL    HW238784   0.086   2.717   5.116  0.1686 -0.0517 -1.3408
 9051SOL     OW38785   0.015   0.617   5.293  0.0828  0.4089 -0.0749
 9051SOL    HW138786   4.714   0.551   5.350 -0.2147  0.2156 -0.5157
 9051SOL    HW238787   0.093   0.647   5.340 -1.5777  2.0350  1.6620
 9052SOL     OW38788   1.502   1.238  11.808  0.3753 -0.0345 -0.3741
 9052SOL    HW138789   1.570   1.288  11.855  2.3329 -1.4583 -1.7153
 9052SOL    HW238790   1.560   1.193  11.747  0.2153  1.4364 -1.6108
 9053SOL     OW38791   3.575   0.229  15.021  0.1942  0.5287 -0.1535
 9053SOL    HW138792   3.532   0.200  15.101  2.2953  1.5401  1.3298
 9053SOL    HW238793   3.637   0.295  15.051  0.9182  0.4384 -1.4421
 9054SOL     OW38794   0.607   0.786  12.171 -0.3038  0.4447 -0.1786
 9054SOL    HW138795   0.564   0.871  12.168  0.8485  0.9994 -1.3461
 9054SOL    HW238796   0.697   0.812  12.191  0.0914  0.5074 -2.0467
 9055SOL     OW38797   2.376   4.450   3.230 -0.4471  0.3032  0.6379
 9055SOL    HW138798   2.394   4.404   3.312 -0.8162  0.9741  1.1004
 9055SOL    HW238799   2.467   4.468   3.206 -0.2301 -0.1184  1.1514
 9056SOL     OW38800   2.348   3.534  10.834  0.0068 -0.5171  0.3631
 9056SOL    HW138801   2.272   3.480  10.857 -1.2218  0.8928 -0.4140
 9056SOL    HW238802   2.310   3.585  10.763 -0.7831 -0.8938  0.5155
 9057SOL     OW38803   2.416   1.188   2.209  0.9009 -0.3666  0.1402
 9057SOL    HW138804   2.491   1.154   2.257 -0.4594  1.3035  3.4765
 9057SOL    HW238805   2.454   1.271   2.181 -0.3938  0.6387  1.3738
 9058SOL     OW38806   0.655   4.338   7.597 -0.1026  0.3603 -0.3737
 9058SOL    HW138807   0.720   4.271   7.580 -1.4092 -0.7293 -1.0826
 9058SOL    HW238808   0.645   4.381   7.512 -0.6788  0.0125 -0.4795
 9059SOL     OW38809   0.587   4.109   6.260  0.1083 -0.3520 -1.2538
 9059SOL    HW138810   0.495   4.110   6.236 -1.1414  0.3403  3.6607
 9059SOL    HW238811   0.610   4.202   6.266  0.4859 -0.5873  0.8650
 9060SOL     OW38812   4.721   0.663   0.863 -0.4304  0.0295  0.0184
 9060SOL    HW138813   4.627   0.646   0.857  0.2343 -4.1274  1.4743
 9060SOL    HW238814   4.730   0.710   0.946  0.9073 -1.8064  0.9152
 9061SOL     OW38815   2.115   0.601  10.003  0.3490  0.1994  0.6923
 9061SOL    HW138816   2.021   0.586   9.987  0.7381  0.4201 -1.8006
 9061SOL    HW238817   2.135   0.680   9.952 -1.7372 -0.2785 -0.8876
 9062SOL     OW38818   0.636   4.062   9.099  0.4676  0.3296  0.2353
 9062SOL    HW138819   0.722   4.022   9.107  0.2614 -0.1066  0.2475
 9062SOL    HW238820   0.587   3.986   9.131  0.6873  1.5225  3.4376
 9063SOL     OW38821   0.688   2.332   5.172 -0.0961 -0.0850  0.4645
 9063SOL    HW138822   0.729   2.375   5.247  2.9549 -2.4570  0.1277
 9063SOL    HW238823   0.608   2.298   5.213  0.3711  0.7113  2.0354
 9064SOL     OW38824   1.205   0.714  11.287  0.2676  0.4246  0.2156
 9064SOL    HW138825   1.228   0.627  11.320 -2.2476  0.2022  1.3519
 9064SOL    HW238826   1.166   0.691  11.203  0.2784 -1.4542  0.7099
 9065SOL     OW38827   2.129   2.031   6.808  0.9068 -0.2822  0.2218
 9065SOL    HW138828   2.048   2.062   6.849  1.1776  0.1044  0.4649
 9065SOL    HW238829   2.136   2.099   6.741  2.6230  0.0724  0.7647
 9066SOL     OW38830   1.759   2.183  10.744 -0.2258  0.0708  0.1200
 9066SOL    HW138831   1.755   2.092  10.774 -0.7717  0.6173  1.6432
 9066SOL    HW238832   1.797   2.230  10.817  1.2598  2.0331 -1.9089
 9067SOL     OW38833   4.238   0.029   9.205 -0.0523  0.4882 -0.2831
 9067SOL    HW138834   4.176   0.096   9.177 -0.2012  0.8094  0.7848
 9067SOL    HW238835   4.313   0.041   9.146  1.6028 -0.1604  1.6621
 9068SOL     OW38836   2.223   0.018   6.342  0.2104 -0.1413  0.3295
 9068SOL    HW138837   2.215   4.662   6.335  1.2758 -0.2475  0.4458
 9068SOL    HW238838   2.204   0.034   6.435  2.1414 -0.1563  0.7338
 9069SOL     OW38839   3.187   4.552  16.087 -0.3410  0.2637 -0.2496
 9069SOL    HW138840   3.193   4.643  16.057  2.5002  0.0953 -0.1774
 9069SOL    HW238841   3.106   4.528  16.043  0.2605  1.5463 -2.0879
 9070SOL     OW38842   0.898   3.440  16.865 -0.1132 -0.3648 -0.1378
 9070SOL    HW138843   0.876   3.350  16.843  1.7175 -0.9044  0.2131
 9070SOL    HW238844   0.842   3.462  16.939  1.5087  0.5021  0.8473
 9071SOL     OW38845   1.925   4.656   5.950  0.3071 -0.2380  0.6050
 9071SOL    HW138846   1.905   0.008   5.929  1.5848 -0.6585 -2.4143
 9071SOL    HW238847   1.978   4.676   6.028 -0.0322  3.1074 -0.0100
 9072SOL     OW38848   2.887   4.631   8.697 -0.4936 -0.5409 -0.2704
 9072SOL    HW138849   2.915   4.586   8.777 -1.6016 -1.5919 -0.4713
 9072SOL    HW238850   2.807   4.585   8.675  0.0016 -1.6934  0.3413
 9073SOL     OW38851   2.108   3.710   7.444  0.2448  0.0692 -0.1078
 9073SOL    HW138852   2.027   3.665   7.421  0.2940 -0.1248  0.0973
 9073SOL    HW238853   2.148   3.645   7.502  2.4739  0.6712 -0.9644
 9074SOL     OW38854   3.795   0.366  12.122 -0.3230  0.0282  0.3725
 9074SOL    HW138855   3.849   0.289  12.104  0.9765  0.9088  0.4860
 9074SOL    HW238856   3.811   0.423  12.046 -0.3438  0.0266  0.3670
 9075SOL     OW38857   1.407   3.908  11.414 -0.2167 -0.2777 -0.1491
 9075SOL    HW138858   1.462   3.984  11.398 -2.0708  0.9807 -0.5474
 9075SOL    HW238859   1.379   3.929  11.503 -1.3630  1.5446 -0.9415
 9076SOL     OW38860   3.938   3.629   2.071 -0.3426 -0.5771  0.7102
 9076SOL    HW138861   4.016   3.638   2.017  1.3309  0.5862  3.3842
 9076SOL    HW238862   3.963   3.676   2.150  0.2904  1.9923 -1.0071
 9077SOL     OW38863   3.933   0.550   6.202  0.3722 -0.3437 -0.0092
 9077SOL    HW138864   3.910   0.534   6.110  0.4945 -1.9987  0.2507
 9077SOL    HW238865   3.891   0.472   6.239 -0.0685 -0.9356 -1.7352
 9078SOL     OW38866   2.635   1.106   0.062  0.0814  0.7663  0.1791
 9078SOL    HW138867   2.614   1.178   0.122 -1.9488 -0.9266  1.5179
 9078SOL    HW238868   2.706   1.067   0.113  0.1874  0.4227 -0.2259
 9079SOL     OW38869   3.731   3.799   6.630  0.0851 -0.7173  0.0182
 9079SOL    HW138870   3.681   3.813   6.550  0.0814  1.7932  0.4720
 9079SOL    HW238871   3.672   3.828   6.700  0.7765 -1.4317  0.9025
 9080SOL     OW38872   2.899   3.551   2.182  0.0613  0.1277  0.5585
 9080SOL    HW138873   2.813   3.521   2.152 -0.5172  0.0262  2.3060
 9080SOL    HW238874   2.936   3.573   2.097 -0.5745  0.8686  0.4767
 9081SOL     OW38875   1.740   4.611   5.244 -0.4391  0.3237  0.4484
 9081SOL    HW138876   1.650   4.581   5.235  0.2977 -2.0033  0.7190
 9081SOL    HW238877   1.788   4.533   5.272  2.8701  2.2422  0.0711
 9082SOL     OW38878   3.394   4.290   3.008 -0.0859 -0.7071  0.0776
 9082SOL    HW138879   3.462   4.329   2.953 -2.2976  2.3139 -0.5088
 9082SOL    HW238880   3.403   4.347   3.084  0.1563 -2.6772  1.5421
 9083SOL     OW38881   1.372   4.658   4.623 -0.0784  0.0760 -0.4804
 9083SOL    HW138882   1.393   0.005   4.659  1.8543 -0.3479 -0.5775
 9083SOL    HW238883   1.434   4.620   4.685 -2.5520 -1.0565  1.2470
 9084SOL     OW38884   2.666   4.424  14.600 -0.5804 -0.2748 -0.2810
 9084SOL    HW138885   2.585   4.407  14.649 -0.0744  1.0042  0.9932
 9084SOL    HW238886   2.734   4.436  14.665 -0.2162 -1.8222 -0.3769
 9085SOL     OW38887   1.020   2.074  12.804  0.5292 -0.0705 -0.1801
 9085SOL    HW138888   1.092   2.012  12.810  0.2411 -0.0694  3.0220
 9085SOL    HW238889   0.987   2.069  12.714 -1.0581 -1.3227  0.4739
 9086SOL     OW38890   3.871   3.401   7.730 -0.2380 -0.3166 -0.4356
 9086SOL    HW138891   3.796   3.407   7.671  0.0060 -2.7808 -1.0048
 9086SOL    HW238892   3.835   3.358   7.808  3.3734 -0.5507  1.0710
 9087SOL     OW38893   3.803   1.838   4.083 -0.3171  0.6389 -0.1733
 9087SOL    HW138894   3.775   1.922   4.048  4.5359  1.3733 -2.3137
 9087SOL    HW238895   3.896   1.852   4.102 -0.1458  0.9993 -1.2745
 9088SOL     OW38896   2.263   1.309   1.071 -0.1031 -0.1521 -0.0332
 9088SOL    HW138897   2.347   1.355   1.071 -0.4795  0.5454  2.0365
 9088SOL    HW238898   2.222   1.352   0.995  1.7037 -0.3665 -1.1241
 9089SOL     OW38899   1.765   1.350  17.378  0.3965 -0.7051  0.0310
 9089SOL    HW138900   1.830   1.420  17.369 -1.3636  1.2281  2.2719
 9089SOL    HW238901   1.756   1.335  17.284 -0.6638  0.1721 -0.0118
 9090SOL     OW38902   0.112   1.841   8.726 -0.6766  0.0401  0.5677
 9090SOL    HW138903   0.163   1.854   8.646 -0.6889 -0.5193  0.4731
 9090SOL    HW238904   0.138   1.925   8.765  1.2420 -0.6489  0.7678
 9091SOL     OW38905   3.498   4.690   8.896 -0.3898  0.1015 -0.4947
 9091SOL    HW138906   3.589   4.714   8.913 -0.0675 -3.2709  2.4987
 9091SOL    HW238907   3.474   4.646   8.977 -0.8575  1.0647 -0.1080
 9092SOL     OW38908   4.428   4.338   3.301 -0.4313  0.0103  0.3208
 9092SOL    HW138909   4.426   4.411   3.364  1.4755  0.6147 -0.3343
 9092SOL    HW238910   4.357   4.370   3.245 -2.7479 -0.3229  3.0596
 9093SOL     OW38911   3.397   2.187  15.482  0.1183  0.4090 -0.1366
 9093SOL    HW138912   3.321   2.190  15.423  0.0073  1.0382  0.0395
 9093SOL    HW238913   3.428   2.097  15.472 -0.2833  0.3980 -1.3626
 9094SOL     OW38914   2.968   1.897   3.891 -0.2131  0.0041 -0.4653
 9094SOL    HW138915   2.933   1.961   3.830  2.1627  0.9770 -0.8083
 9094SOL    HW238916   2.889   1.873   3.938  0.0125 -0.2419 -0.2130
 9095SOL     OW38917   1.596   1.715   2.419 -0.0219 -0.0916  0.6370
 9095SOL    HW138918   1.686   1.688   2.401 -0.0239  0.4235 -0.1538
 9095SOL    HW238919   1.610   1.767   2.498  2.9174  0.7111 -0.4218
 9096SOL     OW38920   2.659   4.675   0.881  0.2071  0.1109 -0.5087
 9096SOL    HW138921   2.672   4.582   0.901  1.5162  0.2973 -0.4520
 9096SOL    HW238922   2.609   4.675   0.800  0.8642  0.5729 -0.9107
 9097SOL     OW38923   3.730   3.192   2.636  0.1993  0.5198  0.1502
 9097SOL    HW138924   3.688   3.256   2.578  0.9507  0.2523 -0.6864
 9097SOL    HW238925   3.662   3.167   2.698 -1.5444  1.0981 -1.5055
 9098SOL     OW38926   0.689   2.061  12.984  0.0971  0.0168 -0.3172
 9098SOL    HW138927   0.648   2.117  13.050  1.0834  0.9632 -0.5119
 9098SOL    HW238928   0.779   2.072  13.016  1.2715  2.1352 -4.3445
 9099SOL     OW38929   4.005   4.054  12.868  0.2836  0.7353 -0.2035
 9099SOL    HW138930   4.045   3.996  12.933  0.8516  0.7059 -0.5784
 9099SOL    HW238931   3.914   4.043  12.896  0.3444  0.3998 -0.1404
 9100SOL     OW38932   4.213   0.818   2.380 -0.5870 -0.5871  0.1922
 9100SOL    HW138933   4.219   0.759   2.305  0.1117  0.4549 -0.5601
 9100SOL    HW238934   4.279   0.786   2.443  2.0472  2.8995 -0.8393
 9101SOL     OW38935   3.972   0.228   8.868  0.0341  0.0598  0.1199
 9101SOL    HW138936   3.967   0.223   8.963 -1.5536 -0.0223  0.0304
 9101SOL    HW238937   3.928   0.310   8.846  0.1177  0.2057  0.5142
 9102SOL     OW38938   2.131   2.798   3.688 -0.2024  0.1393 -0.0129
 9102SOL    HW138939   2.047   2.755   3.704 -1.0751  1.9143  0.1137
 9102SOL    HW238940   2.189   2.724   3.707  0.7180  0.8571 -0.0472
 9103SOL     OW38941   2.485   3.507   6.489 -0.2810  0.1591  0.2034
 9103SOL    HW138942   2.538   3.565   6.434  0.4206 -0.4952  0.1764
 9103SOL    HW238943   2.513   3.425   6.447  1.0822 -0.8419  3.0573
 9104SOL     OW38944   3.464   2.382   6.418  0.4445  0.0929  0.2578
 9104SOL    HW138945   3.487   2.315   6.482 -2.1951  1.5754  2.7926
 9104SOL    HW238946   3.487   2.460   6.470 -1.8544  0.1840  1.1467
 9105SOL     OW38947   0.813   1.090  16.502 -0.2826 -0.1159  0.0544
 9105SOL    HW138948   0.820   1.151  16.576 -1.4246  0.7220 -0.5107
 9105SOL    HW238949   0.882   1.026  16.517 -1.1221 -1.4275 -1.6552
 9106SOL     OW38950   2.800   1.172  10.845 -0.0696  0.4619 -0.1427
 9106SOL    HW138951   2.711   1.144  10.867  0.5208 -1.0329  0.3417
 9106SOL    HW238952   2.854   1.125  10.909 -1.1245  1.1855  1.2613
 9107SOL     OW38953   1.742   3.421   3.434  0.1890  0.3745 -0.4057
 9107SOL    HW138954   1.708   3.452   3.519 -1.4698  0.2046 -1.0129
 9107SOL    HW238955   1.806   3.484   3.400  1.3617 -0.9195 -0.5765
 9108SOL     OW38956   3.690   3.320   0.259 -0.0963 -0.4286 -0.1774
 9108SOL    HW138957   3.662   3.260   0.190 -0.8045 -1.9235  1.4017
 9108SOL    HW238958   3.633   3.287   0.329  0.8060  1.0830  1.2803
 9109SOL     OW38959   2.674   0.380   0.826  0.2154  0.6017 -0.3990
 9109SOL    HW138960   2.581   0.380   0.800 -0.6249 -2.9409  2.4693
 9109SOL    HW238961   2.674   0.293   0.865 -4.7857  0.5143 -0.5829
 9110SOL     OW38962   3.205   3.719  17.333 -0.3779  0.2661  0.0106
 9110SOL    HW138963   3.269   3.783  17.364  0.0141 -0.2503  0.2704
 9110SOL    HW238964   3.217   3.737  17.240 -1.2139 -0.5646 -0.2566
 9111SOL     OW38965   1.600   0.784   6.652  0.9550 -0.0517  0.0774
 9111SOL    HW138966   1.641   0.729   6.585  0.0861  0.2668 -0.7209
 9111SOL    HW238967   1.512   0.746   6.655 -0.6293  3.6294 -0.1522
 9112SOL     OW38968   2.285   0.217  13.197 -0.2387  0.5589 -0.3176
 9112SOL    HW138969   2.307   0.190  13.286  1.5247 -2.0780 -1.5533
 9112SOL    HW238970   2.189   0.219  13.205 -0.3358 -0.9903 -1.1810
 9113SOL     OW38971   2.151   1.958   7.399  0.0320  0.0212 -0.8872
 9113SOL    HW138972   2.242   1.977   7.423 -0.3886  0.8665  0.0501
 9113SOL    HW238973   2.136   1.880   7.452 -2.0974  0.2942 -1.0957
 9114SOL     OW38974   2.841   2.175   3.985 -0.1794 -0.7365 -0.1729
 9114SOL    HW138975   2.785   2.098   3.972  0.0261 -0.5315 -2.2462
 9114SOL    HW238976   2.802   2.239   3.926  2.9501  0.5454 -0.8453
 9115SOL     OW38977   0.942   0.832   7.924  0.4173 -0.2292 -0.0561
 9115SOL    HW138978   0.924   0.926   7.924  1.0263 -0.1120  1.4042
 9115SOL    HW238979   0.856   0.798   7.900 -0.5201  2.0891 -0.0451
 9116SOL     OW38980   3.612   2.316   4.546 -0.0379 -0.1901 -0.0891
 9116SOL    HW138981   3.520   2.291   4.556  0.0058 -0.3930 -0.2187
 9116SOL    HW238982   3.605   2.382   4.477  1.9646 -0.0966 -0.2107
 9117SOL     OW38983   0.735   3.759  14.493  0.3487  0.1969  1.2372
 9117SOL    HW138984   0.725   3.734  14.586 -1.9701  1.9011  1.4241
 9117SOL    HW238985   0.703   3.848  14.500 -0.2151 -0.1070  2.5248
 9118SOL     OW38986   2.559   2.720   2.220  0.5498  0.6336 -0.2068
 9118SOL    HW138987   2.643   2.691   2.257 -1.3104 -3.3828  0.8622
 9118SOL    HW238988   2.594   2.768   2.145  0.9452 -0.3718 -0.6661
 9119SOL     OW38989   3.358   3.440   3.685 -0.1908  0.1707  0.2893
 9119SOL    HW138990   3.279   3.492   3.698 -1.5013 -1.1238 -2.4651
 9119SOL    HW238991   3.324   3.354   3.663  0.8593  0.2156 -1.5400
 9120SOL     OW38992   1.152   2.938   4.054 -0.4986  0.0475  0.2271
 9120SOL    HW138993   1.103   2.890   4.121 -0.5409  0.6181  0.5980
 9120SOL    HW238994   1.150   3.024   4.095 -1.4186 -0.9712  2.2926
 9121SOL     OW38995   3.650   0.566  11.936  0.2718 -0.1590  0.2156
 9121SOL    HW138996   3.667   0.643  11.989 -0.3150  0.5371 -0.5995
 9121SOL    HW238997   3.628   0.609  11.853 -1.5668  2.0711  1.8876
 9122SOL     OW38998   4.679   2.868   1.688 -0.4080  0.0307 -0.4224
 9122SOL    HW138999   4.693   2.790   1.635 -1.3189 -0.6323  0.3124
 9122SOL    HW239000   4.587   2.892   1.674 -1.2713 -2.0204  1.8148
 9123SOL     OW39001   3.763   2.002   6.487  0.4234  0.0516  0.4007
 9123SOL    HW139002   3.774   2.020   6.393 -0.0420 -0.7828  0.1879
 9123SOL    HW239003   3.815   1.923   6.503  0.6331 -0.3164 -2.1205
 9124SOL     OW39004   0.389   0.243   2.242  0.2924  0.0818  0.3964
 9124SOL    HW139005   0.334   0.263   2.318  0.6890 -0.0165  0.7096
 9124SOL    HW239006   0.473   0.269   2.280  0.4064 -1.5529  1.2733
 9125SOL     OW39007   0.078   0.626   5.731  0.6438  0.1352  0.1785
 9125SOL    HW139008   0.050   0.593   5.816  0.7483  1.0496  0.5658
 9125SOL    HW239009   0.137   0.557   5.699  3.9792  2.8539  0.4676
 9126SOL     OW39010   2.400   2.318  13.762  0.4810 -0.0859  0.4488
 9126SOL    HW139011   2.353   2.368  13.829  0.6741  1.1387 -0.3489
 9126SOL    HW239012   2.447   2.386  13.714 -1.0282 -0.4611 -1.5835
 9127SOL     OW39013   2.197   2.856   3.000  0.5788  0.2578 -0.3070
 9127SOL    HW139014   2.276   2.814   2.965  0.9004  1.1692 -0.6565
 9127SOL    HW239015   2.226   2.918   3.066 -0.7132  1.3460 -0.7566
 9128SOL     OW39016   3.375   1.491   8.333 -0.2485 -0.7100 -0.2299
 9128SOL    HW139017   3.415   1.404   8.338 -0.8951 -0.8752  2.2298
 9128SOL    HW239018   3.426   1.547   8.392 -1.2900  0.4779 -0.4532
 9129SOL     OW39019   0.227   0.793   1.505 -0.0476 -0.2806  0.2775
 9129SOL    HW139020   0.264   0.743   1.578 -0.5224  0.5771  1.1088
 9129SOL    HW239021   0.251   0.883   1.526 -1.7199  0.6430 -1.7923
 9130SOL     OW39022   1.816   1.639   0.279  0.1748  0.3296 -0.2986
 9130SOL    HW139023   1.772   1.723   0.268 -1.7753 -0.5234  0.7552
 9130SOL    HW239024   1.905   1.661   0.255  1.1667 -0.1419  2.9198
 9131SOL     OW39025   3.257   2.237   8.559  0.4966 -0.0926 -0.0321
 9131SOL    HW139026   3.164   2.215   8.555  0.5564 -0.2974 -0.2693
 9131SOL    HW239027   3.242   2.323   8.598 -0.9048  0.0188 -0.8310
 9132SOL     OW39028   1.446   1.613  12.028 -0.2731 -0.2482 -0.2299
 9132SOL    HW139029   1.529   1.661  12.036 -1.5830  1.4864  3.0634
 9132SOL    HW239030   1.381   1.676  12.060 -0.0489  0.1282 -0.5111
 9133SOL     OW39031   2.931   4.603   7.177  0.2827  0.4309 -0.7691
 9133SOL    HW139032   2.971   4.526   7.136  1.9458  0.5901  0.5980
 9133SOL    HW239033   2.880   4.644   7.106  0.9521  0.5698 -1.1651
 9134SOL     OW39034   0.803   1.806   6.437  0.4079  0.3584  0.7025
 9134SOL    HW139035   0.775   1.780   6.524  0.4820 -0.9156  0.3401
 9134SOL    HW239036   0.730   1.844   6.388  1.1202 -1.3337 -1.6896
 9135SOL     OW39037   0.064   2.600   7.930 -0.6209  0.3116 -0.5533
 9135SOL    HW139038   0.024   2.688   7.928 -1.8702 -0.2444 -0.3540
 9135SOL    HW239039   0.159   2.608   7.922 -0.6454 -0.5208 -1.7949
 9136SOL     OW39040   0.916   1.107   7.949  0.2820 -0.1678 -0.1574
 9136SOL    HW139041   0.972   1.157   7.889 -0.5381  1.9137  0.8024
 9136SOL    HW239042   0.840   1.165   7.943  0.0574 -0.3666  0.7354
 9137SOL     OW39043   2.215   0.784   0.012  0.5685 -0.2901  0.2052
 9137SOL    HW139044   2.214   0.877  17.748  1.1783 -0.1047  1.0528
 9137SOL    HW239045   2.146   0.774   0.077  0.9227 -2.4513  0.2810
 9138SOL     OW39046   4.142   0.034   7.654  0.3027  0.2042 -0.3184
 9138SOL    HW139047   4.123   0.128   7.657 -0.8366 -0.1061  1.9192
 9138SOL    HW239048   4.064   4.734   7.616  1.2469  0.8572 -2.9661
 9139SOL     OW39049   4.502   3.881   3.407 -0.0206  0.3996  0.8045
 9139SOL    HW139050   4.537   3.794   3.428  0.9157  0.7171  0.5901
 9139SOL    HW239051   4.448   3.893   3.485  0.3131  0.7940  0.9733
 9140SOL     OW39052   2.846   4.239   7.113  0.1891  0.5874  0.7761
 9140SOL    HW139053   2.765   4.200   7.081  1.9498 -1.5040 -1.0818
 9140SOL    HW239054   2.869   4.174   7.179 -4.1005 -0.1380  1.5554
 9141SOL     OW39055   2.692   3.435   0.385  0.2072 -0.0707 -0.0836
 9141SOL    HW139056   2.785   3.446   0.404  0.2722 -0.9562  0.0823
 9141SOL    HW239057   2.643   3.502   0.434 -0.8619  0.0331 -1.2874
 9142SOL     OW39058   1.483   1.911   5.046  0.2420 -0.2125 -0.7152
 9142SOL    HW139059   1.566   1.865   5.062 -1.7181 -3.3051  0.4886
 9142SOL    HW239060   1.528   1.979   4.996  0.8036  0.6834  0.9750
 9143SOL     OW39061   3.134   0.321   9.635 -0.7028 -0.5868  0.0701
 9143SOL    HW139062   3.088   0.238   9.649  0.5969 -1.3008  0.0971
 9143SOL    HW239063   3.199   0.321   9.705 -1.2660 -2.5014  0.5906
 9144SOL     OW39064   4.406   0.092   8.994 -0.4514  0.0879  0.0487
 9144SOL    HW139065   4.455   0.067   8.915 -0.1106 -0.2464  0.3644
 9144SOL    HW239066   4.368   0.175   8.965 -1.2388 -0.6604 -1.0074
 9145SOL     OW39067   3.674   1.989   3.518  0.6892 -0.2423  0.2025
 9145SOL    HW139068   3.690   1.970   3.611 -0.2733  2.7426  0.9615
 9145SOL    HW239069   3.707   2.078   3.513 -0.9973  0.2419 -2.3281
 9146SOL     OW39070   4.352   2.590   2.835 -0.2982  0.6153  0.4273
 9146SOL    HW139071   4.380   2.515   2.782  0.0634  0.4168  0.9069
 9146SOL    HW239072   4.400   2.655   2.784 -1.3270  1.8419  1.0023
 9147SOL     OW39073   2.660   4.162  14.762  0.1764  0.3494 -0.0525
 9147SOL    HW139074   2.586   4.148  14.702 -0.9509 -1.0611  1.6534
 9147SOL    HW239075   2.602   4.172  14.837  1.6505  0.3761  1.0936
 9148SOL     OW39076   4.579   1.946  14.330  0.2312  0.0480 -0.6718
 9148SOL    HW139077   4.626   1.879  14.380 -0.9818 -1.5057 -1.6142
 9148SOL    HW239078   4.649   2.002  14.297 -0.9331  2.1827  0.5211
 9149SOL     OW39079   2.045   2.171   6.161  0.3218  0.5954  0.3347
 9149SOL    HW139080   2.050   2.168   6.256  0.0361  1.2289  0.3744
 9149SOL    HW239081   1.955   2.193   6.137 -0.5996 -0.2603  3.0190
 9150SOL     OW39082   2.675   0.097   7.137  0.4561  0.0237 -0.6707
 9150SOL    HW139083   2.624   0.162   7.185  0.7550 -0.5914  0.4573
 9150SOL    HW239084   2.654   0.019   7.187 -1.2237  1.4331  0.8314
 9151SOL     OW39085   1.414   2.815   9.032 -0.0900  0.6679 -0.0595
 9151SOL    HW139086   1.333   2.798   9.080  1.0378 -0.3342  1.4977
 9151SOL    HW239087   1.420   2.910   9.026 -0.2972  0.6319 -0.8574
 9152SOL     OW39088   1.645   1.037   2.833 -0.4125  0.7399  0.2925
 9152SOL    HW139089   1.564   1.031   2.782  1.2396 -0.8431 -2.1426
 9152SOL    HW239090   1.706   1.016   2.763  0.1598  0.7973  0.7769
 9153SOL     OW39091   3.769   1.963   8.304 -0.1586  0.4682  0.0656
 9153SOL    HW139092   3.769   1.986   8.211  1.0576 -1.1706 -0.3244
 9153SOL    HW239093   3.857   1.927   8.302 -0.2397  0.2110  1.2305
 9154SOL     OW39094   3.529   0.608   4.666  0.4814  0.1710  0.0272
 9154SOL    HW139095   3.499   0.642   4.583 -1.7798 -1.1713  0.3058
 9154SOL    HW239096   3.564   0.522   4.640 -3.4768 -1.0514 -1.2012
 9155SOL     OW39097   2.953   0.338   2.962 -0.1112 -0.8665 -0.6081
 9155SOL    HW139098   2.932   0.408   2.901  1.0280 -0.1874 -0.2124
 9155SOL    HW239099   2.888   0.270   2.944  1.0440 -1.5483 -2.1980
 9156SOL     OW39100   3.314   1.809   9.775 -0.0092  0.3978 -0.1958
 9156SOL    HW139101   3.244   1.843   9.832  1.2989 -0.5633  1.9774
 9156SOL    HW239102   3.279   1.825   9.688 -0.7750  2.1331  0.4346
 9157SOL     OW39103   3.800   1.585   5.761 -0.0886  0.2082 -0.0099
 9157SOL    HW139104   3.859   1.660   5.765 -1.5344  1.4554 -1.9724
 9157SOL    HW239105   3.759   1.599   5.846  0.6230 -1.0456  0.5360
 9158SOL     OW39106   4.708   2.543  15.302 -0.0210 -0.0148 -0.2476
 9158SOL    HW139107   4.658   2.486  15.360 -1.5409 -0.2595 -1.8172
 9158SOL    HW239108   0.057   2.505  15.307 -0.4521 -1.1996 -1.5648
 9159SOL     OW39109   2.669   0.310  13.165  0.6105  0.1320  0.8222
 9159SOL    HW139110   2.687   0.239  13.103  0.0172  1.7663 -1.2164
 9159SOL    HW239111   2.601   0.357  13.118  0.0538 -0.6520  0.8456
 9160SOL     OW39112   2.509   3.433   5.079 -0.2706  0.2856  0.1833
 9160SOL    HW139113   2.593   3.388   5.068 -0.7843 -1.1964  2.2060
 9160SOL    HW239114   2.487   3.437   5.172 -1.9706 -0.9522 -0.1794
 9161SOL     OW39115   0.505   3.776   6.510  0.6551 -0.1319 -0.5653
 9161SOL    HW139116   0.575   3.737   6.457  0.1838 -0.4999 -0.9176
 9161SOL    HW239117   0.544   3.863   6.520 -1.1436  0.6628 -0.4374
 9162SOL     OW39118   0.004   1.700   6.881  0.3408  0.2156 -0.4666
 9162SOL    HW139119   4.699   1.777   6.846 -0.5632 -1.3594 -2.7948
 9162SOL    HW239120   0.096   1.727   6.881  0.8669 -1.5634 -1.2998
 9163SOL     OW39121   3.330   2.474  16.775 -0.5995 -0.2313  0.0141
 9163SOL    HW139122   3.328   2.432  16.689 -1.8272  0.1534 -0.1540
 9163SOL    HW239123   3.240   2.456  16.802 -0.1463 -1.7519  0.5187
 9164SOL     OW39124   3.257   1.851   5.771  0.2730  0.1414 -0.3301
 9164SOL    HW139125   3.314   1.878   5.699  1.1789  1.6526  0.9758
 9164SOL    HW239126   3.227   1.936   5.801 -1.8496 -0.5378 -0.5186
 9165SOL     OW39127   2.106   3.554   9.534 -0.1997  0.2918  0.2367
 9165SOL    HW139128   2.089   3.649   9.532 -1.8857  0.0012  0.6454
 9165SOL    HW239129   2.049   3.513   9.469  1.0961 -0.7686 -0.2193
 9166SOL     OW39130   1.202   3.711  16.652  0.1624 -0.2384  0.2288
 9166SOL    HW139131   1.173   3.681  16.738  0.4362 -0.3543  0.2790
 9166SOL    HW239132   1.171   3.631  16.610 -0.5327  0.4204 -0.5285
 9167SOL     OW39133   3.428   0.971  12.260  0.3717  0.4320  0.1602
 9167SOL    HW139134   3.345   0.928  12.279  0.1326  0.9083  0.1757
 9167SOL    HW239135   3.460   0.913  12.191  1.5463  0.4190  0.7067
 9168SOL     OW39136   2.515   3.882   3.356  0.0828  0.5484 -0.1988
 9168SOL    HW139137   2.565   3.960   3.377 -0.2388  0.2483  1.7231
 9168SOL    HW239138   2.563   3.851   3.279 -0.3526 -0.5362 -0.0352
 9169SOL     OW39139   3.591   3.370  12.547 -0.2195 -0.3502 -0.0038
 9169SOL    HW139140   3.601   3.321  12.628 -2.6033 -0.5966  0.1353
 9169SOL    HW239141   3.673   3.419  12.539  1.0129 -2.4910 -0.4155
 9170SOL     OW39142   4.267   3.949  12.949  0.4554 -0.6176 -0.1924
 9170SOL    HW139143   4.211   3.925  13.023  1.4235  0.7477  1.0073
 9170SOL    HW239144   4.341   3.890  12.967  0.0414 -1.0647  0.0384
 9171SOL     OW39145   2.968   2.635  14.117  0.0091  0.4322 -0.4268
 9171SOL    HW139146   2.901   2.631  14.184  1.6563  1.4686  1.2761
 9171SOL    HW239147   3.032   2.580  14.163  1.7070  2.0790 -0.7968
 9172SOL     OW39148   4.297   2.101   6.972  0.7831  0.1598  0.0204
 9172SOL    HW139149   4.321   2.127   6.883 -1.0527  1.6717 -0.0292
 9172SOL    HW239150   4.238   2.173   6.997  0.6881 -0.1767  0.7813
 9173SOL     OW39151   0.756   4.698   6.820  0.5515  0.0171  0.4048
 9173SOL    HW139152   0.842   4.661   6.839 -0.1281 -0.5430  2.3617
 9173SOL    HW239153   0.706   4.618   6.809 -2.0910  1.6213  0.7911
 9174SOL     OW39154   0.664   1.920   6.182 -0.6330 -0.1283  0.3924
 9174SOL    HW139155   0.726   1.857   6.144  0.0719 -0.2149  1.6606
 9174SOL    HW239156   0.599   1.930   6.113  1.2667 -3.3237 -1.8651
 9175SOL     OW39157   4.589   0.864   2.069 -0.2160 -0.3228 -0.0276
 9175SOL    HW139158   4.670   0.826   2.035 -0.7932 -2.2412  0.7418
 9175SOL    HW239159   4.612   0.957   2.071  0.1026 -0.3463 -2.3578
 9176SOL     OW39160   2.158   3.442   4.322 -0.5627  0.5548 -0.1169
 9176SOL    HW139161   2.199   3.524   4.294 -2.5952  1.8077  0.5770
 9176SOL    HW239162   2.066   3.459   4.303 -0.0484  1.2825 -1.9244
 9177SOL     OW39163   3.129   0.291   8.970  0.4664 -0.1430 -0.2950
 9177SOL    HW139164   3.151   0.354   9.038 -2.2981 -0.4266  0.8408
 9177SOL    HW239165   3.210   0.240   8.963 -1.2225 -2.6500 -1.5314
 9178SOL     OW39166   1.556   1.337   5.907  0.1098 -0.1130  0.0219
 9178SOL    HW139167   1.569   1.245   5.932 -0.4035 -0.8033 -2.2431
 9178SOL    HW239168   1.496   1.328   5.834 -1.2616 -1.2067  1.2821
 9179SOL     OW39169   2.018   0.220   1.815 -0.3541  0.4629 -0.1891
 9179SOL    HW139170   2.006   0.192   1.725 -3.1838  1.3069 -0.0939
 9179SOL    HW239171   1.926   0.242   1.829 -0.7120 -0.4454 -1.1465
 9180SOL     OW39172   2.281   1.758   1.783  0.1872 -0.0493 -1.2078
 9180SOL    HW139173   2.208   1.811   1.751  0.0542 -0.3633 -1.4276
 9180SOL    HW239174   2.248   1.718   1.863  3.3364 -2.5458 -1.1417
 9181SOL     OW39175   4.225   3.095  12.436 -0.1159  0.0303  0.5235
 9181SOL    HW139176   4.166   3.167  12.412  0.5540 -0.2684 -2.0848
 9181SOL    HW239177   4.288   3.113  12.366 -0.7803 -0.7765 -0.2802
 9182SOL     OW39178   2.393   4.135   3.191  0.2580  0.3594  0.3518
 9182SOL    HW139179   2.455   4.118   3.120  1.4502  1.6773  1.0669
 9182SOL    HW239180   2.453   4.180   3.251  2.0174 -1.2081 -0.2492
 9183SOL     OW39181   1.430   1.825   5.967 -0.3591 -0.7731  0.1339
 9183SOL    HW139182   1.418   1.779   5.884  1.8089  0.5099 -0.9079
 9183SOL    HW239183   1.362   1.793   6.026  0.0364 -1.5243  0.1736
 9184SOL     OW39184   0.988   0.537  11.399 -0.1467 -0.0712  0.2511
 9184SOL    HW139185   0.931   0.570  11.330 -1.6512  0.7817  1.8846
 9184SOL    HW239186   1.032   0.615  11.433  0.5284  0.0292 -0.8577
 9185SOL     OW39187   0.808   2.677   6.954  0.3286  0.2989  0.0078
 9185SOL    HW139188   0.860   2.689   7.033  1.1296  1.3096 -0.6663
 9185SOL    HW239189   0.811   2.582   6.950  0.6344  0.2619  1.3947
 9186SOL     OW39190   3.093   2.833   6.008  0.0366 -0.1308 -0.1525
 9186SOL    HW139191   3.137   2.868   5.930  0.6898  0.4081  0.4572
 9186SOL    HW239192   3.130   2.745   6.017 -0.2539 -0.3636 -1.1203
 9187SOL     OW39193   1.223   3.217   6.154 -0.3411 -0.3651 -0.0277
 9187SOL    HW139194   1.279   3.192   6.080  1.2195  0.7824  0.7574
 9187SOL    HW239195   1.220   3.313   6.151  1.1820 -0.3669 -1.9730
 9188SOL     OW39196   2.010   3.390   6.698  0.1916 -0.2377 -0.6740
 9188SOL    HW139197   2.090   3.416   6.652 -0.1623  0.8917 -0.6536
 9188SOL    HW239198   2.043   3.306   6.729 -0.7490 -0.6216 -0.7163
 9189SOL     OW39199   2.196   1.544   6.666  0.1702 -0.9584  0.7235
 9189SOL    HW139200   2.190   1.639   6.680 -0.9382 -1.2466  2.1831
 9189SOL    HW239201   2.189   1.534   6.571  0.7265  1.1265  0.4717
 9190SOL     OW39202   2.217   3.374   8.756  0.4292  0.2634  0.2485
 9190SOL    HW139203   2.173   3.445   8.710 -1.2048 -1.9973 -1.7062
 9190SOL    HW239204   2.305   3.409   8.744  0.8371 -0.9010 -0.2114
 9191SOL     OW39205   0.893   1.804   4.133 -0.0344 -0.1256 -0.0432
 9191SOL    HW139206   0.807   1.806   4.173 -0.7197 -0.6066 -1.4849
 9191SOL    HW239207   0.913   1.898   4.131  0.6528 -0.2587  0.5286
 9192SOL     OW39208   3.091   1.043   0.010 -0.2002 -0.5236 -0.4456
 9192SOL    HW139209   3.107   1.081  17.679 -1.3152 -1.0607 -0.8848
 9192SOL    HW239210   3.176   1.045   0.054 -0.2432 -0.3364 -0.3722
 9193SOL     OW39211   3.452   4.427   1.590 -0.5321  0.7860 -0.2224
 9193SOL    HW139212   3.433   4.477   1.510  2.6105  1.9632 -0.2678
 9193SOL    HW239213   3.461   4.498   1.654 -1.1023  0.5671  0.0931
 9194SOL     OW39214   4.345   3.903   2.430 -0.1721 -0.3942 -0.0463
 9194SOL    HW139215   4.400   3.969   2.388 -0.4812 -0.0417  0.1095
 9194SOL    HW239216   4.276   3.953   2.473 -2.0044 -0.0530 -3.3025
 9195SOL     OW39217   1.743   4.380  16.370 -0.0264 -0.1829 -0.2814
 9195SOL    HW139218   1.738   4.418  16.282 -0.2496  0.8703  0.1773
 9195SOL    HW239219   1.656   4.394  16.406 -1.8543 -3.9251 -3.2896
 9196SOL     OW39220   0.078   2.260   4.262  0.1970 -0.0500  0.0946
 9196SOL    HW139221   4.739   2.205   4.263  0.4505 -0.4102  0.1799
 9196SOL    HW239222   0.143   2.192   4.280  1.0271  0.3958 -1.1824
 9197SOL     OW39223   0.235   2.580   7.284 -0.0798 -0.3378 -0.7168
 9197SOL    HW139224   0.243   2.507   7.345  1.2718 -1.0353 -1.7465
 9197SOL    HW239225   0.302   2.636   7.322  0.3191 -1.1754 -0.1964
 9198SOL     OW39226   2.848   3.505   6.316 -0.3247  0.2068  0.8758
 9198SOL    HW139227   2.802   3.566   6.374 -2.6506 -1.9360  1.2662
 9198SOL    HW239228   2.822   3.540   6.231 -0.1629 -0.8816  0.3734
 9199SOL     OW39229   0.468   2.503   0.390  0.5193 -0.6957 -0.4402
 9199SOL    HW139230   0.428   2.421   0.418  0.9563 -0.7391  0.0566
 9199SOL    HW239231   0.430   2.522   0.304 -1.1448 -2.4325 -0.0698
 9200SOL     OW39232   2.198   1.958   5.261 -0.0069  0.2035  0.4003
 9200SOL    HW139233   2.202   1.991   5.172 -1.0411  0.3401  0.4035
 9200SOL    HW239234   2.277   2.002   5.291  0.6087 -0.6327 -0.0179
 9201SOL     OW39235   0.240   2.815  14.849  0.2209 -0.2633 -0.3671
 9201SOL    HW139236   0.181   2.771  14.788  0.0197 -0.7962  0.2187
 9201SOL    HW239237   0.270   2.897  14.808  0.5265  0.5974  1.5914
 9202SOL     OW39238   1.445   4.250   6.285  0.7647 -0.0955 -0.1203
 9202SOL    HW139239   1.521   4.261   6.229  1.1305  2.9605  0.9730
 9202SOL    HW239240   1.466   4.311   6.355 -1.6650 -1.5110  1.8441
 9203SOL     OW39241   4.568   2.956  16.553 -0.6692  0.3415  0.1194
 9203SOL    HW139242   4.625   2.923  16.623  0.3860 -1.0913 -1.4365
 9203SOL    HW239243   4.605   3.042  16.533 -2.0679  1.5213  2.5290
 9204SOL     OW39244   3.199   3.181   3.686  0.1029  0.0387  0.2470
 9204SOL    HW139245   3.190   3.140   3.600 -0.1581 -0.3243  0.4462
 9204SOL    HW239246   3.121   3.145   3.730  0.6328 -0.1657  1.0197
 9205SOL     OW39247   1.036   2.458  10.151  0.4548 -0.0804  0.2438
 9205SOL    HW139248   1.106   2.415  10.200  3.3395  1.2121 -2.7360
 9205SOL    HW239249   0.964   2.428  10.206  1.5253 -1.2833  0.9872
 9206SOL     OW39250   4.354   4.600   9.407  0.5834  0.2364  0.4257
 9206SOL    HW139251   4.392   4.526   9.360  0.1958 -0.5767  1.4150
 9206SOL    HW239252   4.301   4.638   9.336  0.5480 -1.6873 -0.5759
 9207SOL     OW39253   1.065   2.155   8.016 -0.0481 -0.6297 -0.5569
 9207SOL    HW139254   0.995   2.168   7.952  1.1445  1.5002 -1.4406
 9207SOL    HW239255   1.112   2.084   7.974  1.1678 -0.8505  1.1617
 9208SOL     OW39256   1.078   2.431   1.798 -0.6417  0.4983 -0.0291
 9208SOL    HW139257   1.037   2.477   1.726 -2.2995  1.4568  1.5418
 9208SOL    HW239258   1.126   2.502   1.841 -0.8911  1.8334 -1.9891
 9209SOL     OW39259   4.142   1.822   5.611  0.2764  0.0691 -0.2729
 9209SOL    HW139260   4.130   1.916   5.625  3.1148  0.5494 -0.8990
 9209SOL    HW239261   4.091   1.784   5.682  0.0307  1.6064  0.3595
 9210SOL     OW39262   1.697   1.891  15.565 -0.2590  0.1472 -0.0294
 9210SOL    HW139263   1.785   1.872  15.597  0.2308  1.8216 -0.3718
 9210SOL    HW239264   1.709   1.868  15.473  2.3803  1.1798  0.0414
 9211SOL     OW39265   0.109   0.555   6.562 -0.0114  0.3177 -0.2800
 9211SOL    HW139266   0.088   0.465   6.537 -1.2962  0.0856  1.6137
 9211SOL    HW239267   0.137   0.533   6.651 -2.6289  2.5362  1.0963
 9212SOL     OW39268   3.928   0.040   8.215  0.2777  0.0030  0.3691
 9212SOL    HW139269   3.843   0.048   8.258 -0.8028 -1.2848 -1.5302
 9212SOL    HW239270   3.906   0.109   8.153  2.4208 -1.9362 -2.5601
 9213SOL     OW39271   4.459   3.773   6.498  0.6443  0.2834 -0.1873
 9213SOL    HW139272   4.383   3.759   6.442  1.4006 -0.5295 -0.9955
 9213SOL    HW239273   4.462   3.869   6.494 -0.5069  0.2363 -1.9227
 9214SOL     OW39274   4.471   2.766   4.100  0.7101 -0.3427  0.3384
 9214SOL    HW139275   4.449   2.674   4.084 -1.0174 -0.0801  1.2548
 9214SOL    HW239276   4.410   2.786   4.171  0.1533  1.1806 -0.5855
 9215SOL     OW39277   3.709   4.032   3.187  0.4588 -0.2053  0.1324
 9215SOL    HW139278   3.704   4.056   3.279 -0.1052 -1.0259  0.3176
 9215SOL    HW239279   3.765   4.100   3.149  1.3911 -1.0861 -0.0821
 9216SOL     OW39280   0.878   2.964   4.483 -0.7926 -0.1885 -0.3483
 9216SOL    HW139281   0.918   2.915   4.555  1.8221  0.9970 -0.9936
 9216SOL    HW239282   0.790   2.975   4.519 -0.3963  0.8455  0.2998
 9217SOL     OW39283   3.095   0.103  15.019  0.0439 -0.0331  0.3366
 9217SOL    HW139284   3.184   0.070  15.029  1.7260  4.9919  1.9098
 9217SOL    HW239285   3.046   0.022  15.003 -2.3857  1.9468 -2.3432
 9218SOL     OW39286   1.653   3.974   6.485  0.3745  0.3460  0.4161
 9218SOL    HW139287   1.680   4.049   6.433 -1.9951  1.6862  1.0902
 9218SOL    HW239288   1.626   4.008   6.571  0.8629  0.0267  0.6909
 9219SOL     OW39289   0.005   3.114  17.537  0.1222 -0.1956 -0.1917
 9219SOL    HW139290   0.034   3.195  17.579 -1.8382  0.1189  0.5498
 9219SOL    HW239291   4.653   3.137  17.522  0.5557  2.1700  0.8824
 9220SOL     OW39292   3.439   2.044   8.545 -0.0927  0.9765 -0.4245
 9220SOL    HW139293   3.377   2.116   8.560 -3.0521 -1.0737 -2.8659
 9220SOL    HW239294   3.382   1.975   8.578  0.9168  0.0421 -0.6558
 9221SOL     OW39295   0.445   2.662   0.646 -0.1818 -0.0403  0.4417
 9221SOL    HW139296   0.505   2.629   0.713 -0.1310 -2.3785 -0.7560
 9221SOL    HW239297   0.475   2.609   0.573  1.0335  0.0339  0.8818
 9222SOL     OW39298   0.514   4.329  16.622  0.0728  0.1674  0.1234
 9222SOL    HW139299   0.486   4.238  16.636 -2.6717  0.6351 -2.3507
 9222SOL    HW239300   0.516   4.338  16.527 -1.5111 -1.4615 -0.0829
 9223SOL     OW39301   0.522   4.384   7.342 -0.1462  0.8161  0.0914
 9223SOL    HW139302   0.575   4.463   7.350 -1.1904  1.6567 -1.1255
 9223SOL    HW239303   0.446   4.427   7.303  0.0240  1.1727  0.1537
 9224SOL     OW39304   3.835   0.289  15.718  0.1345 -0.2120  0.5787
 9224SOL    HW139305   3.928   0.283  15.739  1.0863  0.0057 -3.6996
 9224SOL    HW239306   3.804   0.362  15.772 -0.8642  0.5364 -1.0056
 9225SOL     OW39307   2.581   3.638  16.236  0.7829 -0.3358 -0.1074
 9225SOL    HW139308   2.510   3.702  16.234  1.4770  0.4677  1.0834
 9225SOL    HW239309   2.603   3.643  16.329 -0.6990 -0.5710  0.2464
 9226SOL     OW39310   1.039   1.776   0.171 -0.0971 -0.3426 -0.0382
 9226SOL    HW139311   0.951   1.742   0.187  0.4199 -1.4576  0.4989
 9226SOL    HW239312   1.080   1.690   0.170 -0.3695 -0.4351 -2.5504
 9227SOL     OW39313   1.802   0.917   5.642  0.3457  0.6166 -0.0809
 9227SOL    HW139314   1.883   0.968   5.650  0.9341 -0.0637 -1.6359
 9227SOL    HW239315   1.733   0.982   5.638 -1.3877 -1.1776  0.6425
 9228SOL     OW39316   4.544   0.044   2.065  0.1011 -0.5194  0.1280
 9228SOL    HW139317   4.547   0.129   2.020 -0.5009 -0.8988 -0.6191
 9228SOL    HW239318   4.543   0.070   2.157  0.6234  0.0570 -0.0277
 9229SOL     OW39319   3.499   0.796  14.193  0.2531 -0.3296  0.1566
 9229SOL    HW139320   3.514   0.788  14.099  1.4132 -1.6907  0.4565
 9229SOL    HW239321   3.422   0.852  14.188 -0.0349 -0.5304  2.4253
 9230SOL     OW39322   1.146   2.824   7.862  0.0649  0.3267 -0.3268
 9230SOL    HW139323   1.209   2.757   7.836 -1.6247 -1.5962  0.5016
 9230SOL    HW239324   1.199   2.903   7.851 -0.3921  0.2228 -3.2023
 9231SOL     OW39325   3.016   4.390   8.417  0.0039 -0.0262  0.5881
 9231SOL    HW139326   3.103   4.417   8.446 -0.4211  0.1612  1.6927
 9231SOL    HW239327   3.000   4.323   8.483  0.0639  1.3845  2.0377
 9232SOL     OW39328   1.995   4.726   0.643 -0.0481  0.4539  0.1064
 9232SOL    HW139329   2.050   0.060   0.671  0.3562 -0.3786  1.4980
 9232SOL    HW239330   1.915   0.025   0.607  0.1165  1.2945  0.6230
 9233SOL     OW39331   3.378   1.500   4.538  0.9365  0.8503  0.2811
 9233SOL    HW139332   3.286   1.528   4.539  0.5273 -0.4272 -1.2827
 9233SOL    HW239333   3.392   1.503   4.443  0.8352 -0.5279  0.2230
 9234SOL     OW39334   1.638   2.387   6.344 -0.0084  0.0277 -0.7019
 9234SOL    HW139335   1.588   2.465   6.320  1.5855  0.4002 -2.8067
 9234SOL    HW239336   1.713   2.423   6.390 -0.8631  0.2415  0.5379
 9235SOL     OW39337   0.030   3.549   7.315  0.0064  0.5744  0.0264
 9235SOL    HW139338   0.060   3.639   7.303  2.6299 -0.0912  1.4620
 9235SOL    HW239339   0.107   3.511   7.273 -1.0188 -1.2852 -0.1545
 9236SOL     OW39340   1.550   0.715   4.136  0.1025 -0.0863 -0.0890
 9236SOL    HW139341   1.499   0.675   4.206 -1.0030  0.5172 -0.5522
 9236SOL    HW239342   1.574   0.652   4.068  0.2418  0.1042 -0.2167
 9237SOL     OW39343   2.129   0.444  17.703 -0.4173  0.1035  0.2501
 9237SOL    HW139344   2.125   0.349  17.713 -1.6014  0.2395  1.0579
 9237SOL    HW239345   2.042   0.479  17.722 -1.8879 -1.9109 -2.7110
 9238SOL     OW39346   2.978   4.381   0.274 -0.2258  0.1073 -0.2575
 9238SOL    HW139347   2.984   4.300   0.225  0.1648  0.5134 -0.8675
 9238SOL    HW239348   3.026   4.358   0.354  1.3697  2.1026 -0.6422
 9239SOL     OW39349   4.682   2.070   5.228 -0.7411 -0.2107 -0.4192
 9239SOL    HW139350   4.724   2.150   5.197  3.1440 -2.5330 -1.2215
 9239SOL    HW239351   4.737   2.039   5.301 -0.1161 -0.0344 -0.8191
 9240SOL     OW39352   4.012   1.335   4.599  0.3360 -0.1946 -0.3981
 9240SOL    HW139353   4.050   1.312   4.514  0.6462  0.5019 -0.4421
 9240SOL    HW239354   4.027   1.428   4.611 -2.1504  0.0793  0.5301
 9241SOL     OW39355   3.447   3.846  16.502 -0.6731 -0.6354 -0.0066
 9241SOL    HW139356   3.400   3.853  16.419 -2.1538 -1.5422  0.7592
 9241SOL    HW239357   3.498   3.770  16.475  1.4168  0.3951  0.9799
 9242SOL     OW39358   2.277   1.498   8.749  0.4225 -0.6067 -0.1811
 9242SOL    HW139359   2.237   1.435   8.810  1.2293  2.0958  3.1841
 9242SOL    HW239360   2.203   1.524   8.694  1.1577  0.2157 -0.7639
 9243SOL     OW39361   3.860   4.227   9.724  0.4479 -0.0557 -0.2795
 9243SOL    HW139362   3.935   4.168   9.729  0.4354 -0.0848 -0.4352
 9243SOL    HW239363   3.836   4.229   9.816 -2.8482  2.0170 -1.1740
 9244SOL     OW39364   0.405   1.982   5.506  0.1286  0.0079 -0.1813
 9244SOL    HW139365   0.427   1.896   5.468 -0.2372 -0.0661 -0.2209
 9244SOL    HW239366   0.493   2.019   5.516  0.8150 -1.9163  1.0029
 9245SOL     OW39367   0.443   1.190  14.378 -0.2848 -0.1318  0.1104
 9245SOL    HW139368   0.503   1.264  14.383 -0.2085 -0.1007 -1.4604
 9245SOL    HW239369   0.362   1.242  14.380  0.4702  1.0468  0.1772
 9246SOL     OW39370   0.727   4.527   7.791 -0.0475 -0.3509 -0.5095
 9246SOL    HW139371   0.670   4.589   7.746 -2.2126 -0.0521  2.6305
 9246SOL    HW239372   0.705   4.444   7.749 -0.9751  0.0043 -0.7235
 9247SOL     OW39373   2.665   0.302   5.884  0.2260  0.2527 -0.1445
 9247SOL    HW139374   2.582   0.350   5.888 -0.2413 -0.6280  0.6249
 9247SOL    HW239375   2.709   0.348   5.955  3.8232  0.3952 -2.5054
 9248SOL     OW39376   3.387   3.102   6.112 -0.0057  0.6388 -0.6113
 9248SOL    HW139377   3.382   3.020   6.062  1.7764  0.3291 -0.2589
 9248SOL    HW239378   3.374   3.072   6.202  4.0426  0.5744 -0.0676
 9249SOL     OW39379   1.619   1.472   3.889  0.0037 -0.4372  0.5145
 9249SOL    HW139380   1.554   1.402   3.886  0.0514 -0.5405  1.9516
 9249SOL    HW239381   1.701   1.428   3.866  0.6759  2.2617 -2.2018
 9250SOL     OW39382   4.508   2.818  17.560 -0.1970 -0.2441  0.1389
 9250SOL    HW139383   4.521   2.899  17.511 -0.7480 -0.6839 -0.7333
 9250SOL    HW239384   4.443   2.855  17.619 -0.2796 -2.0356  1.1861
 9251SOL     OW39385   0.547   0.499   8.512  0.1031 -0.0189  0.2019
 9251SOL    HW139386   0.539   0.483   8.606 -4.1314  0.5511 -0.0586
 9251SOL    HW239387   0.612   0.567   8.498 -1.3735  1.0553 -1.4424
 9252SOL     OW39388   2.195   1.818   6.691 -0.0442 -0.1025  0.2382
 9252SOL    HW139389   2.149   1.816   6.608  2.2047 -0.9860 -0.9662
 9252SOL    HW239390   2.161   1.897   6.732  2.2795  0.8298  0.3696
 9253SOL     OW39391   3.850   0.237   8.022  0.2011  0.4449 -0.0723
 9253SOL    HW139392   3.790   0.299   7.982  1.9005  2.0794 -0.1227
 9253SOL    HW239393   3.845   0.156   7.971 -0.6781  1.6286 -1.8431
 9254SOL     OW39394   0.339   0.755  15.942  0.6245 -0.1706 -0.0858
 9254SOL    HW139395   0.300   0.670  15.963  0.3872 -0.4677 -1.7238
 9254SOL    HW239396   0.297   0.786  15.862  2.8348  0.7282 -0.8931
 9255SOL     OW39397   2.907   0.430  12.580  0.4996 -0.0705 -0.4212
 9255SOL    HW139398   2.818   0.395  12.588  0.5855 -0.3587 -0.7225
 9255SOL    HW239399   2.947   0.383  12.652  0.1401 -0.8681 -0.7397
 9256SOL     OW39400   3.985   2.495  17.508  0.3885  0.1485  0.1415
 9256SOL    HW139401   4.033   2.567  17.550  0.1021  0.8135 -0.6666
 9256SOL    HW239402   3.894   2.518  17.528  0.2339  0.8126 -1.3328
 9257SOL     OW39403   1.857   3.276  15.746 -0.0069 -0.3525 -0.1389
 9257SOL    HW139404   1.869   3.311  15.658 -1.3231  2.1811  0.6923
 9257SOL    HW239405   1.925   3.319  15.798 -1.1471  1.9536 -0.5277
 9258SOL     OW39406   4.624   2.012   9.449  0.3090 -0.1295 -0.7953
 9258SOL    HW139407   4.588   2.044   9.531 -3.2895 -0.2912 -2.2837
 9258SOL    HW239408   4.621   2.094   9.400 -1.1244  0.9754  1.1833
 9259SOL     OW39409   0.755   2.256   8.818  0.3631 -0.3487  0.1498
 9259SOL    HW139410   0.804   2.284   8.740  0.8493 -0.3476  0.4539
 9259SOL    HW239411   0.666   2.244   8.784 -0.1748 -0.5483  1.6337
 9260SOL     OW39412   3.679   0.205   5.529  0.1948  0.3247  0.3879
 9260SOL    HW139413   3.694   0.276   5.467  1.3955 -0.7213 -0.5290
 9260SOL    HW239414   3.600   0.161   5.499  0.8753  0.2861 -1.3408
 9261SOL     OW39415   1.650   0.299   5.792  0.3636  0.5775 -0.5321
 9261SOL    HW139416   1.670   0.362   5.723  3.1978  0.8975  0.6019
 9261SOL    HW239417   1.579   0.352   5.827  1.0026  0.6932  0.5751
 9262SOL     OW39418   1.891   1.045   4.045  0.1112 -0.2364 -0.2291
 9262SOL    HW139419   1.856   0.979   4.105  1.9350  1.3426  2.5587
 9262SOL    HW239420   1.823   1.056   3.979 -0.3252  1.6200  0.5350
 9263SOL     OW39421   4.011   0.792   4.264  0.3788 -0.2542 -0.6302
 9263SOL    HW139422   3.995   0.884   4.284  0.6878 -0.4888  0.6622
 9263SOL    HW239423   4.061   0.798   4.182  1.9780  0.5700  0.3924
 9264SOL     OW39424   0.687   2.624   7.967 -0.2301  0.2730 -0.5209
 9264SOL    HW139425   0.760   2.684   7.949 -0.0025 -0.1158 -0.9026
 9264SOL    HW239426   0.626   2.686   8.008  1.4660  1.2034  0.5696
 9265SOL     OW39427   4.534   0.782  13.304  0.1508 -0.1282 -0.1171
 9265SOL    HW139428   4.487   0.824  13.376 -1.6085 -1.3825 -0.5109
 9265SOL    HW239429   4.530   0.851  13.239  1.4983 -0.6764 -0.7719
 9266SOL     OW39430   2.864   0.224   7.275  0.3777 -0.5769 -0.1175
 9266SOL    HW139431   2.799   0.168   7.233 -0.8810  0.2429  0.7004
 9266SOL    HW239432   2.885   0.281   7.201 -1.4882 -0.8827 -0.8839
 9267SOL     OW39433   2.111   3.039   7.560 -0.2125 -0.2277 -0.3401
 9267SOL    HW139434   2.181   3.063   7.499  1.1805  0.8262  1.6682
 9267SOL    HW239435   2.112   2.944   7.542 -1.2481 -0.4438  0.7755
 9268SOL     OW39436   3.362   0.169   7.792 -0.4215  0.1256 -0.4697
 9268SOL    HW139437   3.302   0.236   7.826  1.5934  1.3193  0.7189
 9268SOL    HW239438   3.295   0.110   7.758 -0.8058  0.3090 -0.0227
 9269SOL     OW39439   0.420   4.026  16.269  0.2177 -0.1876 -0.4047
 9269SOL    HW139440   0.344   4.044  16.214  1.0021  0.9625 -1.1321
 9269SOL    HW239441   0.392   4.093  16.332  0.3200 -0.1261 -0.4239
 9270SOL     OW39442   3.464   2.660   6.871 -0.1464 -0.4214  0.5506
 9270SOL    HW139443   3.470   2.700   6.958 -3.0709  1.2056 -0.0019
 9270SOL    HW239444   3.525   2.587   6.877  1.6126  1.0961  1.5325
 9271SOL     OW39445   2.702   2.637  16.932  0.3561 -0.0919  0.2214
 9271SOL    HW139446   2.707   2.694  17.009  1.5177 -1.0319  0.8394
 9271SOL    HW239447   2.684   2.696  16.859 -1.1182 -1.2122 -0.3137
 9272SOL     OW39448   4.351   2.568  16.458  0.3530 -0.7346  0.0303
 9272SOL    HW139449   4.396   2.633  16.404  0.7785  0.0309  1.3207
 9272SOL    HW239450   4.362   2.612  16.542  0.0880 -2.0439  0.7559
 9273SOL     OW39451   3.347   1.525   3.769 -0.5935  0.0610  0.1402
 9273SOL    HW139452   3.307   1.462   3.709 -0.7180  0.0230  0.2641
 9273SOL    HW239453   3.271   1.568   3.808 -1.1219  0.3957 -1.2554
 9274SOL     OW39454   0.572   2.804   3.723 -0.2130 -0.1108 -0.0009
 9274SOL    HW139455   0.625   2.862   3.668  0.3307  0.5778  1.2547
 9274SOL    HW239456   0.555   2.735   3.659  2.8560 -0.6322 -0.2442
 9275SOL     OW39457   2.097   4.025   2.108 -0.4561 -0.0326  0.4137
 9275SOL    HW139458   2.113   3.987   2.195  0.7889  0.7396  0.5174
 9275SOL    HW239459   2.062   3.946   2.068 -1.9608  1.3832 -1.0316
 9276SOL     OW39460   0.993   3.325   3.094  0.2281  0.4924 -0.0626
 9276SOL    HW139461   0.974   3.285   3.009  0.3176  0.9190 -0.2821
 9276SOL    HW239462   1.039   3.405   3.070 -1.9415  1.7339 -0.0787
 9277SOL     OW39463   0.993   0.787  11.528 -0.1299 -0.2588  0.2346
 9277SOL    HW139464   0.908   0.803  11.568 -1.3952 -3.2070 -1.2778
 9277SOL    HW239465   1.021   0.877  11.512  2.1079 -1.3422 -2.0098
 9278SOL     OW39466   4.738   0.021  12.252 -0.3454  0.0902 -0.3354
 9278SOL    HW139467   0.089   0.050  12.259 -0.0226 -0.4819 -1.9370
 9278SOL    HW239468   4.723   0.044  12.343  0.6875  3.0682 -0.9338
 9279SOL     OW39469   4.231   3.614   7.350  0.6681 -0.2401  0.0571
 9279SOL    HW139470   4.294   3.542   7.353  1.1002  0.1347 -0.1264
 9279SOL    HW239471   4.297   3.683   7.347  1.0858 -0.6920 -0.9092
 9280SOL     OW39472   0.168   2.684   9.752 -0.7330 -0.6109  0.4066
 9280SOL    HW139473   0.172   2.710   9.660 -0.3035  0.0443  0.6071
 9280SOL    HW239474   0.218   2.755   9.792  1.0281 -0.5530 -1.8848
 9281SOL     OW39475   0.303   3.089  13.131  0.1050  0.3570  0.1868
 9281SOL    HW139476   0.355   3.169  13.128  0.7729 -0.0874 -0.0947
 9281SOL    HW239477   0.308   3.063  13.039 -1.6631  0.2320  0.1378
 9282SOL     OW39478   2.251   0.787   0.733 -0.0680 -0.3315 -0.2031
 9282SOL    HW139479   2.203   0.860   0.772 -1.2197 -0.9654 -0.4283
 9282SOL    HW239480   2.190   0.714   0.749 -0.3207  0.0125  0.4041
 9283SOL     OW39481   1.217   2.351   8.811 -1.0593 -0.2593 -0.2534
 9283SOL    HW139482   1.201   2.433   8.766  2.0005 -0.0143 -0.8697
 9283SOL    HW239483   1.160   2.299   8.754  0.8289 -1.0991 -1.3742
 9284SOL     OW39484   0.177   2.737   9.481  0.5024  1.0348  0.3028
 9284SOL    HW139485   0.167   2.825   9.445 -0.4331  0.3757 -1.0831
 9284SOL    HW239486   0.193   2.686   9.401 -1.2162  1.0919 -0.0844
 9285SOL     OW39487   4.200   4.527   9.029  0.0002  0.6000 -0.1825
 9285SOL    HW139488   4.180   4.546   9.121  1.7398  0.8102  0.1614
 9285SOL    HW239489   4.118   4.490   8.997 -0.9117  3.3097 -0.9754
 9286SOL     OW39490   0.591   4.509   8.289  0.1586 -0.0234 -0.2710
 9286SOL    HW139491   0.597   4.602   8.266 -1.1415 -0.1264 -1.0299
 9286SOL    HW239492   0.636   4.476   8.212 -0.9392  0.2851 -1.0454
 9287SOL     OW39493   3.746   3.188  13.069  0.1380 -0.0536  0.0279
 9287SOL    HW139494   3.815   3.128  13.095 -0.7371 -1.3756 -0.6770
 9287SOL    HW239495   3.747   3.250  13.143 -0.2759  0.2684 -0.2315
 9288SOL     OW39496   1.934   0.255  17.491 -0.3571  0.4140 -0.0447
 9288SOL    HW139497   1.932   0.160  17.478 -0.3497  0.5091 -0.7189
 9288SOL    HW239498   2.017   0.269  17.445  0.3624  0.3675  1.2169
 9289SOL     OW39499   3.341   1.776   6.643 -0.2333 -0.0545 -0.0223
 9289SOL    HW139500   3.308   1.786   6.733 -1.6394 -0.6349 -0.4651
 9289SOL    HW239501   3.431   1.751   6.659  0.2847  1.1394 -1.0681
 9290SOL     OW39502   3.395   2.440   1.009  0.4942  0.3162 -0.2413
 9290SOL    HW139503   3.348   2.372   0.959  2.2339  0.0185 -1.5148
 9290SOL    HW239504   3.337   2.478   1.074  0.1800 -1.3442  0.4404
 9291SOL     OW39505   1.074   0.123  15.974  0.3461 -0.7590  0.2718
 9291SOL    HW139506   1.018   0.153  16.045 -0.4218 -0.2097 -0.5716
 9291SOL    HW239507   1.025   0.142  15.894  0.8055 -2.7433 -0.4975
 9292SOL     OW39508   2.944   4.589   2.248  0.0406 -0.4985 -0.0593
 9292SOL    HW139509   2.879   4.573   2.180  0.8073  0.4091 -1.0022
 9292SOL    HW239510   2.900   4.536   2.315 -0.9410  1.3053  0.7434
 9293SOL     OW39511   2.020   0.245   5.040 -0.2545  0.5227  0.2725
 9293SOL    HW139512   1.937   0.198   5.040  0.4887 -0.7973  1.0910
 9293SOL    HW239513   2.005   0.333   5.074  0.1698  0.1793  1.3488
 9294SOL     OW39514   4.073   4.588   1.866  0.1922  0.0673  0.3012
 9294SOL    HW139515   4.149   4.635   1.832 -0.2344 -0.0979 -0.8747
 9294SOL    HW239516   4.092   4.495   1.856 -1.6531 -0.5092  2.1911
 9295SOL     OW39517   3.554   2.683   8.072  0.3640  0.0381  0.3832
 9295SOL    HW139518   3.621   2.729   8.022  1.1898 -0.2854  1.2143
 9295SOL    HW239519   3.584   2.597   8.043  1.9460  1.7247 -2.9642
 9296SOL     OW39520   0.930   0.860   6.863 -0.0937  0.4622 -0.2746
 9296SOL    HW139521   0.928   0.792   6.796  1.2236  0.1215  0.0205
 9296SOL    HW239522   0.899   0.811   6.939 -0.9634 -0.2226 -1.0643
 9297SOL     OW39523   1.666   4.446  17.542 -0.5762  0.1624 -0.1746
 9297SOL    HW139524   1.590   4.483  17.497 -1.4388  0.4705  1.5623
 9297SOL    HW239525   1.742   4.472  17.490 -0.5478 -3.0432 -1.7321
 9298SOL     OW39526   4.435   0.748   3.148  0.0122  0.1204  0.5875
 9298SOL    HW139527   4.482   0.793   3.218  0.5116 -0.7014  0.7783
 9298SOL    HW239528   4.503   0.726   3.084 -1.5245 -1.6392 -0.4354
 9299SOL     OW39529   2.210   4.205   1.906 -0.2062 -0.4606  0.2717
 9299SOL    HW139530   2.172   4.141   1.966  2.2564 -0.4342  1.8726
 9299SOL    HW239531   2.173   4.285   1.942  0.3822  0.3158 -0.8182
 9300SOL     OW39532   0.435   0.756   1.729  0.1455  0.3085 -0.2733
 9300SOL    HW139533   0.492   0.687   1.695  0.1624 -1.5993  3.5923
 9300SOL    HW239534   0.480   0.831   1.690 -0.3647  0.2181 -1.0385
 9301SOL     OW39535   3.429   1.577   7.203 -0.4031  0.0563  0.0767
 9301SOL    HW139536   3.398   1.533   7.282  0.2401 -0.1092  0.2386
 9301SOL    HW239537   3.401   1.668   7.202 -0.1243  0.1280 -1.1389
 9302SOL     OW39538   2.647   0.019   7.783 -0.1830  0.1713 -0.1496
 9302SOL    HW139539   2.627   4.678   7.735  1.2242 -0.5691  0.4903
 9302SOL    HW239540   2.557   0.038   7.810 -1.0461 -1.7040 -1.6702
 9303SOL     OW39541   3.083   2.267  12.546  0.3823 -0.2330  0.1074
 9303SOL    HW139542   3.040   2.323  12.481  2.6461  1.2096 -0.1535
 9303SOL    HW239543   3.102   2.195  12.486  0.1508  1.0641 -1.5419
 9304SOL     OW39544   0.521   4.403   2.788 -0.7004 -0.1063  0.5495
 9304SOL    HW139545   0.460   4.477   2.786  0.9305  1.1919 -0.6184
 9304SOL    HW239546   0.579   4.428   2.860  0.0877  0.3313 -0.2495
 9305SOL     OW39547   2.643   1.956   6.304 -0.6353 -0.8223 -0.0785
 9305SOL    HW139548   2.638   1.933   6.397  1.7826 -0.2288  0.2038
 9305SOL    HW239549   2.706   1.886   6.290 -0.8690 -0.9019 -0.7187
 9306SOL     OW39550   2.785   1.283  14.500 -0.6308  0.4319  0.0252
 9306SOL    HW139551   2.847   1.355  14.489  0.8450 -0.9024 -0.5074
 9306SOL    HW239552   2.765   1.273  14.407 -1.7422  0.9089  0.2207
 9307SOL     OW39553   3.832   2.531   8.269 -0.4811 -0.5382 -0.5121
 9307SOL    HW139554   3.794   2.618   8.259  1.2395  0.2033 -0.5884
 9307SOL    HW239555   3.851   2.529   8.363  1.1337 -0.6022 -0.8547
 9308SOL     OW39556   4.657   0.535   2.541 -0.0108 -0.8697 -0.0684
 9308SOL    HW139557   4.645   0.462   2.601 -2.8728  0.4444  0.9387
 9308SOL    HW239558   4.717   0.583   2.599 -0.3469 -1.0174  0.3978
 9309SOL     OW39559   1.873   2.921  16.548  0.2978 -0.2027  0.2939
 9309SOL    HW139560   1.801   2.899  16.608 -1.7316  0.0070 -2.0920
 9309SOL    HW239561   1.939   2.858  16.577 -0.0661 -0.4698  0.5447
 9310SOL     OW39562   2.463   4.044  12.771 -0.0403 -0.0410 -0.0099
 9310SOL    HW139563   2.526   3.972  12.757  0.2599  0.7232 -2.6980
 9310SOL    HW239564   2.493   4.076  12.855  1.9598  0.6834 -0.9973
 9311SOL     OW39565   3.374   3.773  16.744 -0.4331 -0.1962  0.6548
 9311SOL    HW139566   3.370   3.680  16.722 -2.3313 -0.2517  1.1832
 9311SOL    HW239567   3.405   3.812  16.662 -1.5194 -4.8236 -1.9220
 9312SOL     OW39568   1.207   4.668   4.276 -0.1478 -0.2545 -0.3337
 9312SOL    HW139569   1.208   4.726   4.352  1.2272  0.1184 -0.6295
 9312SOL    HW239570   1.295   4.632   4.288 -0.0986 -0.1895 -0.5019
 9313SOL     OW39571   1.839   0.154   6.584 -0.0966 -0.2772 -0.4202
 9313SOL    HW139572   1.822   0.158   6.490 -0.7656  0.4086 -0.2687
 9313SOL    HW239573   1.921   0.204   6.582 -0.0100 -0.4327 -0.6966
 9314SOL     OW39574   2.485   2.373   4.403 -0.2299  0.1662  0.2907
 9314SOL    HW139575   2.552   2.328   4.353 -0.6390  1.7300 -1.6980
 9314SOL    HW239576   2.438   2.301   4.445 -0.0857  0.1155  0.3652
 9315SOL     OW39577   3.114   3.875   4.546 -0.2924  0.1056 -0.5033
 9315SOL    HW139578   3.175   3.947   4.531  1.7520 -1.4989  0.0052
 9315SOL    HW239579   3.079   3.865   4.457 -1.2292 -1.3908  0.0219
 9316SOL     OW39580   0.347   1.122   9.195  0.3156  0.1872 -0.4167
 9316SOL    HW139581   0.429   1.135   9.242 -0.3069 -0.6692  0.9280
 9316SOL    HW239582   0.382   1.094   9.111 -3.7227 -0.3696 -1.8885
 9317SOL     OW39583   2.788   3.263  14.709 -0.4877 -0.2693  0.2959
 9317SOL    HW139584   2.823   3.207  14.640  0.8523  2.0354 -0.9164
 9317SOL    HW239585   2.716   3.301  14.658  0.6464 -1.6652 -2.3857
 9318SOL     OW39586   4.590   2.127  12.275  0.4386  0.0134 -0.2235
 9318SOL    HW139587   4.589   2.125  12.179 -1.0938 -0.6899 -0.1966
 9318SOL    HW239588   4.501   2.104  12.303  1.0925 -3.0837 -0.7284
 9319SOL     OW39589   1.344   3.139   3.438 -0.1087  0.0808  0.0608
 9319SOL    HW139590   1.306   3.194   3.369 -0.0258 -3.0018 -2.4368
 9319SOL    HW239591   1.283   3.066   3.428  0.2145 -0.0606 -0.9422
 9320SOL     OW39592   2.500   1.415   3.965 -0.3997 -0.1341  0.1588
 9320SOL    HW139593   2.572   1.446   4.020 -0.3148 -2.0464  1.1197
 9320SOL    HW239594   2.512   1.321   3.979 -0.1616 -0.2628 -0.9292
 9321SOL     OW39595   0.511   3.148   0.416  0.5621  0.2928 -0.2833
 9321SOL    HW139596   0.556   3.134   0.333 -1.7153  2.0907 -1.8218
 9321SOL    HW239597   0.558   3.220   0.460 -0.8806  0.1235  1.5613
 9322SOL     OW39598   1.716   3.091   9.558  0.2021  0.8810  0.1030
 9322SOL    HW139599   1.652   3.025   9.585 -0.5526  1.0191 -1.3154
 9322SOL    HW239600   1.698   3.110   9.465 -0.2388  0.0429  0.0167
 9323SOL     OW39601   3.621   1.428   9.831  0.0888  0.2501  0.0289
 9323SOL    HW139602   3.656   1.468   9.911  0.0545 -0.9825  0.6680
 9323SOL    HW239603   3.627   1.501   9.770 -0.2560  0.0397 -0.2589
 9324SOL     OW39604   2.734   0.720  12.055  0.3053  0.3869  0.3858
 9324SOL    HW139605   2.659   0.778  12.043  2.2589  2.7253 -0.4903
 9324SOL    HW239606   2.695   0.633  12.044 -0.5899  1.0124 -1.4970
 9325SOL     OW39607   3.395   2.101   7.767  0.1811  0.1598  0.3816
 9325SOL    HW139608   3.471   2.114   7.710  0.4142 -1.9967  0.1698
 9325SOL    HW239609   3.429   2.129   7.852  0.0213 -0.3839  0.6286
 9326SOL     OW39610   1.246   1.289   4.434  0.0142 -0.1220  0.1542
 9326SOL    HW139611   1.183   1.226   4.468 -0.3153  0.8530  1.3633
 9326SOL    HW239612   1.230   1.287   4.340  1.5614  1.0500 -0.1274
 9327SOL     OW39613   2.049   0.842   2.958  0.1549  0.3953  0.0974
 9327SOL    HW139614   2.007   0.883   3.034 -0.3246 -1.7687  1.0089
 9327SOL    HW239615   2.140   0.863   2.975  0.3866 -0.1494 -0.4602
 9328SOL     OW39616   0.915   0.535   3.116 -0.4109  0.1236 -0.1120
 9328SOL    HW139617   0.970   0.457   3.114  1.0739  1.1627  0.3189
 9328SOL    HW239618   0.877   0.540   3.028 -1.0051  2.0696  0.2473
 9329SOL     OW39619   0.627   4.097   3.412  0.0438 -0.3755 -0.1519
 9329SOL    HW139620   0.619   4.002   3.402 -0.0602 -0.4222  0.3824
 9329SOL    HW239621   0.705   4.108   3.357 -0.8898  1.0789 -1.1806
 9330SOL     OW39622   1.287   3.549  14.029 -0.5384  0.2201  0.0601
 9330SOL    HW139623   1.337   3.551  14.110 -0.3421  1.0336 -0.0757
 9330SOL    HW239624   1.297   3.640  14.001 -0.7436  0.2751  0.1693
 9331SOL     OW39625   3.343   0.328   5.744  0.1641  0.3898 -0.0277
 9331SOL    HW139626   3.406   0.384   5.789 -0.1687  0.9728 -0.2882
 9331SOL    HW239627   3.379   0.334   5.655 -0.1751  0.5372 -0.1549
 9332SOL     OW39628   3.512   3.693   2.965 -0.1145  0.0400 -0.3776
 9332SOL    HW139629   3.425   3.683   2.928 -0.5542  2.1468  0.0759
 9332SOL    HW239630   3.555   3.731   2.888  2.3055  1.2507  1.5601
 9333SOL     OW39631   3.136   3.061  14.654 -0.0417  0.3370 -0.0493
 9333SOL    HW139632   3.170   3.028  14.571 -0.0176  0.7381 -0.1987
 9333SOL    HW239633   3.171   2.991  14.709  0.3550  0.0222 -0.6991
 9334SOL     OW39634   0.163   2.468   8.502 -0.8147  0.0169  0.0993
 9334SOL    HW139635   0.177   2.439   8.412 -0.2787 -1.2822  0.6054
 9334SOL    HW239636   0.098   2.538   8.495  1.8472  2.4418 -0.5265
 9335SOL     OW39637   1.147   3.969   9.294  0.2293 -0.2969 -0.6896
 9335SOL    HW139638   1.141   3.956   9.389 -0.6063 -0.3462 -0.7438
 9335SOL    HW239639   1.118   4.060   9.284 -1.6942 -0.7619  0.6264
 9336SOL     OW39640   3.375   1.559   5.912 -0.3798  0.3994  0.3585
 9336SOL    HW139641   3.317   1.631   5.938 -0.1225 -0.0048  2.0732
 9336SOL    HW239642   3.355   1.555   5.818  0.7961 -0.9174  0.1643
 9337SOL     OW39643   3.622   3.696   9.307  0.1396  0.5096  0.2007
 9337SOL    HW139644   3.609   3.627   9.373 -3.3474 -0.8874 -1.8892
 9337SOL    HW239645   3.709   3.725   9.334  0.9755 -1.5618 -0.2474
 9338SOL     OW39646   3.330   0.002  12.970 -0.6224  0.1050 -0.1682
 9338SOL    HW139647   3.364   0.059  13.039 -2.2153  2.3921 -1.2721
 9338SOL    HW239648   3.268   4.694  13.024 -1.1502  2.3252  1.2021
 9339SOL     OW39649   0.655   1.971   3.137 -0.2961  0.1719  0.3318
 9339SOL    HW139650   0.568   1.981   3.174 -0.6781  1.1481 -0.8417
 9339SOL    HW239651   0.646   2.000   3.047 -0.9074  0.8053  0.5963
 9340SOL     OW39652   2.918   2.141   2.896  0.4730  0.1331 -0.3193
 9340SOL    HW139653   2.844   2.090   2.931  0.9374  0.5140  1.1895
 9340SOL    HW239654   2.986   2.076   2.913 -0.5285 -0.2816  2.1180
 9341SOL     OW39655   2.176   1.245  17.306  0.0020 -0.3694  0.3741
 9341SOL    HW139656   2.093   1.198  17.308 -0.6540  0.7905  0.5543
 9341SOL    HW239657   2.234   1.169  17.316 -0.4025 -0.8497 -0.9172
 9342SOL     OW39658   0.756   2.467   7.443 -0.4396  0.3342  0.6371
 9342SOL    HW139659   0.763   2.557   7.409 -0.8560  0.1868  0.1570
 9342SOL    HW239660   0.695   2.430   7.379 -1.6600 -1.5723  2.8883
 9343SOL     OW39661   0.339   4.151   8.986  0.1031  0.0231  0.4490
 9343SOL    HW139662   0.299   4.169   9.071  0.6001 -0.4686  0.7929
 9343SOL    HW239663   0.412   4.212   8.986  0.2285 -0.1192  1.4022
 9344SOL     OW39664   0.119   0.141  13.587 -0.0021  0.5035  0.2979
 9344SOL    HW139665   0.036   0.110  13.622 -0.1628  0.6724  0.0697
 9344SOL    HW239666   0.174   0.067  13.612  1.5553  1.5444  0.0063
 9345SOL     OW39667   2.358   0.945  15.584 -0.9211  0.0411  0.2367
 9345SOL    HW139668   2.275   0.992  15.574 -1.5313 -0.9297  0.7597
 9345SOL    HW239669   2.410   0.983  15.513 -0.3642  3.1095  2.2901
 9346SOL     OW39670   3.288   1.091   2.456 -0.5719 -0.0732  0.5246
 9346SOL    HW139671   3.330   1.167   2.496  0.6127  0.2762 -1.4273
 9346SOL    HW239672   3.270   1.035   2.532 -0.3048 -1.1323 -0.1949
 9347SOL     OW39673   0.970   3.226   2.825 -0.0982  0.1638 -0.7743
 9347SOL    HW139674   0.947   3.159   2.761  1.2877 -1.8663  0.8223
 9347SOL    HW239675   1.030   3.281   2.774 -0.3342  0.6588 -0.5138
 9348SOL     OW39676   1.927   1.940   5.061  0.1553 -0.2544 -0.0072
 9348SOL    HW139677   1.926   1.972   5.151 -0.2709 -1.0908  0.2805
 9348SOL    HW239678   1.849   1.886   5.048 -0.5252  0.3316  1.6367
 9349SOL     OW39679   0.189   3.965   5.643 -0.4988  0.1876 -0.2132
 9349SOL    HW139680   0.234   3.896   5.594 -1.0500 -1.1549  1.1453
 9349SOL    HW239681   0.219   4.047   5.603 -0.7632 -0.5058 -1.8282
 9350SOL     OW39682   0.968   4.090   2.564 -0.1985 -0.8284 -0.5132
 9350SOL    HW139683   0.876   4.071   2.542  0.0770 -2.0294 -0.6619
 9350SOL    HW239684   1.014   4.054   2.489 -0.0356 -2.0419  0.1654
 9351SOL     OW39685   0.119   2.285   5.473  0.6220 -0.2442 -0.3344
 9351SOL    HW139686   0.126   2.306   5.380 -0.6338 -1.7451 -0.7710
 9351SOL    HW239687   0.121   2.190   5.480 -3.2619 -0.4006 -1.3068
 9352SOL     OW39688   3.549   4.364   4.396  0.3314 -0.1361 -0.0746
 9352SOL    HW139689   3.480   4.307   4.360 -0.0043  1.4071 -1.9270
 9352SOL    HW239690   3.520   4.450   4.365 -0.1454 -0.0726  0.5372
 9353SOL     OW39691   1.996   4.276  11.495  0.4422 -0.0494  0.3432
 9353SOL    HW139692   2.028   4.366  11.507 -0.2847  0.3165 -0.4412
 9353SOL    HW239693   2.032   4.232  11.572  1.7172 -0.8100 -0.6844
 9354SOL     OW39694   0.326   1.336  17.696 -0.5510 -0.3305 -0.6168
 9354SOL    HW139695   0.246   1.384  17.673 -1.3119 -1.9850 -1.4785
 9354SOL    HW239696   0.309   1.274   0.012 -1.4011 -0.2978 -0.7898
 9355SOL     OW39697   0.187   0.862   8.363  0.2333 -0.2072  0.1047
 9355SOL    HW139698   0.173   0.890   8.454 -0.7790  0.6931 -0.3328
 9355SOL    HW239699   0.102   0.877   8.321 -0.4739 -0.6694  1.3377
 9356SOL     OW39700   3.487   1.811   4.386 -0.2587 -0.5918 -0.1554
 9356SOL    HW139701   3.488   1.902   4.355 -0.4443 -0.6416 -0.3098
 9356SOL    HW239702   3.452   1.818   4.474 -0.2472 -1.6099 -0.0657
 9357SOL     OW39703   4.707   1.313   8.531  0.0134  0.7052  0.1252
 9357SOL    HW139704   0.017   1.379   8.579 -0.9710  1.0048  0.7161
 9357SOL    HW239705   4.662   1.363   8.463 -0.3866  2.2934  1.5607
 9358SOL     OW39706   0.850   2.039   9.573  0.0461 -0.0187 -0.2668
 9358SOL    HW139707   0.797   1.972   9.616 -0.4003  0.8349  0.5188
 9358SOL    HW239708   0.926   2.033   9.630 -0.4810 -0.7680  0.3558
 9359SOL     OW39709   2.172   0.144  17.718  0.1644  0.6296 -0.4450
 9359SOL    HW139710   2.199   0.184   0.046  0.7786  1.3044 -0.9662
 9359SOL    HW239711   2.256   0.135  17.672 -0.5892  0.7961 -1.8636
 9360SOL     OW39712   2.258   1.750  16.135 -0.2007 -0.2855  0.2702
 9360SOL    HW139713   2.258   1.689  16.208  1.2087 -1.5138 -0.7473
 9360SOL    HW239714   2.163   1.765  16.137 -0.2178  0.0629 -2.2702
 9361SOL     OW39715   1.171   0.975   6.926  0.2762 -0.3385 -0.1883
 9361SOL    HW139716   1.096   0.918   6.911 -0.5257  1.3738 -2.5562
 9361SOL    HW239717   1.243   0.912   6.920  0.8931  0.3936 -0.4367
 9362SOL     OW39718   2.845   0.602   5.141  0.2225  0.0521 -0.5306
 9362SOL    HW139719   2.909   0.594   5.070  0.1327 -3.1233 -0.2739
 9362SOL    HW239720   2.831   0.696   5.150 -0.6871 -0.0361 -1.0593
 9363SOL     OW39721   4.545   3.364  15.465 -0.5497 -0.1907  0.1621
 9363SOL    HW139722   4.635   3.388  15.444 -0.9648 -0.0017 -1.3919
 9363SOL    HW239723   4.558   3.269  15.459  1.3512  0.1465 -1.0980
 9364SOL     OW39724   3.854   1.532   2.663 -0.0023  0.0043  0.2979
 9364SOL    HW139725   3.859   1.501   2.753 -0.4508 -0.1435  0.2690
 9364SOL    HW239726   3.943   1.498   2.649  1.2233  1.6263  4.0584
 9365SOL     OW39727   4.131   3.705  16.695  0.3925  0.9522  0.5893
 9365SOL    HW139728   4.185   3.642  16.743 -0.6484  0.5867  1.2748
 9365SOL    HW239729   4.070   3.727  16.765 -2.3082  2.3965 -2.2576
 9366SOL     OW39730   1.963   4.337  15.300  0.1723 -0.4555  0.6728
 9366SOL    HW139731   2.010   4.420  15.307  0.0666 -0.2322 -1.2020
 9366SOL    HW239732   1.885   4.376  15.259 -1.0973 -0.0502  3.4757
 9367SOL     OW39733   4.372   2.143   2.114  0.1972  0.1259 -0.0917
 9367SOL    HW139734   4.456   2.097   2.123 -0.5095 -1.2294 -0.3773
 9367SOL    HW239735   4.308   2.078   2.145 -0.4048  0.9508  0.3958
 9368SOL     OW39736   2.884   2.036   3.418  0.0971 -0.5452  0.9403
 9368SOL    HW139737   2.942   2.082   3.478  0.2872  1.4950 -0.7968
 9368SOL    HW239738   2.936   1.959   3.393  1.1604 -0.2373  2.1894
 9369SOL     OW39739   3.221   3.023   6.398  0.4072 -0.3071 -0.3320
 9369SOL    HW139740   3.152   3.032   6.332  0.0966 -1.1465 -0.1142
 9369SOL    HW239741   3.168   3.017   6.477  0.7019  1.2880 -0.0135
 9370SOL     OW39742   4.035   3.469  10.025 -0.1268 -0.0754  0.2443
 9370SOL    HW139743   4.112   3.427   9.987 -0.6218 -1.1475  0.4289
 9370SOL    HW239744   4.067   3.503  10.108  1.2789 -0.1784 -0.2625
 9371SOL     OW39745   3.579   3.780   3.234  0.0687  0.4216 -0.1327
 9371SOL    HW139746   3.550   3.756   3.146 -3.1959  0.4502  0.9691
 9371SOL    HW239747   3.626   3.863   3.227 -0.0104  0.4255 -0.5840
 9372SOL     OW39748   1.736   0.105   4.821 -0.1464  0.1985 -0.0896
 9372SOL    HW139749   1.781   0.067   4.896  1.0387  4.4184  1.3058
 9372SOL    HW239750   1.773   0.045   4.756 -0.3747 -1.2574  1.1171
 9373SOL     OW39751   4.044   3.722   9.898 -0.0118 -0.4123  0.1977
 9373SOL    HW139752   4.121   3.742   9.952 -0.8021 -0.2755  1.2680
 9373SOL    HW239753   4.007   3.648   9.946  0.4266 -0.6398  0.1893
 9374SOL     OW39754   0.601   1.827   8.663  0.5494 -0.2983 -0.0548
 9374SOL    HW139755   0.667   1.891   8.689  1.9116 -1.5009 -0.5933
 9374SOL    HW239756   0.521   1.868   8.696  1.2333 -1.9819  3.7050
 9375SOL     OW39757   1.680   0.875   7.921  0.2174 -0.3091 -0.2371
 9375SOL    HW139758   1.613   0.942   7.905 -1.2411 -1.9824 -1.1591
 9375SOL    HW239759   1.757   0.916   7.881  0.4002 -0.1817  0.2487
 9376SOL     OW39760   4.470   3.190   8.127 -0.6332 -0.1160  0.1131
 9376SOL    HW139761   4.493   3.277   8.160 -0.4612  0.7102 -2.1977
 9376SOL    HW239762   4.403   3.208   8.062  1.0590 -0.3613 -1.7019
 9377SOL     OW39763   2.808   1.647  15.726  0.3059  0.0457 -0.2405
 9377SOL    HW139764   2.733   1.705  15.711  1.4284  2.1135  2.1777
 9377SOL    HW239765   2.883   1.699  15.697 -0.4355  0.5133 -1.3219
 9378SOL     OW39766   2.860   1.320  10.617  0.1163  0.2895  0.3741
 9378SOL    HW139767   2.869   1.245  10.675  0.6137 -0.4012 -0.5869
 9378SOL    HW239768   2.865   1.398  10.672 -1.4690 -0.1005  1.0681
 9379SOL     OW39769   2.176   0.123  12.340  0.9220  0.0606  0.2145
 9379SOL    HW139770   2.149   0.037  12.373  0.6792 -0.3514 -1.0714
 9379SOL    HW239771   2.099   0.172  12.368 -0.6157 -1.8562 -0.6937
 9380SOL     OW39772   3.218   2.162  10.070 -0.2660  0.6337  0.2214
 9380SOL    HW139773   3.206   2.257  10.066  3.8640  1.0594 -1.3836
 9380SOL    HW239774   3.309   2.147  10.043 -0.5250  0.1564 -0.3969
 9381SOL     OW39775   3.404   0.477   6.160 -0.1712 -0.0087 -0.0747
 9381SOL    HW139776   3.483   0.426   6.177  0.9082  2.6208  2.9061
 9381SOL    HW239777   3.343   0.438   6.223 -0.8029  0.5826 -0.3097
 9382SOL     OW39778   4.551   0.653  17.024  0.1935 -0.8687 -0.4996
 9382SOL    HW139779   4.485   0.584  17.032 -0.9521  0.1754 -0.8166
 9382SOL    HW239780   4.494   0.721  16.988  0.0714 -0.9938 -0.5435
 9383SOL     OW39781   2.452   3.111   7.020 -0.3780 -0.0386 -0.3427
 9383SOL    HW139782   2.366   3.070   7.021 -0.7118  0.6853  1.1584
 9383SOL    HW239783   2.508   3.052   7.070  2.0486  0.7860 -2.0343
 9384SOL     OW39784   4.693   3.068  13.638 -0.1859  0.3021 -0.1712
 9384SOL    HW139785   4.684   2.977  13.608  0.7895 -0.9284  3.2466
 9384SOL    HW239786   4.618   3.083  13.695  0.0334  1.6609 -0.2392
 9385SOL     OW39787   3.483   4.725  14.690 -0.3384 -0.2062  0.2503
 9385SOL    HW139788   3.471   4.698  14.599 -1.3577 -0.6259  0.5099
 9385SOL    HW239789   3.407   4.673  14.714 -0.6571 -0.0608 -0.4508
 9386SOL     OW39790   2.256   4.133   5.575  0.1947 -0.1109 -0.7663
 9386SOL    HW139791   2.214   4.074   5.638  1.8111 -0.2923  0.1541
 9386SOL    HW239792   2.264   4.075   5.500  2.1796  0.4524 -0.9761
 9387SOL     OW39793   2.924   0.393   7.852  0.0569  0.5494  0.0839
 9387SOL    HW139794   2.878   0.423   7.774 -1.1571 -0.5871  0.3748
 9387SOL    HW239795   2.869   0.423   7.923  1.9172 -1.4626  2.3917
 9388SOL     OW39796   4.085   2.687  17.722  0.6237 -0.1418  0.3197
 9388SOL    HW139797   4.059   2.664   0.056  1.5415  0.1181  0.6516
 9388SOL    HW239798   4.020   2.750  17.690  0.3725 -0.7609 -0.3907
 9389SOL     OW39799   1.202   0.983   2.500 -0.5260 -0.4500 -0.8211
 9389SOL    HW139800   1.255   0.913   2.461 -1.1736 -1.3543 -0.0843
 9389SOL    HW239801   1.215   1.054   2.438 -1.0328 -0.2125 -0.6498
 9390SOL     OW39802   4.087   2.765   9.038 -0.3749  0.5546 -0.6435
 9390SOL    HW139803   3.994   2.783   9.049 -0.0451  0.5422  1.9708
 9390SOL    HW239804   4.087   2.674   9.067  0.4112  1.5109  2.3308
 9391SOL     OW39805   2.265   3.841   3.098  0.0066  0.3863  0.7361
 9391SOL    HW139806   2.298   3.833   3.188 -0.1179  0.6353  0.8021
 9391SOL    HW239807   2.322   3.776   3.057 -0.9822 -0.8584  1.3066
 9392SOL     OW39808   3.870   4.041   4.345 -0.4804  0.4725 -0.2050
 9392SOL    HW139809   3.881   4.044   4.250  0.1976  0.5457 -0.1244
 9392SOL    HW239810   3.807   3.969   4.346  1.3486 -1.1038  1.7685
 9393SOL     OW39811   2.814   4.260   6.153  0.0231  0.4807 -0.0662
 9393SOL    HW139812   2.788   4.290   6.240 -2.5540  0.0010 -0.6577
 9393SOL    HW239813   2.855   4.175   6.170  2.8425  2.1005  1.2681
 9394SOL     OW39814   1.359   2.999   9.486  0.1901  0.0730  0.3231
 9394SOL    HW139815   1.426   2.940   9.521 -0.3714 -1.4277 -1.1705
 9394SOL    HW239816   1.281   2.945   9.490 -1.1566  2.1335  2.3850
 9395SOL     OW39817   1.435   0.125   4.805 -0.1154  0.5223 -0.3487
 9395SOL    HW139818   1.507   0.122   4.868  0.0740  3.3355 -0.4528
 9395SOL    HW239819   1.371   0.098   4.872 -1.1747 -0.3454 -1.7077
 9396SOL     OW39820   0.905   4.611   1.996 -0.2470  0.1294 -1.0126
 9396SOL    HW139821   0.949   4.545   2.049  0.2281  3.4219  2.7384
 9396SOL    HW239822   0.867   4.671   2.061 -0.2773 -1.4791  0.4420
 9397SOL     OW39823   1.423   1.588   3.372  0.0182 -0.3409  0.0060
 9397SOL    HW139824   1.470   1.647   3.431  0.7291  0.8334 -1.7350
 9397SOL    HW239825   1.331   1.615   3.379  0.2158  0.4285 -0.4463
 9398SOL     OW39826   2.336   1.924   4.856  0.3108 -0.3259  0.0048
 9398SOL    HW139827   2.299   1.941   4.769 -2.6919  2.2404  1.7647
 9398SOL    HW239828   2.271   1.859   4.885  0.1077 -0.7553 -1.3874
 9399SOL     OW39829   3.774   4.497   6.744 -0.2618 -0.0059 -0.3422
 9399SOL    HW139830   3.813   4.482   6.831 -0.1058 -1.7914 -0.7215
 9399SOL    HW239831   3.726   4.579   6.755 -0.6750 -0.4441  1.2437
 9400SOL     OW39832   2.444   4.340   2.550  0.5906  0.0324  0.4475
 9400SOL    HW139833   2.428   4.260   2.501 -0.8613 -0.4674  1.7340
 9400SOL    HW239834   2.513   4.309   2.608 -1.1903 -1.6728  1.6476
 9401SOL     OW39835   4.723   1.002  11.158  0.7551 -0.0209 -0.0744
 9401SOL    HW139836   4.634   0.970  11.173  0.0584  2.1609  0.3982
 9401SOL    HW239837   0.042   0.930  11.184  0.4685 -0.6185 -1.0769
 9402SOL     OW39838   1.276   0.178   7.700  0.0520  0.3183  0.1839
 9402SOL    HW139839   1.299   0.195   7.791  0.2711 -0.0155  0.1958
 9402SOL    HW239840   1.197   0.229   7.683 -0.4465 -0.3951  0.3349
 9403SOL     OW39841   2.552   2.730   3.418 -0.2369  0.2371  0.1510
 9403SOL    HW139842   2.573   2.809   3.368 -0.6654 -0.7985 -1.6354
 9403SOL    HW239843   2.563   2.762   3.508 -0.7369  1.6315 -0.2884
 9404SOL     OW39844   4.327   2.332  17.716  0.1793 -0.1082  0.2205
 9404SOL    HW139845   4.258   2.302   0.020 -0.1532 -2.1432 -1.1807
 9404SOL    HW239846   4.306   2.425  17.702  1.9031  0.1837 -0.4512
 9405SOL     OW39847   2.790   3.589   8.264 -0.1186  0.3495  0.5556
 9405SOL    HW139848   2.833   3.504   8.251 -1.2579 -0.3472  1.3418
 9405SOL    HW239849   2.851   3.621   8.330  0.2317  2.5648 -0.8470
 9406SOL     OW39850   0.609   3.602  17.682 -0.1234 -0.4077  0.3714
 9406SOL    HW139851   0.577   3.608  17.592 -2.9790 -0.6981  1.3825
 9406SOL    HW239852   0.689   3.653  17.671 -0.1761 -0.3866  0.0979
 9407SOL     OW39853   1.736   2.569   5.606  0.4636 -0.3599 -0.0152
 9407SOL    HW139854   1.711   2.539   5.519 -1.0797 -0.0155  0.3102
 9407SOL    HW239855   1.806   2.633   5.591 -0.7154  0.9215 -0.0449
 9408SOL     OW39856   2.747   1.786  17.493  1.2502  0.3514  0.0620
 9408SOL    HW139857   2.736   1.772  17.399 -1.2155 -0.3727  0.4640
 9408SOL    HW239858   2.663   1.824  17.517  0.8215 -1.5511  1.6364
 9409SOL     OW39859   4.085   0.372   5.507 -0.2266  0.1962 -0.0484
 9409SOL    HW139860   4.058   0.457   5.541 -3.7794 -1.2419  0.8014
 9409SOL    HW239861   4.035   0.308   5.559 -1.2413  1.9852  1.1692
 9410SOL     OW39862   4.536   0.112   2.326 -0.0916  0.5074  0.0448
 9410SOL    HW139863   4.628   0.114   2.354  0.2709 -2.1771 -0.9723
 9410SOL    HW239864   4.495   0.108   2.412 -0.8401 -0.9265 -0.3806
 9411SOL     OW39865   1.280   1.741   7.393  0.0865  0.0707 -0.1217
 9411SOL    HW139866   1.288   1.752   7.488 -0.3160  4.0409 -0.5194
 9411SOL    HW239867   1.327   1.658   7.392  0.1171  0.0735  1.3469
 9412SOL     OW39868   3.189   2.965  11.139 -0.4649 -1.0609 -0.2891
 9412SOL    HW139869   3.182   2.871  11.156  2.6029 -1.1988  0.2239
 9412SOL    HW239870   3.097   2.992  11.142  0.2561  1.2642  0.6859
 9413SOL     OW39871   0.001   0.592   3.516  0.1034 -0.4394 -0.6751
 9413SOL    HW139872   4.674   0.658   3.534  0.1876 -1.1367  2.2238
 9413SOL    HW239873   4.697   0.509   3.535 -0.7319 -0.2317 -1.7183
 9414SOL     OW39874   4.214   0.587  16.755  0.1985 -0.5375  0.5238
 9414SOL    HW139875   4.121   0.594  16.774 -0.3392  0.2184 -2.4855
 9414SOL    HW239876   4.247   0.529  16.824 -0.9387 -1.9040 -0.0866
 9415SOL     OW39877   3.746   1.769   3.103  0.6684 -0.3343  0.3881
 9415SOL    HW139878   3.696   1.764   3.184  0.1478 -1.6178 -0.0031
 9415SOL    HW239879   3.781   1.857   3.115  1.4288 -0.7762  1.4345
 9416SOL     OW39880   1.455   3.783   1.771 -0.1915 -0.2978 -0.3637
 9416SOL    HW139881   1.393   3.716   1.743  0.0291 -0.3696 -0.6792
 9416SOL    HW239882   1.517   3.786   1.698  1.0803 -0.1940  0.7181
 9417SOL     OW39883   1.626   1.916   7.418 -0.4470  0.2801  0.5197
 9417SOL    HW139884   1.722   1.916   7.414 -0.4956  1.5368 -0.8069
 9417SOL    HW239885   1.605   1.825   7.394  1.1618 -0.4989  2.0179
 9418SOL     OW39886   2.738   4.285   3.595 -0.4450 -0.2802  0.3255
 9418SOL    HW139887   2.661   4.335   3.622  0.8810  0.8175  2.0946
 9418SOL    HW239888   2.718   4.195   3.620 -0.3807 -0.3234  0.2204
 9419SOL     OW39889   4.273   2.214   2.515 -0.1154  0.5159  0.5136
 9419SOL    HW139890   4.264   2.218   2.420  1.7248  3.2311  0.4445
 9419SOL    HW239891   4.301   2.127   2.543 -1.5345  0.1904  0.9216
 9420SOL     OW39892   3.639   1.924  12.419 -0.1971 -0.3546  0.3447
 9420SOL    HW139893   3.589   1.983  12.363 -0.5854  0.5694  1.6615
 9420SOL    HW239894   3.720   1.971  12.439 -0.3071 -0.3375  0.7572
 9421SOL     OW39895   2.337   1.778  17.744 -0.0734  0.1069 -0.7477
 9421SOL    HW139896   2.397   1.840  17.702 -0.3027  1.0752  0.3711
 9421SOL    HW239897   2.382   1.694   0.002  1.2461  0.9650  0.1865
 9422SOL     OW39898   3.125   1.174   3.062 -0.1608  0.2775 -0.4765
 9422SOL    HW139899   3.123   1.085   3.029  1.5285 -0.6949  2.0860
 9422SOL    HW239900   3.214   1.206   3.053  0.6170 -1.9113 -0.4270
 9423SOL     OW39901   3.936   0.489   1.668 -0.0541 -0.1526  0.3407
 9423SOL    HW139902   3.843   0.510   1.677 -0.1900 -1.0557  1.0163
 9423SOL    HW239903   3.942   0.408   1.719 -2.6682 -0.0161  0.8395
 9424SOL     OW39904   2.432   3.537   3.803  0.0016  0.1625 -0.4635
 9424SOL    HW139905   2.416   3.549   3.709  0.0454  1.1099 -0.3468
 9424SOL    HW239906   2.371   3.468   3.828 -0.1336  0.5881  0.3805
 9425SOL     OW39907   1.914   0.612  11.005 -0.2645 -0.2990 -0.1774
 9425SOL    HW139908   1.829   0.603  10.962 -1.0026 -2.6596  1.7689
 9425SOL    HW239909   1.954   0.673  10.943 -0.5445  1.4347  1.3494
 9426SOL     OW39910   2.781   4.264  17.212 -0.2290 -0.2450  0.2257
 9426SOL    HW139911   2.697   4.299  17.181 -0.0846 -0.5849 -0.5630
 9426SOL    HW239912   2.810   4.225  17.129  0.2863  0.3387  0.1300
 9427SOL     OW39913   2.793   1.867   9.512 -0.5665  0.2457  0.3511
 9427SOL    HW139914   2.822   1.932   9.448 -0.0170  0.2879  0.6455
 9427SOL    HW239915   2.827   1.790   9.467 -3.0276  0.6073 -2.1324
 9428SOL     OW39916   3.837   2.285   4.712  0.0944 -0.2694 -0.0210
 9428SOL    HW139917   3.822   2.367   4.758  0.7803 -1.3051  2.0435
 9428SOL    HW239918   3.760   2.291   4.656  1.1819 -0.3689 -1.5327
 9429SOL     OW39919   1.447   0.931  15.139 -0.1684 -0.0497 -0.3681
 9429SOL    HW139920   1.475   0.917  15.229  3.5711 -1.4609 -1.7430
 9429SOL    HW239921   1.397   1.012  15.151 -1.0672 -0.7949  0.8676
 9430SOL     OW39922   1.333   1.731  14.374 -0.1790  0.5920  0.1602
 9430SOL    HW139923   1.293   1.789  14.309  0.1460 -0.0604 -0.6293
 9430SOL    HW239924   1.372   1.793  14.435 -2.1652  1.1407  0.8609
 9431SOL     OW39925   2.282   0.166   5.941 -0.0219  0.2523  0.0689
 9431SOL    HW139926   2.234   0.210   5.871  0.5374 -2.5735 -2.0949
 9431SOL    HW239927   2.319   0.094   5.891  2.6364  1.4924  0.2411
 9432SOL     OW39928   2.367   2.178   1.005  0.0491  0.2660  0.4996
 9432SOL    HW139929   2.315   2.239   1.058  1.8479  1.9692  0.2752
 9432SOL    HW239930   2.298   2.117   0.978 -0.2624  0.9284 -0.1719
 9433SOL     OW39931   0.822   0.713   1.003 -0.3997  0.6331  1.0147
 9433SOL    HW139932   0.858   0.801   0.995  0.9913 -0.0485 -0.1295
 9433SOL    HW239933   0.784   0.713   1.091  0.7189  1.0584  1.4970
 9434SOL     OW39934   1.292   3.923   6.046  0.0827 -0.2933  0.7030
 9434SOL    HW139935   1.271   4.016   6.040 -0.9778 -0.6494 -1.0692
 9434SOL    HW239936   1.216   3.886   6.001  1.2000 -2.2891  0.4422
 9435SOL     OW39937   1.184   0.575   1.174 -0.3339 -0.2595 -0.1734
 9435SOL    HW139938   1.101   0.616   1.152  0.1859  1.2221  0.5529
 9435SOL    HW239939   1.240   0.651   1.192  0.4926 -1.1392  1.0569
 9436SOL     OW39940   2.032   1.389   2.830  0.0292 -0.1766  0.0587
 9436SOL    HW139941   1.994   1.347   2.907  1.5480 -0.0926  0.8650
 9436SOL    HW239942   2.110   1.334   2.824 -0.6786 -1.2435  0.6494
 9437SOL     OW39943   2.703   0.014   6.664  0.3614  0.2497 -1.1827
 9437SOL    HW139944   2.669   0.098   6.694 -3.4079 -1.2776 -1.1261
 9437SOL    HW239945   2.777   0.042   6.611 -0.1627  1.3322 -1.3373
 9438SOL     OW39946   3.510   3.774   2.411  0.5326  0.1208  0.1661
 9438SOL    HW139947   3.512   3.681   2.430 -2.0343  0.2489  1.0368
 9438SOL    HW239948   3.425   3.798   2.446  0.3619 -0.3416  0.0639
 9439SOL     OW39949   3.096   4.353   1.600 -0.1593  0.0564 -0.0514
 9439SOL    HW139950   3.184   4.361   1.563  1.1248  1.4039  3.2630
 9439SOL    HW239951   3.032   4.406   1.553  0.9290  0.3694 -1.1936
 9440SOL     OW39952   1.079   2.552   2.703 -0.0214  0.1368 -0.1442
 9440SOL    HW139953   1.038   2.488   2.762  0.4148 -0.5626 -0.5971
 9440SOL    HW239954   1.002   2.591   2.662  0.0309 -0.0837 -0.4499
 9441SOL     OW39955   4.663   4.052   3.857  0.2110  0.1729 -0.3391
 9441SOL    HW139956   4.621   4.113   3.917  0.5171  1.3470 -1.3222
 9441SOL    HW239957   4.709   4.120   3.809 -0.6139  0.9118 -0.0760
 9442SOL     OW39958   2.926   0.579  16.307 -0.1788 -0.3973  0.3752
 9442SOL    HW139959   2.844   0.530  16.306 -0.8915  0.8659 -2.4077
 9442SOL    HW239960   2.994   0.512  16.320 -0.0789  0.4149  4.2435
 9443SOL     OW39961   1.801   2.110   3.126 -0.3262  0.5442 -0.7008
 9443SOL    HW139962   1.731   2.156   3.172  0.0607  2.0170 -1.5890
 9443SOL    HW239963   1.874   2.118   3.187 -0.7535  2.4633 -0.4412
 9444SOL     OW39964   4.022   1.195   6.119  0.0689  0.0287  0.2221
 9444SOL    HW139965   4.009   1.146   6.038 -1.2527 -0.2689  0.6239
 9444SOL    HW239966   4.092   1.144   6.160  0.9571  0.6867 -0.4781
 9445SOL     OW39967   3.445   0.551   5.883  0.5121  0.4444 -0.1961
 9445SOL    HW139968   3.490   0.636   5.889  1.5202 -0.1363  0.6083
 9445SOL    HW239969   3.438   0.514   5.971 -0.6670 -0.0002 -0.4893
 9446SOL     OW39970   3.078   0.287  10.889 -0.2234 -0.0835 -0.5088
 9446SOL    HW139971   3.139   0.218  10.918 -1.2767 -1.0096 -0.5096
 9446SOL    HW239972   3.054   0.254  10.803  0.2713 -2.4213  0.2363
 9447SOL     OW39973   3.561   2.689  13.258 -0.3543  0.3795 -0.2521
 9447SOL    HW139974   3.615   2.617  13.291  2.4023  3.8662  2.8458
 9447SOL    HW239975   3.595   2.697  13.169 -0.6680  3.6419 -0.0682
 9448SOL     OW39976   4.695   4.060   6.579  0.2362 -0.2345 -0.6645
 9448SOL    HW139977   4.629   4.064   6.510  0.3458  3.0133 -0.5530
 9448SOL    HW239978   4.725   3.969   6.584  0.3350 -0.0780  1.7029
 9449SOL     OW39979   0.321   4.411   4.796  0.5711  0.2504  0.3449
 9449SOL    HW139980   0.397   4.465   4.770 -0.0796 -0.0180 -2.1598
 9449SOL    HW239981   0.249   4.472   4.779  1.4803  1.1279 -0.4104
 9450SOL     OW39982   1.448   3.079   9.014  0.2662  0.2605  0.1414
 9450SOL    HW139983   1.526   3.135   9.021  0.6784 -0.1791 -0.9549
 9450SOL    HW239984   1.375   3.134   8.986 -0.3041 -0.8981 -0.6419
 9451SOL     OW39985   1.559   1.257   1.306  0.2242  0.1121 -0.6210
 9451SOL    HW139986   1.638   1.306   1.330 -0.4708  0.5825  0.7209
 9451SOL    HW239987   1.515   1.267   1.390 -1.6955 -1.3195 -1.4451
 9452SOL     OW39988   4.608   3.375  14.863  0.2974  0.0068 -0.2579
 9452SOL    HW139989   4.584   3.373  14.955  0.0375 -1.0182 -0.3466
 9452SOL    HW239990   4.530   3.413  14.823 -1.1298 -3.4670 -0.7494
 9453SOL     OW39991   3.233   1.304  14.535  0.2951 -0.3674  0.0100
 9453SOL    HW139992   3.237   1.252  14.616 -0.8580  0.4173  0.5607
 9453SOL    HW239993   3.189   1.382  14.568 -0.2639  1.0559 -4.1836
 9454SOL     OW39994   3.054   0.767   6.210  0.3778 -0.5899 -0.1513
 9454SOL    HW139995   3.015   0.722   6.136  3.3163 -0.8408 -1.5693
 9454SOL    HW239996   3.141   0.791   6.178 -1.0371  0.5178 -3.1554
 9455SOL     OW39997   2.744   3.837   2.749  0.0608  0.1523  0.1086
 9455SOL    HW139998   2.682   3.836   2.676  0.6785 -2.8606 -0.3778
 9455SOL    HW239999   2.782   3.924   2.742 -0.3201  0.2333 -0.9064
 9456SOL     OW40000   4.310   3.608   8.072  0.1368 -0.3612 -0.0475
 9456SOL    HW140001   4.268   3.669   8.132 -0.5530 -1.4766  0.5861
 9456SOL    HW240002   4.233   3.566   8.034 -2.4132  2.3286  2.1961
 9457SOL     OW40003   3.972   0.203   2.476  0.5545  0.5982 -0.4542
 9457SOL    HW140004   4.063   0.196   2.447  0.8632 -2.6815  1.2741
 9457SOL    HW240005   3.931   0.176   2.393 -1.0622  2.7835 -0.3671
 9458SOL     OW40006   3.606   4.443   6.526  0.0938 -0.1458  0.8611
 9458SOL    HW140007   3.663   4.427   6.602  1.7982  1.6587 -0.0342
 9458SOL    HW240008   3.514   4.429   6.550 -0.4794  1.5493 -0.3855
 9459SOL     OW40009   4.460   1.167   8.268 -0.0105 -0.1072  0.3049
 9459SOL    HW140010   4.504   1.087   8.295 -0.1700 -0.6264 -0.9806
 9459SOL    HW240011   4.527   1.234   8.282 -0.1772  0.6617 -2.5768
 9460SOL     OW40012   3.094   4.615   6.098 -0.6127  0.3366 -0.3325
 9460SOL    HW140013   3.122   4.576   6.015 -0.0646  0.7725 -0.3530
 9460SOL    HW240014   3.143   4.569   6.165 -0.7984 -2.6325 -2.2485
 9461SOL     OW40015   2.289   0.230   8.344  0.4527  0.4228 -0.1016
 9461SOL    HW140016   2.206   0.267   8.313 -0.3393 -0.6295  0.7611
 9461SOL    HW240017   2.285   0.157   8.282  0.9008 -0.5645  1.0406
 9462SOL     OW40018   4.433   3.220   7.003  0.0157  0.2391  0.0290
 9462SOL    HW140019   4.340   3.208   6.986  0.7047 -2.7172 -1.6270
 9462SOL    HW240020   4.447   3.246   7.094  1.0567 -3.2470  0.8571
 9463SOL     OW40021   2.429   1.809   7.867 -0.1952  0.0604 -0.1116
 9463SOL    HW140022   2.502   1.835   7.923  1.4372  0.0957 -2.2818
 9463SOL    HW240023   2.474   1.812   7.782  1.1479 -1.8517  0.5211
 9464SOL     OW40024   0.694   3.665   6.360 -0.0631 -0.1406 -0.2399
 9464SOL    HW140025   0.779   3.701   6.335 -0.1430  1.7711  2.2663
 9464SOL    HW240026   0.691   3.583   6.311  1.0597 -0.4250  0.1783
 9465SOL     OW40027   3.235   2.939   3.457 -0.3349 -0.3640 -0.6237
 9465SOL    HW140028   3.242   2.902   3.545 -0.6876  1.1977  0.0615
 9465SOL    HW240029   3.140   2.954   3.456 -0.4741 -1.3918 -2.8451
 9466SOL     OW40030   0.964   3.390   7.569  0.3046 -0.1458 -0.0621
 9466SOL    HW140031   1.042   3.355   7.611  0.8972 -0.3792 -1.3423
 9466SOL    HW240032   0.949   3.467   7.624 -0.8364  0.1185 -0.7454
 9467SOL     OW40033   2.357   4.358   4.963 -0.4172 -1.0964 -0.2082
 9467SOL    HW140034   2.318   4.303   4.895  0.6620 -2.6752  0.4663
 9467SOL    HW240035   2.448   4.358   4.934 -0.7526  2.3013 -1.2996
 9468SOL     OW40036   3.570   2.181   7.089  0.4300  0.5635 -0.9470
 9468SOL    HW140037   3.543   2.269   7.119 -0.2332  0.2370 -0.5734
 9468SOL    HW240038   3.525   2.179   7.005 -1.5285 -1.2728  0.1241
 9469SOL     OW40039   2.454   1.153  17.598 -0.1459  0.3228  0.3150
 9469SOL    HW140040   2.523   1.131  17.660  1.3887  0.7453 -1.2761
 9469SOL    HW240041   2.474   1.246  17.585  1.4035 -0.0189  0.2917
 9470SOL     OW40042   2.558   0.378   2.717  0.0178 -0.2101  0.2825
 9470SOL    HW140043   2.640   0.332   2.697 -0.9637 -1.8909  0.1456
 9470SOL    HW240044   2.562   0.416   2.629  1.4030  1.6588  1.1604
 9471SOL     OW40045   2.208   4.093   3.017 -1.2218  0.2452  0.0572
 9471SOL    HW140046   2.248   4.150   3.084  1.2472  1.4404 -2.4458
 9471SOL    HW240047   2.217   4.013   3.069  1.9684 -0.4299 -1.5422
 9472SOL     OW40048   4.494   0.619  14.742  0.0847  0.1031  0.6058
 9472SOL    HW140049   4.404   0.640  14.716  0.2154  0.3696  0.3714
 9472SOL    HW240050   4.498   0.523  14.746  1.4805  0.1223 -0.1711
 9473SOL     OW40051   3.524   3.944   6.764  0.2741 -0.1670  0.1053
 9473SOL    HW140052   3.458   3.901   6.709  0.7397  2.3388 -2.4383
 9473SOL    HW240053   3.474   4.020   6.794 -0.6277 -0.2389 -1.2099
 9474SOL     OW40054   0.898   3.030   9.382 -0.0237  0.2575 -0.1752
 9474SOL    HW140055   0.978   3.080   9.400  2.3417 -2.8268 -2.0019
 9474SOL    HW240056   0.831   3.098   9.375 -0.4613 -0.0380  1.1288
 9475SOL     OW40057   3.027   0.910   6.806  0.1010  0.2761 -0.1181
 9475SOL    HW140058   3.000   0.995   6.840  0.1067  0.3631 -0.3315
 9475SOL    HW240059   3.079   0.893   6.885 -0.0953 -0.4070 -0.1342
 9476SOL     OW40060   3.215   1.885   2.431 -0.2676  0.0033 -0.3601
 9476SOL    HW140061   3.252   1.962   2.389 -0.5688 -0.3394 -1.2558
 9476SOL    HW240062   3.286   1.831   2.395 -1.6244 -0.8133 -1.8637
 9477SOL     OW40063   2.593   0.473   4.152 -0.5150  0.6822 -0.1801
 9477SOL    HW140064   2.536   0.417   4.205  0.2666 -0.0295 -0.1043
 9477SOL    HW240065   2.673   0.478   4.205 -1.0655 -1.0494  0.8106
 9478SOL     OW40066   4.453   1.861   9.320  0.4948 -0.5210  0.1987
 9478SOL    HW140067   4.531   1.899   9.360  0.6115  0.2005 -0.7352
 9478SOL    HW240068   4.494   1.799   9.260 -0.6609  0.5670 -1.7060
 9479SOL     OW40069   2.891   1.662   4.374 -0.5225  0.5663 -0.1182
 9479SOL    HW140070   2.841   1.738   4.345 -0.9252  0.3073 -0.0931
 9479SOL    HW240071   2.830   1.598   4.339  2.7091 -2.5144 -0.1497
 9480SOL     OW40072   0.260   1.662   3.517  0.1335 -0.1827 -0.0348
 9480SOL    HW140073   0.203   1.634   3.589  0.8058  0.6146  0.8072
 9480SOL    HW240074   0.238   1.755   3.514  0.1999 -0.1752 -0.2729
 9481SOL     OW40075   4.658   0.990   5.794  0.8569 -0.0707  0.4878
 9481SOL    HW140076   4.731   1.049   5.779 -0.3358  1.2214 -0.2670
 9481SOL    HW240077   4.596   1.052   5.755  1.7698 -0.7518 -2.0278
 9482SOL     OW40078   0.752   3.898   1.436  0.6513 -0.2317  0.4200
 9482SOL    HW140079   0.808   3.880   1.361  0.7446 -1.0130  0.6813
 9482SOL    HW240080   0.805   3.962   1.484 -0.2642  0.3948  0.5950
 9483SOL     OW40081   4.123   1.150   4.797 -0.3556 -0.5113  0.4556
 9483SOL    HW140082   4.081   1.212   4.738  0.3643 -1.0212 -0.6002
 9483SOL    HW240083   4.050   1.091   4.816 -0.2438 -0.9249 -0.3455
 9484SOL     OW40084   4.032   3.071   0.009 -0.2811 -0.2543 -0.1350
 9484SOL    HW140085   3.987   2.993   0.041 -0.5839  0.0828  0.2622
 9484SOL    HW240086   4.033   3.052  17.670  0.2234 -1.0216  0.0299
 9485SOL     OW40087   2.335   4.520   1.303  0.4786  0.2450  0.1619
 9485SOL    HW140088   2.416   4.560   1.334  0.7163  0.0019 -0.1444
 9485SOL    HW240089   2.291   4.603   1.319 -0.0657 -0.0421  0.1582
 9486SOL     OW40090   1.360   3.922   1.356 -0.1863 -0.0496 -0.2013
 9486SOL    HW140091   1.424   3.870   1.405 -0.2864 -1.0149 -1.0931
 9486SOL    HW240092   1.370   4.006   1.401  1.5148 -0.0870 -0.5179
 9487SOL     OW40093   3.410   4.633   2.501 -0.4321 -0.3842 -0.6437
 9487SOL    HW140094   3.369   4.671   2.423 -0.6828  1.4581  0.3805
 9487SOL    HW240095   3.448   4.705   2.551 -1.0262 -0.3074 -0.2974
 9488SOL     OW40096   1.117   2.582   6.684  0.3678 -0.5084 -0.5995
 9488SOL    HW140097   1.042   2.640   6.699  2.5728  1.7516  1.6602
 9488SOL    HW240098   1.134   2.610   6.594 -0.7689 -0.1704 -0.7116
 9489SOL     OW40099   4.541   1.957   1.255 -0.4067 -0.3293 -0.3287
 9489SOL    HW140100   4.501   1.950   1.168 -0.6323  2.1743 -0.4214
 9489SOL    HW240101   4.467   1.975   1.311  0.1835 -0.5182  0.5108
 9490SOL     OW40102   3.644   2.984   3.435 -0.1304  0.1048 -0.5029
 9490SOL    HW140103   3.586   2.985   3.359 -1.8316  1.7377  0.7937
 9490SOL    HW240104   3.714   3.044   3.410  1.1027 -0.8754  0.6099
 9491SOL     OW40105   4.368   2.389  15.127 -0.1289 -0.6732 -0.6305
 9491SOL    HW140106   4.277   2.363  15.110 -0.8887  1.8783 -0.5040
 9491SOL    HW240107   4.413   2.311  15.094 -0.2108 -0.0003 -2.3442
 9492SOL     OW40108   3.109   2.276   3.456  0.0678  0.0651  0.3007
 9492SOL    HW140109   3.100   2.278   3.551 -1.8769  2.0449  0.0656
 9492SOL    HW240110   3.166   2.198   3.460  0.3486  0.3439  1.6296
 9493SOL     OW40111   3.030   1.293   3.802 -0.7478 -0.2932  0.0369
 9493SOL    HW140112   3.047   1.266   3.712 -3.6111  3.0105 -1.5052
 9493SOL    HW240113   2.986   1.377   3.785  0.9096  1.3719  3.9075
 9494SOL     OW40114   2.228   1.208   8.800  0.1738  0.5062  0.1980
 9494SOL    HW140115   2.188   1.193   8.886  2.0219 -0.8893  0.8260
 9494SOL    HW240116   2.151   1.245   8.757 -0.3420 -1.1687 -0.3240
 9495SOL     OW40117   3.264   3.354   5.163  0.1523  0.0209 -0.4069
 9495SOL    HW140118   3.355   3.371   5.187 -0.0726  0.9370 -0.2168
 9495SOL    HW240119   3.243   3.287   5.228  2.4325  0.6001  0.9368
 9496SOL     OW40120   3.960   1.270   1.412 -0.3324  0.1411 -0.0434
 9496SOL    HW140121   3.977   1.176   1.421  0.0449  0.0633 -1.4357
 9496SOL    HW240122   3.867   1.253   1.396 -0.0518 -0.3582 -1.1602
 9497SOL     OW40123   4.221   1.325   3.587  0.5994  0.2131  0.0001
 9497SOL    HW140124   4.165   1.324   3.666 -0.2013 -0.6204 -0.5765
 9497SOL    HW240125   4.293   1.375   3.626  3.0230 -4.0599  0.9765
 9498SOL     OW40126   3.323   1.280   5.361  0.3602  0.2298 -0.2057
 9498SOL    HW140127   3.245   1.263   5.308  1.0953 -2.8483 -0.3032
 9498SOL    HW240128   3.328   1.192   5.401 -2.7672 -0.8592 -2.2081
 9499SOL     OW40129   0.224   0.206   8.593 -0.4594 -0.5149  0.0849
 9499SOL    HW140130   0.145   0.176   8.547 -1.8245  0.3309  1.8932
 9499SOL    HW240131   0.236   0.136   8.657  1.1562 -0.5125 -0.2065
 9500SOL     OW40132   3.164   2.118  10.995 -0.2826 -0.3077 -0.2332
 9500SOL    HW140133   3.163   2.049  10.929  0.9824  0.2716 -0.8581
 9500SOL    HW240134   3.255   2.112  11.025 -1.0759  2.1410  2.6482
 9501SOL     OW40135   2.824   1.570  17.147  0.5604 -0.2142 -0.2550
 9501SOL    HW140136   2.789   1.583  17.059  1.9177 -1.8997 -1.0510
 9501SOL    HW240137   2.739   1.578  17.190 -0.0119  1.1984 -1.6822
 9502SOL     OW40138   0.658   0.794   1.239 -0.3108  0.4171  0.9827
 9502SOL    HW140139   0.597   0.860   1.275 -1.2118  1.6413 -2.7913
 9502SOL    HW240140   0.741   0.815   1.283  0.3963 -2.3096  0.8956
 9503SOL     OW40141   3.135   2.860   3.980  0.5968  0.0334 -0.5754
 9503SOL    HW140142   3.180   2.861   3.895  0.0509  1.2826 -0.8404
 9503SOL    HW240143   3.122   2.766   3.995 -1.2005  0.4622  0.4819
 9504SOL     OW40144   2.157   0.278  12.893 -0.5695  0.1379 -0.3227
 9504SOL    HW140145   2.215   0.352  12.875  0.7438 -1.0100 -0.8192
 9504SOL    HW240146   2.215   0.208  12.922 -0.8496  0.3075  0.6223
 9505SOL     OW40147   3.887   4.158   7.016 -0.0376 -0.6618  0.2575
 9505SOL    HW140148   3.813   4.194   6.967  0.2253 -0.7948 -0.2390
 9505SOL    HW240149   3.899   4.072   6.977  1.2279 -0.8781  1.1259
 9506SOL     OW40150   2.697   1.044   8.556  0.5205  0.0226 -0.2324
 9506SOL    HW140151   2.623   1.048   8.618 -1.9640  0.3411 -3.2109
 9506SOL    HW240152   2.774   1.073   8.606 -0.8392  2.5634  0.4366
 9507SOL     OW40153   3.586   3.973  17.520  0.2932 -0.6576  0.4436
 9507SOL    HW140154   3.638   3.901  17.485  0.9866 -0.0665  0.2567
 9507SOL    HW240155   3.513   3.974  17.459  0.1356 -0.0413  0.6421
 9508SOL     OW40156   3.519   4.657  17.132  0.3751 -0.1434 -0.4214
 9508SOL    HW140157   3.473   4.677  17.051 -0.8583 -1.3706 -0.0173
 9508SOL    HW240158   3.603   4.697  17.110  0.8497 -0.1535  1.3438
 9509SOL     OW40159   0.116   1.449   5.797  0.0991  0.0280 -0.1815
 9509SOL    HW140160   0.178   1.438   5.725  0.2036  0.3855 -0.1469
 9509SOL    HW240161   0.176   1.485   5.862  1.8310  0.8685 -2.2482
 9510SOL     OW40162   0.810   1.267   6.487 -0.8825  0.0358  0.1688
 9510SOL    HW140163   0.899   1.295   6.507  0.1899 -2.4857 -1.0913
 9510SOL    HW240164   0.764   1.300   6.563 -0.2731  2.0972 -0.3469
 9511SOL     OW40165   2.797   0.450   8.371 -0.5719  0.0401 -0.0472
 9511SOL    HW140166   2.757   0.363   8.365  0.0223 -0.2198 -0.2764
 9511SOL    HW240167   2.719   0.499   8.399 -0.9642 -0.3015 -0.5432
 9512SOL     OW40168   2.787   4.462  11.016 -0.3428 -0.1683  0.0770
 9512SOL    HW140169   2.837   4.397  10.967  2.2812  2.0695 -0.1918
 9512SOL    HW240170   2.853   4.492  11.078 -1.1000  2.2165 -0.2821
 9513SOL     OW40171   0.973   3.203   3.959  0.3459  0.0566 -0.2546
 9513SOL    HW140172   0.914   3.259   4.008  0.5089 -1.5675  1.8167
 9513SOL    HW240173   0.941   3.116   3.984 -2.2527  1.1732  0.2401
 9514SOL     OW40174   2.826   1.542  15.255 -0.1391  0.9478  0.0524
 9514SOL    HW140175   2.740   1.535  15.295  1.0876 -0.2018  2.4915
 9514SOL    HW240176   2.850   1.454  15.229 -1.3855  1.0241 -1.3556
 9515SOL     OW40177   1.313   1.413   3.175 -0.5246  0.0926 -0.4264
 9515SOL    HW140178   1.281   1.478   3.237 -0.0136 -0.1891  0.1359
 9515SOL    HW240179   1.248   1.416   3.106 -0.9448 -0.6851 -0.0670
 9516SOL     OW40180   3.036   2.139   0.042  0.0143  0.0196 -0.0781
 9516SOL    HW140181   3.022   2.057   0.090 -0.4578 -0.0498 -0.3448
 9516SOL    HW240182   3.017   2.102  17.711 -0.3492 -1.4772  0.6442
 9517SOL     OW40183   2.982   2.816  11.584  0.2896 -0.0644 -0.0732
 9517SOL    HW140184   3.055   2.862  11.543  0.7082 -1.0325 -0.4181
 9517SOL    HW240185   2.955   2.879  11.651 -0.8425 -2.4543  1.7553
 9518SOL     OW40186   1.290   4.507   1.555  0.1488 -0.1348  0.2251
 9518SOL    HW140187   1.343   4.475   1.628 -1.3535  0.5695  1.6295
 9518SOL    HW240188   1.352   4.549   1.496  1.2828 -1.4299  0.4926
 9519SOL     OW40189   0.125   1.103  17.461 -0.6104  0.7035 -0.2541
 9519SOL    HW140190   0.143   1.019  17.419 -1.4440 -0.1478  1.0892
 9519SOL    HW240191   0.148   1.095  17.553 -0.8622  0.2991 -0.2264
 9520SOL     OW40192   0.420   2.874   4.716  0.1287 -0.6983 -0.2209
 9520SOL    HW140193   0.369   2.844   4.791  0.8365  1.8439  1.2879
 9520SOL    HW240194   0.364   2.950   4.700  0.6880 -0.3971 -0.7491
 9521SOL     OW40195   2.348   2.584   1.929 -0.0146  0.2507  0.0637
 9521SOL    HW140196   2.359   2.513   1.992 -0.5621  0.4363  0.3641
 9521SOL    HW240197   2.275   2.550   1.877  0.0285 -1.1034  0.8713
 9522SOL     OW40198   1.392   1.319   7.057  0.4575  0.5369  0.4563
 9522SOL    HW140199   1.459   1.270   7.106  0.0965 -1.0781 -0.6732
 9522SOL    HW240200   1.384   1.266   6.978  1.2008  0.6162  0.3225
 9523SOL     OW40201   3.113   0.780  15.498  0.2199  0.1638 -0.2220
 9523SOL    HW140202   3.058   0.841  15.449  1.7831 -0.2778 -2.4929
 9523SOL    HW240203   3.055   0.704  15.503  1.2519 -0.7736 -2.6075
 9524SOL     OW40204   4.428   0.438   7.161 -0.3482  0.0336 -0.0242
 9524SOL    HW140205   4.473   0.430   7.245 -0.3860 -0.3702 -0.0412
 9524SOL    HW240206   4.441   0.353   7.120 -2.8376 -1.2372  1.8137
 9525SOL     OW40207   3.802   2.297   7.369  0.0796  0.2445  0.1471
 9525SOL    HW140208   3.845   2.216   7.395 -2.4367 -0.9660  0.6075
 9525SOL    HW240209   3.849   2.374   7.402 -1.2700  0.9197  0.5386
 9526SOL     OW40210   1.971   4.670   7.977  0.4895  0.5981 -0.6146
 9526SOL    HW140211   1.973   4.657   8.072 -3.6720  0.2345 -0.5715
 9526SOL    HW240212   1.876   4.679   7.975  0.4398  0.1381 -0.2003
 9527SOL     OW40213   1.799   3.551  14.430 -0.0397 -0.3982 -0.0354
 9527SOL    HW140214   1.789   3.647  14.433  1.9421 -0.1529 -0.8174
 9527SOL    HW240215   1.734   3.534  14.361  0.7741  2.4385 -1.5110
 9528SOL     OW40216   2.140   0.502   8.342  0.2259  0.0322 -0.3873
 9528SOL    HW140217   2.215   0.547   8.303  1.2349 -1.6223 -0.3500
 9528SOL    HW240218   2.125   0.550   8.423  0.5683 -1.4958  0.5811
 9529SOL     OW40219   1.749   3.896  16.680 -0.1747 -0.1056 -0.1663
 9529SOL    HW140220   1.766   3.885  16.774 -1.7477  2.1511  0.3812
 9529SOL    HW240221   1.655   3.883  16.681 -0.2751  0.5719 -0.5622
 9530SOL     OW40222   4.576   2.374   8.641 -0.3970 -0.2288 -0.6497
 9530SOL    HW140223   4.556   2.342   8.553 -1.5259 -0.3214 -0.3601
 9530SOL    HW240224   4.546   2.464   8.641 -0.2405 -0.1742  1.6209
 9531SOL     OW40225   4.604   1.904   3.595 -0.8722 -0.1084 -0.5429
 9531SOL    HW140226   4.653   1.840   3.543  1.7020  0.3559  1.2565
 9531SOL    HW240227   4.646   1.982   3.557 -0.5519  0.8695  1.7809
 9532SOL     OW40228   2.433   3.459   0.668 -0.7761 -0.0363 -0.2464
 9532SOL    HW140229   2.459   3.505   0.748  0.2926 -0.1836 -0.5149
 9532SOL    HW240230   2.434   3.534   0.608 -0.7811  0.2578  0.1159
 9533SOL     OW40231   2.441   3.417   0.241 -0.2616  0.3618  0.5260
 9533SOL    HW140232   2.518   3.426   0.298 -1.6770  1.4248  2.2697
 9533SOL    HW240233   2.375   3.392   0.306  0.0096 -0.6766  0.4034
 9534SOL     OW40234   0.089   4.713   5.448  0.0173 -0.5761 -0.0205
 9534SOL    HW140235   0.054   0.023   5.522  1.6051  0.3597  0.1015
 9534SOL    HW240236   0.013   4.686   5.396 -1.0417 -0.3439  1.4042
 9535SOL     OW40237   2.067   4.014   6.885  0.0181  0.3677  0.0278
 9535SOL    HW140238   2.077   3.939   6.825 -1.0888 -0.5909  1.0409
 9535SOL    HW240239   2.120   4.071   6.830  0.4203 -0.7884 -0.7953
 9536SOL     OW40240   2.858   0.247   6.553  0.7529  0.5719 -0.1437
 9536SOL    HW140241   2.855   0.276   6.461 -0.8968 -1.4130 -0.7219
 9536SOL    HW240242   2.877   0.328   6.600 -2.7845  1.4086 -0.1178
 9537SOL     OW40243   0.328   2.431   1.896 -0.3650 -0.2969 -0.0640
 9537SOL    HW140244   0.276   2.414   1.817  1.9962  2.4241 -2.1598
 9537SOL    HW240245   0.272   2.395   1.965  1.0220 -0.1412  1.1321
 9538SOL     OW40246   3.142   0.895  16.059  0.5496  0.4668 -0.2103
 9538SOL    HW140247   3.086   0.869  16.132  0.9352  0.7949  0.2078
 9538SOL    HW240248   3.203   0.959  16.096  1.7901 -0.3928 -0.7796
 9539SOL     OW40249   0.511   1.302   6.733  0.8309 -0.2026  0.1551
 9539SOL    HW140250   0.596   1.335   6.763  0.5374  0.9122 -0.2094
 9539SOL    HW240251   0.475   1.268   6.815 -0.9373  0.7006 -0.2403
 9540SOL     OW40252   1.933   1.861  14.561  0.1223  0.1212 -0.2397
 9540SOL    HW140253   1.952   1.955  14.562 -0.4031  0.2476 -1.8099
 9540SOL    HW240254   1.859   1.843  14.503 -0.0663  0.7177 -0.1843
 9541SOL     OW40255   2.247   3.796   3.396 -0.0472  0.1964 -0.5413
 9541SOL    HW140256   2.260   3.725   3.459  0.4010  1.6197  0.9643
 9541SOL    HW240257   2.332   3.839   3.405 -0.7382  1.5401 -0.5052
 9542SOL     OW40258   0.454   0.113   2.619  0.3423 -0.3602 -0.0698
 9542SOL    HW140259   0.519   0.047   2.595 -0.2294 -1.0245  0.2328
 9542SOL    HW240260   0.402   0.053   2.671  1.8485 -1.2838  0.3888
 9543SOL     OW40261   1.219   1.123   4.112 -0.5342 -0.9679  0.1809
 9543SOL    HW140262   1.201   1.109   4.019 -0.2308 -0.2649  0.0203
 9543SOL    HW240263   1.167   1.049   4.145 -0.9565 -0.8551 -0.2470
 9544SOL     OW40264   3.559   1.122   6.920 -0.6081  0.0959  0.5094
 9544SOL    HW140265   3.491   1.096   6.858 -0.9607 -1.8714  1.7228
 9544SOL    HW240266   3.519   1.192   6.971 -0.9195  0.1572  0.1817
 9545SOL     OW40267   2.287   4.549   5.973 -0.6653  0.1172 -0.5689
 9545SOL    HW140268   2.376   4.526   5.948 -0.4283  0.6253 -0.1684
 9545SOL    HW240269   2.265   4.609   5.902 -0.8783  0.7954  0.0750
 9546SOL     OW40270   0.172   1.908  16.727 -0.1410 -0.6877  0.6539
 9546SOL    HW140271   0.111   1.836  16.743 -0.6857 -0.0996  1.2327
 9546SOL    HW240272   0.111   1.962  16.676 -0.9622 -1.2593  1.0290
 9547SOL     OW40273   0.589   3.945   5.442 -0.1042 -0.3478 -0.1803
 9547SOL    HW140274   0.683   3.927   5.439  0.0146  0.1918  0.4108
 9547SOL    HW240275   0.578   3.997   5.362 -1.7498  0.4697  0.5862
 9548SOL     OW40276   2.771   3.040   8.547 -0.5598  0.8047 -0.1488
 9548SOL    HW140277   2.788   3.053   8.454  1.5725  1.2872  0.3193
 9548SOL    HW240278   2.844   3.082   8.592 -1.7347  1.7352  0.8614
 9549SOL     OW40279   4.215   2.482  13.158 -0.0365 -0.8322  0.3027
 9549SOL    HW140280   4.287   2.527  13.202  0.4728  0.7698 -2.1352
 9549SOL    HW240281   4.236   2.389  13.158  1.1090 -0.5766 -1.2733
 9550SOL     OW40282   3.051   3.056   2.385  0.1136  0.2674  0.8376
 9550SOL    HW140283   2.962   3.025   2.367 -1.0348  4.7237 -1.1158
 9550SOL    HW240284   3.031   3.149   2.397  2.3367  0.6862  1.2156
 9551SOL     OW40285   3.372   1.271   7.836 -0.7419  0.3160  0.2861
 9551SOL    HW140286   3.440   1.234   7.891 -0.4103 -0.7304 -0.8331
 9551SOL    HW240287   3.389   1.365   7.839  2.0902 -0.2238  0.3998
 9552SOL     OW40288   3.967   2.904  13.646 -0.6341 -0.5122 -0.1786
 9552SOL    HW140289   3.874   2.926  13.658 -0.2013  2.5067 -2.3909
 9552SOL    HW240290   3.958   2.808  13.647  0.5355 -0.6302 -1.1775
 9553SOL     OW40291   2.235   0.517  14.860 -0.0698 -0.4453 -0.5750
 9553SOL    HW140292   2.214   0.509  14.953  0.7576  0.9847 -0.2556
 9553SOL    HW240293   2.326   0.486  14.858 -0.5855 -1.6806 -3.5458
 9554SOL     OW40294   2.765   2.699   8.490 -0.0388  0.5136  0.8507
 9554SOL    HW140295   2.825   2.647   8.544  0.0396  0.2255  0.4891
 9554SOL    HW240296   2.813   2.774   8.455  0.5386  0.5626  1.7565
 9555SOL     OW40297   1.622   3.980   5.011 -0.1653  0.3897 -0.1593
 9555SOL    HW140298   1.698   4.016   5.058  0.4515 -0.7014 -0.3381
 9555SOL    HW240299   1.635   4.022   4.926  1.4161  0.6682  0.2277
 9556SOL     OW40300   4.029   0.927   5.278 -0.0505  0.0552 -0.2298
 9556SOL    HW140301   4.116   0.925   5.319  1.2886 -1.0343 -3.1023
 9556SOL    HW240302   3.977   0.969   5.345  2.7269  2.1115  0.6536
 9557SOL     OW40303   4.296   4.473   2.414 -0.2503 -0.6368 -0.3741
 9557SOL    HW140304   4.265   4.464   2.503  1.2153 -1.2057  0.0919
 9557SOL    HW240305   4.234   4.541   2.389 -1.8952 -1.1288  2.4142
 9558SOL     OW40306   2.485   3.866   9.540  0.0102 -0.4474  0.6825
 9558SOL    HW140307   2.432   3.801   9.493  1.5853  0.4089 -2.2381
 9558SOL    HW240308   2.442   3.888   9.622 -0.9226 -2.5991  0.7766
 9559SOL     OW40309   0.110   0.794   3.146  0.2983 -0.2942 -0.3786
 9559SOL    HW140310   0.112   0.889   3.139  2.2638 -0.3342 -0.3209
 9559SOL    HW240311   0.111   0.767   3.054  0.7164 -1.8367  0.0813
 9560SOL     OW40312   1.682   1.014   8.831  0.1804  0.2784 -0.7702
 9560SOL    HW140313   1.686   0.923   8.862 -0.1481  0.0455 -1.3877
 9560SOL    HW240314   1.635   1.055   8.903  0.7686 -0.3479 -0.0329
 9561SOL     OW40315   3.152   2.938   9.396 -0.1217 -0.0864 -0.0188
 9561SOL    HW140316   3.082   2.947   9.331  3.1799  0.3337 -3.4732
 9561SOL    HW240317   3.216   3.000   9.362  0.2788  0.2720  1.3874
 9562SOL     OW40318   2.039   4.611  15.757  0.0464  0.3474 -0.1042
 9562SOL    HW140319   2.026   4.705  15.746 -0.4858  0.4080  1.1129
 9562SOL    HW240320   2.097   4.585  15.685  0.7093 -0.0959  0.5892
 9563SOL     OW40321   1.708   4.668   4.287 -0.4771  0.1944 -0.2376
 9563SOL    HW140322   1.801   4.679   4.304 -0.0309 -2.3756 -1.0668
 9563SOL    HW240323   1.711   4.609   4.212  2.0056 -1.9098  1.5270
 9564SOL     OW40324   4.267   4.354   4.075 -0.5869  0.3258 -0.1123
 9564SOL    HW140325   4.296   4.265   4.097 -0.8066  0.4515  0.6575
 9564SOL    HW240326   4.176   4.339   4.050 -1.7123  3.6639  2.1071
 9565SOL     OW40327   0.620   3.096   8.603 -0.3884 -0.1226  0.0262
 9565SOL    HW140328   0.631   3.029   8.536 -2.2281 -2.0729  1.6462
 9565SOL    HW240329   0.568   3.041   8.662 -1.3558  1.5550  0.7523
 9566SOL     OW40330   2.224   0.803   7.752 -0.0543  0.6215  0.0895
 9566SOL    HW140331   2.316   0.785   7.731 -0.8075 -2.3165 -0.6120
 9566SOL    HW240332   2.185   0.809   7.665 -1.6356 -1.6787  0.6448
 9567SOL     OW40333   1.732   0.306   7.885  0.2058 -0.0555 -0.5971
 9567SOL    HW140334   1.661   0.367   7.869 -0.3011 -0.6491 -0.6111
 9567SOL    HW240335   1.808   0.349   7.845 -1.8588  2.8995 -1.2850
 9568SOL     OW40336   3.478   0.883   2.702 -0.3854 -0.6748 -0.1253
 9568SOL    HW140337   3.489   0.952   2.637  1.4871 -1.8992 -1.1051
 9568SOL    HW240338   3.569   0.878   2.733 -0.0187 -0.8310 -1.2210
 9569SOL     OW40339   1.260   3.289   3.220  0.2475 -0.1078 -0.3507
 9569SOL    HW140340   1.172   3.321   3.203  0.4253  2.1191  3.0424
 9569SOL    HW240341   1.278   3.266   3.128  0.6649  1.2504 -0.5975
 9570SOL     OW40342   2.380   3.864   0.885 -0.1665  0.0182 -0.1306
 9570SOL    HW140343   2.328   3.841   0.808  1.6518 -1.6010 -0.8652
 9570SOL    HW240344   2.351   3.950   0.913 -1.3415 -0.4138 -0.0121
 9571SOL     OW40345   2.611   3.837  10.489  0.5610  0.2804 -0.6876
 9571SOL    HW140346   2.545   3.907  10.487  1.5533  1.3341  2.2294
 9571SOL    HW240347   2.556   3.759  10.482  2.9951 -1.2627 -2.3280
   4.73939   4.73939  17.75534
