Membrane in water
40347
    1TMC1    C1    1   4.596   4.432  10.543  0.4558 -0.0017  0.5214
    1TMC1    C2    2   4.487   4.493  10.503  0.1603  0.4191  0.4194
    1TMC1    C3    3   4.444   4.480  10.378 -0.4737 -1.3421  0.0641
    1TMC1    C4    4   4.669   4.358  10.452 -0.7463 -0.6585  0.2893
    1TMC1    C5    5   4.623   4.340  10.327 -1.5405  0.8629  0.1453
    1TMC1    C6    6   4.502   4.395  10.287 -0.1399  0.2930  0.0764
    1TMC1     C    7   4.656   4.478  10.664  0.1270  0.5276  0.0621
    1TMC1     O    8   4.587   4.513  10.756  0.3459 -0.0939 -0.3658
    1TMC1     H    9   4.424   4.548  10.572  1.4289  0.8187  1.2462
    1TMC1    H1   10   0.015   4.291  10.482 -2.7560 -1.8904  2.8258
    1TMC1    H2   11   4.463   4.380  10.187 -0.8498  0.1992  0.3708
    1TMC1    C7   12   4.674   4.231  10.252 -0.3206 -0.7550  0.0354
    1TMC1    C8   13   4.302   4.515  10.357 -0.4687 -0.7218 -0.1745
    1TMC1    O1   14   4.590   4.181  10.179 -0.2961 -0.2646 -0.3423
    1TMC1    O2   15   4.221   4.448  10.292  0.2269  0.1806  0.4525
    1TMC1    O3   16   0.062   4.269  10.211  0.7427 -0.3123  0.2509
    1TMC1    H3   17   0.100   4.335  10.274 -0.7381 -0.5516  1.3796
    1TMC1    O5   18   4.275   4.638  10.408 -0.0515 -0.5367  0.6915
    1TMC1    H5   19   4.354   4.677  10.450  0.4347 -0.7609 -0.0135
    2MPD2     C   20   0.357   4.513  10.947 -0.8981 -0.0016 -0.1418
    2MPD2    C1   21   0.224   4.524  10.980 -0.0127  0.7365 -0.3996
    2MPD2    C2   22   0.122   4.510  10.885  0.1897  0.1120 -0.0160
    2MPD2    C3   23   0.160   4.501  10.750  0.4647  0.2648 -0.3523
    2MPD2    C4   24   0.294   4.500  10.716  0.7389  0.4284 -0.1232
    2MPD2    C5   25   0.388   4.505  10.814 -0.3295  0.0182  0.3984
    2MPD2     H   26   0.023   4.478  10.914  0.0730  1.2152  0.7906
    2MPD2    H1   27   0.327   4.489  10.613  0.0395  1.2701 -0.4369
    2MPD2    H2   28   0.429   4.527  11.026 -0.5607 -0.0024 -0.4488
    2MPD2    H3   29   0.493   4.496  10.787  0.3710  0.1583  3.1344
    2MPD2     N   30   0.062   4.472  10.650  0.3113 -0.5110 -0.4950
    2MPD2    H5   31   0.101   4.460  10.557 -1.0691 -1.4632 -0.9485
    2MPD2    N1   32   0.180   4.543  11.115 -0.1959  0.2073 -0.0714
    2MPD2    H7   33   0.080   4.530  11.124 -0.7115  3.8914 -0.3300
    3TMC1    C1   34   4.468   1.732  11.039 -0.2630 -0.3864 -0.0654
    3TMC1    C2   35   4.576   1.783  10.982 -0.3599  0.4924 -0.0571
    3TMC1    C3   36   4.674   1.699  10.935 -1.0925  0.3918  0.9046
    3TMC1    C4   37   4.440   1.595  11.039 -0.7617  0.0661 -0.0828
    3TMC1    C5   38   4.542   1.514  11.004  0.6537  0.8624 -0.5080
    3TMC1    C6   39   4.661   1.564  10.946  0.6239 -0.3147  0.6223
    3TMC1     C   40   4.391   1.818  11.124 -0.1483  0.1801 -0.0169
    3TMC1     O   41   4.429   1.931  11.144  0.2158  0.3509  0.1219
    3TMC1     H   42   4.595   1.890  10.983 -1.3221  0.6625 -0.3238
    3TMC1    H1   43   4.342   1.554  11.064 -0.7332 -1.2149 -2.0881
    3TMC1    H2   44   0.007   1.499  10.909 -0.7324 -1.7329  0.2409
    3TMC1    C7   45   4.505   1.375  10.996  0.2679 -0.4389 -0.2184
    3TMC1    C8   46   0.014   1.752  10.825 -1.1095  0.6284 -0.8295
    3TMC1    O1   47   4.403   1.335  11.053  0.5112 -0.0228  0.6091
    3TMC1    O2   48   0.050   1.868  10.814 -0.0707  0.3695 -0.4498
    3TMC1    O3   49   4.543   1.338  10.872 -0.0041  0.0306 -0.0609
    3TMC1    H3   50   4.630   1.378  10.848 -0.1224 -0.9025 -2.0373
    3TMC1    O5   51   0.020   1.655  10.728  0.2052  0.3299  0.1530
    3TMC1    H5   52   0.033   1.693  10.638 -0.1706  0.6410  0.2307
    4MPD2     C   53   3.955   1.971  11.308  1.5383  0.3250  0.1149
    4MPD2    C1   54   3.927   1.866  11.224 -0.4572  1.1348 -0.6370
    4MPD2    C2   55   4.035   1.804  11.174 -0.2525  0.5362  0.1706
    4MPD2    C3   56   4.166   1.832  11.210 -0.8777 -0.1117  0.2797
    4MPD2    C4   57   4.190   1.929  11.308  0.1104  0.7044  0.1174
    4MPD2    C5   58   4.084   2.006  11.352  0.9936 -0.1438  0.1239
    4MPD2     H   59   4.021   1.718  11.110  0.9673 -0.9632  1.9020
    4MPD2    H1   60   4.288   1.967  11.335 -0.0414 -0.1731  1.8611
    4MPD2    H2   61   3.871   2.026  11.351 -0.1717 -0.7508 -1.8335
    4MPD2    H3   62   4.107   2.086  11.421  0.5294  1.1338 -1.1892
    4MPD2     N   63   4.265   1.757  11.150 -0.2967  0.0863 -0.2779
    4MPD2    H5   64   4.246   1.676  11.093  4.1666 -1.2614  0.1391
    4MPD2    N1   65   3.796   1.824  11.177 -0.0622  0.0600  0.4070
    4MPD2    H7   66   3.791   1.753  11.105 -2.9677  0.3464  0.3180
    5TCq1    O1   67   3.797   2.184  10.972  0.1989  0.4743  0.2656
    5TCq1    C1   68   3.921   2.183  11.019  0.2092 -0.1435  0.3884
    5TCq1    O2   69   3.975   2.277  11.085 -0.0251 -0.2596 -0.2386
    5TCq1    C2   70   3.992   2.076  10.951  0.4786  0.1531  0.5994
    5TCq1    C3   71   3.934   1.969  10.886  0.0018 -0.5570 -0.2650
    5TCq1    C4   72   4.009   1.884  10.807 -0.1206 -0.6764  0.8069
    5TCq1    C5   73   4.140   1.914  10.788 -0.0456  0.0804  0.4371
    5TCq1    C6   74   4.196   2.032  10.831  0.0729  0.5336 -0.8365
    5TCq1    C7   75   4.124   2.108  10.923 -0.2741 -0.2550 -0.4464
    5TCq1    C8   76   4.335   2.065  10.812 -0.2099 -0.1244  0.0037
    5TCq1    O4   77   4.401   1.992  10.742  0.1095 -0.4129 -0.5045
    5TCq1    C9   78   3.949   1.769  10.746 -0.0507  0.0657 -0.1770
    5TCq1    O5   79   4.020   1.694  10.675 -0.1715  0.4133  0.3935
    5TCq1    O6   80   3.840   1.734  10.788  0.3118 -0.1849  0.1516
    5TCq1    H1   81   3.793   2.117  10.900 -0.4953  0.7695  0.0298
    5TCq1    H2   82   3.828   1.953  10.903 -0.6916  0.9989 -3.1579
    5TCq1    H3   83   4.196   1.856  10.716  0.3129  0.9389  0.0261
    5TCq1    H4   84   4.175   2.179  10.987 -0.0020  0.5644 -1.5675
    6MPD2     C   85   4.495   2.379  10.907  0.5398 -0.4189  0.0338
    6MPD2    C1   86   4.489   2.248  10.880  0.7157  0.3298  0.0396
    6MPD2    C2   87   4.607   2.177  10.860 -0.1937 -0.1706  0.0967
    6MPD2    C3   88   4.721   2.233  10.900 -0.4542 -0.7714 -0.3661
    6MPD2    C4   89   4.732   2.359  10.937  0.1529  0.0073 -0.4155
    6MPD2    C5   90   4.621   2.437  10.925  0.6209  0.0934 -0.2800
    6MPD2     H   91   4.602   2.071  10.839 -1.4188  0.3386 -2.1620
    6MPD2    H1   92   0.093   2.409  10.953  0.6486 -1.2486  0.6326
    6MPD2    H2   93   4.408   2.443  10.922  0.1407 -1.0404  0.3817
    6MPD2    H3   94   4.636   2.542  10.950 -1.9242  0.3999  0.0049
    6MPD2     N   95   0.106   2.156  10.895  0.5456 -0.5133 -0.0151
    6MPD2    H5   96   0.091   2.062  10.858 -0.9453 -0.6139  0.8578
    6MPD2    N1   97   4.363   2.189  10.861 -0.2600 -0.6278  0.9108
    6MPD2    H7   98   4.284   2.247  10.885 -0.0468  0.7432 -1.7255
    7TCq1    O1   99   2.599   2.004  13.392 -0.2394 -0.6279 -0.2383
    7TCq1    C1  100   2.521   2.019  13.282 -0.5406 -0.1177  0.3300
    7TCq1    O2  101   2.544   2.113  13.210  0.2274 -0.2327 -0.5721
    7TCq1    C2  102   2.398   1.989  13.342 -0.5774  0.1071  0.7642
    7TCq1    C3  103   2.308   2.092  13.351  0.1155  0.3755 -0.4266
    7TCq1    C4  104   2.188   2.068  13.415  0.7102 -0.1564  0.4853
    7TCq1    C5  105   2.163   1.946  13.464  0.2333 -0.2701 -0.5815
    7TCq1    C6  106   2.236   1.835  13.422 -0.1715 -0.8160 -0.5324
    7TCq1    C7  107   2.365   1.859  13.371 -0.6002 -0.1264  0.3335
    7TCq1    C8  108   2.199   1.699  13.450  0.0877 -0.4156 -0.0891
    7TCq1    O4  109   2.289   1.618  13.469  0.3029  0.0687  0.7760
    7TCq1    C9  110   2.086   2.176  13.435 -0.4848 -0.2248 -0.8390
    7TCq1    O5  111   1.971   2.139  13.463  0.2076  0.2711 -0.1179
    7TCq1    O6  112   2.117   2.287  13.394 -0.5609  0.8124  0.1823
    7TCq1    H1  113   2.566   1.933  13.450 -3.9170  1.9195  0.7811
    7TCq1    H2  114   2.340   2.194  13.333  0.4075  0.4458  0.4928
    7TCq1    H3  115   2.063   1.936  13.506  0.0788  1.6307 -0.4870
    7TCq1    H4  116   2.426   1.775  13.339  0.6340 -0.4569  3.5428
    8MPD2     C  117   1.817   1.338  13.433  0.2474  0.1020 -0.2597
    8MPD2    C1  118   1.938   1.340  13.496 -0.0794 -0.1211 -0.0111
    8MPD2    C2  119   2.029   1.450  13.498  0.0668 -0.1899 -0.4077
    8MPD2    C3  120   1.984   1.563  13.428 -0.3016 -0.0774  0.6808
    8MPD2    C4  121   1.863   1.565  13.365  0.0364  0.1387 -0.1357
    8MPD2    C5  122   1.779   1.458  13.373 -0.5348 -0.4783 -0.3270
    8MPD2     H  123   2.124   1.467  13.548 -1.2975  4.9025  0.4241
    8MPD2    H1  124   1.818   1.649  13.313 -0.0307 -0.7512 -1.5320
    8MPD2    H2  125   1.752   1.252  13.426 -1.1338  1.0168  1.4837
    8MPD2    H3  126   1.683   1.468  13.325 -0.5939 -2.1162 -0.5418
    8MPD2     N  127   2.062   1.684  13.422 -0.5956  0.2272  1.0291
    8MPD2    H5  128   2.008   1.763  13.387 -1.2110 -0.4523  0.4390
    8MPD2    N1  129   1.972   1.224  13.562 -0.1817  0.2197  0.6192
    8MPD2    H7  130   1.897   1.156  13.570  0.6980 -0.6427  1.5977
    9TMC1    C1  131   3.962   1.601  11.924  0.0043  0.4838 -0.3022
    9TMC1    C2  132   3.989   1.729  11.897  0.4122 -0.9495  0.8726
    9TMC1    C3  133   4.015   1.818  12.000  0.2142  0.8496  0.2122
    9TMC1    C4  134   3.960   1.551  12.051 -0.7255 -1.1975  0.2738
    9TMC1    C5  135   3.979   1.642  12.152 -0.2788 -0.3412  0.2899
    9TMC1    C6  136   4.008   1.776  12.127 -0.7564  0.4178  0.2001
    9TMC1     C  137   3.920   1.512  11.816 -0.3455  0.4162  0.7815
    9TMC1     O  138   3.845   1.561  11.732  0.1660  0.6923  0.3625
    9TMC1     H  139   3.976   1.765  11.796 -1.3023 -2.6634  0.4601
    9TMC1    H1  140   3.947   1.444  12.061 -2.0365 -1.3166 -2.7328
    9TMC1    H2  141   4.028   1.847  12.206 -2.4140  1.4605 -0.3083
    9TMC1    C7  142   3.968   1.609  12.292 -0.5014  0.2068 -0.7423
    9TMC1    C8  143   4.010   1.954  11.973 -0.0171  0.0730  0.2896
    9TMC1    O1  144   4.007   1.691  12.370  0.0226 -0.5075  0.0037
    9TMC1    O2  145   3.968   2.033  12.056 -0.7266  0.1721 -0.0727
    9TMC1    O3  146   3.871   1.510  12.319 -0.2400 -0.3218  0.1878
    9TMC1    H3  147   3.838   1.452  12.247  0.3387 -1.4201  0.7954
    9TMC1    O5  148   4.131   1.958  11.914  0.1828  0.0005 -0.1350
    9TMC1    H5  149   4.137   1.878  11.858  0.5623  0.4975 -0.8085
   10MPD2     C  150   3.850   1.256  11.669  0.0176 -0.5082 -0.2689
   10MPD2    C1  151   3.961   1.277  11.741  0.4875 -0.3155 -0.1242
   10MPD2    C2  152   4.054   1.175  11.752 -0.5753  0.7325 -0.3846
   10MPD2    C3  153   4.039   1.054  11.684 -0.4792 -0.2975  0.2809
   10MPD2    C4  154   3.923   1.034  11.626  0.8861  0.0515 -0.5385
   10MPD2    C5  155   3.831   1.130  11.618 -1.2078  0.6456 -0.6241
   10MPD2     H  156   4.141   1.201  11.811 -0.3851 -0.9047  0.0639
   10MPD2    H1  157   3.908   0.941  11.572 -1.3367  0.3837 -0.4878
   10MPD2    H2  158   3.782   1.336  11.641 -1.3464 -1.3117  0.7261
   10MPD2    H3  159   3.737   1.114  11.565 -1.4973 -1.1734  0.4765
   10MPD2     N  160   4.136   0.954  11.680  0.8037 -0.0079  0.4684
   10MPD2    H5  161   4.112   0.866  11.635 -2.0561  1.5386 -1.0631
   10MPD2    N1  162   3.988   1.394  11.819  0.1843 -0.0589  0.7803
   10MPD2    H7  163   4.067   1.390  11.882  1.1999 -3.3864 -0.7375
   11TCq1    O1  164   0.701   0.314  14.806  0.0787  0.0009 -1.2490
   11TCq1    C1  165   0.641   0.437  14.813 -0.6388 -0.5359 -0.7531
   11TCq1    O2  166   0.531   0.468  14.856  0.0451 -0.3887  0.1426
   11TCq1    C2  167   0.749   0.520  14.797 -0.0613  0.2803  0.3284
   11TCq1    C3  168   0.870   0.473  14.861  0.4655  0.0024 -0.8407
   11TCq1    C4  169   0.984   0.508  14.794 -0.3312  0.4470 -0.0478
   11TCq1    C5  170   0.975   0.573  14.675  0.1456  0.5639  0.1450
   11TCq1    C6  171   0.858   0.615  14.616  0.4746  0.9958 -0.7455
   11TCq1    C7  172   0.741   0.590  14.680 -0.8208  0.3007 -0.3655
   11TCq1    C8  173   0.851   0.641  14.474 -0.7137  0.3977 -0.2315
   11TCq1    O4  174   0.748   0.699  14.439 -0.2274  0.1981  0.4214
   11TCq1    C9  175   1.106   0.444  14.831  0.0954  0.1834 -0.0878
   11TCq1    O5  176   1.095   0.378  14.939 -0.0587  0.0744  0.4178
   11TCq1    O6  177   1.180   0.409  14.734 -0.1771 -0.4674  0.3556
   11TCq1    H1  178   0.792   0.319  14.770 -0.5601 -0.9962 -3.0287
   11TCq1    H2  179   0.866   0.411  14.950 -0.3881  0.0697 -0.8329
   11TCq1    H3  180   1.069   0.594  14.626  1.8722 -2.3123  2.2115
   11TCq1    H4  181   0.643   0.605  14.636 -1.9313 -0.5288  1.8008
   12MPD2     C  182   0.872   0.691  14.186 -0.5451  0.4754  0.0358
   12MPD2    C1  183   0.940   0.592  14.254  0.0215 -1.0787  0.3316
   12MPD2    C2  184   1.013   0.505  14.172  0.1355  0.5951 -0.1144
   12MPD2    C3  185   1.003   0.506  14.035 -0.0602 -0.0936  0.1682
   12MPD2    C4  186   0.920   0.598  13.972  0.2214 -0.0518  0.0408
   12MPD2    C5  187   0.857   0.694  14.047  0.4234  0.3908  0.5660
   12MPD2     H  188   1.076   0.435  14.224 -0.0583 -1.0368 -2.0553
   12MPD2    H1  189   0.932   0.608  13.865  3.8657 -0.9478  0.3627
   12MPD2    H2  190   0.826   0.779  14.228 -1.3983  0.3438 -0.6244
   12MPD2    H3  191   0.825   0.787  14.000  0.3240  0.0729  0.0039
   12MPD2     N  192   1.049   0.405  13.950  0.0418  0.5385 -0.4122
   12MPD2    H5  193   1.004   0.386  13.861 -1.0182  2.1959 -0.2395
   12MPD2    N1  194   0.946   0.582  14.393  0.2055  0.5651  0.5108
   12MPD2    H7  195   1.013   0.522  14.440 -2.6488 -1.9860  1.3516
   13TCq1    O1  196   0.370   0.147  10.548  0.3191 -0.2399 -0.6962
   13TCq1    C1  197   0.318   0.141  10.674  0.1512  1.0456  0.4515
   13TCq1    O2  198   0.393   0.136  10.772 -0.0439  0.1526 -0.4002
   13TCq1    C2  199   0.170   0.124  10.669 -0.1249 -0.5125  0.5049
   13TCq1    C3  200   0.099   0.098  10.554 -0.4487  0.2369  0.1061
   13TCq1    C4  201   4.694   0.085  10.560 -0.3138 -0.4447 -0.1362
   13TCq1    C5  202   4.634   0.083  10.682  0.2767  1.0960  1.0686
   13TCq1    C6  203   4.706   0.107  10.798 -0.3100 -0.4294  0.1296
   13TCq1    C7  204   0.106   0.127  10.790  0.6696 -0.3617 -0.4074
   13TCq1    C8  205   4.634   0.117  10.929  1.3094 -0.5185 -0.4031
   13TCq1    O4  206   4.679   0.190  11.020  0.0004 -0.1957  0.3848
   13TCq1    C9  207   4.616   0.068  10.431 -0.0074 -0.1108 -0.6208
   13TCq1    O5  208   4.679   0.103  10.326  0.3036 -0.4592  0.0858
   13TCq1    O6  209   4.495   0.042  10.451 -0.5661  0.5199 -0.5942
   13TCq1    H1  210   0.300   0.143  10.479 -0.0744  2.2019 -0.4642
   13TCq1    H2  211   0.143   0.089  10.456 -0.1803 -0.8460  0.3263
   13TCq1    H3  212   4.526   0.070  10.684  0.6289 -1.5772  2.9955
   13TCq1    H4  213   0.162   0.164  10.876 -3.6079  0.5161  2.0313
   14MPD2     C  214   4.369   4.606  11.005  0.6091 -0.3006  0.2199
   14MPD2    C1  215   4.429   4.729  11.021  0.1529  0.7849  0.1812
   14MPD2    C2  216   4.382   0.081  11.116  0.4514  0.0033  0.2638
   14MPD2    C3  217   4.275   0.049  11.196 -0.1073 -0.7769 -0.5619
   14MPD2    C4  218   4.207   4.666  11.163 -0.2605  0.1228  0.0333
   14MPD2    C5  219   4.260   4.580  11.074 -0.1480  0.3152  0.3259
   14MPD2     H  220   4.427   0.179  11.128 -2.3102  1.3987 -1.0310
   14MPD2    H1  221   4.109   4.641  11.200 -0.4300  2.0395  0.8950
   14MPD2    H2  222   4.410   4.532  10.937  0.8621  1.9351 -2.0889
   14MPD2    H3  223   4.193   4.499  11.048 -1.2324  0.1044  3.7522
   14MPD2     N  224   4.223   0.141  11.295  0.3739  0.1535 -0.1593
   14MPD2    H5  225   4.275   0.228  11.308  0.0067  0.6380 -1.8798
   14MPD2    N1  226   4.534   0.021  10.930  0.1133  0.3079  0.1171
   14MPD2    H7  227   4.530   4.693  10.850  0.8924 -1.1901  1.2179
   15TCq1    O1  228   0.986   4.347   1.584 -0.1642 -0.2817 -0.3528
   15TCq1    C1  229   0.994   4.334   1.717  0.0456 -0.0975 -0.3204
   15TCq1    O2  230   0.963   4.418   1.800 -0.1275 -0.4048  0.4310
   15TCq1    C2  231   1.029   4.200   1.747  0.2305  0.3396 -0.3340
   15TCq1    C3  232   0.988   4.143   1.866 -0.0528 -0.0417 -0.1111
   15TCq1    C4  233   1.042   4.022   1.899 -0.0298 -0.5454  0.2385
   15TCq1    C5  234   1.117   3.952   1.806 -0.2027 -0.9696 -1.1762
   15TCq1    C6  235   1.154   4.007   1.688  0.1729  0.0128 -0.1310
   15TCq1    C7  236   1.114   4.133   1.662  0.5458  0.3597  0.2181
   15TCq1    C8  237   1.233   3.926   1.599 -0.4011  0.3986  0.7267
   15TCq1    O4  238   1.299   3.840   1.651 -0.0394  0.4364 -0.0252
   15TCq1    C9  239   0.992   3.968   2.021  0.2791  0.0246  0.0436
   15TCq1    O5  240   1.039   3.857   2.057 -0.6052  0.0584 -0.2181
   15TCq1    O6  241   0.902   4.031   2.079  0.6241  0.0320 -0.2786
   15TCq1    H1  242   1.007   4.271   1.526 -2.2322 -2.0552  1.2313
   15TCq1    H2  243   0.926   4.202   1.934  0.1165 -0.2280  0.2066
   15TCq1    H3  244   1.133   3.847   1.828  1.8510 -0.3120  0.4153
   15TCq1    H4  245   1.187   4.187   1.603 -1.1578  0.4493 -1.8218
   16MPD2     C  246   1.242   3.969   1.229 -0.2159 -0.5850 -0.1985
   16MPD2    C1  247   1.281   3.925   1.350 -0.5089 -0.0525  0.9600
   16MPD2    C2  248   1.391   3.835   1.356 -0.0558 -0.5906 -0.0959
   16MPD2    C3  249   1.447   3.786   1.240  0.2078 -0.6206  0.1759
   16MPD2    C4  250   1.404   3.831   1.118  0.8526  0.4463 -0.9490
   16MPD2    C5  251   1.304   3.926   1.113 -0.9762 -0.9620  0.3763
   16MPD2     H  252   1.430   3.796   1.449  0.1250 -2.1016 -0.7953
   16MPD2    H1  253   1.442   3.795   1.023 -0.4016 -0.0435 -1.2581
   16MPD2    H2  254   1.167   4.047   1.225 -1.2264 -1.6489 -1.8805
   16MPD2    H3  255   1.258   3.964   1.022 -0.8697  0.4665  0.9206
   16MPD2     N  256   1.564   3.702   1.249 -0.8694  0.6120 -0.0774
   16MPD2    H5  257   1.619   3.697   1.334 -1.5408  1.8975  0.4358
   16MPD2    N1  258   1.215   3.969   1.468 -0.1112  0.9427  0.0191
   16MPD2    H7  259   1.146   4.043   1.465 -0.0593  0.9155 -1.8757
   17TMC1    C1  260   1.080   4.615  11.041 -0.3935  0.0128  0.1009
   17TMC1    C2  261   0.974   4.565  10.963  0.1252  0.6816  0.9543
   17TMC1    C3  262   0.861   4.525  11.022  0.5646  0.2114  0.0006
   17TMC1    C4  263   1.060   4.648  11.172  0.0887 -0.2375  0.2481
   17TMC1    C5  264   0.934   4.615  11.216  0.1349  0.0884 -0.4928
   17TMC1    C6  265   0.835   4.544  11.150  0.3342  0.0020  0.3345
   17TMC1     C  266   1.197   4.673  10.987  0.4699 -0.0995  0.0561
   17TMC1     O  267   1.262   0.012  11.061  0.3911 -1.2934 -0.3963
   17TMC1     H  268   0.992   4.535  10.860  0.7807  0.1659  1.2215
   17TMC1    H1  269   1.139   4.692  11.233  1.5036  0.0054 -1.7364
   17TMC1    H2  270   0.738   4.540  11.199  0.3439 -2.0568  0.1840
   17TMC1    C7  271   0.918   4.628  11.358 -0.6318  0.7126 -0.3670
   17TMC1    C8  272   0.768   4.451  10.939 -0.4716  0.5417  0.8762
   17TMC1    O1  273   1.010   4.632  11.439  0.4559  0.0125  0.1019
   17TMC1    O2  274   0.694   4.369  10.994 -0.2492  0.1560  0.2549
   17TMC1    O3  275   0.786   4.661  11.381 -0.5376 -0.2183 -0.0463
   17TMC1    H3  276   0.736   4.676  11.298 -1.9517  1.7765  1.1520
   17TMC1    O5  277   0.752   4.517  10.826  0.2954  0.4182  0.3357
   17TMC1    H5  278   0.805   4.599  10.817 -0.4864  0.8047 -0.7118
   18MPD2     C  279   1.391   0.071  10.799  0.1885 -0.3832 -0.7060
   18MPD2    C1  280   1.324   4.688  10.767  0.8459  0.5911  0.0607
   18MPD2    C2  281   1.331   4.644  10.632 -0.0403  0.1959  0.6407
   18MPD2    C3  282   1.413   4.710  10.540 -0.0429 -0.0465 -0.2233
   18MPD2    C4  283   1.475   0.099  10.578 -0.0373  0.5538  0.2576
   18MPD2    C5  284   1.456   0.144  10.706  0.2099 -0.1463  0.0630
   18MPD2     H  285   1.278   4.556  10.599  0.8236 -0.0761 -0.0391
   18MPD2    H1  286   1.554   0.145  10.520 -1.6522  0.4093 -2.0618
   18MPD2    H2  287   1.374   0.124  10.892  0.7192 -0.6305 -0.4709
   18MPD2    H3  288   1.506   0.236  10.736  3.2964 -2.5624  2.2941
   18MPD2     N  289   1.440   4.666  10.406 -0.5737  0.6685  0.4803
   18MPD2    H5  290   1.474   4.732  10.337 -1.3392 -1.5084 -1.9817
   18MPD2    N1  291   1.225   4.634  10.854  0.1724  0.9088 -0.6644
   18MPD2    H7  292   1.163   4.557  10.830 -0.3764  0.2893  2.7230
   19TMC2    C1  293   1.726   0.524  14.513  0.0062  0.5539 -0.6653
   19TMC2    C2  294   1.643   0.613  14.575 -0.5380  0.2559  0.5053
   19TMC2    C3  295   1.523   0.575  14.624  0.4815 -0.6205 -0.0681
   19TMC2    C4  296   1.687   0.391  14.491  0.0582  0.1431 -0.0236
   19TMC2    C5  297   1.556   0.365  14.527 -0.2681 -0.3004  0.4342
   19TMC2    C6  298   1.479   0.449  14.601  0.3095 -0.4129  0.0206
   19TMC2     C  299   1.862   0.562  14.516 -0.5066  0.3327  0.4576
   19TMC2     O  300   1.892   0.676  14.545 -0.3832 -0.1105  0.1506
   19TMC2     H  301   1.677   0.715  14.584  0.6936  0.1158 -2.4872
   19TMC2    H1  302   1.749   0.326  14.429  1.3400  1.0285  0.3380
   19TMC2    H2  303   1.375   0.424  14.615 -0.2698  2.9302  1.7586
   19TMC2    C7  304   1.485   0.285  14.431  0.8145 -0.6391 -0.2384
   19TMC2    C8  305   1.448   0.680  14.692  0.5784 -0.1623 -0.5551
   19TMC2    O1  306   1.384   0.338  14.388 -0.8206  0.1100 -1.0599
   19TMC2    O2  307   1.491   0.789  14.707 -0.1134 -0.1691  0.0500
   19TMC2    O5  308   1.326   0.630  14.733  0.4740 -0.2228  0.0734
   19TMC2    H5  309   1.311   0.535  14.717  0.4838 -0.2124  0.0045
   20MPD2     C  310   2.150   0.572  14.529  0.0314 -0.0064 -0.3627
   20MPD2    C1  311   2.083   0.455  14.556 -0.0560 -0.0744 -0.0604
   20MPD2    C2  312   2.154   0.343  14.580  0.1394  0.3034 -0.1341
   20MPD2    C3  313   2.289   0.333  14.601  0.2053 -0.1846 -0.0065
   20MPD2    C4  314   2.352   0.453  14.573  0.3663  0.2966 -0.1609
   20MPD2    C5  315   2.285   0.568  14.541  0.8756  0.0756  0.4880
   20MPD2     H  316   2.096   0.252  14.592  1.1304 -0.0150  2.2524
   20MPD2    H1  317   2.459   0.463  14.559  0.7217 -0.0329  2.3124
   20MPD2    H2  318   2.110   0.666  14.493 -0.2697 -0.3719 -1.0037
   20MPD2    H3  319   2.338   0.660  14.518 -1.1519  0.3718 -2.9509
   20MPD2     N  320   2.357   0.215  14.637 -0.1006 -0.6138 -0.5218
   20MPD2    H5  321   2.458   0.222  14.649  0.1384 -1.2730 -2.0568
   20MPD2    N1  322   1.942   0.452  14.536  0.4256  0.0765 -0.2313
   20MPD2    H7  323   1.900   0.362  14.514 -1.4996  0.8365  0.3090
   21TMC2    C1  324   4.019   0.280  14.786  0.5442  0.2230  0.6938
   21TMC2    C2  325   4.049   0.173  14.866  0.2786 -0.8678 -0.9139
   21TMC2    C3  326   3.969   0.145  14.973  0.1099  0.0844 -0.0109
   21TMC2    C4  327   3.920   0.366  14.824  0.1646 -0.7490 -0.1817
   21TMC2    C5  328   3.840   0.342  14.937 -0.0881  0.0675  0.2879
   21TMC2    C6  329   3.869   0.226  15.018 -0.2199 -0.3963 -0.2317
   21TMC2     C  330   4.118   0.314  14.684 -0.5041 -0.1463 -0.1462
   21TMC2     O  331   4.224   0.254  14.694 -0.1449 -0.1718  0.1887
   21TMC2     H  332   4.113   0.092  14.834  0.4522 -1.6104  1.3028
   21TMC2    H1  333   3.896   0.455  14.767  0.0179 -2.2559 -2.4782
   21TMC2    H2  334   3.818   0.205  15.111 -1.8024 -0.8636 -1.2002
   21TMC2    C7  335   3.762   0.437  15.007  0.2069 -0.3329  0.7918
   21TMC2    C8  336   3.971   0.009  15.024 -0.9158  0.1394 -0.3304
   21TMC2    O1  337   3.742   0.421  15.126  0.2555 -0.1909 -0.2240
   21TMC2    O2  338   4.065   4.664  14.997 -0.3376 -0.0345  0.4940
   21TMC2    O5  339   3.843   4.702  15.006 -0.1396 -0.7030  0.0930
   21TMC2    H5  340   3.789   0.044  14.974  1.6102  0.9306  0.9291
   22MPD2     C  341   4.245   0.502  14.234  0.3543  0.0046 -0.1777
   22MPD2    C1  342   4.314   0.418  14.313 -0.1860 -0.2483  0.7307
   22MPD2    C2  343   4.258   0.387  14.438 -0.3640 -0.2537  0.1727
   22MPD2    C3  344   4.135   0.437  14.469  0.1277  0.2422  0.0886
   22MPD2    C4  345   4.061   0.510  14.380  0.0879 -0.0312 -0.2517
   22MPD2    C5  346   4.126   0.558  14.269  0.1741 -0.9319 -0.3365
   22MPD2     H  347   4.324   0.326  14.499  1.6765  0.8497 -0.9350
   22MPD2    H1  348   3.961   0.537  14.409 -0.5054 -0.8835 -1.4787
   22MPD2    H2  349   4.286   0.542  14.142 -0.1848  1.9802  0.4432
   22MPD2    H3  350   4.075   0.633  14.210 -1.1331 -1.7899 -0.3049
   22MPD2     N  351   4.066   0.401  14.585 -0.1122  0.3315 -0.9578
   22MPD2    H5  352   3.973   0.439  14.599  0.5697  0.8939  2.0466
   22MPD2    N1  353   4.440   0.364  14.276 -0.2106  1.3272  0.3713
   22MPD2    H7  354   4.484   0.308  14.349  1.9545  3.3003  0.5880
   23TMC2    C1  355   0.609   1.424  14.352 -0.2609  1.1062  0.3796
   23TMC2    C2  356   0.616   1.549  14.306  0.5962 -0.0245  0.2051
   23TMC2    C3  357   0.497   1.596  14.271 -0.6534  0.0413 -0.1366
   23TMC2    C4  358   0.500   1.349  14.357  0.2079 -0.2356 -0.2734
   23TMC2    C5  359   0.381   1.408  14.323  0.2337  0.1766 -0.3578
   23TMC2    C6  360   0.379   1.541  14.289  0.3314  0.1569  0.3541
   23TMC2     C  361   0.706   1.383  14.456  0.6199 -0.4634 -0.0596
   23TMC2     O  362   0.666   1.308  14.545  0.1315 -0.4455 -0.1267
   23TMC2     H  363   0.700   1.617  14.302  0.0593  0.7128  1.2941
   23TMC2    H1  364   0.511   1.250  14.399 -0.0789 -0.1996 -0.1085
   23TMC2    H2  365   0.289   1.591  14.255 -0.9999 -1.5124  1.3905
   23TMC2    C7  366   0.264   1.343  14.382 -0.9507 -0.1265 -0.4120
   23TMC2    C8  367   0.506   1.729  14.223  0.3642  0.6232 -0.2341
   23TMC2    O1  368   0.279   1.223  14.407  0.6009  0.4482  0.1688
   23TMC2    O2  369   0.602   1.764  14.161  0.6697 -0.1847 -0.4179
   23TMC2    O5  370   0.444   1.803  14.318 -0.5197  0.0481 -0.1657
   23TMC2    H5  371   0.396   1.751  14.385  2.1717 -2.0764  0.1225
   24MPD2     C  372   1.183   1.391  14.652  0.4079 -0.9728 -0.7307
   24MPD2    C1  373   1.061   1.358  14.714  0.8958 -0.1045  0.1121
   24MPD2    C2  374   0.945   1.359  14.641  0.3475  0.0160  0.0529
   24MPD2    C3  375   0.946   1.414  14.513 -0.4008  0.5146 -0.3851
   24MPD2    C4  376   1.066   1.456  14.455 -0.4270  0.3619  0.2091
   24MPD2    C5  377   1.183   1.450  14.529  0.2239 -0.4481 -0.4897
   24MPD2     H  378   0.852   1.324  14.683  0.3429  0.3815  0.3468
   24MPD2    H1  379   1.073   1.490  14.352  1.3438  1.5161  0.7045
   24MPD2    H2  380   1.279   1.369  14.697 -1.2143  0.0470  3.2354
   24MPD2    H3  381   1.280   1.476  14.487 -0.1240  1.1959 -0.2938
   24MPD2     N  382   0.833   1.427  14.431  0.2598 -0.1973  0.5134
   24MPD2    H5  383   0.839   1.488  14.351  0.5861 -1.2056 -0.2163
   24MPD2    N1  384   1.047   1.319  14.852 -0.7337  0.8130 -0.0332
   24MPD2    H7  385   0.957   1.288  14.887 -0.4593  0.3348  0.2518
   25TMC2    C1  386   4.459   4.259  11.713  0.0165  0.0957 -0.4571
   25TMC2    C2  387   4.595   4.257  11.713  0.1874  0.4672 -0.3132
   25TMC2    C3  388   4.656   4.198  11.822  0.1452 -0.0729  0.5820
   25TMC2    C4  389   4.380   4.221  11.819 -0.0575 -0.1738  0.3547
   25TMC2    C5  390   4.448   4.182  11.935 -0.5961 -0.1712  0.3106
   25TMC2    C6  391   4.583   4.169  11.934  0.1174 -0.0051  0.2027
   25TMC2     C  392   4.395   4.284  11.592  0.4230 -0.2032 -0.2889
   25TMC2     O  393   4.443   4.376  11.527  0.0954 -0.5660  0.2877
   25TMC2     H  394   4.644   4.272  11.617 -0.0573  1.3324 -0.3017
   25TMC2    H1  395   4.272   4.225  11.814  0.0614  1.8665 -0.9379
   25TMC2    H2  396   4.634   4.136  12.024  1.6100  1.0317 -0.2618
   25TMC2    C7  397   4.382   4.122  12.050 -0.3429 -0.2599 -0.3804
   25TMC2    C8  398   0.062   4.229  11.844  0.5390  0.8878  1.0687
   25TMC2    O1  399   4.444   4.110  12.156  0.9888  0.1533 -0.0658
   25TMC2    O2  400   0.119   4.236  11.954 -0.1413  0.2840 -0.0783
   25TMC2    O5  401   0.121   4.208  11.724  0.1523 -0.3182  0.1303
   25TMC2    H5  402   0.068   4.171  11.650  1.7512 -1.2462 -0.5752
   26MPD2     C  403   4.134   4.114  11.188  0.4323 -0.1379 -0.0003
   26MPD2    C1  404   4.159   4.005  11.274  0.3437  0.0191  0.1081
   26MPD2    C2  405   4.204   4.032  11.402  0.6053  0.1138 -0.0550
   26MPD2    C3  406   4.246   4.162  11.434 -0.3106  0.6932 -0.2890
   26MPD2    C4  407   4.230   4.268  11.345  1.0409 -0.4223  0.2993
   26MPD2    C5  408   4.168   4.244  11.228  0.0165  0.4060  0.4901
   26MPD2     H  409   4.221   3.955  11.476  1.4566 -1.2911 -1.7429
   26MPD2    H1  410   4.257   4.370  11.370 -1.7154  0.1654  0.7962
   26MPD2    H2  411   4.094   4.093  11.089  1.3168 -0.5510 -0.2811
   26MPD2    H3  412   4.153   4.322  11.154 -1.9212 -0.2987  0.1365
   26MPD2     N  413   4.305   4.178  11.560  0.1183 -0.4889 -0.2174
   26MPD2    H5  414   4.300   4.102  11.627  0.7342  0.0569  0.4562
   26MPD2    N1  415   4.110   3.879  11.236  0.3729 -0.2098  0.8491
   26MPD2    H7  416   4.070   3.875  11.142 -3.7515 -0.1670  2.6044
   27TMC2    C1  417   2.992   1.284  12.406 -0.3466 -0.4117 -0.5115
   27TMC2    C2  418   3.036   1.410  12.371 -0.8536 -0.1058 -0.4300
   27TMC2    C3  419   3.175   1.429  12.356 -0.3675  0.0189  1.1786
   27TMC2    C4  420   3.087   1.182  12.428  0.3688  0.0098  0.1682
   27TMC2    C5  421   3.222   1.211  12.428  0.3006  0.4328  0.3540
   27TMC2    C6  422   3.264   1.335  12.396 -0.6524 -0.1774 -0.9021
   27TMC2     C  423   2.863   1.275  12.469 -0.3868  0.3394 -0.0311
   27TMC2     O  424   2.811   1.380  12.503  0.8586 -0.2840  0.3492
   27TMC2     H  425   2.964   1.486  12.344 -2.1729 -0.2575  2.6390
   27TMC2    H1  426   3.050   1.090  12.473  0.9576 -0.8850 -1.1833
   27TMC2    H2  427   3.368   1.365  12.387 -0.1984 -1.3077  0.6879
   27TMC2    C7  428   3.305   1.146  12.530 -0.9398  0.0093 -0.0714
   27TMC2    C8  429   3.220   1.564  12.369  1.0097  0.6636 -0.2090
   27TMC2    O1  430   3.262   1.050  12.592  0.0209  0.0596  0.0295
   27TMC2    O2  431   3.319   1.610  12.312  0.7716 -0.0468 -0.1251
   27TMC2    O5  432   3.187   1.584  12.499  0.1812  0.1069  0.1997
   27TMC2    H5  433   3.127   1.516  12.536  1.8951 -0.3335  2.2018
   28MPD2     C  434   2.554   0.970  12.738 -0.1724 -1.2940 -0.1398
   28MPD2    C1  435   2.570   1.106  12.747  0.2885  0.8996 -0.0952
   28MPD2    C2  436   2.658   1.166  12.659  0.0454 -0.3479  0.2408
   28MPD2    C3  437   2.729   1.089  12.565  0.3718  1.1710  0.0688
   28MPD2    C4  438   2.700   0.957  12.550 -0.0637  0.4525  0.0493
   28MPD2    C5  439   2.612   0.900  12.634 -0.1677 -0.3761  0.8641
   28MPD2     H  440   2.684   1.270  12.674 -1.6865 -0.2337  2.3832
   28MPD2    H1  441   2.736   0.897  12.467 -0.6513  0.4938 -0.2370
   28MPD2    H2  442   2.474   0.924  12.796  1.2811 -1.5478  1.6798
   28MPD2    H3  443   2.576   0.799  12.619  1.1997 -0.2793 -2.8912
   28MPD2     N  444   2.818   1.143  12.474  0.3166  0.1038 -0.0767
   28MPD2    H5  445   2.879   1.075  12.430 -2.2991 -3.0448  1.2246
   28MPD2    N1  446   2.502   1.171  12.852  0.0290 -0.4963  0.0181
   28MPD2    H7  447   2.443   1.113  12.910 -0.5142 -2.1911 -2.2236
   29TMC2    C1  448   2.750   3.569  14.636  1.2457 -0.1769  0.7809
   29TMC2    C2  449   2.706   3.517  14.752 -0.3990  0.7215  0.2409
   29TMC2    C3  450   2.663   3.597  14.850  0.2429 -0.7224 -0.8575
   29TMC2    C4  451   2.751   3.708  14.610 -0.1301 -0.0387 -0.0208
   29TMC2    C5  452   2.695   3.782  14.713  0.2708 -0.0506  0.2626
   29TMC2    C6  453   2.645   3.733  14.830 -0.2359 -0.4736  0.9997
   29TMC2     C  454   2.758   3.472  14.525 -0.1155  0.7066 -0.1013
   29TMC2     O  455   2.700   3.366  14.548  0.0338 -0.0236 -0.4633
   29TMC2     H  456   2.720   3.411  14.771 -4.6355 -0.8100 -5.2852
   29TMC2    H1  457   2.767   3.748  14.511  0.5472 -0.9226 -0.2632
   29TMC2    H2  458   2.583   3.790  14.898 -0.1227  2.2106 -1.1591
   29TMC2    C7  459   2.676   3.927  14.700 -0.4998  0.2595  0.3986
   29TMC2    C8  460   2.682   3.541  14.978 -0.5110 -0.2194  0.5190
   29TMC2    O1  461   2.573   3.976  14.746 -0.3610  0.8470 -0.4859
   29TMC2    O2  462   2.681   3.419  14.998  0.4836 -0.3597 -0.0726
   29TMC2    O5  463   2.731   3.637  15.067  0.1493 -0.5346 -0.2482
   29TMC2    H5  464   2.740   3.726  15.026 -0.0434 -0.3163  0.1849
   30MPD2     C  465   2.858   3.296  14.054  0.2225 -0.3773 -0.3157
   30MPD2    C1  466   2.818   3.226  14.169 -0.4650  0.1254  0.9053
   30MPD2    C2  467   2.813   3.291  14.292  0.4650  0.7699  0.3406
   30MPD2    C3  468   2.830   3.429  14.299  0.6219  0.7037 -0.7426
   30MPD2    C4  469   2.861   3.498  14.183 -0.1889  0.2213 -0.1083
   30MPD2    C5  470   2.872   3.434  14.062  0.2702  0.1145  1.1789
   30MPD2     H  471   2.793   3.225  14.375  0.4041  0.6726  0.2486
   30MPD2    H1  472   2.868   3.606  14.178  1.9965  0.0769 -0.2169
   30MPD2    H2  473   2.873   3.251  13.957 -2.9416 -1.2182 -0.4230
   30MPD2    H3  474   2.884   3.500  13.977 -1.3380 -1.2563 -0.0988
   30MPD2     N  475   2.805   3.519  14.403 -0.1993  0.1752 -0.4183
   30MPD2    H5  476   2.827   3.618  14.399 -0.5714  0.3446  1.5511
   30MPD2    N1  477   2.827   3.085  14.165  0.5066  0.4191  0.5451
   30MPD2    H7  478   2.843   3.048  14.258 -1.7720  0.3589  0.9251
   31TMC2    C1  479   0.412   2.249  15.544 -0.5486 -0.4984 -0.8268
   31TMC2    C2  480   0.276   2.255  15.551 -0.8178  0.0636  0.7095
   31TMC2    C3  481   0.212   2.156  15.626 -0.5361 -0.2101  0.0291
   31TMC2    C4  482   0.481   2.137  15.589  0.2843 -1.0386 -0.6218
   31TMC2    C5  483   0.415   2.046  15.667 -0.6081 -0.0392  0.0561
   31TMC2    C6  484   0.281   2.056  15.685 -0.2912  0.2327  0.1546
   31TMC2     C  485   0.484   2.334  15.441 -0.2137  0.0457  0.7900
   31TMC2     O  486   0.427   2.439  15.407 -0.4121 -0.0276  0.2817
   31TMC2     H  487   0.234   2.348  15.515  0.4340  0.4160  0.1552
   31TMC2    H1  488   0.588   2.121  15.585  0.3200 -0.1277 -3.1245
   31TMC2    H2  489   0.226   1.989  15.749  1.2656 -0.1046  1.1538
   31TMC2    C7  490   0.485   1.944  15.755 -0.0944  0.1544 -1.2012
   31TMC2    C8  491   0.092   2.188  15.694 -0.3391  1.1771 -0.2544
   31TMC2    O1  492   0.412   1.858  15.799 -0.1289  0.2111  0.0174
   31TMC2    O2  493   0.067   2.146  15.803  0.2089  0.3982 -0.3874
   31TMC2    O5  494   4.728   2.242  15.611  0.3902  0.4360  0.6482
   31TMC2    H5  495   0.031   2.242  15.520 -1.1332 -0.3976  0.0348
   32MPD2     C  496   0.905   2.507  15.193 -0.1466  0.1480 -0.7939
   32MPD2    C1  497   0.774   2.560  15.203  0.2440  0.2855  0.0620
   32MPD2    C2  498   0.676   2.489  15.275  0.0056  0.2706  0.5321
   32MPD2    C3  499   0.700   2.369  15.336 -0.1012 -0.4223  0.8084
   32MPD2    C4  500   0.826   2.314  15.321 -0.7421  0.0322 -0.2885
   32MPD2    C5  501   0.925   2.386  15.258 -0.7386  0.2706  0.4030
   32MPD2     H  502   0.575   2.525  15.281  0.1378  0.8428 -0.7559
   32MPD2    H1  503   0.848   2.224  15.376  1.7530  0.1397 -1.0821
   32MPD2    H2  504   0.979   2.553  15.129  0.1657  0.0543 -0.4982
   32MPD2    H3  505   1.030   2.357  15.262 -0.2937  1.9517  1.0968
   32MPD2     N  506   0.611   2.293  15.416 -0.7288 -0.4594  0.1287
   32MPD2    H5  507   0.644   2.204  15.451  0.4794  0.0684  0.3173
   32MPD2    N1  508   0.747   2.683  15.137 -0.0241  0.1347  0.2555
   32MPD2    H7  509   0.818   2.719  15.074 -1.8001 -1.2387 -2.5621
   33TMC2    C1  510   1.158   0.377   9.448 -0.1456  0.1393 -1.0891
   33TMC2    C2  511   1.256   0.401   9.355 -0.4147 -0.5583 -0.4840
   33TMC2    C3  512   1.269   0.532   9.308 -0.2329 -0.1012  0.1202
   33TMC2    C4  513   1.052   0.465   9.469  0.2034  0.1164  0.2381
   33TMC2    C5  514   1.070   0.587   9.405  0.1414  0.1228 -0.1836
   33TMC2    C6  515   1.175   0.626   9.322  0.1225  0.6800 -0.8905
   33TMC2     C  516   1.189   0.276   9.544  0.8765  0.1294 -0.4035
   33TMC2     O  517   1.298   0.224   9.544  0.2357  0.1407 -0.3683
   33TMC2     H  518   1.335   0.328   9.337 -1.8299 -1.8182 -1.5649
   33TMC2    H1  519   0.976   0.448   9.545 -0.1692  0.9430  0.0496
   33TMC2    H2  520   1.196   0.728   9.291 -2.9420  1.5644 -0.0272
   33TMC2    C7  521   0.948   0.668   9.409  0.3695  0.5494  0.0444
   33TMC2    C8  522   1.378   0.557   9.221  0.1458 -0.3521 -0.8985
   33TMC2    O1  523   0.958   0.785   9.414  0.1333  0.9029 -0.3827
   33TMC2    O2  524   1.469   0.474   9.203  0.2164  0.0669  0.1393
   33TMC2    O5  525   1.326   0.627   9.122  0.0663 -0.5580 -0.0509
   33TMC2    H5  526   1.261   0.696   9.147  1.1391  1.2743 -2.2837
   34MPD2     C  527   1.017   0.038   9.958 -0.6162 -0.0126  0.4816
   34MPD2    C1  528   1.140   0.032   9.897  0.4628 -0.6405 -0.4283
   34MPD2    C2  529   1.160   0.090   9.771  0.0153 -0.4541 -0.1324
   34MPD2    C3  530   1.050   0.161   9.715 -0.6945 -0.8022 -0.0222
   34MPD2    C4  531   0.934   0.162   9.780 -0.2633 -0.5603  0.4361
   34MPD2    C5  532   0.912   0.096   9.895  0.1614 -0.1818 -0.4576
   34MPD2     H  533   1.257   0.088   9.722  1.0373 -1.1814  1.9330
   34MPD2    H1  534   0.853   0.213   9.728 -0.6335 -0.3745  1.1938
   34MPD2    H2  535   0.993   4.728  10.054 -4.0672 -2.0178 -1.2935
   34MPD2    H3  536   0.814   0.102   9.939  0.2616  1.3203 -0.4316
   34MPD2     N  537   1.065   0.238   9.602  0.0825 -0.2171 -0.2742
   34MPD2    H5  538   0.980   0.288   9.579 -0.4800 -1.7819 -1.5906
   34MPD2    N1  539   1.234   4.691   9.964  0.0642  0.2328  0.4000
   34MPD2    H7  540   1.209   4.660  10.057  1.2777 -1.5142  0.1500
   35TMC2    C1  541   1.759   1.700  11.547  0.3284  0.0293 -0.1953
   35TMC2    C2  542   1.816   1.789  11.460 -0.0070  0.1168  0.5754
   35TMC2    C3  543   1.805   1.769  11.324  0.0448  0.1881 -0.2701
   35TMC2    C4  544   1.673   1.602  11.491 -0.4520 -0.0462 -0.5773
   35TMC2    C5  545   1.654   1.589  11.356 -0.3718  0.0884  0.1915
   35TMC2    C6  546   1.724   1.666  11.265  0.0445  0.1036 -0.4211
   35TMC2     C  547   1.817   1.690  11.680 -0.2719 -0.0844  0.8395
   35TMC2     O  548   1.938   1.720  11.692  0.1054  0.0164 -0.2141
   35TMC2     H  549   1.878   1.868  11.500  1.0532 -0.3301 -0.1841
   35TMC2    H1  550   1.622   1.534  11.558 -2.3812  3.4302  1.4710
   35TMC2    H2  551   1.730   1.647  11.159  1.3836  2.1243 -0.6956
   35TMC2    C7  552   1.585   1.468  11.317  0.0062  0.2182  0.2234
   35TMC2    C8  553   1.887   1.837  11.233  0.5241  0.7966  1.3100
   35TMC2    O1  554   1.562   1.389  11.409  0.1921 -0.6237 -0.1141
   35TMC2    O2  555   1.915   1.802  11.119  0.4216  0.7978 -0.2318
   35TMC2    O5  556   1.885   1.963  11.276  0.1582 -0.5471 -0.5350
   35TMC2    H5  557   1.816   1.973  11.345 -0.0817  1.7735 -1.0940
   36MPD2     C  558   1.817   1.549  12.160  0.2855 -0.0176  0.3040
   36MPD2    C1  559   1.692   1.533  12.115  0.3541  0.2732 -0.0630
   36MPD2    C2  560   1.671   1.549  11.980  0.2918 -0.6524 -0.7992
   36MPD2    C3  561   1.777   1.590  11.901 -0.3480 -0.3470  0.4873
   36MPD2    C4  562   1.904   1.612  11.952  0.4944 -0.8923  0.5474
   36MPD2    C5  563   1.923   1.593  12.086 -1.1179  0.1664  0.4984
   36MPD2     H  564   1.573   1.546  11.935  0.3681  0.3363 -1.0426
   36MPD2    H1  565   1.993   1.644  11.898  0.1865  0.2164  0.7054
   36MPD2    H2  566   1.827   1.548  12.268  1.3937  0.2582  0.2056
   36MPD2    H3  567   2.020   1.606  12.134 -0.0947 -0.1218 -1.5044
   36MPD2     N  568   1.742   1.620  11.767  0.3636 -0.4984 -0.7032
   36MPD2    H5  569   1.643   1.616  11.745 -0.3506 -0.4696  2.4929
   36MPD2    N1  570   1.585   1.504  12.208 -0.1492 -0.6508 -0.0385
   36MPD2    H7  571   1.611   1.482  12.303  0.2683  0.5842  0.1355
   37TMC2    C1  572   3.477   2.494  11.498  0.6561 -0.0038 -0.1379
   37TMC2    C2  573   3.451   2.579  11.391  0.7297  0.3684  0.3629
   37TMC2    C3  574   3.534   2.689  11.384 -0.7892  0.8753  0.4052
   37TMC2    C4  575   3.584   2.509  11.582 -0.1212  0.1816  0.6442
   37TMC2    C5  576   3.673   2.609  11.552 -0.1275 -0.4140  0.2839
   37TMC2    C6  577   3.649   2.706  11.463  0.4186  0.2323  0.0442
   37TMC2     C  578   3.387   2.382  11.509 -0.1569  0.1668 -0.8486
   37TMC2     O  579   3.281   2.383  11.448  0.1582  0.0626  0.9013
   37TMC2     H  580   3.363   2.572  11.328  0.5846  1.6679  0.4322
   37TMC2    H1  581   3.603   2.438  11.661 -1.2802  0.3876  1.1118
   37TMC2    H2  582   3.716   2.791  11.455 -0.0403  0.3054 -3.2790
   37TMC2    C7  583   3.802   2.601  11.616 -1.0599 -0.1788 -0.2744
   37TMC2    C8  584   3.552   2.762  11.262 -0.1966  0.4422 -0.0368
   37TMC2    O1  585   3.803   2.533  11.720 -0.0662  0.4393  0.3084
   37TMC2    O2  586   3.657   2.741  11.204 -0.2291 -0.0265  0.2992
   37TMC2    O5  587   3.433   2.754  11.203 -0.2818  0.2136 -0.3489
   37TMC2    H5  588   3.378   2.794  11.273 -2.1834  0.9948 -2.2694
   38MPD2     C  589   3.277   1.901  11.657 -0.0027 -0.5422 -0.1435
   38MPD2    C1  590   3.410   1.923  11.689 -0.1558  0.7547 -0.8465
   38MPD2    C2  591   3.460   2.050  11.663 -0.1641 -0.2663  0.1517
   38MPD2    C3  592   3.382   2.149  11.605 -0.9445  0.3231  0.6282
   38MPD2    C4  593   3.253   2.127  11.564 -0.2897 -1.1078 -0.0241
   38MPD2    C5  594   3.202   1.994  11.589  1.2465 -0.4514 -0.4302
   38MPD2     H  595   3.566   2.067  11.678 -0.3847  0.6254  0.6930
   38MPD2    H1  596   3.191   2.198  11.511  0.9902 -1.1333 -1.5766
   38MPD2    H2  597   3.227   1.806  11.671 -1.4409  0.2362 -0.0138
   38MPD2    H3  598   3.104   1.968  11.549  0.8193  0.4139  0.0423
   38MPD2     N  599   3.439   2.277  11.581 -0.9280 -0.3720 -0.3017
   38MPD2    H5  600   3.535   2.279  11.615 -0.5502 -0.2810 -1.3708
   38MPD2    N1  601   3.482   1.840  11.772  0.3154 -0.7126  0.1501
   38MPD2    H7  602   3.552   1.890  11.825  1.0437 -0.0716 -1.4012
   39TMC2    C1  603   2.341   3.521   1.699  0.4021  0.0645 -0.6129
   39TMC2    C2  604   2.280   3.550   1.817  0.4784 -0.0685  0.2666
   39TMC2    C3  605   2.349   3.635   1.894 -0.3808 -0.2849 -0.0930
   39TMC2    C4  606   2.446   3.584   1.645  0.3961  0.2147  0.1584
   39TMC2    C5  607   2.511   3.663   1.740 -0.4773 -0.4960  0.1712
   39TMC2    C6  608   2.460   3.703   1.855  0.0076  0.1230 -0.6066
   39TMC2     C  609   2.258   3.441   1.610  0.6660 -0.5136  0.2178
   39TMC2     O  610   2.141   3.420   1.639  0.1852 -0.3334  0.1964
   39TMC2     H  611   2.197   3.490   1.853  1.1347 -1.5247 -0.6422
   39TMC2    H1  612   2.486   3.569   1.546 -0.6118  1.5091 -0.4449
   39TMC2    H2  613   2.534   3.748   1.920 -1.5549 -1.0579  1.9938
   39TMC2    C7  614   2.637   3.710   1.695 -0.3818  0.1266  0.2152
   39TMC2    C8  615   2.352   3.610   2.041  0.4912 -0.4215  0.6933
   39TMC2    O1  616   2.701   3.643   1.616 -0.7446 -0.9566  0.5877
   39TMC2    O2  617   2.454   3.608   2.106 -0.0574  0.1925  0.2590
   39TMC2    O5  618   2.236   3.554   2.077  0.0812  0.4947  0.0272
   39TMC2    H5  619   2.167   3.569   2.009  0.7444 -0.9953 -0.9782
   40MPD2     C  620   2.349   3.228   1.317 -0.8074 -0.2689 -0.0278
   40MPD2    C1  621   2.262   3.296   1.402 -0.3583 -0.8559 -1.0526
   40MPD2    C2  622   2.127   3.265   1.387  0.1275  0.4353  0.3591
   40MPD2    C3  623   2.090   3.171   1.285  0.6364  0.5320 -0.2230
   40MPD2    C4  624   2.181   3.105   1.203  0.0524  0.1481  0.3855
   40MPD2    C5  625   2.315   3.129   1.230  0.1716  0.1929  0.1588
   40MPD2     H  626   2.056   3.326   1.442 -2.4065 -1.4743 -0.7859
   40MPD2    H1  627   2.142   3.024   1.143  1.7252 -1.2005  1.1158
   40MPD2    H2  628   2.457   3.241   1.313 -0.9187  1.3013  1.7674
   40MPD2    H3  629   2.390   3.092   1.161 -1.2015 -2.1079 -0.0730
   40MPD2     N  630   1.951   3.131   1.273 -0.2564  0.1317 -0.3085
   40MPD2    H5  631   1.937   3.046   1.220 -0.4297 -1.5992  2.4551
   40MPD2    N1  632   2.320   3.382   1.495  0.3467  0.1098 -0.5332
   40MPD2    H7  633   2.418   3.402   1.478  0.6788 -0.5049  0.6603
   41TMC2    C1  634   1.414   2.220  13.559 -0.2725 -0.0404  0.5549
   41TMC2    C2  635   1.502   2.217  13.658  0.0743  0.2107 -0.0521
   41TMC2    C3  636   1.630   2.219  13.625 -0.5687 -0.3788  0.0811
   41TMC2    C4  637   1.447   2.230  13.427 -0.4652 -0.1076  0.2884
   41TMC2    C5  638   1.580   2.242  13.399 -0.4021 -0.4310  0.0636
   41TMC2    C6  639   1.673   2.242  13.502  0.1851 -0.9642  0.4235
   41TMC2     C  640   1.269   2.217  13.599  0.5761  0.1166  0.1636
   41TMC2     O  641   1.186   2.254  13.520 -0.2945  0.0947  0.1423
   41TMC2     H  642   1.481   2.216  13.765 -0.6428  2.7692 -0.1673
   41TMC2    H1  643   1.379   2.245  13.345  1.2333 -1.3078 -1.3394
   41TMC2    H2  644   1.778   2.245  13.477  0.0853  2.9066  0.3302
   41TMC2    C7  645   1.632   2.255  13.261 -0.0089  1.7423 -0.0010
   41TMC2    C8  646   1.726   2.213  13.733 -0.0501  0.1543  0.3046
   41TMC2    O1  647   1.753   2.253  13.253  0.3578  0.3699 -0.8923
   41TMC2    O2  648   1.691   2.222  13.850  0.2305  1.2190  0.4166
   41TMC2    O5  649   1.837   2.146  13.685  0.0842  0.3396  0.2706
   41TMC2    H5  650   1.871   2.155  13.594 -1.4378  1.9363 -0.1274
   42MPD2     C  651   1.032   2.280  13.770 -0.5266  0.0380 -0.5880
   42MPD2    C1  652   1.146   2.209  13.809  0.0456  0.1567 -0.3608
   42MPD2    C2  653   1.159   2.176  13.941  0.5571 -0.5986  0.4517
   42MPD2    C3  654   1.051   2.192  14.026 -0.1615  0.1900 -0.6544
   42MPD2    C4  655   0.938   2.261  13.987  0.9794 -0.6048 -0.0410
   42MPD2    C5  656   0.936   2.307  13.862  0.0058 -0.0000 -0.7233
   42MPD2     H  657   1.254   2.148  13.985  0.4777 -0.4497  0.7206
   42MPD2    H1  658   0.860   2.280  14.060 -0.0328  0.3419 -1.3701
   42MPD2    H2  659   1.014   2.311  13.668 -1.6046  0.4066 -0.2954
   42MPD2    H3  660   0.837   2.344  13.840 -1.3232 -2.7145  0.6702
   42MPD2     N  661   1.055   2.157  14.162  0.1704 -0.5915 -0.4959
   42MPD2    H5  662   0.968   2.178  14.210  1.2682 -0.0752  1.3078
   42MPD2    N1  663   1.263   2.193  13.730 -0.2624  0.3238  0.4073
   42MPD2    H7  664   1.330   2.132  13.775 -0.9568 -0.8570 -0.1601
   43TMC2    C1  665   2.672   0.204   0.714  0.1966 -0.9119  0.2960
   43TMC2    C2  666   2.552   0.165   0.668 -0.0338 -0.1863 -0.0940
   43TMC2    C3  667   2.437   0.201   0.742 -0.3322 -0.1168  0.1081
   43TMC2    C4  668   2.686   0.268   0.832 -0.3297 -0.3040  0.6244
   43TMC2    C5  669   2.574   0.313   0.893  0.1829  0.2352 -1.0078
   43TMC2    C6  670   2.446   0.278   0.854  0.3013 -0.2004 -0.3738
   43TMC2     C  671   2.797   0.160   0.657 -0.4501  0.8700  0.3489
   43TMC2     O  672   2.871   0.087   0.721 -0.3156  0.6794 -0.0408
   43TMC2     H  673   2.553   0.111   0.574 -0.7518  2.4637 -1.6240
   43TMC2    H1  674   2.785   0.276   0.874 -1.0035 -1.0511  2.3796
   43TMC2    H2  675   2.365   0.307   0.920  0.5194  1.6745 -0.9320
   43TMC2    C7  676   2.599   0.418   0.986  0.4085 -0.2553  0.4446
   43TMC2    C8  677   2.308   0.177   0.679  0.6249 -0.4735  0.7999
   43TMC2    O1  678   2.715   0.460   0.978 -0.5063 -0.2074  0.0880
   43TMC2    O2  679   2.209   0.199   0.747  0.2611 -0.5827 -0.1936
   43TMC2    O5  680   2.326   0.249   0.567  0.2163 -0.2240 -0.1919
   43TMC2    H5  681   2.413   0.241   0.522  0.0609 -2.8956 -0.0165
   44MPD2     C  682   3.107   0.087   0.242 -0.2321  0.6753 -0.3781
   44MPD2    C1  683   3.095   0.007   0.351  0.2001 -0.6990 -0.7509
   44MPD2    C2  684   3.003   0.054   0.450  0.4693  0.3861  0.1404
   44MPD2    C3  685   2.926   0.163   0.439 -0.4948  0.5121 -0.4297
   44MPD2    C4  686   2.945   0.240   0.322 -1.0423 -0.8609 -0.7341
   44MPD2    C5  687   3.038   0.203   0.226  0.0301  0.5791  0.1054
   44MPD2     H  688   2.980   4.717   0.529  1.2574 -0.7854 -0.6623
   44MPD2    H1  689   2.899   0.335   0.298  1.4680  0.4153 -0.4538
   44MPD2    H2  690   3.177   0.067   0.161 -0.9908 -2.5347 -0.2627
   44MPD2    H3  691   3.055   0.266   0.140 -2.3870 -0.9052 -1.4751
   44MPD2     N  692   2.823   0.208   0.528 -0.0344 -0.3560  0.3065
   44MPD2    H5  693   2.769   0.288   0.497  0.0088 -0.3453  0.2583
   44MPD2    N1  694   3.168   4.626   0.386  0.3566 -0.2286  0.4255
   44MPD2    H7  695   3.159   4.594   0.482 -0.4242 -0.7762  0.1702
   45TMC2    C1  696   3.681   1.596  10.252  0.2939  0.4422  0.3121
   45TMC2    C2  697   3.703   1.515  10.359 -0.7206 -0.3443 -0.3542
   45TMC2    C3  698   3.706   1.567  10.488  0.5453  0.0714 -0.5066
   45TMC2    C4  699   3.683   1.736  10.265  0.6545 -0.0809 -0.1458
   45TMC2    C5  700   3.688   1.781  10.394 -0.2798  0.2379  0.1930
   45TMC2    C6  701   3.689   1.702  10.509  0.1764 -0.0898 -0.2594
   45TMC2     C  702   3.649   1.544  10.121  0.1624 -0.0511 -0.4862
   45TMC2     O  703   3.699   1.438  10.090 -0.1307 -0.5665  0.1662
   45TMC2     H  704   3.706   1.407  10.346  1.4822 -0.3379  0.0961
   45TMC2    H1  705   3.678   1.805  10.182 -1.2673 -0.2579 -0.1882
   45TMC2    H2  706   3.681   1.744  10.608  0.3307  0.5109 -0.5018
   45TMC2    C7  707   3.676   1.922  10.415  0.3264 -0.3829 -0.2900
   45TMC2    C8  708   3.705   1.473  10.593  0.4083  0.1400  0.1608
   45TMC2    O1  709   3.644   1.954  10.530 -0.6120  0.0838  0.3432
   45TMC2    O2  710   3.689   1.352  10.569 -0.0658  0.4469 -0.0319
   45TMC2    O5  711   3.771   1.509  10.704  0.0175  0.5925 -0.2129
   45TMC2    H5  712   3.785   1.605  10.721 -0.2099  0.9204 -1.8465
   46MPD2     C  713   3.476   1.472   9.882  0.2947 -0.4266 -0.6217
   46MPD2    C1  714   3.469   1.589   9.949 -0.0263 -0.4739  0.0661
   46MPD2    C2  715   3.377   1.683   9.916  0.4287  0.0879 -0.3845
   46MPD2    C3  716   3.297   1.671   9.797 -0.8188  0.4799 -0.1069
   46MPD2    C4  717   3.318   1.562   9.722  0.0353 -0.1405  0.8101
   46MPD2    C5  718   3.401   1.461   9.766  0.2209 -0.7916  0.4578
   46MPD2     H  719   3.381   1.780   9.964 -1.7093  0.4094 -0.8706
   46MPD2    H1  720   3.281   1.558   9.621  1.0571  2.0128  0.3525
   46MPD2    H2  721   3.550   1.396   9.905 -1.6134 -1.8131  0.9337
   46MPD2    H3  722   3.433   1.383   9.698  2.5371  0.7829 -0.2702
   46MPD2     N  723   3.204   1.771   9.765  0.3380 -0.1185  0.0891
   46MPD2    H5  724   3.196   1.853   9.824  2.1049 -0.4524  0.7823
   46MPD2    N1  725   3.542   1.615  10.068 -0.0044  0.2048  0.6526
   46MPD2    H7  726   3.508   1.700  10.112  0.4478 -0.5257  2.4101
   47TMC2    C1  727   0.383   2.939   9.234  0.6130 -0.2166 -0.5324
   47TMC2    C2  728   0.336   2.816   9.198  0.0178 -0.3825  0.0328
   47TMC2    C3  729   0.200   2.810   9.193  0.2367 -0.1875  0.1917
   47TMC2    C4  730   0.302   3.047   9.267  0.1179  0.5410 -0.1683
   47TMC2    C5  731   0.165   3.034   9.264 -0.0978 -0.1549 -0.6231
   47TMC2    C6  732   0.113   2.913   9.229 -0.4105 -0.4399  0.5666
   47TMC2     C  733   0.517   2.944   9.300 -1.2780  0.5259  0.5664
   47TMC2     O  734   0.576   3.049   9.298 -0.7251  0.0530 -0.2425
   47TMC2     H  735   0.387   2.724   9.174  1.0816 -0.2928  1.8915
   47TMC2    H1  736   0.352   3.140   9.291 -3.3986  1.3088  4.1009
   47TMC2    H2  737   0.008   2.893   9.246  0.1438 -1.8712  2.2396
   47TMC2    C7  738   0.083   3.098   9.372  0.0794 -0.4493  0.5182
   47TMC2    C8  739   0.147   2.678   9.187  0.2966 -0.1047 -0.3742
   47TMC2    O1  740   4.698   3.062   9.383  0.1102  0.0175 -0.4029
   47TMC2    O2  741   0.207   2.589   9.244  0.7288  0.4239 -0.2261
   47TMC2    O5  742   0.042   2.671   9.109  0.1163  0.0446  0.1612
   47TMC2    H5  743   0.026   2.757   9.064 -1.3230 -1.0817 -1.4698
   48MPD2     C  744   0.730   2.901   9.490  0.4813 -0.0399  0.8150
   48MPD2    C1  745   0.667   2.797   9.424 -0.3235 -0.3100 -0.8020
   48MPD2    C2  746   0.704   2.663   9.435  0.5904  0.0640  0.5953
   48MPD2    C3  747   0.817   2.642   9.516 -0.5959 -0.3156 -0.4517
   48MPD2    C4  748   0.877   2.751   9.586 -0.5909  0.6001 -0.0152
   48MPD2    C5  749   0.823   2.875   9.586  0.1513  0.1808 -0.2002
   48MPD2     H  750   0.648   2.584   9.388 -1.4880  0.9315  1.5783
   48MPD2    H1  751   0.976   2.736   9.627 -0.8960 -2.8514 -0.4982
   48MPD2    H2  752   0.712   3.007   9.475  0.5841 -0.3204 -1.2846
   48MPD2    H3  753   0.873   2.958   9.634 -0.6019  0.4665  0.0962
   48MPD2     N  754   0.866   2.511   9.514 -0.4533 -0.2057 -0.7231
   48MPD2    H5  755   0.814   2.447   9.455  0.8031 -1.4380 -0.4892
   48MPD2    N1  756   0.556   2.819   9.342 -0.6080 -0.5554  0.5366
   48MPD2    H7  757   0.486   2.745   9.335  0.4136 -1.4286 -0.6671
   49TMC2    C1  758   3.474   3.872  10.696  0.6682  0.2774 -0.3896
   49TMC2    C2  759   3.387   3.783  10.640  0.0847  0.9140  0.6296
   49TMC2    C3  760   3.323   3.691  10.730 -0.2198 -0.2002 -0.0268
   49TMC2    C4  761   3.493   3.885  10.827 -0.2326  0.0407  0.2171
   49TMC2    C5  762   3.422   3.803  10.915  0.1611 -0.0363 -0.4594
   49TMC2    C6  763   3.338   3.707  10.867  0.0695 -0.6911  0.7227
   49TMC2     C  764   3.542   3.962  10.601  0.7702  0.6281  0.1503
   49TMC2     O  765   3.536   3.922  10.488  0.4266 -0.2741  0.1408
   49TMC2     H  766   3.386   3.768  10.532  0.2772 -0.4996  0.8310
   49TMC2    H1  767   3.575   3.945  10.865  1.4605 -0.8118 -2.0618
   49TMC2    H2  768   3.283   3.642  10.934 -1.3565 -2.3921 -2.1058
   49TMC2    C7  769   3.479   3.772  11.047 -0.4819  0.7890  0.4360
   49TMC2    C8  770   3.210   3.609  10.690 -0.5603 -0.0118 -0.2727
   49TMC2    O1  771   3.439   3.669  11.101 -0.3816 -0.3034  0.1795
   49TMC2    O2  772   3.123   3.581  10.771 -0.5623 -0.3628  0.0823
   49TMC2    O5  773   3.186   3.628  10.559  0.2448 -0.1593 -0.3239
   49TMC2    H5  774   3.261   3.604  10.500  1.0445  2.7267 -0.4580
   50MPD2     C  775   3.636   4.190  10.448 -0.1322  0.0399  0.0009
   50MPD2    C1  776   3.646   4.178  10.586 -0.5494 -0.0420 -0.5285
   50MPD2    C2  777   3.710   4.277  10.650  0.4533 -0.3032 -0.3672
   50MPD2    C3  778   3.788   4.374  10.582  0.0363 -0.0937  0.0242
   50MPD2    C4  779   3.792   4.373  10.444  0.6590  0.4271  0.2608
   50MPD2    C5  780   3.711   4.279  10.381 -0.9289 -0.5159  0.7264
   50MPD2     H  781   3.727   4.266  10.757  0.9447  0.4634 -0.3653
   50MPD2    H1  782   3.858   4.433  10.382  1.2865 -0.9504 -0.4075
   50MPD2    H2  783   3.593   4.117  10.381  1.4134  0.7486 -1.7868
   50MPD2    H3  784   3.714   4.272  10.273 -0.0186 -0.4355  0.7391
   50MPD2     N  785   3.852   4.480  10.644  0.1119 -0.2757  0.1113
   50MPD2    H5  786   3.912   4.543  10.591  0.6485 -0.4521  0.5124
   50MPD2    N1  787   3.593   4.070  10.657  1.0011 -0.1219 -0.5709
   50MPD2    H7  788   3.593   4.079  10.758  1.0335 -0.0733 -0.5752
   51TMC2    C1  789   3.677   4.131   0.826 -0.4277 -0.3240 -0.6675
   51TMC2    C2  790   3.604   4.224   0.760  0.7462  0.2777  0.0522
   51TMC2    C3  791   3.663   4.265   0.640  0.3155 -0.2261  0.8840
   51TMC2    C4  792   3.799   4.082   0.792 -0.2650  0.4485 -0.2095
   51TMC2    C5  793   3.848   4.123   0.670  0.1067 -0.0617  0.7660
   51TMC2    C6  794   3.786   4.224   0.597  0.4481 -0.5793  0.0369
   51TMC2     C  795   3.612   4.060   0.934 -0.2558 -1.1095  0.1751
   51TMC2     O  796   3.668   3.954   0.957 -0.6267 -0.5097 -0.1939
   51TMC2     H  797   3.500   4.240   0.785  0.6296 -1.6568  0.8213
   51TMC2    H1  798   3.857   4.015   0.854 -0.8921 -0.9180 -1.0797
   51TMC2    H2  799   3.834   4.266   0.510 -0.3813  0.8764  0.2779
   51TMC2    C7  800   3.961   4.041   0.617 -0.4318  0.1616 -0.5854
   51TMC2    C8  801   3.628   4.397   0.584 -0.3926  0.6223  0.0786
   51TMC2    O1  802   4.011   3.959   0.692 -0.1908  0.0467 -0.5051
   51TMC2    O2  803   3.664   4.441   0.476 -0.0817  0.5363  0.4550
   51TMC2    O5  804   3.521   4.444   0.655 -0.9260 -0.6822 -0.0215
   51TMC2    H5  805   3.509   4.405   0.744  3.4242 -3.1280 -0.5182
   52MPD2     C  806   3.337   3.968   1.352 -0.1249 -0.2516  0.5215
   52MPD2    C1  807   3.387   3.876   1.260  0.8662 -0.1732 -0.8448
   52MPD2    C2  808   3.448   3.929   1.147 -0.4083  0.0819  0.6440
   52MPD2    C3  809   3.458   4.067   1.116 -0.3196 -0.0421 -0.6320
   52MPD2    C4  810   3.386   4.148   1.210 -0.8672  0.4784  1.0715
   52MPD2    C5  811   3.330   4.102   1.327 -0.0290 -0.1630 -0.1816
   52MPD2     H  812   3.471   3.863   1.063  3.8795  2.1302  0.1731
   52MPD2    H1  813   3.374   4.253   1.186  2.2482  0.7432  0.6455
   52MPD2    H2  814   3.271   3.940   1.433 -2.1192  3.6776  0.2777
   52MPD2    H3  815   3.269   4.166   1.389 -0.1303 -0.0594 -0.3895
   52MPD2     N  816   3.517   4.122   1.005 -0.0191 -0.1830  0.1960
   52MPD2    H5  817   3.504   4.221   0.985  0.6510 -0.3058 -0.8595
   52MPD2    N1  818   3.382   3.738   1.275 -0.1099  0.4698 -0.1727
   52MPD2    H7  819   3.405   3.675   1.200 -1.2159 -1.3039  0.9882
   53TMC2    C1  820   4.376   2.242  11.895  0.1283  0.9305 -0.3335
   53TMC2    C2  821   4.478   2.147  11.888  0.2404 -0.1217 -0.1927
   53TMC2    C3  822   4.513   2.079  12.001 -0.2519  0.3987  0.3890
   53TMC2    C4  823   4.304   2.265  12.008 -0.5010 -0.3105 -0.1818
   53TMC2    C5  824   4.350   2.204  12.120  0.0503 -0.3785 -0.0334
   53TMC2    C6  825   4.453   2.106  12.121 -0.3162  0.0281 -0.6435
   53TMC2     C  826   4.373   2.330  11.778  0.0519 -0.0047 -0.4020
   53TMC2     O  827   4.468   2.319  11.701 -0.4593  0.8147  0.1882
   53TMC2     H  828   4.544   2.134  11.803  1.1451  4.1286 -0.1068
   53TMC2    H1  829   4.220   2.332  12.004 -1.0887 -1.0328  0.1551
   53TMC2    H2  830   4.474   2.041  12.205  1.9925 -1.4321 -2.3266
   53TMC2    C7  831   4.269   2.232  12.240 -0.4788 -0.9101 -0.5878
   53TMC2    C8  832   4.627   1.988  11.997  0.0686  0.4667  0.3832
   53TMC2    O1  833   4.157   2.272  12.221 -0.5077  0.3313  0.5822
   53TMC2    O2  834   4.682   1.953  11.895  0.5980  0.1277  0.2465
   53TMC2    O5  835   4.686   2.003  12.118  0.1472  0.4601 -0.3630
   53TMC2    H5  836   4.644   2.075  12.168 -1.0806 -0.1588 -0.5062
   54MPD2     C  837   4.302   2.541  11.577 -0.3729 -0.0401  0.5688
   54MPD2    C1  838   4.215   2.494  11.672 -0.3720  0.7226 -0.2007
   54MPD2    C2  839   4.079   2.536  11.665  0.4605 -0.8722  0.2787
   54MPD2    C3  840   4.039   2.624  11.565  0.4460  1.1450 -0.5868
   54MPD2    C4  841   4.124   2.676  11.473 -0.4188  0.1746 -0.5467
   54MPD2    C5  842   4.251   2.629  11.478  0.9521 -0.2613 -0.8700
   54MPD2     H  843   4.009   2.477  11.722  0.8388 -0.3594  1.2823
   54MPD2    H1  844   4.101   2.752  11.399 -0.5434 -0.5077 -1.2077
   54MPD2    H2  845   4.406   2.511  11.579 -0.5147 -0.6029 -0.7271
   54MPD2    H3  846   4.319   2.680  11.411  1.0516  1.7372  0.7601
   54MPD2     N  847   3.906   2.655  11.548  0.0862  0.3232 -0.1811
   54MPD2    H5  848   3.888   2.719  11.472 -1.7851 -1.9876 -1.6492
   54MPD2    N1  849   4.254   2.393  11.765  0.0213 -0.4836  0.2557
   54MPD2    H7  850   4.180   2.367  11.830 -0.8995  0.8803 -0.2208
   55TMC2    C1  851   1.070   4.375   0.006  0.4247 -0.9213 -0.3193
   55TMC2    C2  852   1.146   4.396  17.628 -0.1000  0.1851 -0.1618
   55TMC2    C3  853   1.189   4.292  17.554 -0.0363 -0.0899  0.1209
   55TMC2    C4  854   1.046   4.247   0.054  0.3937 -0.2368 -0.2940
   55TMC2    C5  855   1.094   4.146  17.708  0.9405  0.5872  0.2210
   55TMC2    C6  856   1.165   4.164  17.588  0.1594  0.0023  0.1159
   55TMC2     C  857   1.013   4.489   0.079 -0.2491  0.3660 -0.5470
   55TMC2     O  858   0.949   4.470   0.183 -0.6284 -0.0548  0.2141
   55TMC2     H  859   1.173   4.494  17.591  1.4728 -0.4272 -0.6427
   55TMC2    H1  860   0.990   4.236   0.146 -0.5893  0.6229 -0.7808
   55TMC2    H2  861   1.195   4.087  17.518  1.5551 -1.0887  1.8702
   55TMC2    C7  862   1.098   4.011   0.026  0.2002 -0.1328  0.3293
   55TMC2    C8  863   1.282   4.307  17.443  0.5052  0.1597  0.2845
   55TMC2    O1  864   1.155   3.933  17.681 -0.1067 -0.6468  0.1125
   55TMC2    O2  865   1.372   4.225  17.433 -0.5082 -0.4775 -0.2959
   55TMC2    O5  866   1.245   4.406  17.359 -0.1744 -0.5091  0.2474
   55TMC2    H5  867   1.154   4.442  17.366 -0.6648 -2.0566  1.9552
   56MPD2     C  868   0.976   0.105  17.718 -0.5564  0.3496  0.0962
   56MPD2    C1  869   0.944   4.717   0.045  0.5983  0.4167  0.9702
   56MPD2    C2  870   0.832   4.719   0.127 -0.2052  0.0688  0.1718
   56MPD2    C3  871   0.748   0.097   0.133  0.4475  0.1549  0.6653
   56MPD2    C4  872   0.775   0.214   0.060  0.5550 -0.2150 -0.5018
   56MPD2    C5  873   0.891   0.210  17.717 -0.3086  0.7135 -0.5114
   56MPD2     H  874   0.801   4.630   0.180  2.2800 -1.9688 -1.8021
   56MPD2    H1  875   0.717   0.304   0.074  0.8947 -0.0614 -0.0797
   56MPD2    H2  876   1.057   0.116  17.647  0.0273 -1.9125  0.4076
   56MPD2    H3  877   0.929   0.297  17.664  0.9151  1.0390  0.8957
   56MPD2     N  878   0.632   0.081   0.215  0.9329  0.4769  0.2471
   56MPD2    H5  879   0.641   0.006   0.282 -2.7827  1.3625  1.7201
   56MPD2    N1  880   1.034   4.612   0.024  1.0065  0.0656  0.5324
   56MPD2    H7  881   1.110   4.635  17.692 -0.1533 -0.9146 -1.1839
   57TMC2    C1  882   0.346   1.167  13.518 -0.1040  0.2993  0.2448
   57TMC2    C2  883   0.326   1.301  13.509 -0.2503 -0.4296  0.1995
   57TMC2    C3  884   0.440   1.382  13.517 -0.1443  0.1946  0.3028
   57TMC2    C4  885   0.472   1.108  13.514 -0.6075  0.2670 -0.3308
   57TMC2    C5  886   0.577   1.198  13.499 -0.5137 -0.2616  0.3105
   57TMC2    C6  887   0.562   1.330  13.519  0.6295 -0.0221 -0.3068
   57TMC2     C  888   0.235   1.090  13.562 -0.0174  0.4000 -0.6979
   57TMC2     O  889   0.146   1.146  13.622  0.0592 -0.3608 -0.5107
   57TMC2     H  890   0.227   1.345  13.507 -0.1654 -0.2828 -0.9167
   57TMC2    H1  891   0.483   1.001  13.517 -1.0824  0.1954 -1.2417
   57TMC2    H2  892   0.648   1.395  13.505 -1.1562  2.3367 -0.2563
   57TMC2    C7  893   0.713   1.152  13.478  0.2691 -0.3970 -0.4966
   57TMC2    C8  894   0.423   1.518  13.509 -0.3177 -0.6437 -0.3276
   57TMC2    O1  895   0.800   1.233  13.501 -0.1398  0.2681  0.1945
   57TMC2    O2  896   0.317   1.576  13.532  0.3829  0.1153  0.1268
   57TMC2    O5  897   0.498   1.546  13.397  0.4362  0.3827  0.1385
   57TMC2    H5  898   0.595   1.535  13.404  0.3173  0.2475  1.6176
   58MPD2     C  899   4.695   0.659  13.613 -0.4078 -0.4213  0.2841
   58MPD2    C1  900   4.680   0.777  13.674 -0.3610 -0.5295  0.2783
   58MPD2    C2  901   0.038   0.879  13.649  0.0254 -1.1600  0.0267
   58MPD2    C3  902   0.146   0.860  13.564 -0.1667  0.1097  0.4231
   58MPD2    C4  903   0.156   0.738  13.503  0.3486  0.3660 -0.7045
   58MPD2    C5  904   0.066   0.639  13.525  0.1679  0.3605 -0.3723
   58MPD2     H  905   0.024   0.967  13.709  0.6460 -0.0283 -1.4833
   58MPD2    H1  906   0.231   0.718  13.427  0.4671 -0.7541 -0.2938
   58MPD2    H2  907   4.622   0.579  13.617  0.7096 -1.3736  1.5183
   58MPD2    H3  908   0.073   0.540  13.480 -0.2128  0.9026 -1.6181
   58MPD2     N  909   0.240   0.956  13.523  0.1958 -0.5547  0.2099
   58MPD2    H5  910   0.315   0.931  13.460  0.9745 -0.9461  1.2887
   58MPD2    N1  911   4.580   0.801  13.781 -0.2416  0.2749 -0.3462
   58MPD2    H7  912   4.580   0.898  13.812  1.6161  0.4681 -0.9470
   59TMC2    C1  913   1.970   0.758  13.126  0.3482 -0.7462 -0.5865
   59TMC2    C2  914   2.053   0.843  13.061 -0.2105  0.3891  0.3715
   59TMC2    C3  915   2.000   0.901  12.949  0.3066  0.0726 -0.1820
   59TMC2    C4  916   1.845   0.727  13.085  0.3807  0.2754  0.2400
   59TMC2    C5  917   1.794   0.792  12.977 -0.3555  0.4987 -0.2543
   59TMC2    C6  918   1.868   0.882  12.906  0.0949 -0.3799 -0.0187
   59TMC2     C  919   2.003   0.696  13.254  0.1199  0.5634 -0.2611
   59TMC2     O  920   1.928   0.611  13.293  0.0701  0.2095 -0.1115
   59TMC2     H  921   2.145   0.879  13.104  0.0881  0.1021 -0.0284
   59TMC2    H1  922   1.781   0.662  13.143  0.8892 -0.5658 -0.1433
   59TMC2    H2  923   1.829   0.953  12.833 -2.9042 -0.5422  1.4141
   59TMC2    C7  924   1.648   0.787  12.966  0.8420 -0.2574 -0.2941
   59TMC2    C8  925   2.073   1.004  12.884 -0.6577  0.0299 -0.6488
   59TMC2    O1  926   1.599   0.718  13.052 -0.4172  0.2257 -0.4053
   59TMC2    O2  927   2.017   1.091  12.815 -0.3844 -0.2473  0.0285
   59TMC2    O5  928   2.208   0.994  12.916  0.1060 -0.3653 -0.7022
   59TMC2    H5  929   2.218   0.903  12.950  0.9683  0.0901  0.2842
   60MPD2     C  930   2.108   0.618  13.513 -1.4744 -0.8092  0.0697
   60MPD2    C1  931   2.180   0.700  13.426 -0.4053 -0.6602  0.1355
   60MPD2    C2  932   2.312   0.737  13.454  0.4260  0.2125 -0.5083
   60MPD2    C3  933   2.360   0.710  13.580  0.3068  0.3479 -0.0804
   60MPD2    C4  934   2.287   0.635  13.667  0.2495  0.1286 -0.1606
   60MPD2    C5  935   2.167   0.587  13.631  0.1335  1.2650  0.9205
   60MPD2     H  936   2.375   0.793  13.385  0.6675  0.6242  0.0454
   60MPD2    H1  937   2.333   0.602  13.760  1.1798  0.7385 -0.4002
   60MPD2    H2  938   2.008   0.578  13.502  0.2239 -5.4325  1.6503
   60MPD2    H3  939   2.113   0.515  13.693  0.6082 -0.0715 -0.1996
   60MPD2     N  940   2.491   0.745  13.624  0.2413 -0.4641 -0.1527
   60MPD2    H5  941   2.522   0.718  13.717  0.7059 -0.0118 -0.1750
   60MPD2    N1  942   2.123   0.736  13.304  0.0597  0.0547  0.6344
   60MPD2    H7  943   2.179   0.803  13.253 -0.3050 -1.0784 -1.2670
   61TMC2    C1  944   2.077   1.874  15.669  0.1108 -0.0202  0.4735
   61TMC2    C2  945   2.089   1.797  15.790 -0.2109 -0.8477 -0.4958
   61TMC2    C3  946   2.072   1.863  15.913 -0.0876 -0.0899  0.3450
   61TMC2    C4  947   2.084   2.011  15.676 -0.2629  0.1130  0.3269
   61TMC2    C5  948   2.062   2.069  15.795 -0.8003 -0.7647  0.6582
   61TMC2    C6  949   2.056   1.996  15.920  0.3669 -0.2746 -0.0938
   61TMC2     C  950   2.096   1.810  15.538  0.0122  0.5489 -0.3060
   61TMC2     O  951   2.142   1.695  15.542  0.0172 -0.0287  0.5565
   61TMC2     H  952   2.101   1.689  15.786 -1.3249 -0.9508 -1.2373
   61TMC2    H1  953   2.089   2.070  15.586  0.7163 -1.4277 -0.6183
   61TMC2    H2  954   2.028   2.042  16.014 -1.2167 -0.6872 -0.3634
   61TMC2    C7  955   2.059   2.214  15.788  0.4439 -0.4106 -0.4254
   61TMC2    C8  956   2.094   1.784  16.037 -0.0459 -0.7561  0.5584
   61TMC2    O1  957   2.043   2.268  15.679 -0.0989 -0.1468  0.0571
   61TMC2    O2  958   2.089   1.837  16.150  0.1670 -0.2152  0.2287
   61TMC2    O5  959   2.037   1.664  16.020  0.0081 -0.2476  0.4257
   61TMC2    H5  960   1.997   1.649  15.932  2.5233 -2.2780 -0.3607
   62MPD2     C  961   2.233   1.778  15.268 -0.1903 -0.2801 -0.0662
   62MPD2    C1  962   2.146   1.879  15.302 -0.5614  0.1526 -0.1839
   62MPD2    C2  963   2.114   1.966  15.199  0.2716  0.2294 -0.0762
   62MPD2    C3  964   2.163   1.952  15.071  0.4317  0.3935  0.4960
   62MPD2    C4  965   2.240   1.850  15.039  0.0137  0.1135 -0.0478
   62MPD2    C5  966   2.278   1.761  15.140 -0.2569 -0.0813  0.0879
   62MPD2     H  967   2.041   2.045  15.216  0.9104  1.6559 -3.9718
   62MPD2    H1  968   2.264   1.822  14.937 -0.3022  0.3156 -0.1778
   62MPD2    H2  969   2.279   1.714  15.342 -0.6075  0.7776  1.1004
   62MPD2    H3  970   2.332   1.668  15.125  0.1639  0.0402  0.8585
   62MPD2     N  971   2.141   2.060  14.982 -0.6188 -0.4718 -0.0672
   62MPD2    H5  972   2.090   2.141  15.016  1.0216  1.5409 -2.3752
   62MPD2    N1  973   2.089   1.892  15.428  0.3898 -0.9039  0.4032
   62MPD2    H7  974   2.027   1.973  15.434  2.1486  0.4781 -0.1850
   63TMC2    C1  975   0.818   1.720  10.900  0.2620 -0.1631  0.0344
   63TMC2    C2  976   0.855   1.737  11.032 -0.5545 -0.2586 -0.3617
   63TMC2    C3  977   0.913   1.858  11.066 -0.3430 -0.2661  0.4308
   63TMC2    C4  978   0.843   1.818  10.808  0.9871 -0.1116  0.3973
   63TMC2    C5  979   0.915   1.927  10.852  0.3831  1.0985 -0.4140
   63TMC2    C6  980   0.950   1.953  10.981  0.5664  0.0879 -0.6183
   63TMC2     C  981   0.730   1.605  10.875  0.1800  0.0920 -0.0947
   63TMC2     O  982   0.683   1.555  10.978 -0.1490  0.2214 -0.3764
   63TMC2     H  983   0.842   1.651  11.097 -0.3404 -0.0258 -0.0070
   63TMC2    H1  984   0.799   1.809  10.710  0.7579 -2.2504  0.7023
   63TMC2    H2  985   1.004   2.040  11.016 -0.0238 -0.1389  0.8678
   63TMC2    C7  986   0.918   2.029  10.747 -0.7331 -0.2441 -0.0226
   63TMC2    C8  987   0.953   1.879  11.207 -0.8518 -0.4454  0.0337
   63TMC2    O1  988   0.840   2.019  10.654 -0.0388  0.1052 -0.0494
   63TMC2    O2  989   1.021   1.975  11.250 -0.3847  0.3791  0.4166
   63TMC2    O5  990   0.859   1.827  11.285 -0.0812 -0.0929  0.1896
   63TMC2    H5  991   0.782   1.795  11.234  1.8118 -0.4703 -2.4228
   64MPD2     C  992   0.602   1.181  10.614 -0.6826  0.1627  0.5519
   64MPD2    C1  993   0.713   1.242  10.551  0.5355  0.2553 -0.6525
   64MPD2    C2  994   0.763   1.361  10.601 -0.4939 -0.2246 -0.4883
   64MPD2    C3  995   0.713   1.410  10.717 -0.1504 -0.1067 -0.2004
   64MPD2    C4  996   0.606   1.353  10.783  0.2557  0.2869 -0.1936
   64MPD2    C5  997   0.549   1.237  10.728 -0.2391 -0.2266  0.4703
   64MPD2     H  998   0.834   1.418  10.542 -0.9465  1.6068  0.7434
   64MPD2    H1  999   0.554   1.399  10.867  0.8651 -0.9437  0.8666
   64MPD2    H2 1000   0.555   1.090  10.578  0.2124 -1.3523  3.1914
   64MPD2    H3 1001   0.472   1.180  10.779 -1.8582  0.7147 -0.9111
   64MPD2     N 1002   0.767   1.537  10.761 -0.1189 -0.2358  0.1710
   64MPD2    H5 1003   0.834   1.581  10.698  0.1344 -0.3591  0.3551
   64MPD2    N1 1004   0.768   1.193  10.426 -0.1242 -0.0884  0.5574
   64MPD2    H7 1005   0.839   1.250  10.380  1.0135 -1.7013  0.3086
   65TMC2    C1 1006   2.411   2.175  15.671 -0.7856  0.2169 -0.3669
   65TMC2    C2 1007   2.392   2.141  15.539 -0.3541  0.0875 -0.0627
   65TMC2    C3 1008   2.382   2.246  15.456  0.8003  0.1099  0.2867
   65TMC2    C4 1009   2.422   2.311  15.714  0.2665  0.9248 -0.0296
   65TMC2    C5 1010   2.414   2.403  15.624  0.3041  0.3322 -0.4834
   65TMC2    C6 1011   2.395   2.378  15.490  0.4864  0.9188  1.1583
   65TMC2     C 1012   2.413   2.079  15.772  0.0593  0.1849 -0.4280
   65TMC2     O 1013   2.383   2.116  15.885  0.2664  0.3033  0.0932
   65TMC2     H 1014   2.367   2.046  15.495  0.6704 -0.0419 -0.3774
   65TMC2    H1 1015   2.457   2.323  15.815 -0.2535 -2.7304  0.6031
   65TMC2    H2 1016   2.385   2.459  15.419 -1.5182 -1.0510 -0.8362
   65TMC2    C7 1017   2.393   2.543  15.661 -0.5954 -1.3577 -0.3132
   65TMC2    C8 1018   2.394   2.215  15.318 -0.3918 -0.6576  0.0382
   65TMC2    O1 1019   2.388   2.623  15.569 -0.7524  0.6124  0.0804
   65TMC2    O2 1020   2.328   2.276  15.239 -0.2740  0.0565 -0.2918
   65TMC2    O5 1021   2.525   2.189  15.317 -0.2146  0.2908  0.3700
   65TMC2    H5 1022   2.559   2.169  15.407  1.2378 -3.0143 -0.9105
   66MPD2     C 1023   2.455   1.856  15.955  0.1194 -0.3009 -0.3565
   66MPD2    C1 1024   2.455   1.841  15.816  0.5597 -0.2551 -0.6862
   66MPD2    C2 1025   2.462   1.713  15.768 -0.1734  0.3863 -0.1112
   66MPD2    C3 1026   2.502   1.611  15.855  0.0818 -0.2972 -0.5283
   66MPD2    C4 1027   2.512   1.630  15.989  0.6283 -0.0699  0.3358
   66MPD2    C5 1028   2.477   1.748  16.038 -0.1294  0.2629 -0.6605
   66MPD2     H 1029   2.460   1.710  15.659  0.0921  0.0809 -0.1073
   66MPD2    H1 1030   2.547   1.549  16.053  0.9133 -0.1246  0.1125
   66MPD2    H2 1031   2.454   1.948  16.011  3.7141 -1.7434  2.1456
   66MPD2    H3 1032   2.498   1.765  16.143  0.5923 -1.0005 -0.6006
   66MPD2     N 1033   2.541   1.487  15.805 -0.5313 -0.3385  0.4937
   66MPD2    H5 1034   2.581   1.424  15.873 -2.2412  1.9594  3.5923
   66MPD2    N1 1035   2.445   1.953  15.732 -0.3576 -0.7635 -0.0073
   66MPD2    H7 1036   2.455   1.949  15.631 -0.5843  1.4564 -0.1317
   67TMC2    C1 1037   2.297   1.107  14.495 -0.4006  0.5755  0.5122
   67TMC2    C2 1038   2.252   1.227  14.546  0.5985 -0.2969 -0.5817
   67TMC2    C3 1039   2.336   1.285  14.630 -0.2338 -0.1119  0.4230
   67TMC2    C4 1040   2.402   1.040  14.543 -0.1734  0.2364  0.5024
   67TMC2    C5 1041   2.490   1.106  14.626 -0.9603  0.6120 -0.0948
   67TMC2    C6 1042   2.457   1.236  14.674 -0.2655  0.1200  0.6233
   67TMC2     C 1043   2.213   1.047  14.392  0.5448 -0.7922 -0.3901
   67TMC2     O 1044   2.194   0.922  14.397  0.1992 -0.2914  0.3216
   67TMC2     H 1045   2.169   1.285  14.505  0.5429 -2.3610 -3.3674
   67TMC2    H1 1046   2.427   0.942  14.506  0.2342  0.6767 -0.3731
   67TMC2    H2 1047   2.504   1.292  14.754  2.2187  0.0773 -0.8180
   67TMC2    C7 1048   2.603   1.020  14.670 -0.1304  0.3486  0.3919
   67TMC2    C8 1049   2.285   1.409  14.688  0.4125 -0.4434 -0.1790
   67TMC2    O1 1050   2.612   0.913  14.618  0.5921  0.0213 -0.1267
   67TMC2    O2 1051   2.352   1.501  14.731 -0.3786  0.0906 -0.5756
   67TMC2    O5 1052   2.170   1.371  14.749 -0.1630 -0.1582 -0.2016
   67TMC2    H5 1053   2.147   1.279  14.725  0.5295 -0.0330 -1.3250
   68MPD2     C 1054   2.002   1.010  14.189 -0.1886 -0.0535 -0.0346
   68MPD2    C1 1055   2.073   1.128  14.205 -0.2422 -0.3021 -0.0840
   68MPD2    C2 1056   2.047   1.233  14.112 -0.0986  0.3419  0.6459
   68MPD2    C3 1057   1.955   1.217  14.010 -0.0337  0.0066 -0.1138
   68MPD2    C4 1058   1.877   1.105  14.010 -0.2443 -0.1124 -0.5616
   68MPD2    C5 1059   1.904   1.003  14.093 -0.0643 -0.4818 -0.5878
   68MPD2     H 1060   2.109   1.322  14.116  0.8429 -0.2549 -0.5536
   68MPD2    H1 1061   1.795   1.080  13.943 -1.2472 -0.2713  0.7187
   68MPD2    H2 1062   2.006   0.924  14.255  2.9578  0.3638  0.3297
   68MPD2    H3 1063   1.850   0.909  14.091 -0.3884 -0.3166  0.3810
   68MPD2     N 1064   1.940   1.307  13.904 -0.2533  0.4587 -0.3212
   68MPD2    H5 1065   1.862   1.292  13.840  0.5899 -0.6557 -1.0787
   68MPD2    N1 1066   2.167   1.145  14.308 -0.0321  0.3314  0.3402
   68MPD2    H7 1067   2.216   1.234  14.309 -0.5287  0.5906  1.8029
   69TMC2    C1 1068   4.134   2.531  12.569  0.3291  0.4155  0.1774
   69TMC2    C2 1069   4.010   2.504  12.525 -0.0829 -0.2574  0.0711
   69TMC2    C3 1070   3.987   2.507  12.392 -0.0032 -0.2558  0.3398
   69TMC2    C4 1071   4.228   2.567  12.482 -0.5035 -0.0133 -0.0844
   69TMC2    C5 1072   4.202   2.578  12.353 -0.1417 -0.9630  0.2659
   69TMC2    C6 1073   4.084   2.529  12.296  0.1672  0.0867 -0.1183
   69TMC2     C 1074   4.135   2.573  12.707 -0.4270  0.5137 -0.2347
   69TMC2     O 1075   4.040   2.542  12.778  0.9399 -0.1349  0.4580
   69TMC2     H 1076   3.930   2.482  12.595  0.5101  2.0121  1.4499
   69TMC2    H1 1077   4.327   2.593  12.519 -0.8369 -1.2521  1.7395
   69TMC2    H2 1078   4.070   2.514  12.189 -1.9918 -1.0162  0.3365
   69TMC2    C7 1079   4.320   2.567  12.266 -0.2234 -0.7351 -0.9346
   69TMC2    C8 1080   3.875   2.422  12.351  0.3177  0.4208 -0.9242
   69TMC2    O1 1081   4.423   2.554  12.323 -0.0963  0.0145 -0.0309
   69TMC2    O2 1082   3.778   2.387  12.420 -0.0568  0.1678  0.0636
   69TMC2    O5 1083   3.915   2.343  12.253  0.0654 -0.1841 -0.2794
   69TMC2    H5 1084   4.013   2.341  12.247  0.1766  0.0010  1.7066
   70MPD2     C 1085   4.412   2.678  12.914  0.1162  0.3412 -0.2563
   70MPD2    C1 1086   4.302   2.605  12.882 -0.8264  0.5393 -0.4905
   70MPD2    C2 1087   4.243   2.513  12.966 -0.0627 -0.9878  0.3214
   70MPD2    C3 1088   4.308   2.489  13.088  0.1565  0.1618 -0.3648
   70MPD2    C4 1089   4.421   2.566  13.118 -0.6237  0.1788  0.1377
   70MPD2    C5 1090   4.462   2.666  13.041 -0.3764  0.0363  0.6532
   70MPD2     H 1091   4.167   2.447  12.927 -0.7360  0.8291 -1.4591
   70MPD2    H1 1092   4.477   2.540  13.206  0.1153 -0.5381 -0.5466
   70MPD2    H2 1093   4.459   2.750  12.847 -2.9784  0.8377 -1.8918
   70MPD2    H3 1094   4.555   2.720  13.059  0.6361 -1.4823 -0.0799
   70MPD2     N 1095   4.278   2.389  13.175 -0.3497  0.8993 -0.4545
   70MPD2    H5 1096   4.339   2.386  13.256 -2.2768  0.5958  0.9839
   70MPD2    N1 1097   4.254   2.624  12.748 -0.1392 -0.3872 -0.2665
   70MPD2    H7 1098   4.320   2.671  12.687  0.4059  0.5949  1.0768
   71TMC2    C1 1099   1.338   2.804   1.479 -0.0808 -0.6019  0.1978
   71TMC2    C2 1100   1.419   2.882   1.560 -0.1722  0.4339  0.6559
   71TMC2    C3 1101   1.355   2.958   1.659  0.0729 -0.0654  0.2212
   71TMC2    C4 1102   1.200   2.813   1.485 -0.5720  0.6496 -0.9067
   71TMC2    C5 1103   1.142   2.892   1.587  0.4084 -0.6753 -0.7467
   71TMC2    C6 1104   1.219   2.965   1.676 -0.3305  0.9294  0.0536
   71TMC2     C 1105   1.412   2.733   1.373 -0.4210  0.6662 -0.0995
   71TMC2     O 1106   1.528   2.762   1.357 -0.2562 -0.0659  0.2247
   71TMC2     H 1107   1.526   2.884   1.542 -0.3297 -0.5509 -0.4153
   71TMC2    H1 1108   1.136   2.742   1.434 -0.3282 -1.8730  2.2930
   71TMC2    H2 1109   1.175   3.035   1.745 -1.2640 -1.2053  1.6373
   71TMC2    C7 1110   1.000   2.918   1.585 -0.4730  0.4636 -0.6221
   71TMC2    C8 1111   1.442   3.052   1.725 -0.5567  0.1074  0.0190
   71TMC2    O1 1112   0.955   2.974   1.685  0.2387 -0.0077  0.0826
   71TMC2    O2 1113   1.517   3.117   1.655 -1.1507  0.3769 -0.4705
   71TMC2    O5 1114   1.391   3.094   1.840 -0.4620 -0.4996  0.3296
   71TMC2    H5 1115   1.340   3.022   1.883 -0.8405 -2.1347 -2.8503
   72MPD2     C 1116   1.465   2.377   1.014  0.4865 -0.5291  0.6622
   72MPD2    C1 1117   1.517   2.502   1.017 -0.5082 -0.4965  0.4478
   72MPD2    C2 1118   1.480   2.591   1.115  0.3913 -0.0638 -0.2693
   72MPD2    C3 1119   1.385   2.554   1.209 -0.1614 -0.7932 -1.2025
   72MPD2    C4 1120   1.328   2.423   1.201 -0.7719  0.4824  0.3916
   72MPD2    C5 1121   1.375   2.335   1.103  0.2278  0.2496  0.6173
   72MPD2     H 1122   1.530   2.687   1.112 -2.0211  1.2139  1.3527
   72MPD2    H1 1123   1.251   2.394   1.272 -0.0776  1.7846  1.6767
   72MPD2    H2 1124   1.499   2.311   0.935 -0.1818  0.2744 -0.2992
   72MPD2    H3 1125   1.337   2.234   1.095  0.4675  0.3991 -2.3440
   72MPD2     N 1126   1.340   2.635   1.319 -0.2760 -0.4356 -0.2618
   72MPD2    H5 1127   1.253   2.609   1.363  1.5171 -3.5944  1.4839
   72MPD2    N1 1128   1.623   2.531   0.935  0.5179 -0.0448  0.0613
   72MPD2    H7 1129   1.678   2.613   0.957 -2.3967  2.4724 -2.1673
   73TMC2    C1 1130   1.763   4.601  14.158 -0.0603 -0.2008 -0.0196
   73TMC2    C2 1131   1.710   4.595  14.034  0.7462 -0.4698  0.4655
   73TMC2    C3 1132   1.730   4.487  13.960  0.8410  0.2649  0.2366
   73TMC2    C4 1133   1.851   4.495  14.203 -0.3936 -1.6353  0.6200
   73TMC2    C5 1134   1.882   4.390  14.114  0.6159 -0.0791 -0.1231
   73TMC2    C6 1135   1.821   4.391  13.997  0.3332 -0.2853 -0.1027
   73TMC2     C 1136   1.826   0.002  14.177 -0.5288  0.3250 -0.3547
   73TMC2     O 1137   1.928   4.731  14.245 -0.1306 -0.0491  0.5260
   73TMC2     H 1138   1.651   4.679  13.998  0.4485 -1.9117 -2.4330
   73TMC2    H1 1139   1.913   4.506  14.292 -1.2047  0.4841  0.9368
   73TMC2    H2 1140   1.855   4.314  13.929  0.3288 -0.8654  0.5591
   73TMC2    C7 1141   2.031   4.374  14.083 -0.4042  0.2016  0.2063
   73TMC2    C8 1142   1.724   4.527  13.817 -0.4054  0.3943  0.0722
   73TMC2    O1 1143   2.079   4.265  14.061  0.4676  0.0528 -0.5284
   73TMC2    O2 1144   1.748   4.637  13.778 -0.7294  0.1865 -0.0034
   73TMC2    O5 1145   1.741   4.417  13.751  0.0498 -0.5589 -0.1029
   73TMC2    H5 1146   1.693   4.347  13.801  0.3359  0.5204  1.6891
   74MPD2     C 1147   1.857   0.518  14.144 -0.3123  0.4289  0.3547
   74MPD2    C1 1148   1.948   0.420  14.176 -0.0058 -0.0524  0.1499
   74MPD2    C2 1149   1.910   0.287  14.169 -0.1221  0.5109 -0.4420
   74MPD2    C3 1150   1.789   0.240  14.123 -0.3004  0.0512  0.6687
   74MPD2    C4 1151   1.704   0.344  14.079 -0.5419  0.1142  0.6541
   74MPD2    C5 1152   1.735   0.476  14.091 -1.0860 -0.4014  0.5711
   74MPD2     H 1153   1.991   0.217  14.182 -0.8044  0.3835  3.3915
   74MPD2    H1 1154   1.612   0.319  14.029  0.0176  0.9709 -0.8166
   74MPD2    H2 1155   1.875   0.623  14.164  1.6960  0.2601 -0.5927
   74MPD2    H3 1156   1.667   0.555  14.061 -0.5040 -0.7570 -1.6853
   74MPD2     N 1157   1.754   0.103  14.120  0.7340  0.2352  0.0182
   74MPD2    H5 1158   1.662   0.076  14.087  0.5665  0.3800  0.3738
   74MPD2    N1 1159   2.083   0.462  14.206  0.1096 -0.1873  0.2055
   74MPD2    H7 1160   2.106   0.560  14.206  1.0604 -0.4201 -1.2033
   75TMC2    C1 1161   1.950   1.524  13.804  0.0442  0.1055 -0.6030
   75TMC2    C2 1162   2.012   1.648  13.804 -0.1811  0.8430  0.4517
   75TMC2    C3 1163   1.936   1.759  13.774  0.3329  0.3470  0.3181
   75TMC2    C4 1164   1.820   1.513  13.767 -0.4472  0.8351  0.0487
   75TMC2    C5 1165   1.748   1.631  13.728  0.1730  0.8854 -0.9256
   75TMC2    C6 1166   1.807   1.755  13.738  0.7854  0.9417  0.0927
   75TMC2     C 1167   2.013   1.422  13.879  0.3414  0.3086  0.0290
   75TMC2     O 1168   2.119   1.458  13.927 -0.4191  0.3449  0.0944
   75TMC2     H 1169   2.119   1.663  13.816 -0.0828  0.8972 -0.4710
   75TMC2    H1 1170   1.764   1.420  13.766  2.1578 -0.7294  0.4345
   75TMC2    H2 1171   1.762   1.844  13.696  0.6196  0.3728 -0.9474
   75TMC2    C7 1172   1.626   1.616  13.649  0.1928  0.3294  0.1897
   75TMC2    C8 1173   1.995   1.887  13.813 -0.6253 -0.8541 -0.4394
   75TMC2    O1 1174   1.580   1.505  13.628 -0.4425 -0.0771 -0.1115
   75TMC2    O2 1175   2.114   1.904  13.798 -0.2071  0.2872  0.4866
   75TMC2    O5 1176   1.912   1.947  13.901  0.3619 -0.4976 -0.5466
   75TMC2    H5 1177   1.821   1.913  13.904  0.8703 -1.8466 -0.6819
   76TMC2    C1 1178   0.390   1.372  12.541  0.3621  0.6398  0.5564
   76TMC2    C2 1179   0.312   1.265  12.541 -0.0304 -0.4078 -0.1703
   76TMC2    C3 1180   0.356   1.137  12.560 -0.2542  0.2274 -0.5676
   76TMC2    C4 1181   0.524   1.351  12.570 -0.1264  0.5656  0.7139
   76TMC2    C5 1182   0.568   1.225  12.596  0.1841 -0.2077  0.4821
   76TMC2    C6 1183   0.484   1.112  12.601 -0.5798  0.3097  0.4526
   76TMC2     C 1184   0.334   1.505  12.524  1.3109  0.3241  0.0584
   76TMC2     O 1185   0.228   1.524  12.467  0.5027 -0.2913 -0.0660
   76TMC2     H 1186   0.208   1.281  12.513  0.0488 -0.2563 -0.3781
   76TMC2    H1 1187   0.582   1.443  12.574  2.2401 -0.9645  1.2539
   76TMC2    H2 1188   0.514   1.012  12.630 -1.4338 -0.1828 -0.3676
   76TMC2    C7 1189   0.708   1.213  12.643 -0.6339  0.2866  0.0009
   76TMC2    C8 1190   0.248   1.050  12.609  0.3569  0.0311  0.9063
   76TMC2    O1 1191   0.752   1.102  12.681  0.5787 -0.5162 -0.2275
   76TMC2    O2 1192   0.144   1.097  12.651 -0.0093 -0.1959 -0.5138
   76TMC2    O5 1193   0.271   0.930  12.561  0.4548  0.3690  0.0251
   76TMC2    H5 1194   0.345   0.940  12.497  0.2125 -0.4829 -0.3900
   77MPD2     C 1195   0.477   1.987  12.532 -0.0772 -0.1187  0.0482
   77MPD2    C1 1196   0.399   1.928  12.439  0.7467 -0.3669  0.1860
   77MPD2    C2 1197   0.365   1.797  12.462  0.4864  0.3611 -0.2804
   77MPD2    C3 1198   0.415   1.731  12.579  0.3624 -0.5686 -0.4010
   77MPD2    C4 1199   0.488   1.796  12.673 -0.7326  0.2856  0.3802
   77MPD2    C5 1200   0.509   1.931  12.652 -0.0525 -0.0901  0.6974
   77MPD2     H 1201   0.320   1.739  12.382 -0.6431 -1.6843  1.8503
   77MPD2    H1 1202   0.538   1.755  12.760  0.0315  0.1949 -0.1059
   77MPD2    H2 1203   0.513   2.088  12.515 -1.2769  0.0458 -1.4627
   77MPD2    H3 1204   0.574   1.984  12.720 -1.1528  1.2182  0.7139
   77MPD2     N 1205   0.409   1.591  12.594  0.4193  0.4531  0.3566
   77MPD2    H5 1206   0.468   1.555  12.667  0.8712  0.7803  0.1555
   77MPD2    N1 1207   0.349   1.988  12.326 -0.2545 -0.6328 -0.1748
   77MPD2    H7 1208   0.286   1.930  12.272  0.7143 -0.3626 -1.5805
   78TMC2    C1 1209   2.033   2.900   1.555 -0.5966 -0.5190  0.3893
   78TMC2    C2 1210   2.105   2.992   1.631 -0.3328  0.0025  0.3431
   78TMC2    C3 1211   2.239   2.984   1.617  0.3132 -0.1641  0.0527
   78TMC2    C4 1212   2.096   2.804   1.484 -0.6237  0.3125 -0.2504
   78TMC2    C5 1213   2.227   2.808   1.465  0.1768  0.0282 -0.4758
   78TMC2    C6 1214   2.298   2.904   1.522 -0.4406 -0.3140 -0.5995
   78TMC2     C 1215   1.905   2.853   1.617 -0.2568 -0.3411  0.2625
   78TMC2     O 1216   1.865   2.744   1.576 -0.3995  0.0806 -0.7534
   78TMC2     H 1217   2.066   3.060   1.706 -0.5246  0.1167  0.1440
   78TMC2    H1 1218   2.048   2.711   1.454 -1.2791  0.5866 -0.0575
   78TMC2    H2 1219   2.406   2.895   1.515 -0.2605  2.1360 -1.0015
   78TMC2    C7 1220   2.296   2.727   1.368  0.5588  0.9429  0.6130
   78TMC2    C8 1221   2.324   3.078   1.683 -0.3485  0.1626  1.0383
   78TMC2    O1 1222   2.413   2.702   1.396  0.1177  0.2833  0.4539
   78TMC2    O2 1223   2.437   3.118   1.645  0.1375  0.7362 -0.2590
   78TMC2    O5 1224   2.282   3.091   1.811  0.3822 -0.3805 -0.3278
   78TMC2    H5 1225   2.210   3.030   1.840  1.1535 -0.6713  0.9720
   79MPD1     C 1226   1.581   2.813   2.003  0.7250 -0.6481 -0.6463
   79MPD1    C1 1227   1.580   2.758   1.877 -0.6294 -0.2820 -0.1077
   79MPD1    C2 1228   1.665   2.802   1.781 -0.8476 -0.5018  0.1541
   79MPD1    C3 1229   1.758   2.901   1.813 -0.3936 -0.0752  0.3888
   79MPD1    C4 1230   1.741   2.976   1.931  0.0344  0.6581  0.1696
   79MPD1    C5 1231   1.660   2.926   2.029  0.1005 -0.5184 -0.5075
   79MPD1     H 1232   1.656   2.766   1.679  1.5610 -0.8570  0.0805
   79MPD1    H1 1233   1.800   3.063   1.959 -0.1057  1.1470 -1.0511
   79MPD1    H2 1234   1.511   2.789   2.083  0.1561 -0.4948 -1.1024
   79MPD1    H3 1235   1.648   2.983   2.120  3.6004  2.2004 -1.7298
   79MPD1     N 1236   1.867   2.928   1.726 -0.0928  1.1383 -0.3934
   79MPD1    H5 1237   1.928   3.004   1.755  2.0131  0.9321 -4.2269
   79MPD1    N1 1238   1.513   2.638   1.849  0.0617  0.2054  0.3048
   79MPD1    H6 1239   1.498   2.619   1.750 -1.3492 -0.2771  0.6145
   79MPD1    H7 1240   1.429   2.637   1.907 -0.1299  0.2180  0.0258
   80TMC2    C1 1241   4.138   1.771  12.730  0.0777  0.2713 -0.2112
   80TMC2    C2 1242   4.197   1.824  12.612  0.0772 -0.0868 -0.2644
   80TMC2    C3 1243   4.331   1.808  12.593  1.0297  1.4368  0.4839
   80TMC2    C4 1244   4.221   1.709  12.820 -0.1188  0.0904 -0.0409
   80TMC2    C5 1245   4.352   1.675  12.787 -0.1135  1.1195 -0.3320
   80TMC2    C6 1246   4.400   1.719  12.662 -0.1634 -0.0722 -0.3713
   80TMC2     C 1247   3.999   1.786  12.762  0.2820 -0.5632  0.9543
   80TMC2     O 1248   3.963   1.770  12.878  0.4267 -0.2737  0.1263
   80TMC2     H 1249   4.157   1.909  12.558  0.7575  0.2714 -0.2108
   80TMC2    H1 1250   4.189   1.664  12.914  2.0004  1.2133  1.2277
   80TMC2    H2 1251   4.504   1.702  12.641 -0.2034 -1.5959  0.6573
   80TMC2    C7 1252   4.398   1.551  12.830  0.2118 -0.0218  0.4856
   80TMC2    C8 1253   4.397   1.892  12.491 -0.6712 -0.1998  0.0257
   80TMC2    O1 1254   4.367   1.519  12.944 -0.2192 -0.4612 -0.3033
   80TMC2    O2 1255   4.356   1.898  12.376 -0.3634  0.2778 -0.0554
   80TMC2    O5 1256   4.521   1.903  12.534 -0.0756 -0.4508 -0.2131
   80TMC2    H5 1257   4.525   1.927  12.629 -0.6989  0.2368 -0.3585
   81MPD2     C 1258   3.694   1.756  12.744  1.0089  0.1500 -0.1401
   81MPD2    C1 1259   3.780   1.771  12.633 -0.0142  0.2180 -0.3689
   81MPD2    C2 1260   3.723   1.785  12.511  0.7273 -0.1689  0.0428
   81MPD2    C3 1261   3.591   1.760  12.489  0.1432 -0.0125 -0.0319
   81MPD2    C4 1262   3.513   1.726  12.595 -0.2829 -0.4503 -0.1073
   81MPD2    C5 1263   3.564   1.728  12.724 -0.3699 -0.3324  0.4737
   81MPD2     H 1264   3.788   1.797  12.425  0.7657  2.3849  0.4290
   81MPD2    H1 1265   3.408   1.699  12.588 -0.1936 -1.1607  1.3096
   81MPD2    H2 1266   3.730   1.773  12.845  1.8551  1.2558 -0.6249
   81MPD2    H3 1267   3.493   1.740  12.806 -0.7745  0.5394 -0.0069
   81MPD2     N 1268   3.537   1.753  12.361  0.0586  0.0812 -0.6177
   81MPD2    H5 1269   3.454   1.699  12.337 -1.8233  2.7584 -0.1964
   81MPD2    N1 1270   3.924   1.784  12.649  0.1708 -0.6882 -0.1230
   81MPD2    H7 1271   3.972   1.799  12.561 -0.2023  0.3484 -0.1447
   82TMC2    C1 1272   2.802   0.458  11.233  0.0964 -0.0511 -0.0977
   82TMC2    C2 1273   2.918   0.502  11.286  0.4615 -0.2406 -0.7404
   82TMC2    C3 1274   2.970   0.432  11.395 -0.2401 -0.2239  0.2765
   82TMC2    C4 1275   2.732   0.352  11.286  0.0013  0.1705 -0.3602
   82TMC2    C5 1276   2.786   0.286  11.394  0.1390 -0.2586 -0.8577
   82TMC2    C6 1277   2.903   0.327  11.454 -0.0665  0.1413  0.2432
   82TMC2     C 1278   2.728   0.546  11.147 -0.9166 -0.1259 -0.1238
   82TMC2     O 1279   2.757   0.541  11.029  0.4127 -0.4667  0.1998
   82TMC2     H 1280   2.986   0.566  11.231 -0.3688  1.5265  0.2664
   82TMC2    H1 1281   2.644   0.330  11.226 -0.1174 -2.7094  0.8827
   82TMC2    H2 1282   2.951   0.256  11.520 -0.2976 -1.1245 -0.9459
   82TMC2    C7 1283   2.712   0.174  11.447 -0.0906 -0.4116 -0.1267
   82TMC2    C8 1284   3.108   0.447  11.420  0.3966 -0.0980 -0.3568
   82TMC2    O1 1285   2.695   0.153  11.563  0.6720  0.2105  0.3153
   82TMC2    O2 1286   3.199   0.478  11.346 -0.2632 -0.0709 -0.7007
   82TMC2    O5 1287   3.112   0.457  11.555 -0.3357 -0.2448  0.1544
   82TMC2    H5 1288   3.022   0.458  11.594 -0.3047  0.7227  0.2091
   83MPD2     C 1289   2.300   0.809  11.079  0.2135  0.2081  0.3176
   83MPD2    C1 1290   2.401   0.777  10.992 -0.6014  0.2120 -0.1100
   83MPD2    C2 1291   2.514   0.711  11.036  0.0174  0.6072  0.5750
   83MPD2    C3 1292   2.524   0.678  11.172  0.4222 -0.2405 -0.4105
   83MPD2    C4 1293   2.423   0.703  11.265  0.1705 -0.1773 -0.0548
   83MPD2    C5 1294   2.317   0.779  11.222 -0.5381  0.0905  0.1671
   83MPD2     H 1295   2.602   0.715  10.973  0.3185  0.1284  0.9650
   83MPD2    H1 1296   2.436   0.681  11.371 -0.6538  0.5848  0.2108
   83MPD2    H2 1297   2.209   0.865  11.061 -1.4702 -2.8389 -0.7922
   83MPD2    H3 1298   2.245   0.823  11.289 -1.9465  0.4306 -1.5644
   83MPD2     N 1299   2.626   0.593  11.224 -0.0275 -0.0849 -0.3940
   83MPD2    H5 1300   2.622   0.573  11.324  0.1201 -0.3041 -0.4320
   83MPD2    N1 1301   2.371   0.824  10.863 -0.3347  0.1542  0.6218
   83MPD2    H7 1302   2.288   0.877  10.837 -0.5136 -0.0494  0.7732
   84TMC2    C1 1303   3.929   0.055  10.998  0.5297  0.3731  0.1476
   84TMC2    C2 1304   4.041   0.111  10.942  0.3434 -0.1180  0.4987
   84TMC2    C3 1305   4.086   0.035  10.835  0.0309  0.1146 -0.5869
   84TMC2    C4 1306   3.853   4.687  10.942 -0.1284  0.5577  0.1206
   84TMC2    C5 1307   3.896   4.632  10.823 -0.2356  0.6995 -0.1230
   84TMC2    C6 1308   4.018   4.665  10.770 -0.6991 -0.0815 -0.3720
   84TMC2     C 1309   3.870   0.129  11.105  0.1062 -0.3641  0.3004
   84TMC2     O 1310   3.902   0.247  11.131  0.5497  0.1539 -0.1884
   84TMC2     H 1311   4.089   0.192  10.995  0.2217  0.9168 -0.9502
   84TMC2    H1 1312   3.761   4.653  10.988 -0.3556  1.1951  0.1357
   84TMC2    H2 1313   4.050   4.639  10.669 -1.3335  0.3708 -0.6913
   84TMC2    C7 1314   3.819   4.518  10.770 -0.2083 -0.1469 -0.9148
   84TMC2    C8 1315   4.202   0.085  10.765  0.4439 -0.0060 -0.3474
   84TMC2    O1 1316   3.741   4.471  10.849 -0.1015 -0.1237 -0.5523
   84TMC2    O2 1317   4.277   0.004  10.710 -0.0062 -0.5782 -0.4794
   84TMC2    O5 1318   4.207   0.218  10.767 -0.1908  0.4762  0.5452
   84TMC2    H5 1319   4.144   0.271  10.820  1.4334  1.8561  1.0837
   85TMC2    C1 1320   0.033   2.828  16.182  0.4230  0.1019  0.2555
   85TMC2    C2 1321   4.661   2.907  16.143 -0.8431  0.6396 -0.4412
   85TMC2    C3 1322   4.700   3.029  16.089  0.0762 -0.4220  1.2570
   85TMC2    C4 1323   0.161   2.875  16.200  0.2419  0.2613  0.4621
   85TMC2    C5 1324   0.190   2.992  16.146 -0.0890  0.7426 -0.4687
   85TMC2    C6 1325   0.098   3.076  16.087 -0.1971  0.9649  0.1074
   85TMC2     C 1326   0.006   2.701  16.246 -0.2180 -0.1054 -0.2248
   85TMC2     O 1327   0.096   2.655  16.309  0.5191 -0.4452  0.5471
   85TMC2     H 1328   4.557   2.876  16.144 -0.1147 -1.7914 -0.7619
   85TMC2    H1 1329   0.237   2.803  16.228  1.2608  0.5944 -1.4291
   85TMC2    H2 1330   0.117   3.172  16.038 -0.5603 -0.1220 -2.1842
   85TMC2    C7 1331   0.332   3.015  16.119 -0.1767 -0.3371 -0.4471
   85TMC2    C8 1332   4.593   3.120  16.069  0.3485  0.3784  0.7982
   85TMC2    O1 1333   0.418   2.947  16.174 -0.0363  0.2105  0.3315
   85TMC2    O2 1334   4.606   3.224  16.005  0.2963  0.4014 -0.5163
   85TMC2    O5 1335   4.537   3.119  16.191 -0.0599  0.3351 -0.0564
   85TMC2    H5 1336   4.539   3.030  16.232  0.4994 -0.4075 -1.6651
   86MPD2     C 1337   4.488   2.291  16.387 -0.4521 -0.2360 -0.0078
   86MPD2    C1 1338   4.421   2.338  16.275  0.7009  0.2707 -0.3511
   86MPD2    C2 1339   4.464   2.456  16.220  0.3113 -0.3874  0.9191
   86MPD2    C3 1340   4.579   2.519  16.276 -0.5794  0.3966  0.2274
   86MPD2    C4 1341   4.639   2.463  16.390 -0.7453 -0.3375  0.1024
   86MPD2    C5 1342   4.589   2.351  16.443  0.2045 -0.3684  0.1846
   86MPD2     H 1343   4.422   2.494  16.127  0.9538  2.2700  1.7064
   86MPD2    H1 1344   4.724   2.510  16.438  0.1941 -2.1119  0.1894
   86MPD2    H2 1345   4.464   2.196  16.434 -2.0989  0.6540  0.9720
   86MPD2    H3 1346   4.644   2.312  16.528 -0.0543  0.9159  0.9548
   86MPD2     N 1347   4.624   2.635  16.209  0.1455 -0.5370  0.0121
   86MPD2    H5 1348   4.572   2.672  16.130  0.3187  1.6102  0.8773
   86MPD2    N1 1349   4.316   2.272  16.198 -0.8274  0.2739 -0.1483
   86MPD2    H7 1350   4.311   2.284  16.097  0.7960  1.2259 -0.1356
   87TMC2    C1 1351   2.088   1.251   0.971 -0.0975  0.2323  0.0892
   87TMC2    C2 1352   2.161   1.362   1.015 -0.5369  0.0059 -0.1273
   87TMC2    C3 1353   2.084   1.458   1.080 -0.3406 -0.4599  0.3114
   87TMC2    C4 1354   1.961   1.227   1.009 -0.3931 -0.3392 -0.1614
   87TMC2    C5 1355   1.893   1.322   1.079  0.7184  0.3710 -0.5528
   87TMC2    C6 1356   1.950   1.445   1.109  0.4829 -0.2527  0.0105
   87TMC2     C 1357   2.146   1.172   0.857  0.2282  0.1757  0.5487
   87TMC2     O 1358   2.262   1.209   0.839  0.9163 -0.4583 -0.5062
   87TMC2     H 1359   2.264   1.386   0.994 -0.5674 -0.3348 -0.6733
   87TMC2    H1 1360   1.916   1.130   0.989 -1.0433  0.5957 -3.2774
   87TMC2    H2 1361   1.885   1.521   1.151  0.0178 -1.9673  2.3872
   87TMC2    C7 1362   1.748   1.306   1.073  0.1490  0.5196 -0.5926
   87TMC2    C8 1363   2.159   1.567   1.136  0.0428  0.1775  0.1889
   87TMC2    O1 1364   1.704   1.221   0.997  0.3849  0.5839 -0.2621
   87TMC2    O2 1365   2.246   1.630   1.071 -0.2659  0.4049 -0.1178
   87TMC2    O5 1366   2.126   1.579   1.267  0.4699  0.6825  0.1188
   87TMC2    H5 1367   2.082   1.496   1.294  0.7044  0.0352 -1.5259
   88MPD2     C 1368   1.480   1.538   1.129  0.0082 -0.1315 -0.1894
   88MPD2    C1 1369   1.568   1.471   1.058  0.1314  0.4232  0.3095
   88MPD2    C2 1370   1.554   1.470   0.920 -0.0596 -0.0660 -0.3245
   88MPD2    C3 1371   1.463   1.549   0.860  0.1598  0.3235  0.0901
   88MPD2    C4 1372   1.374   1.627   0.936 -0.2784 -0.5429 -0.1762
   88MPD2    C5 1373   1.379   1.608   1.071  0.0505 -0.8288  0.7513
   88MPD2     H 1374   1.639   1.428   0.868 -0.3290 -0.1804 -0.6737
   88MPD2    H1 1375   1.286   1.677   0.896  0.0563  1.5969  1.6752
   88MPD2    H2 1376   1.485   1.521   1.236 -1.2611 -1.4122 -0.3381
   88MPD2    H3 1377   1.297   1.652   1.126 -1.8858  0.8663 -3.5118
   88MPD2     N 1378   1.463   1.576   0.716 -0.3273  0.4706 -0.5532
   88MPD2    H5 1379   1.409   1.655   0.684  0.2071  0.3955 -1.6348
   88MPD2    N1 1380   1.680   1.416   1.122  0.2969  0.6248  0.2871
   88MPD2    H7 1381   1.698   1.463   1.210 -1.6818 -1.2551  1.6963
   89TMC2    C1 1382   2.943   4.500   1.709  0.4566 -0.3572  0.8329
   89TMC2    C2 1383   2.889   4.525   1.837 -0.0604  0.2608  0.2388
   89TMC2    C3 1384   2.877   4.659   1.860 -0.4939  0.3902  0.0038
   89TMC2    C4 1385   2.997   4.598   1.627  0.9490  0.5190 -0.6842
   89TMC2    C5 1386   2.962   4.726   1.653  0.1760  0.3165  1.0513
   89TMC2    C6 1387   2.905   0.026   1.772 -0.6208 -0.3615 -0.1063
   89TMC2     C 1388   2.989   4.358   1.679 -0.0126 -0.2409  0.8986
   89TMC2     O 1389   3.085   4.340   1.610  0.3359 -0.3790  0.4883
   89TMC2     H 1390   2.844   4.451   1.901  1.6473  0.2298  1.4009
   89TMC2    H1 1391   3.026   4.570   1.527 -0.1845 -0.0432 -0.8547
   89TMC2    H2 1392   2.882   0.129   1.797 -0.7128 -0.0364 -1.5303
   89TMC2    C7 1393   2.959   0.096   1.551 -0.0094  0.3290  0.4923
   89TMC2    C8 1394   2.876   4.694   1.998  0.1943 -0.5420 -0.0272
   89TMC2    O1 1395   2.893   0.196   1.581  0.2544  0.2097  0.1138
   89TMC2    O2 1396   2.850   4.607   2.082 -0.2460 -0.4686 -0.1231
   89TMC2    O5 1397   2.940   0.080   2.024  0.6581 -0.3070 -0.1843
   89TMC2    H5 1398   2.992   0.115   1.949  1.5281  0.4261  0.7743
   90MPD2     C 1399   2.886   3.856   1.616 -0.3074  0.7375  0.0228
   90MPD2    C1 1400   2.787   3.914   1.695 -0.6311 -0.4108  0.2960
   90MPD2    C2 1401   2.796   4.051   1.721 -0.1334  0.0486  0.7874
   90MPD2    C3 1402   2.911   4.126   1.683  0.0298 -0.2255  0.2312
   90MPD2    C4 1403   3.016   4.058   1.622 -0.5869 -0.3870 -0.3315
   90MPD2    C5 1404   3.009   3.921   1.601 -0.2982  0.2274  0.0182
   90MPD2     H 1405   2.716   4.099   1.776 -2.6458 -1.0712 -1.9275
   90MPD2    H1 1406   3.105   4.115   1.602 -1.3251  1.8226  2.6587
   90MPD2    H2 1407   2.894   3.751   1.590  1.0594  0.8992 -0.2068
   90MPD2    H3 1408   3.093   3.867   1.558 -2.1439 -1.9342 -0.8366
   90MPD2     N 1409   2.904   4.265   1.714  0.5455 -1.0708  0.6098
   90MPD2    H5 1410   2.822   4.297   1.764  1.2507 -1.0323  1.7577
   90MPD2    N1 1411   2.668   3.843   1.727 -0.7897 -0.1668 -0.3664
   90MPD2    H7 1412   2.593   3.889   1.777  0.4004  1.3403  0.0287
   91TMC2    C1 1413   4.661   3.192  16.470 -0.1415  0.3824 -0.4052
   91TMC2    C2 1414   4.694   3.292  16.386  0.0853 -0.1993  0.3728
   91TMC2    C3 1415   4.596   3.390  16.355  0.2489  0.0556  0.5391
   91TMC2    C4 1416   4.538   3.174  16.522  0.7884 -0.3309 -0.7054
   91TMC2    C5 1417   4.441   3.260  16.490  0.3798 -0.9252 -0.0774
   91TMC2    C6 1418   4.472   3.376  16.411  0.4240  0.2211  0.5877
   91TMC2     C 1419   0.022   3.083  16.507  0.1981  0.1768  0.4316
   91TMC2     O 1420   4.702   2.986  16.561 -0.0012  0.2022 -0.1322
   91TMC2     H 1421   0.062   3.296  16.347  0.0699 -0.9851  0.2595
   91TMC2    H1 1422   4.520   3.097  16.596 -1.3182  1.1125  0.2996
   91TMC2    H2 1423   4.394   3.450  16.401 -0.5572 -0.6647  1.6481
   91TMC2    C7 1424   4.304   3.213  16.491 -0.1249  0.7201  0.6177
   91TMC2    C8 1425   4.630   3.477  16.248 -0.0547  0.1552 -0.1018
   91TMC2    O1 1426   4.285   3.130  16.579 -0.1909 -0.4957 -0.3934
   91TMC2    O2 1427   0.010   3.477  16.197  0.3817  0.3980  0.6987
   91TMC2    O5 1428   4.552   3.587  16.254 -0.1572 -0.1334 -0.0646
   91TMC2    H5 1429   4.465   3.582  16.300 -0.5245 -0.3098 -0.7762
   92MPD2     C 1430   0.245   2.891  16.509  0.2255 -0.1384  0.2557
   92MPD2    C1 1431   0.262   3.028  16.523 -0.4220 -0.0190  0.4252
   92MPD2    C2 1432   0.391   3.079  16.562  0.2794 -0.2733 -0.5483
   92MPD2    C3 1433   0.489   2.978  16.606  0.1178  0.3390 -0.1042
   92MPD2    C4 1434   0.460   2.846  16.590 -0.4814  0.5219 -0.8057
   92MPD2    C5 1435   0.339   2.809  16.549  0.1966  0.5874  0.0621
   92MPD2     H 1436   0.399   3.185  16.585 -2.7823 -0.0566 -0.3638
   92MPD2    H1 1437   0.539   2.773  16.607 -0.2131  0.6323 -1.5576
   92MPD2    H2 1438   0.155   2.841  16.477 -0.7553  1.1473  0.9650
   92MPD2    H3 1439   0.320   2.702  16.542  0.7281  0.5009 -0.0648
   92MPD2     N 1440   0.602   3.030  16.670 -0.7930  0.1699  0.1945
   92MPD2    H5 1441   0.614   3.131  16.670 -0.7554  0.1670  0.5753
   92MPD2    N1 1442   0.154   3.114  16.490 -0.3887 -0.0659 -0.2252
   92MPD2    H7 1443   0.185   3.211  16.485 -1.7255  0.4055  0.4846
   93TMC2    C1 1444   1.892   3.741  14.129 -0.4257 -0.1409  0.5695
   93TMC2    C2 1445   1.814   3.833  14.184 -0.2936  0.0308  0.6684
   93TMC2    C3 1446   1.868   3.950  14.231 -0.3964 -0.6206  0.0478
   93TMC2    C4 1447   2.024   3.761  14.114 -0.0594  0.1524  0.3987
   93TMC2    C5 1448   2.073   3.883  14.154  0.2745  0.2668  0.5968
   93TMC2    C6 1449   2.001   3.974  14.212 -0.0576  0.1603  0.0663
   93TMC2     C 1450   1.829   3.652  14.031 -0.2543 -0.1515 -0.0249
   93TMC2     O 1451   1.901   3.612  13.943 -0.0215  0.0013  0.0883
   93TMC2     H 1452   1.706   3.824  14.178 -0.0232 -1.9697 -1.4025
   93TMC2    H1 1453   2.083   3.679  14.075 -0.6434 -0.2194  0.3071
   93TMC2    H2 1454   2.028   4.076  14.236 -0.2942 -0.0979  1.4634
   93TMC2    C7 1455   2.202   3.913  14.112 -0.1231 -0.5493  0.2487
   93TMC2    C8 1456   1.780   4.046  14.291  0.4993  0.4255 -0.4223
   93TMC2    O1 1457   2.247   3.841  14.025  0.1953  0.6187  1.0121
   93TMC2    O2 1458   1.820   4.159  14.306  0.0707  0.2943  0.1964
   93TMC2    O5 1459   1.680   3.993  14.363 -0.6167 -0.4067 -0.6552
   93TMC2    H5 1460   1.664   3.897  14.353 -0.0676 -0.1348 -4.0380
   94MPD2     C 1461   1.668   3.458  13.877 -0.5728 -0.7267  0.7719
   94MPD2    C1 1462   1.615   3.544  13.974 -0.4918  0.1052 -0.4589
   94MPD2    C2 1463   1.478   3.562  13.981 -0.0778 -0.1992  0.2358
   94MPD2    C3 1464   1.390   3.492  13.896  0.1066 -0.3073  0.5416
   94MPD2    C4 1465   1.447   3.399  13.807 -0.3944 -0.2451  0.0408
   94MPD2    C5 1466   1.584   3.394  13.789  0.0218  0.1152 -0.0830
   94MPD2     H 1467   1.424   3.622  14.053  0.5368 -1.6793  1.9386
   94MPD2    H1 1468   1.389   3.340  13.737 -0.9877  2.8027 -2.0293
   94MPD2    H2 1469   1.770   3.431  13.854 -0.7699 -0.4936 -0.4071
   94MPD2    H3 1470   1.627   3.344  13.702  1.5960  1.3628 -0.0246
   94MPD2     N 1471   1.256   3.538  13.882  0.0451 -0.3250  0.4723
   94MPD2    H5 1472   1.189   3.490  13.823 -1.3601  0.6158  1.3096
   94MPD2    N1 1473   1.699   3.638  14.051 -0.3170  0.3185 -0.4615
   94MPD2    H7 1474   1.654   3.679  14.133  0.3326  0.2173 -0.0521
   95TMC2    C1 1475   2.052   0.644  16.217  0.3296  0.4621 -0.5604
   95TMC2    C2 1476   1.964   0.535  16.214 -0.8777  0.2811  0.0559
   95TMC2    C3 1477   1.936   0.474  16.331 -0.1694  0.4435  0.0136
   95TMC2    C4 1478   2.091   0.696  16.333 -0.6387  0.2710  0.6602
   95TMC2    C5 1479   2.053   0.631  16.450 -0.0297 -0.5417  0.5732
   95TMC2    C6 1480   1.975   0.519  16.452 -0.7008  0.1473  0.4798
   95TMC2     C 1481   2.082   0.720  16.103  0.4419  0.2945  0.6233
   95TMC2     O 1482   2.126   0.831  16.125 -0.5075  0.4857 -0.2537
   95TMC2     H 1483   1.936   0.491  16.119  0.2397 -1.4501  0.5345
   95TMC2    H1 1484   2.179   0.759  16.328  0.4136 -1.0248  2.5412
   95TMC2    H2 1485   1.935   0.481  16.546 -0.8044  1.2141  0.8670
   95TMC2    C7 1486   2.097   0.687  16.580  0.9977 -0.0239 -1.0857
   95TMC2    C8 1487   1.850   0.360  16.313 -0.5555  0.6348  0.3296
   95TMC2    O1 1488   2.049   0.648  16.686 -0.0525  0.3559  0.0764
   95TMC2    O2 1489   1.820   0.321  16.202 -0.3544  0.0351  0.4479
   95TMC2    O5 1490   1.763   0.346  16.416  0.0966  0.3926 -0.2662
   95TMC2    H5 1491   1.794   0.393  16.497 -3.3434  1.5825  0.3682
   96MPD2     C 1492   2.272   0.693  15.626 -0.5488 -0.3675 -1.1875
   96MPD2    C1 1493   2.287   0.792  15.722  0.1743  0.6540  0.2512
   96MPD2    C2 1494   2.225   0.777  15.845  0.0575 -0.3683  0.4892
   96MPD2    C3 1495   2.148   0.667  15.864 -0.1931  0.0593 -0.7904
   96MPD2    C4 1496   2.136   0.568  15.768  0.2419 -0.7190  0.1182
   96MPD2    C5 1497   2.199   0.582  15.645  0.1017 -0.7149  0.9019
   96MPD2     H 1498   2.232   0.844  15.929  2.1413 -1.0854  0.8712
   96MPD2    H1 1499   2.078   0.480  15.790 -0.9359 -0.0319 -0.2568
   96MPD2    H2 1500   2.325   0.714  15.533  1.8465 -0.5325  0.1512
   96MPD2    H3 1501   2.192   0.512  15.563  0.8066  1.0569 -0.6774
   96MPD2     N 1502   2.084   0.640  15.989 -0.4038 -0.1204 -0.0003
   96MPD2    H5 1503   2.042   0.548  15.992 -2.5834  0.8276 -1.5006
   96MPD2    N1 1504   2.359   0.903  15.675 -0.6735  0.8216  0.1382
   96MPD2    H7 1505   2.397   0.896  15.581 -2.0183  3.0013 -0.5781
   97TMC2    C1 1506   3.966   3.143  17.579 -0.9731  0.2265 -0.1757
   97TMC2    C2 1507   3.955   3.038  17.486 -0.0783 -0.3255 -0.2403
   97TMC2    C3 1508   4.068   3.020  17.402  0.0196  0.1195 -0.0963
   97TMC2    C4 1509   4.076   3.227  17.593  0.9268 -0.9704 -0.2785
   97TMC2    C5 1510   4.165   3.225  17.488 -0.0918  0.0109 -0.2380
   97TMC2    C6 1511   4.167   3.117  17.402  0.2912 -0.0796  0.1920
   97TMC2     C 1512   3.854   3.152  17.671 -0.7090  0.2754  0.2904
   97TMC2     O 1513   3.773   3.064  17.677  0.2885 -0.7998  0.1990
   97TMC2     H 1514   3.865   2.978  17.482  0.0809 -0.3807 -2.4683
   97TMC2    H1 1515   4.082   3.306  17.667  0.1718 -0.6461 -0.5670
   97TMC2    H2 1516   4.253   3.090  17.342 -1.3499 -0.5343 -1.9834
   97TMC2    C7 1517   4.254   3.338  17.466  0.2394 -0.2181 -0.1757
   97TMC2    C8 1518   4.041   2.967  17.268  0.2234 -0.5714 -1.0112
   97TMC2    O1 1519   4.233   3.435  17.532  0.2280 -0.4500 -0.2381
   97TMC2    O2 1520   4.098   3.002  17.168 -0.0046  0.4643 -0.4150
   97TMC2    O5 1521   3.933   2.888  17.271 -0.0539  0.3382  0.2257
   97TMC2    H5 1522   3.931   2.835  17.354 -1.2888 -0.9247 -0.5972
   98MPD2     C 1523   3.654   3.338   0.379 -0.1192  0.9093 -0.7127
   98MPD2    C1 1524   3.651   3.213   0.317  0.4309 -0.4651  0.7053
   98MPD2    C2 1525   3.708   3.193   0.197  0.3239 -0.4015  0.3713
   98MPD2    C3 1526   3.784   3.292   0.136 -0.1663  0.5693  0.8320
   98MPD2    C4 1527   3.776   3.417   0.188  0.0604  0.3363 -0.3464
   98MPD2    C5 1528   3.707   3.445   0.308 -0.2720  0.2447  0.3024
   98MPD2     H 1529   3.708   3.093   0.155  1.1378 -0.0106 -0.5567
   98MPD2    H1 1530   3.824   3.500   0.137  0.0415  0.2162 -0.5606
   98MPD2    H2 1531   3.589   3.355   0.464  0.2680 -0.2480 -0.1983
   98MPD2    H3 1532   3.690   3.547   0.342  0.5919 -0.1573  1.9591
   98MPD2     N 1533   3.859   3.266   0.022 -0.3397 -0.2119  0.4084
   98MPD2    H5 1534   3.932   3.334   0.007 -0.6767  0.2764  0.9585
   98MPD2    N1 1535   3.600   3.105   0.390 -0.0754 -0.6659  0.7235
   98MPD2    H7 1536   3.586   3.022   0.333 -1.6557 -1.6738  2.5857
   99TMC2    C1 1537   2.240   0.689   1.686 -0.5268  0.2297  0.3112
   99TMC2    C2 1538   2.294   0.683   1.815 -0.0500 -1.4139 -0.1889
   99TMC2    C3 1539   2.207   0.658   1.918  0.0583  0.4812  0.0859
   99TMC2    C4 1540   2.107   0.667   1.665 -0.0384 -0.8208 -1.0369
   99TMC2    C5 1541   2.022   0.644   1.773  0.4109 -0.6361 -0.2017
   99TMC2    C6 1542   2.074   0.651   1.901 -0.0215  0.3325  1.1126
   99TMC2     C 1543   2.331   0.745   1.585  0.3038 -0.5241  0.4320
   99TMC2     O 1544   2.411   0.834   1.616  0.3490 -0.4701  0.3325
   99TMC2     H 1545   2.401   0.693   1.828 -0.5068  0.1915  2.2478
   99TMC2    H1 1546   2.067   0.679   1.565 -2.0192  1.7917  0.0298
   99TMC2    H2 1547   2.007   0.642   1.986 -0.8690 -1.4383  0.2680
   99TMC2    C7 1548   1.873   0.633   1.762 -0.0950 -0.3995  0.1208
   99TMC2    C8 1549   2.251   0.683   2.055  0.6928 -0.5608 -0.2151
   99TMC2    O1 1550   1.830   0.589   1.655  0.5120  0.2387 -0.3981
   99TMC2    O2 1551   2.188   0.760   2.126  0.4137  0.2612  0.1869
   99TMC2    O5 1552   2.375   0.629   2.065  0.4246  0.0956 -0.0916
   99TMC2    H5 1553   2.394   0.560   1.997  0.5107  1.9742 -1.9750
  100MPD2     C 1554   2.518   0.770   1.350  0.0354  0.2043  0.0881
  100MPD2    C1 1555   2.418   0.673   1.363  0.0007 -0.7530 -0.1896
  100MPD2    C2 1556   2.406   0.585   1.251 -0.1674 -0.1982 -0.4074
  100MPD2    C3 1557   2.506   0.568   1.155 -0.0206  0.8571 -0.1209
  100MPD2    C4 1558   2.608   0.665   1.148  0.5615 -0.6037  0.0685
  100MPD2    C5 1559   2.605   0.770   1.244 -0.0603 -0.4171 -0.6099
  100MPD2     H 1560   2.320   0.519   1.250  0.7554 -1.3662 -2.5175
  100MPD2    H1 1561   2.679   0.670   1.066 -0.0950  0.5521 -0.4214
  100MPD2    H2 1562   2.520   0.857   1.414  0.0166  0.2032  0.0901
  100MPD2    H3 1563   2.683   0.844   1.236  1.7011 -2.5498 -2.7850
  100MPD2     N 1564   2.499   0.465   1.060  0.0512 -0.0215  0.1789
  100MPD2    H5 1565   2.416   0.406   1.067 -0.0339  0.2181  1.2292
  100MPD2    N1 1566   2.323   0.672   1.468  0.6426 -1.0614  0.3095
  100MPD2    H7 1567   2.258   0.593   1.466  0.0115 -0.5310 -0.2641
  101TMC2    C1 1568   3.301   1.439  13.600  0.2949  0.2978 -0.2153
  101TMC2    C2 1569   3.369   1.490  13.707 -0.1557 -0.5703  0.0036
  101TMC2    C3 1570   3.440   1.604  13.684  0.6075  0.1566  0.3586
  101TMC2    C4 1571   3.295   1.510  13.479 -0.3821 -0.0350 -0.4132
  101TMC2    C5 1572   3.353   1.635  13.473 -0.5035 -0.0369  0.7914
  101TMC2    C6 1573   3.428   1.685  13.579  0.9582  0.2803 -0.4544
  101TMC2     C 1574   3.269   1.297  13.601 -0.7264 -0.4334 -0.0238
  101TMC2     O 1575   3.249   1.242  13.706 -0.4306  0.1556 -0.7019
  101TMC2     H 1576   3.378   1.438  13.802  0.0160 -1.4292 -0.4859
  101TMC2    H1 1577   3.235   1.462  13.402  1.6234 -0.9860 -1.3968
  101TMC2    H2 1578   3.488   1.775  13.570 -0.3600  1.1854 -0.1831
  101TMC2    C7 1579   3.356   1.709  13.349 -0.2947 -0.8403  0.3656
  101TMC2    C8 1580   3.548   1.637  13.776  0.2744  0.3183  0.2646
  101TMC2    O1 1581   3.406   1.820  13.351 -0.0915 -0.3341  0.3771
  101TMC2    O2 1582   3.596   1.750  13.778  0.2776 -0.0655 -0.1904
  101TMC2    O5 1583   3.577   1.535  13.861  0.3039 -0.0240 -0.1046
  101TMC2    H5 1584   3.526   1.453  13.843 -0.1328 -0.2192  2.0566
  102MPD2     C 1585   3.375   1.055  13.356 -0.4215  0.5542 -0.2113
  102MPD2    C1 1586   3.306   1.105  13.466 -0.0783  0.2021 -0.8097
  102MPD2    C2 1587   3.229   1.022  13.546  0.5750 -0.0025 -0.1133
  102MPD2    C3 1588   3.197   0.898  13.497 -0.0736 -0.2557  0.6881
  102MPD2    C4 1589   3.266   0.848  13.384 -0.1998 -0.5468 -0.1290
  102MPD2    C5 1590   3.362   0.924  13.316  0.3662 -1.2765  0.8743
  102MPD2     H 1591   3.172   1.060  13.631 -0.2979  0.0022 -0.7053
  102MPD2    H1 1592   3.241   0.751  13.342  3.4392 -1.8796  0.8225
  102MPD2    H2 1593   3.444   1.120  13.304  1.9819 -1.7522  0.0645
  102MPD2    H3 1594   3.412   0.883  13.229 -0.1297 -0.0328 -0.0014
  102MPD2     N 1595   3.092   0.829  13.561  0.8404  0.3388 -0.2822
  102MPD2    H5 1596   3.044   0.886  13.631  0.1102 -1.9938  1.1002
  102MPD2    N1 1597   3.320   1.241  13.492 -0.0189 -0.2316  0.0121
  102MPD2    H7 1598   3.374   1.295  13.425 -1.0315  0.4264 -0.2768
  103TMC2    C1 1599   1.182   1.829  12.498 -0.2284 -0.2108  0.1992
  103TMC2    C2 1600   1.177   1.894  12.382  0.1070  0.5782 -0.7493
  103TMC2    C3 1601   1.249   2.006  12.370 -0.1764 -0.1547  0.1265
  103TMC2    C4 1602   1.243   1.878  12.609 -0.7253 -0.3300  0.7914
  103TMC2    C5 1603   1.320   1.985  12.587  0.3351  0.8132 -0.0822
  103TMC2    C6 1604   1.329   2.050  12.471  0.5562 -0.5607 -0.9111
  103TMC2     C 1605   1.096   1.710  12.498 -0.9171  0.4180  0.9465
  103TMC2     O 1606   1.010   1.702  12.414  0.4701 -0.0506 -0.3980
  103TMC2     H 1607   1.142   1.841  12.294 -0.5385  0.9937 -0.7421
  103TMC2    H1 1608   1.241   1.830  12.706  0.4629 -0.8232  0.5733
  103TMC2    H2 1609   1.397   2.133  12.455 -0.3535 -0.0676 -2.2722
  103TMC2    C7 1610   1.359   2.061  12.708 -0.9352  0.6742 -0.0890
  103TMC2    C8 1611   1.246   2.075  12.243 -0.4829  0.0100  0.6939
  103TMC2    O1 1612   1.314   2.016  12.815  0.0450  0.4308 -0.6973
  103TMC2    O2 1613   1.261   2.016  12.135 -0.1696  0.2204 -0.7063
  103TMC2    O5 1614   1.270   2.202  12.272 -0.8177  0.4669 -0.0754
  103TMC2    H5 1615   1.220   2.226  12.353 -0.8195 -1.8658  0.6236
  104MPD2     C 1616   1.173   1.426  12.704  0.2040 -0.5511  0.0929
  104MPD2    C1 1617   1.093   1.500  12.625  0.4933  1.0436 -0.2847
  104MPD2    C2 1618   0.968   1.456  12.585  0.1091  1.2175 -0.1505
  104MPD2    C3 1619   0.918   1.343  12.633  0.6044  0.1075  0.6813
  104MPD2    C4 1620   0.994   1.262  12.720 -0.5263  0.6378 -0.3422
  104MPD2    C5 1621   1.120   1.303  12.756 -0.1220  0.0583 -0.0771
  104MPD2     H 1622   0.906   1.508  12.513 -2.2150  0.9296  1.6650
  104MPD2    H1 1623   0.960   1.165  12.757  3.5097 -0.3754  0.7171
  104MPD2    H2 1624   1.268   1.466  12.738  0.5740 -2.0400  0.7820
  104MPD2    H3 1625   1.181   1.233  12.811 -1.1614 -0.6622  0.1685
  104MPD2     N 1626   0.777   1.324  12.609  0.2505 -0.0738  0.2301
  104MPD2    H5 1627   0.742   1.393  12.543  1.8810  0.7791  0.2517
  104MPD2    N1 1628   1.152   1.621  12.580  0.3925  0.5013  0.4071
  104MPD2    H7 1629   1.250   1.636  12.603  1.2164 -3.5612 -0.5025
  105TMC2    C1 1630   2.696   0.786   0.139  0.0133  0.5196 -0.5486
  105TMC2    C2 1631   2.732   0.920   0.124 -0.2087  0.1821  0.5059
  105TMC2    C3 1632   2.668   1.010   0.197 -0.6464 -0.3026  0.0656
  105TMC2    C4 1633   2.605   0.747   0.231  0.9268  0.4696  0.2191
  105TMC2    C5 1634   2.551   0.846   0.313 -0.1178 -0.5352 -0.8554
  105TMC2    C6 1635   2.576   0.982   0.295  0.2023 -0.2235  0.9214
  105TMC2     C 1636   2.798   0.689   0.106  0.4323  0.5368 -0.7440
  105TMC2     O 1637   2.804   0.583   0.166  0.2091  0.1360  0.4998
  105TMC2     H 1638   2.789   0.950   0.037  0.2131 -0.5206  0.5396
  105TMC2    H1 1639   2.594   0.644   0.264 -0.9244  1.1890  1.8418
  105TMC2    H2 1640   2.510   1.063   0.321  0.7219  0.7557 -0.7661
  105TMC2    C7 1641   2.449   0.800   0.408 -0.6415  0.5314 -0.1133
  105TMC2    C8 1642   2.720   1.147   0.206  0.4482  0.0232  0.2993
  105TMC2    O1 1643   2.416   0.685   0.382 -1.0585 -0.3652 -0.4762
  105TMC2    O2 1644   2.665   1.255   0.181  0.1013 -0.6313 -0.4939
  105TMC2    O5 1645   2.853   1.132   0.211 -0.0444 -0.3511 -0.8735
  105TMC2    H5 1646   2.878   1.047   0.252  2.6507  1.5148  1.3516
  106MPD2     C 1647   3.212   0.570  17.558  0.2593  1.0390 -0.2644
  106MPD2    C1 1648   3.133   0.653  17.480  0.7911 -0.2349  0.3076
  106MPD2    C2 1649   3.021   0.699  17.544 -0.7678 -0.1240  0.4371
  106MPD2    C3 1650   2.974   0.665  17.670 -0.2513 -0.5874  0.9513
  106MPD2    C4 1651   3.066   0.592   0.013  0.1543  0.4484 -0.3863
  106MPD2    C5 1652   3.181   0.550  17.691 -0.1721 -0.0280  0.7685
  106MPD2     H 1653   2.964   0.769  17.483 -1.2400 -2.0834 -1.3571
  106MPD2    H1 1654   3.052   0.570   0.119  0.4796 -1.6187 -0.7684
  106MPD2    H2 1655   3.309   0.538  17.522 -0.4400 -1.0442 -0.3041
  106MPD2    H3 1656   3.255   0.497   0.018  0.0230 -1.6454 -0.9250
  106MPD2     N 1657   2.856   0.729  17.723  0.1157  0.1620  0.8348
  106MPD2    H5 1658   2.823   0.807  17.666 -1.9640 -1.9492 -0.8496
  106MPD2    N1 1659   3.160   0.690  17.345  0.7477  0.8897 -0.0386
  106MPD2    H7 1660   3.106   0.769  17.311 -1.0749 -0.8764 -1.2731
  107TMC2    C1 1661   3.351   0.697  11.708  0.0809  0.3592 -0.4479
  107TMC2    C2 1662   3.334   0.765  11.584  0.4237  0.0487  0.0413
  107TMC2    C3 1663   3.382   0.703  11.478 -0.2880  0.6204 -0.9874
  107TMC2    C4 1664   3.405   0.568  11.709 -0.6812  0.2213  0.4489
  107TMC2    C5 1665   3.460   0.520  11.596 -1.0059  0.5904  0.2678
  107TMC2    C6 1666   3.455   0.586  11.478 -0.6574  0.2612  0.0976
  107TMC2     C 1667   3.262   0.728  11.818  0.6209  0.1279  0.3040
  107TMC2     O 1668   3.273   0.666  11.924 -0.6630  0.5179 -0.3609
  107TMC2     H 1669   3.290   0.864  11.579 -2.2175 -1.2503 -2.3590
  107TMC2    H1 1670   3.404   0.512  11.802  1.2675 -1.1962 -0.3724
  107TMC2    H2 1671   3.480   0.540  11.383 -2.4154  1.0300 -0.7306
  107TMC2    C7 1672   3.517   0.390  11.605  0.1639 -0.4671 -0.1870
  107TMC2    C8 1673   3.376   0.765  11.348  0.0769  0.3950  0.5596
  107TMC2    O1 1674   3.494   0.330  11.709 -0.0236  0.5521  0.4801
  107TMC2    O2 1675   3.421   0.873  11.315  0.1784  0.4838 -0.4028
  107TMC2    O5 1676   3.333   0.673  11.258  0.2430 -0.1240  0.2872
  107TMC2    H5 1677   3.284   0.601  11.302 -2.3422  1.8977  0.7382
  108MPD2     C 1678   2.926   0.867  11.743 -0.1130  0.3755 -0.3743
  108MPD2    C1 1679   3.021   0.795  11.818 -0.1498 -0.0750  0.7354
  108MPD2    C2 1680   2.985   0.743  11.940  0.2211  0.2244  0.3096
  108MPD2    C3 1681   2.850   0.746  11.976 -0.6105  0.7025 -0.5056
  108MPD2    C4 1682   2.759   0.808  11.895 -0.1463  0.1585  0.8129
  108MPD2    C5 1683   2.802   0.875  11.791 -0.4513 -0.2807 -1.3335
  108MPD2     H 1684   3.056   0.697  12.007 -0.7346  0.9668  1.8440
  108MPD2    H1 1685   2.660   0.833  11.931 -0.4732 -2.1038  1.5011
  108MPD2    H2 1686   2.951   0.915  11.649  2.0723  1.0412  0.5404
  108MPD2    H3 1687   2.727   0.924  11.729 -0.5179  1.1178 -0.1512
  108MPD2     N 1688   2.798   0.676  12.084  0.4425  0.7482  0.1906
  108MPD2    H5 1689   2.704   0.708  12.107 -0.0672  1.1848 -2.4476
  108MPD2    N1 1690   3.153   0.793  11.764 -0.0822  0.6008  1.2146
  108MPD2    H7 1691   3.150   0.819  11.666  0.4959 -2.0005  0.5019
  109TMC2    C1 1692   3.230   1.839   0.242 -0.7452 -0.4908  0.2960
  109TMC2    C2 1693   3.263   1.809   0.105 -0.4183 -0.7108  0.4054
  109TMC2    C3 1694   3.373   1.875   0.054 -0.0752  0.4169 -0.2217
  109TMC2    C4 1695   3.302   1.928   0.320  0.3304  0.3876  1.3202
  109TMC2    C5 1696   3.413   1.981   0.258  0.1570  0.0630  0.4778
  109TMC2    C6 1697   3.444   1.969   0.120 -0.3664  0.2170  0.6058
  109TMC2     C 1698   3.101   1.802   0.285 -0.1857 -0.3924  0.1931
  109TMC2     O 1699   3.039   1.727   0.214 -0.2453  0.0219 -0.1248
  109TMC2     H 1700   3.211   1.737   0.043 -0.1413  0.8310 -1.6036
  109TMC2    H1 1701   3.297   1.941   0.427 -2.3514 -2.7849  1.5529
  109TMC2    H2 1702   3.522   2.024   0.067 -0.6200 -0.1980 -0.2083
  109TMC2    C7 1703   3.468   2.097   0.323 -0.2578 -0.6631  0.4061
  109TMC2    C8 1704   3.385   1.877  17.646  0.1754  0.3022 -0.7139
  109TMC2    O1 1705   3.393   2.147   0.408  0.2018 -0.1676 -0.6385
  109TMC2    O2 1706   3.489   1.881  17.583  0.0347 -0.8173 -0.0784
  109TMC2    O5 1707   3.268   1.924  17.594 -0.1119 -0.2249  0.7902
  109TMC2    H5 1708   3.192   1.937  17.655 -0.6887 -1.1821  0.2630
  110MPD2     C 1709   2.747   1.900   0.649 -0.3549  0.1888  0.0776
  110MPD2    C1 1710   2.840   2.004   0.643  0.4110  0.8808 -0.7401
  110MPD2    C2 1711   2.941   1.998   0.548 -0.5724  0.4177  1.1240
  110MPD2    C3 1712   2.947   1.891   0.463  0.0338  0.2246  0.2624
  110MPD2    C4 1713   2.855   1.787   0.469 -0.8194  0.1822 -0.2426
  110MPD2    C5 1714   2.758   1.798   0.562 -0.9501  0.3660 -0.3026
  110MPD2     H 1715   3.023   2.068   0.549 -0.5793  0.4330 -0.0747
  110MPD2    H1 1716   2.853   1.699   0.406 -1.0384  1.2749 -1.7661
  110MPD2    H2 1717   2.667   1.892   0.723 -0.5405  3.0694  0.1611
  110MPD2    H3 1718   2.692   1.712   0.568  1.5601 -1.3551  2.7408
  110MPD2     N 1719   3.060   1.886   0.381  0.1699 -0.0722 -0.6706
  110MPD2    H5 1720   3.113   1.969   0.403  0.6921  0.2166 -3.0805
  110MPD2    N1 1721   2.834   2.109   0.743  0.2778 -0.5364 -0.1647
  110MPD2    H7 1722   2.774   2.087   0.822  0.0433  0.0887 -0.1749
  111TMC2    C1 1723   2.925   2.157  11.749  0.3675  0.2467  0.8450
  111TMC2    C2 1724   2.841   2.048  11.734  0.0187  0.4526 -0.3414
  111TMC2    C3 1725   2.871   1.940  11.810  0.3091  0.1583  0.3322
  111TMC2    C4 1726   3.027   2.166  11.838 -0.2488 -0.0974  0.3873
  111TMC2    C5 1727   3.065   2.046  11.890 -0.2535  0.2640 -0.2034
  111TMC2    C6 1728   2.988   1.935  11.882  0.7034  0.3299 -0.5663
  111TMC2     C 1729   2.887   2.284  11.694  0.7433 -0.1310 -0.6500
  111TMC2     O 1730   2.814   2.267  11.593  0.2857 -0.2358 -0.4339
  111TMC2     H 1731   2.770   2.038  11.652 -0.1965 -0.6729 -0.0167
  111TMC2    H1 1732   3.091   2.253  11.849  1.2536 -1.0308 -0.8812
  111TMC2    H2 1733   3.016   1.844  11.933 -2.2371  1.2006  2.5776
  111TMC2    C7 1734   3.180   2.046  11.978 -0.7255 -0.0756 -0.4511
  111TMC2    C8 1735   2.781   1.829  11.827  0.0747  0.1862  0.0892
  111TMC2    O1 1736   3.185   1.970  12.075 -0.1402 -0.0224  0.5419
  111TMC2    O2 1737   2.826   1.714  11.838 -0.2750 -0.4552  0.2822
  111TMC2    O5 1738   2.669   1.852  11.750 -0.5741 -0.4082  0.1966
  111TMC2    H5 1739   2.632   1.938  11.779  0.4362  0.7964 -2.1315
  112MPD2     C 1740   2.813   2.782  11.662  0.5679 -0.4869 -0.5021
  112MPD2    C1 1741   2.828   2.685  11.566 -0.2402 -0.0109  0.2444
  112MPD2    C2 1742   2.872   2.560  11.598  0.0936  0.5075 -0.0283
  112MPD2    C3 1743   2.886   2.528  11.733  0.5486  0.3650 -0.0222
  112MPD2    C4 1744   2.880   2.627  11.826  0.4941  0.5472  0.4027
  112MPD2    C5 1745   2.844   2.751  11.793 -0.2444  0.5342 -0.2325
  112MPD2     H 1746   2.880   2.489  11.516 -1.4421 -1.0974  1.2175
  112MPD2    H1 1747   2.887   2.613  11.934 -0.4156 -1.2248  0.2205
  112MPD2    H2 1748   2.775   2.879  11.630 -0.2274 -0.9142 -0.8667
  112MPD2    H3 1749   2.832   2.833  11.862  0.1501 -0.7399  1.3441
  112MPD2     N 1750   2.913   2.397  11.774  0.8442  0.7402 -0.7734
  112MPD2    H5 1751   2.926   2.383  11.874 -0.2722 -0.0500 -0.7432
  112MPD2    N1 1752   2.788   2.709  11.428 -0.3239 -0.1501  0.4100
  112MPD2    H7 1753   2.831   2.645  11.362  1.3719  1.7820 -0.3674
  113TMC2    C1 1754   1.090   4.704   0.802  0.2586 -0.0939 -0.1197
  113TMC2    C2 1755   1.029   0.040   0.697 -0.3076  0.3044  0.7673
  113TMC2    C3 1756   1.011   4.702   0.582  0.9153  1.4565  0.7009
  113TMC2    C4 1757   1.123   4.568   0.785  0.7551 -0.0555 -0.6324
  113TMC2    C5 1758   1.109   4.508   0.669  0.3400 -0.1072  0.1298
  113TMC2    C6 1759   1.038   4.570   0.564  0.7781  0.3601  0.0327
  113TMC2     C 1760   1.151   0.053   0.900 -1.1858 -0.1229  0.2063
  113TMC2     O 1761   1.154   0.174   0.868  0.2263  0.6510  0.4185
  113TMC2     H 1762   1.006   0.146   0.707 -1.6611  0.0328  0.5556
  113TMC2    H1 1763   1.192   4.517   0.852  0.5242 -1.1203 -1.2123
  113TMC2    H2 1764   1.037   4.526   0.465 -0.9518  3.1447 -1.2030
  113TMC2    C7 1765   1.130   4.365   0.651 -0.2291  0.1257 -0.4009
  113TMC2    C8 1766   0.947   0.035   0.468 -0.3109  0.1956  0.0437
  113TMC2    O1 1767   1.171   4.324   0.541 -0.2100 -0.1257 -0.0700
  113TMC2    O2 1768   0.973   0.153   0.452 -0.4180 -0.1351  0.1799
  113TMC2    O5 1769   0.835   4.704   0.435 -0.6614 -0.4714 -0.3877
  113TMC2    H5 1770   0.819   4.620   0.483  0.6331  0.0994  1.0343
  114MPD2     C 1771   1.450   0.139   1.317  0.5688 -0.4364 -0.2626
  114MPD2    C1 1772   1.398   0.230   1.225 -0.6735 -0.1565 -1.0728
  114MPD2    C2 1773   1.321   0.178   1.123 -0.0470  0.2205 -0.1915
  114MPD2    C3 1774   1.294   0.042   1.107  0.3212  0.4891 -0.2329
  114MPD2    C4 1775   1.337   4.692   1.209 -1.0066 -0.4541  0.8639
  114MPD2    C5 1776   1.418   0.004   1.309  0.0035 -0.4571 -0.5446
  114MPD2     H 1777   1.280   0.252   1.055 -0.7028  0.3412  0.3338
  114MPD2    H1 1778   1.310   4.587   1.211  3.9361 -1.7312  0.8120
  114MPD2    H2 1779   1.516   0.167   1.399  0.5191  0.1678 -0.4261
  114MPD2    H3 1780   1.435   4.667   1.389  2.2051 -0.0527 -0.6616
  114MPD2     N 1781   1.220   4.719   0.998  0.0266 -0.4365 -0.3308
  114MPD2    H5 1782   1.206   4.619   1.007  0.3540 -0.6244 -1.9591
  114MPD2    N1 1783   1.413   0.369   1.225  0.2006 -0.2486 -0.4533
  114MPD2    H7 1784   1.358   0.417   1.155  0.7255 -0.8880 -1.3139
  115TMC2    C1 1785   2.598   2.667  17.675  0.1515  0.5328  0.9017
  115TMC2    C2 1786   2.665   2.646   0.061  0.0544 -0.1516  0.0900
  115TMC2    C3 1787   2.682   2.748   0.150  0.7706 -0.2710 -0.2842
  115TMC2    C4 1788   2.560   2.793  17.638 -0.4192  1.1222 -0.0008
  115TMC2    C5 1789   2.595   2.899  17.724 -0.3654  0.2875 -0.4450
  115TMC2    C6 1790   2.652   2.877   0.117 -1.2272  0.3916  0.9671
  115TMC2     C 1791   2.556   2.559  17.593 -0.3342  0.0962 -0.1477
  115TMC2     O 1792   2.479   2.588  17.503 -0.3077 -0.0888 -0.1842
  115TMC2     H 1793   2.711   2.553   0.094  1.0842  0.0408 -0.7936
  115TMC2    H1 1794   2.511   2.812  17.543 -1.2838 -0.3612  0.1477
  115TMC2    H2 1795   2.690   2.961   0.174 -0.5689  0.7446  0.0085
  115TMC2    C7 1796   2.591   3.034  17.680  0.0495  0.2350  0.2308
  115TMC2    C8 1797   2.799   2.743   0.237 -0.5905  0.0439 -0.1639
  115TMC2    O1 1798   2.565   3.049  17.562 -0.5719 -0.1514 -0.0231
  115TMC2    O2 1799   2.897   2.826   0.230 -1.2254  0.7044  0.0864
  115TMC2    O5 1800   2.786   2.649   0.326 -0.3831 -0.9343 -0.0392
  115TMC2    H5 1801   2.704   2.597   0.313 -1.2495  0.3787  0.0882
  116MPD2     C 1802   2.655   2.076  17.449 -0.6474  0.1838  0.8209
  116MPD2    C1 1803   2.560   2.170  17.390 -0.4735 -0.2096 -0.2176
  116MPD2    C2 1804   2.546   2.294  17.450  0.0212 -0.6128 -0.7717
  116MPD2    C3 1805   2.627   2.323  17.558 -0.1596  0.3412 -0.9213
  116MPD2    C4 1806   2.714   2.233  17.609 -0.5338 -0.2819  0.4112
  116MPD2    C5 1807   2.734   2.106  17.556 -0.2520  0.4924  0.4056
  116MPD2     H 1808   2.482   2.366  17.400  1.3194 -0.2052 -1.8392
  116MPD2    H1 1809   2.771   2.253  17.699  0.8858  1.0989 -0.8023
  116MPD2    H2 1810   2.660   1.976  17.408  0.2297  0.5033  0.1450
  116MPD2    H3 1811   2.812   2.047  17.603 -1.6383 -1.7517 -0.0922
  116MPD2     N 1812   2.628   2.447  17.622 -0.1580 -0.0883 -0.1791
  116MPD2    H5 1813   2.699   2.451  17.694 -0.2430  0.2504 -0.1144
  116MPD2    N1 1814   2.500   2.134  17.262 -0.6286  0.0145 -0.2572
  116MPD2    H7 1815   2.528   2.043  17.228 -0.0606  0.9006 -2.1502
  117TMC2    C1 1816   1.301   4.065  14.374  0.1067 -0.8442 -0.2380
  117TMC2    C2 1817   1.279   4.022  14.496  0.6149 -0.3153  0.0219
  117TMC2    C3 1818   1.353   4.083  14.591  0.1050  0.3571  0.1387
  117TMC2    C4 1819   1.398   4.151  14.333  0.6350  0.3596 -0.2867
  117TMC2    C5 1820   1.469   4.211  14.433 -0.5767 -0.2633 -0.8166
  117TMC2    C6 1821   1.443   4.183  14.563 -0.2817 -0.2737 -0.9816
  117TMC2     C 1822   1.196   4.037  14.277 -0.5976 -0.0126  0.0358
  117TMC2     O 1823   1.117   3.944  14.296  0.1272  0.1687 -0.0337
  117TMC2     H 1824   1.201   3.952  14.523 -0.5925  0.7797 -0.6635
  117TMC2    H1 1825   1.428   4.162  14.230  0.2552  0.3505 -0.3965
  117TMC2    H2 1826   1.512   4.213  14.642 -0.0399  2.2096 -2.1372
  117TMC2    C7 1827   1.503   4.354  14.419  0.3194 -0.1149  0.7207
  117TMC2    C8 1828   1.341   4.038  14.721  0.1162 -0.4625 -0.1500
  117TMC2    O1 1829   1.542   4.416  14.520  0.3703 -0.4090 -0.2614
  117TMC2    O2 1830   1.293   3.926  14.739  0.8058 -0.0051 -0.4477
  117TMC2    O5 1831   1.331   4.143  14.808  0.2170  0.5721  0.0223
  117TMC2    H5 1832   1.343   4.231  14.767  2.6152  0.5437  0.6644
  118MPD2     C 1833   1.419   4.585  14.153 -0.2521 -0.5903 -0.0394
  118MPD2    C1 1834   1.473   4.549  14.275  1.0761  0.4303  0.1666
  118MPD2    C2 1835   1.493   4.653  14.364  0.0492 -0.2942 -1.0964
  118MPD2    C3 1836   1.472   0.054  14.332  0.3666  0.4047 -0.0713
  118MPD2    C4 1837   1.407   0.087  14.209 -0.3850 -0.4135  0.3655
  118MPD2    C5 1838   1.386   4.716  14.126 -0.5801  0.1855  0.4584
  118MPD2     H 1839   1.537   4.629  14.460 -1.0336  1.9147 -0.0465
  118MPD2    H1 1840   1.375   0.185  14.176  1.5090 -0.2294 -0.8702
  118MPD2    H2 1841   1.385   4.509  14.084 -2.5979  1.0615 -0.7182
  118MPD2    H3 1842   1.335   0.010  14.034  0.5814 -0.1307 -0.2858
  118MPD2     N 1843   1.518   0.148  14.431  0.5673  0.2523 -0.0351
  118MPD2    H5 1844   1.595   0.125  14.492  0.3166 -0.2159  0.0996
  118MPD2    N1 1845   1.480   4.408  14.294  0.2004  0.3195  0.2791
  118MPD2    H7 1846   1.447   4.346  14.220 -1.5547  0.5348  0.8837
  119TMC2    C1 1847   4.338   0.866  13.446  0.1827 -0.6515 -0.0090
  119TMC2    C2 1848   4.385   0.915  13.332  0.0598 -0.3179  0.2371
  119TMC2    C3 1849   4.371   0.842  13.219  0.3812  0.4741 -0.1320
  119TMC2    C4 1850   4.269   0.748  13.459 -0.2285  0.5499 -0.0641
  119TMC2    C5 1851   4.245   0.684  13.340 -0.0873 -0.5390  0.6834
  119TMC2    C6 1852   4.297   0.729  13.225 -0.4705 -0.4486  0.5899
  119TMC2     C 1853   4.359   0.946  13.565 -0.1001 -0.4991  0.0516
  119TMC2     O 1854   4.285   0.914  13.656 -0.0422 -0.4201 -0.2779
  119TMC2     H 1855   4.418   1.017  13.322 -0.3745 -0.2458 -0.4776
  119TMC2    H1 1856   4.247   0.703  13.555 -0.2429  2.3903  0.7835
  119TMC2    H2 1857   4.276   0.680  13.130  2.5666 -1.8717  0.6741
  119TMC2    C7 1858   4.116   0.607  13.327 -0.6669  0.2024  0.0855
  119TMC2    C8 1859   4.413   0.886  13.088 -0.3974  0.7784 -0.5212
  119TMC2    O1 1860   4.073   0.592  13.212 -0.2955  0.0350 -0.1816
  119TMC2    O2 1861   4.339   0.873  12.993  0.0604 -0.1581  0.1450
  119TMC2    O5 1862   4.545   0.898  13.093  0.3062 -0.2537 -0.3870
  119TMC2    H5 1863   4.595   0.881  13.175 -1.4638 -1.0538  0.5242
  120MPD2     C 1864   4.581   1.287  13.872  1.0965  0.0147  1.0282
  120MPD2    C1 1865   4.478   1.199  13.898 -0.0910  0.4760  0.9436
  120MPD2    C2 1866   4.431   1.123  13.790 -0.3127  0.3443  0.2247
  120MPD2    C3 1867   4.487   1.128  13.662  0.2243 -1.0227 -0.6510
  120MPD2    C4 1868   4.588   1.213  13.650 -0.0069 -0.1382  0.6383
  120MPD2    C5 1869   4.629   1.297  13.749 -0.4099 -0.0449 -0.0512
  120MPD2     H 1870   4.347   1.059  13.811 -0.0401  0.6766  2.2785
  120MPD2    H1 1871   4.646   1.214  13.559 -1.2130  0.3033 -0.1288
  120MPD2    H2 1872   4.624   1.353  13.947  2.1833  1.5368 -0.9517
  120MPD2    H3 1873   4.709   1.366  13.726  0.3429 -0.1910  2.1117
  120MPD2     N 1874   4.451   1.047  13.553 -0.2035  0.1969  0.0942
  120MPD2    H5 1875   4.510   1.056  13.471  0.0819  1.0031  0.3957
  120MPD2    N1 1876   4.439   1.182  14.035 -0.1125  0.2143 -0.2867
  120MPD2    H7 1877   4.459   1.264  14.093  0.2826  0.3217 -0.5779
  121TMC2    C1 1878   0.933   2.601  14.464 -0.1226 -0.2756 -0.1181
  121TMC2    C2 1879   0.977   2.561  14.582 -0.2027 -0.1669  0.9178
  121TMC2    C3 1880   0.893   2.563  14.687  0.3345  0.6057  0.4510
  121TMC2    C4 1881   0.802   2.638  14.450  0.0208 -0.0572 -0.1399
  121TMC2    C5 1882   0.716   2.616  14.556  0.2222 -0.6474 -0.4461
  121TMC2    C6 1883   0.760   2.575  14.675 -0.6228  0.5130 -0.0313
  121TMC2     C 1884   1.022   2.567  14.353 -0.3276 -0.2226  0.1837
  121TMC2     O 1885   1.103   2.474  14.365  0.3973  0.0261  0.0853
  121TMC2     H 1886   1.082   2.536  14.589  0.1175  1.3053  1.5240
  121TMC2    H1 1887   0.765   2.690  14.363  0.0884  1.6053  0.8275
  121TMC2    H2 1888   0.696   2.570  14.762 -0.7405  0.1080 -0.1390
  121TMC2    C7 1889   0.585   2.674  14.543 -0.1138  0.5237 -0.6975
  121TMC2    C8 1890   0.931   2.471  14.797 -0.1133  0.4319  0.0219
  121TMC2    O1 1891   0.584   2.795  14.522  0.2410  0.0138  0.3450
  121TMC2    O2 1892   0.848   2.403  14.857  0.6558 -0.0385  0.0473
  121TMC2    O5 1893   1.062   2.473  14.808 -0.5325 -0.3512  0.3119
  121TMC2    H5 1894   1.112   2.550  14.773 -1.0843 -0.2529 -0.2386
  122MPD2     C 1895   1.193   2.618  14.121 -0.0743 -0.0142 -0.6829
  122MPD2    C1 1896   1.064   2.661  14.132  0.7354  0.1226  0.1068
  122MPD2    C2 1897   1.008   2.725  14.021 -0.5941 -0.2625 -0.4306
  122MPD2    C3 1898   1.084   2.750  13.904 -0.1238  0.4259 -0.0909
  122MPD2    C4 1899   1.216   2.698  13.901  0.1623  0.8403  0.3299
  122MPD2    C5 1900   1.268   2.642  14.014  0.1912  0.0153 -0.3864
  122MPD2     H 1901   0.905   2.756  14.015 -1.6287 -3.8405 -0.9110
  122MPD2    H1 1902   1.290   2.729  13.828 -2.2339  3.1071 -1.1271
  122MPD2    H2 1903   1.243   2.575  14.207 -1.4501 -0.9021 -0.3241
  122MPD2    H3 1904   1.371   2.608  14.012  0.0630 -0.4139  0.1901
  122MPD2     N 1905   1.040   2.833  13.801 -0.1598 -0.3894 -0.0819
  122MPD2    H5 1906   1.107   2.871  13.735 -0.7472 -1.6784 -1.4264
  122MPD2    N1 1907   0.995   2.648  14.246  0.2702 -0.3874 -0.1182
  122MPD2    H7 1908   0.907   2.698  14.256 -0.2028 -1.1000 -0.6480
  123TMC2    C1 1909   3.242   1.255  11.339 -0.6941  0.3070  0.0167
  123TMC2    C2 1910   3.242   1.292  11.472  0.1318 -0.4946  0.6136
  123TMC2    C3 1911   3.361   1.297  11.539  0.2752 -0.3030  0.4251
  123TMC2    C4 1912   3.365   1.224  11.284 -0.1301  0.2970 -0.3191
  123TMC2    C5 1913   3.486   1.231  11.357  1.2220  0.1210  0.4948
  123TMC2    C6 1914   3.481   1.270  11.489 -0.2790 -0.0393  0.1514
  123TMC2     C 1915   3.124   1.178  11.287  0.0893  0.0113  0.3315
  123TMC2     O 1916   3.011   1.213  11.318 -0.4921 -0.5216  0.6753
  123TMC2     H 1917   3.155   1.306  11.535 -0.1763  0.9197 -0.1382
  123TMC2    H1 1918   3.364   1.193  11.180 -1.2164  0.2563 -0.2899
  123TMC2    H2 1919   3.564   1.248  11.556 -0.4938  1.1252  0.7956
  123TMC2    C7 1920   3.608   1.199  11.294  0.2364  0.2622 -0.1608
  123TMC2    C8 1921   3.342   1.269  11.681 -0.1357 -0.1333 -0.1009
  123TMC2    O1 1922   3.593   1.133  11.192  0.7364  0.0504  0.6874
  123TMC2    O2 1923   3.434   1.283  11.759  0.1923  0.3996  0.5611
  123TMC2    O5 1924   3.262   1.154  11.678  0.4834  0.0676 -0.3749
  123TMC2    H5 1925   3.175   1.155  11.633 -0.1875 -0.4720  0.8968
  124MPD2     C 1926   2.957   0.798  10.995 -0.0208 -0.3970  0.2435
  124MPD2    C1 1927   3.094   0.788  11.005 -0.0824 -0.4468 -0.0123
  124MPD2    C2 1928   3.161   0.880  11.088 -0.3469 -0.0924 -0.3284
  124MPD2    C3 1929   3.091   0.976  11.150  0.1943 -0.1306 -0.4951
  124MPD2    C4 1930   2.958   0.983  11.144  0.4156  0.0867  0.0705
  124MPD2    C5 1931   2.891   0.882  11.080  0.3831 -0.6210  0.7241
  124MPD2     H 1932   3.269   0.870  11.094 -0.4573  0.1958  2.1889
  124MPD2    H1 1933   2.902   1.064  11.190  0.2207 -0.1605  0.2681
  124MPD2    H2 1934   2.897   0.722  10.947  1.1933 -1.0212 -0.3001
  124MPD2    H3 1935   2.783   0.884  11.071  0.4658  2.5445  0.3012
  124MPD2     N 1936   3.168   1.074  11.218 -0.3823  0.2439  1.0754
  124MPD2    H5 1937   3.268   1.062  11.217 -0.0560  2.7826  3.0151
  124MPD2    N1 1938   3.155   0.689  10.926 -0.1760 -0.3817  0.0158
  124MPD2    H7 1939   3.090   0.628  10.876  0.3083 -2.6764  2.2059
  125TMC2    C1 1940   4.313   3.247  10.114  0.3175  1.2732  0.5801
  125TMC2    C2 1941   4.221   3.142  10.105 -0.0968 -0.4688  0.2296
  125TMC2    C3 1942   4.234   3.058   9.996  0.0062  0.4238  0.1140
  125TMC2    C4 1943   4.414   3.258  10.028 -0.3838  0.4951 -0.7424
  125TMC2    C5 1944   4.434   3.161   9.933 -0.6494 -0.6036  0.5154
  125TMC2    C6 1945   4.337   3.065   9.907  1.2167 -0.1665 -0.3245
  125TMC2     C 1946   4.290   3.341  10.221  0.2993  0.1907 -0.0910
  125TMC2     O 1947   4.190   3.321  10.293  0.2001 -0.2368  0.1149
  125TMC2     H 1948   4.141   3.127  10.177  0.1223 -2.2486  0.1027
  125TMC2    H1 1949   4.497   3.325  10.048  0.6595 -0.7481 -0.8867
  125TMC2    H2 1950   4.344   2.986   9.832 -0.4365 -0.2916 -0.3458
  125TMC2    C7 1951   4.538   3.176   9.829 -0.0739  0.5461  0.0990
  125TMC2    C8 1952   4.150   2.931   9.994 -0.7706 -0.1391 -0.4018
  125TMC2    O1 1953   4.537   3.087   9.747 -0.1410 -0.3281  0.5349
  125TMC2    O2 1954   4.202   2.832   9.951 -0.4512  0.3105  0.1677
  125TMC2    O5 1955   4.029   2.970   9.956 -0.4030  0.1340 -0.4343
  125TMC2    H5 1956   4.013   3.062   9.985 -3.9844 -0.0558 -1.9052
  126MPD1     C 1957   4.349   3.798  10.471 -0.1225 -0.2758  0.1570
  126MPD1    C1 1958   4.466   3.769  10.410  0.0137 -0.1387 -0.7839
  126MPD1    C2 1959   4.465   3.653  10.334  0.2141  0.2345 -0.0183
  126MPD1    C3 1960   4.368   3.556  10.328  0.0376  0.0590  0.0864
  126MPD1    C4 1961   4.257   3.577  10.412 -0.1747 -0.9360 -1.0559
  126MPD1    C5 1962   4.249   3.704  10.483  0.2203  0.6839 -0.0741
  126MPD1     H 1963   4.548   3.621  10.271 -0.0621 -1.3096  0.3860
  126MPD1    H1 1964   4.179   3.503  10.426  0.2695 -0.8182  2.1903
  126MPD1    H2 1965   4.340   3.893  10.524 -0.2528  0.1191 -0.5725
  126MPD1    H3 1966   4.159   3.730  10.538 -0.3191 -1.4247  0.0599
  126MPD1     N 1967   4.385   3.443  10.238 -0.0973 -0.3378  0.6227
  126MPD1    H5 1968   4.467   3.445  10.178 -0.7642  0.5031 -0.2670
  126MPD1    N1 1969   4.565   3.864  10.389 -0.3365  0.4163 -0.3066
  126MPD1    H6 1970   4.653   3.828  10.353 -0.8895  0.6171 -1.8234
  126MPD1    H7 1971   4.582   3.915  10.476  0.6687 -1.9277  0.8931
  127TMC2    C1 1972   0.577   1.338   9.703  1.0426  0.2306  0.3376
  127TMC2    C2 1973   0.576   1.334   9.837  0.4493  0.5817 -0.3486
  127TMC2    C3 1974   0.507   1.233   9.902  0.9831 -0.0360  0.0259
  127TMC2    C4 1975   0.510   1.251   9.623  0.1186 -0.0108 -0.4845
  127TMC2    C5 1976   0.450   1.149   9.689 -0.0073  0.3248  0.1243
  127TMC2    C6 1977   0.437   1.136   9.826 -0.3637  0.3542  0.3512
  127TMC2     C 1978   0.644   1.458   9.642  0.2061  0.1197 -0.3470
  127TMC2     O 1979   0.702   1.531   9.717 -0.1470 -1.0688 -0.4456
  127TMC2     H 1980   0.618   1.419   9.889  1.5868 -0.5154  0.5289
  127TMC2    H1 1981   0.533   1.241   9.517  0.2377 -3.2771 -0.1609
  127TMC2    H2 1982   0.392   1.049   9.871  1.9820  0.0645  2.1239
  127TMC2    C7 1983   0.423   1.019   9.626 -0.5080 -0.0451  0.9934
  127TMC2    C8 1984   0.541   1.186  10.034 -0.2238 -0.7831 -0.4831
  127TMC2    O1 1985   0.309   0.976   9.621 -0.5410  0.0514  0.4451
  127TMC2    O2 1986   0.477   1.105  10.092 -0.0090  0.1305  0.1946
  127TMC2    O5 1987   0.647   1.251  10.075  0.2832 -0.1120  0.7128
  127TMC2    H5 1988   0.713   1.267  10.004 -0.2000 -0.4779  0.1849
  128MPD2     C 1989   0.705   1.558   9.289  0.7425 -0.1046  0.3449
  128MPD2    C1 1990   0.703   1.570   9.425 -0.0088  0.1887  0.4800
  128MPD2    C2 1991   0.762   1.686   9.480 -0.0569 -0.2829  0.5419
  128MPD2    C3 1992   0.835   1.773   9.401 -0.0053 -0.4537  0.4827
  128MPD2    C4 1993   0.838   1.752   9.264  1.0599  0.3891  0.1042
  128MPD2    C5 1994   0.779   1.639   9.208 -0.5348  0.7526  0.5493
  128MPD2     H 1995   0.753   1.723   9.581 -2.6661  0.4669  0.0432
  128MPD2    H1 1996   0.900   1.817   9.203 -0.4061 -1.8430 -3.7889
  128MPD2    H2 1997   0.666   1.468   9.244  1.1141  0.1888 -0.5797
  128MPD2    H3 1998   0.788   1.623   9.101 -2.0670 -1.9538  0.8277
  128MPD2     N 1999   0.903   1.880   9.464 -0.0380  0.0671 -0.7412
  128MPD2    H5 2000   0.914   1.877   9.565  0.8197  2.4506 -0.7550
  128MPD2    N1 2001   0.644   1.468   9.506  0.3797 -0.3938 -0.0221
  128MPD2    H7 2002   0.587   1.400   9.458 -2.4752  2.1040 -0.1610
  129TMC2    C1 2003   3.473   2.466   1.644 -0.2630 -0.0435  0.1451
  129TMC2    C2 2004   3.581   2.390   1.633 -0.2294 -0.5097  1.1586
  129TMC2    C3 2005   3.584   2.291   1.537 -1.0470  0.4484  0.8299
  129TMC2    C4 2006   3.359   2.450   1.568 -0.2126  0.7789 -0.4640
  129TMC2    C5 2007   3.370   2.356   1.462  0.2790  0.8095  0.2715
  129TMC2    C6 2008   3.487   2.285   1.441 -0.6132  0.1506 -0.6625
  129TMC2     C 2009   3.496   2.598   1.713  0.0502  0.7315  0.2040
  129TMC2     O 2010   3.593   2.603   1.789 -1.0588  0.8052  0.0421
  129TMC2     H 2011   3.671   2.405   1.691 -0.5155 -3.5789  2.3964
  129TMC2    H1 2012   3.265   2.503   1.581 -0.6121 -0.2904  1.0117
  129TMC2    H2 2013   3.487   2.202   1.372  0.0348 -0.2825 -0.1443
  129TMC2    C7 2014   3.246   2.323   1.390  0.5523 -0.2741 -0.2217
  129TMC2    C8 2015   3.707   2.264   1.472  0.9183  0.1656  0.0582
  129TMC2    O1 2016   3.138   2.366   1.432 -0.0106 -0.3790  0.4359
  129TMC2    O2 2017   3.705   2.236   1.356 -0.5881  0.1089 -0.0522
  129TMC2    O5 2018   3.769   2.197   1.575 -0.3491 -0.3460  0.1382
  129TMC2    H5 2019   3.734   2.218   1.664  1.0225  2.0423  0.1020
  130MPD2     C 2020   3.422   2.836   1.854  0.0890 -0.3603  0.3315
  130MPD2    C1 2021   3.396   2.812   1.722 -0.3538  0.0648 -0.3248
  130MPD2    C2 2022   3.337   2.908   1.646  0.0914  0.1155 -0.7482
  130MPD2    C3 2023   3.325   3.035   1.702 -0.0719  0.0202 -0.2319
  130MPD2    C4 2024   3.342   3.056   1.834  0.1622 -0.0165 -0.2775
  130MPD2    C5 2025   3.384   2.953   1.909  0.1461  0.5458 -0.3585
  130MPD2     H 2026   3.334   2.890   1.539 -1.5721 -5.2642  0.2306
  130MPD2    H1 2027   3.314   3.143   1.892  0.7429 -0.1724  0.2305
  130MPD2    H2 2028   3.466   2.760   1.917  0.4826 -1.1021 -0.8346
  130MPD2    H3 2029   3.400   2.966   2.016 -2.8598 -0.8200  0.2606
  130MPD2     N 2030   3.302   3.137   1.610 -0.6641 -0.2124  0.1273
  130MPD2    H5 2031   3.287   3.101   1.517  2.5671 -1.3532  0.0721
  130MPD2    N1 2032   3.437   2.701   1.654 -0.1115 -0.2250 -0.1732
  130MPD2    H7 2033   3.397   2.682   1.562  1.0633  1.2058 -0.9619
  131TMC2    C1 2034   4.002   1.260  10.401 -0.7415 -0.0829  0.8138
  131TMC2    C2 2035   4.044   1.254  10.530  1.2473  0.4362  0.1624
  131TMC2    C3 2036   4.104   1.367  10.589 -0.5663  0.3072 -0.1746
  131TMC2    C4 2037   4.016   1.373  10.329 -0.0895 -0.3127  0.7443
  131TMC2    C5 2038   4.058   1.485  10.400  0.5856  0.2722  0.0183
  131TMC2    C6 2039   4.118   1.486  10.524  0.2760 -0.1966 -0.4538
  131TMC2     C 2040   3.970   1.137  10.339 -0.0609 -0.2544 -0.5366
  131TMC2     O 2041   4.008   1.134  10.225 -0.0946  0.2704  0.0592
  131TMC2     H 2042   4.035   1.171  10.599 -1.1287 -0.7463 -1.5561
  131TMC2    H1 2043   3.958   1.370  10.237  1.6141 -1.4869 -0.2941
  131TMC2    H2 2044   4.166   1.575  10.563 -1.8242  0.7018  0.0868
  131TMC2    C7 2045   4.074   1.600  10.311  0.2238 -0.4720 -0.2815
  131TMC2    C8 2046   4.134   1.364  10.732 -0.4150 -0.6984  0.5416
  131TMC2    O1 2047   4.098   1.570  10.197 -0.3393 -0.0593 -0.1566
  131TMC2    O2 2048   4.136   1.252  10.786  0.5450 -0.0537 -0.1515
  131TMC2    O5 2049   4.109   1.480  10.794  0.1499  0.0036  0.1543
  131TMC2    H5 2050   4.085   1.553  10.733  0.4347 -0.3271 -0.3643
  132MPD2     C 2051   3.878   0.866  10.262 -0.7028 -0.1028  0.5353
  132MPD2    C1 2052   3.838   0.925  10.381  0.8158 -0.0331  0.2476
  132MPD2    C2 2053   3.744   0.868  10.462  0.3224 -0.5176 -0.4674
  132MPD2    C3 2054   3.697   0.742  10.431  0.0322  0.5897  0.5220
  132MPD2    C4 2055   3.747   0.680  10.317  0.3782  0.1514 -0.6292
  132MPD2    C5 2056   3.831   0.746  10.233  0.1868  0.0664 -0.5565
  132MPD2     H 2057   3.708   0.929  10.544  4.5774  0.1452  0.9044
  132MPD2    H1 2058   3.716   0.577  10.304 -0.5121  0.5198 -1.4210
  132MPD2    H2 2059   3.949   0.912  10.195  0.5570  0.3150  2.1674
  132MPD2    H3 2060   3.860   0.710  10.135  1.2345  2.0274 -0.9642
  132MPD2     N 2061   3.599   0.686  10.513  0.7911 -0.6998  0.3156
  132MPD2    H5 2062   3.579   0.734  10.600 -0.0143 -2.2315  0.9714
  132MPD2    N1 2063   3.882   1.054  10.412  0.5500  0.1922 -0.7634
  132MPD2    H7 2064   3.864   1.091  10.505  0.8930  0.3983 -0.7799
  133TMC2    C1 2065   3.329   2.668  10.149 -0.0799  0.0824  0.0786
  133TMC2    C2 2066   3.438   2.696  10.075 -0.7403 -0.2320  0.4258
  133TMC2    C3 2067   3.526   2.784  10.125 -1.6255 -0.3299 -0.2833
  133TMC2    C4 2068   3.300   2.738  10.263 -0.7140  0.4871  0.4334
  133TMC2    C5 2069   3.387   2.837  10.306  0.4821  0.1329  1.0202
  133TMC2    C6 2070   3.508   2.849  10.243  0.7155  0.3187  1.2678
  133TMC2     C 2071   3.243   2.558  10.111  0.1111 -0.7688 -0.4530
  133TMC2     O 2072   3.269   2.496  10.009 -0.5005  0.7335 -0.1042
  133TMC2     H 2073   3.460   2.645   9.981 -1.2485  0.2382  0.0534
  133TMC2    H1 2074   3.211   2.717  10.323  0.4527  0.0091  2.0039
  133TMC2    H2 2075   3.576   2.930  10.269  0.9677  0.5799 -0.2178
  133TMC2    C7 2076   3.360   2.924  10.418  0.4701  0.8902 -0.5924
  133TMC2    C8 2077   3.635   2.820  10.037 -0.5953 -0.3774 -0.3390
  133TMC2    O1 2078   3.461   2.985  10.461 -0.2802  0.2935 -0.0561
  133TMC2    O2 2079   3.620   2.819   9.915 -0.0682 -0.3342 -0.2430
  133TMC2    O5 2080   3.753   2.816  10.110 -0.0632  0.3148  0.2009
  133TMC2    H5 2081   3.751   2.808  10.208 -0.9872  0.7190  0.2131
  134MPD2     C 2082   2.884   2.554  10.193  0.2051  0.0364 -0.3041
  134MPD2    C1 2083   3.001   2.504  10.144  0.4431 -0.1401  0.6285
  134MPD2    C2 2084   2.989   2.396  10.064  0.0360  0.6033 -0.0919
  134MPD2    C3 2085   2.862   2.342  10.028 -0.1901  0.3747 -0.2203
  134MPD2    C4 2086   2.750   2.403  10.068  0.8169  0.1258  0.2905
  134MPD2    C5 2087   2.760   2.511  10.153 -0.2447  0.4486  0.2051
  134MPD2     H 2088   3.082   2.351  10.030 -0.9631 -0.2941 -1.6201
  134MPD2    H1 2089   2.653   2.358  10.047  1.3356 -0.8552  0.0130
  134MPD2    H2 2090   2.894   2.640  10.257 -1.1558 -0.3780  0.4799
  134MPD2    H3 2091   2.673   2.568  10.184 -1.3027 -1.4388  0.7264
  134MPD2     N 2092   2.845   2.226   9.948 -0.2022 -0.5102 -0.4876
  134MPD2    H5 2093   2.750   2.201   9.921  0.5442 -1.5995 -2.0817
  134MPD2    N1 2094   3.125   2.572  10.177 -0.1344  0.1643  0.3195
  134MPD2    H7 2095   3.112   2.657  10.231  0.0321 -0.3033  1.0928
  135TMC2    C1 2096   0.373   3.242   9.919  0.5684 -0.3969 -0.1159
  135TMC2    C2 2097   0.266   3.302   9.986 -0.0679 -0.6969 -0.7233
  135TMC2    C3 2098   0.203   3.208  10.052 -0.1082  0.1167  0.8479
  135TMC2    C4 2099   0.403   3.112   9.911 -0.9090 -0.4625 -0.5201
  135TMC2    C5 2100   0.325   3.022   9.986 -0.1640 -0.1069  0.9514
  135TMC2    C6 2101   0.233   3.077  10.067 -0.2581 -0.0295  0.0214
  135TMC2     C 2102   0.438   3.336   9.832 -0.0771 -0.3418  0.5222
  135TMC2     O 2103   0.436   3.458   9.854 -0.5407  0.1936  0.2399
  135TMC2     H 2104   0.236   3.406   9.981  1.4977 -0.1488  1.4036
  135TMC2    H1 2105   0.491   3.078   9.858  0.0959  1.0660  0.1676
  135TMC2    H2 2106   0.161   3.006  10.107 -0.6431  1.3849  1.8348
  135TMC2    C7 2107   0.348   2.881   9.959 -1.0509 -0.0654 -0.4299
  135TMC2    C8 2108   0.092   3.260  10.132  0.6700 -0.0800  0.2624
  135TMC2    O1 2109   0.435   2.851   9.876  0.1494 -0.3494  0.0588
  135TMC2    O2 2110   0.072   3.378  10.132 -0.3475  0.5419  0.5246
  135TMC2    O5 2111   4.722   3.176  10.121  0.3974 -0.3642 -0.2577
  135TMC2    H5 2112   0.013   3.091  10.078 -3.0242 -1.2967 -0.2780
  136MPD2     C 2113   0.648   3.464   9.661 -0.1426  1.0030 -0.3528
  136MPD2    C1 2114   0.586   3.350   9.632 -0.3684 -0.2972 -0.1643
  136MPD2    C2 2115   0.623   3.281   9.519  0.2732  0.6045 -0.2284
  136MPD2    C3 2116   0.732   3.320   9.443  0.5597  0.6563 -0.2005
  136MPD2    C4 2117   0.787   3.442   9.468  0.1651 -0.0250 -0.7314
  136MPD2    C5 2118   0.738   3.516   9.568 -0.3906 -0.2846  0.1215
  136MPD2     H 2119   0.585   3.185   9.487 -0.9551  1.3501 -0.9742
  136MPD2    H1 2120   0.863   3.492   9.409  0.5268 -0.0137 -0.2584
  136MPD2    H2 2121   0.631   3.525   9.748  0.8127 -0.6551  1.0015
  136MPD2    H3 2122   0.766   3.618   9.588 -0.4333 -0.2372 -0.0567
  136MPD2     N 2123   0.764   3.237   9.330  0.5777  0.3453  0.4331
  136MPD2    H5 2124   0.709   3.153   9.313  0.3897  1.1017 -2.6243
  136MPD2    N1 2125   0.494   3.281   9.720 -0.5104  0.3711 -0.5342
  136MPD2    H7 2126   0.466   3.185   9.701 -0.4315 -0.0188  1.2954
  137TMC2    C1 2127   4.694   2.497   9.765  0.3439  0.1920 -0.1913
  137TMC2    C2 2128   0.079   2.527   9.698  0.1655 -0.4495 -0.2770
  137TMC2    C3 2129   0.130   2.655   9.706 -0.2200 -0.5382 -0.3976
  137TMC2    C4 2130   4.637   2.590   9.851 -0.4697 -0.1359 -0.3850
  137TMC2    C5 2131   4.690   2.715   9.860  0.3279 -0.4207  0.1935
  137TMC2    C6 2132   0.066   2.746   9.789  0.0104 -0.2804 -0.2472
  137TMC2     C 2133   4.664   2.357   9.792  0.2156  0.0840  0.2225
  137TMC2     O 2134   4.578   2.328   9.870  0.1805  0.3341  0.0521
  137TMC2     H 2135   0.140   2.457   9.642  0.1691  0.2198 -1.1118
  137TMC2    H1 2136   4.544   2.567   9.902  0.6348 -0.3330  1.5486
  137TMC2    H2 2137   0.112   2.844   9.798  0.9430 -0.6213 -1.2184
  137TMC2    C7 2138   4.645   2.814   9.968  0.4027 -0.2140  0.6084
  137TMC2    C8 2139   0.192   2.717   9.587 -0.1185  0.1964  0.4486
  137TMC2    O1 2140   4.721   2.903   9.982  0.7601 -0.9266 -0.0171
  137TMC2    O2 2141   0.315   2.722   9.579 -0.5256 -0.3374  0.0203
  137TMC2    O5 2142   0.108   2.824   9.548 -0.3132 -0.1123  0.3667
  137TMC2    H5 2143   0.018   2.808   9.584 -0.4339 -2.3127 -0.8896
  138MPD2     C 2144   0.063   2.087   9.589  0.4004 -0.1495  0.1691
  138MPD2    C1 2145   0.022   2.146   9.701 -1.1124 -0.1786 -0.1166
  138MPD2    C2 2146   0.004   2.064   9.815 -0.2576  0.5474 -0.1169
  138MPD2    C3 2147   0.026   1.929   9.814  0.2570  0.8141 -0.9998
  138MPD2    C4 2148   0.064   1.866   9.699 -0.9047 -0.3119 -0.1304
  138MPD2    C5 2149   0.071   1.946   9.589 -0.7645  0.5654 -0.0608
  138MPD2     H 2150   4.686   2.109   9.900  0.2254 -0.9781  0.9757
  138MPD2    H1 2151   0.087   1.761   9.697 -0.9371 -0.3096 -0.6916
  138MPD2    H2 2152   0.062   2.132   9.490  2.4839  1.6913  0.9934
  138MPD2    H3 2153   0.084   1.892   9.496  1.6170  0.5592  0.2713
  138MPD2     N 2154   0.005   1.853   9.933 -0.0410 -0.2268 -0.1206
  138MPD2    H5 2155   4.728   1.905  10.020 -0.2449 -3.0283  1.5348
  138MPD2    N1 2156   4.720   2.284   9.692  0.2776 -0.0165 -0.1455
  138MPD2    H7 2157   0.028   2.340   9.619  0.8003  0.3633  0.4405
  139TMC2    C1 2158   1.232   0.698  13.573  0.3552 -0.0951 -0.2012
  139TMC2    C2 2159   1.326   0.777  13.618  0.0404 -0.6318 -0.0267
  139TMC2    C3 2160   1.296   0.887  13.696  0.2597 -0.2356 -0.8346
  139TMC2    C4 2161   1.103   0.721  13.591 -0.0021 -0.2791  0.8351
  139TMC2    C5 2162   1.077   0.808  13.688 -1.0508  0.3666  0.2646
  139TMC2    C6 2163   1.170   0.896  13.742  0.6620  0.2368 -0.3345
  139TMC2     C 2164   1.271   0.567  13.545  0.4102  0.1143 -0.1839
  139TMC2     O 2165   1.240   0.516  13.438 -0.0256 -0.1013 -0.5323
  139TMC2     H 2166   1.419   0.770  13.563 -0.8090 -2.2415 -1.2707
  139TMC2    H1 2167   1.041   0.671  13.518 -1.3511  1.8787  0.5093
  139TMC2    H2 2168   1.144   0.971  13.816  0.1378 -1.6870  1.4200
  139TMC2    C7 2169   0.940   0.846  13.701  0.1276  0.1512  0.4091
  139TMC2    C8 2170   1.400   0.963  13.762 -0.5425 -0.5080  0.7260
  139TMC2    O1 2171   0.919   0.954  13.750  0.2495 -0.2127 -0.3023
  139TMC2    O2 2172   1.508   0.917  13.802  0.6689  0.4204  0.0029
  139TMC2    O5 2173   1.367   1.091  13.759  0.0084 -0.2881  0.2620
  139TMC2    H5 2174   1.279   1.107  13.717  0.2640  1.6871  0.4558
  140MPD2     C 2175   1.401   0.335  13.799  0.6235 -0.7372  0.3669
  140MPD2    C1 2176   1.362   0.380  13.678 -0.2125 -0.0746 -0.0552
  140MPD2    C2 2177   1.367   0.282  13.574  0.1064 -0.0554 -0.0668
  140MPD2    C3 2178   1.412   0.150  13.599  0.1458 -0.3322 -0.5848
  140MPD2    C4 2179   1.439   0.112  13.729  0.6506 -0.0697 -0.6128
  140MPD2    C5 2180   1.441   0.206  13.823 -0.0499  0.0082 -0.0948
  140MPD2     H 2181   1.340   0.311  13.473 -0.3381 -2.0227 -0.5080
  140MPD2    H1 2182   1.470   0.012  13.758 -0.6594 -0.7318 -1.4903
  140MPD2    H2 2183   1.395   0.414  13.872  0.2362 -0.7091  0.3028
  140MPD2    H3 2184   1.480   0.183  13.922 -0.4177  0.4177  0.1461
  140MPD2     N 2185   1.425   0.052  13.493 -0.0425 -0.2311 -0.2087
  140MPD2    H5 2186   1.421   0.084  13.397  2.2573 -1.6575 -0.7906
  140MPD2    N1 2187   1.327   0.514  13.658 -0.7081 -0.4244  0.0992
  140MPD2    H7 2188   1.334   0.575  13.739  0.1957  0.0747 -0.3645
  141TMC2    C1 2189   1.129   2.086  14.371 -0.6444 -0.1984  0.4028
  141TMC2    C2 2190   1.000   2.105  14.422  0.2815 -0.0891 -0.2851
  141TMC2    C3 2191   0.995   2.121  14.555  0.0343 -0.3863 -0.5408
  141TMC2    C4 2192   1.235   2.067  14.455 -0.2162  0.5275  0.1086
  141TMC2    C5 2193   1.215   2.081  14.584 -0.3313  0.1697 -0.1184
  141TMC2    C6 2194   1.097   2.108  14.646 -0.9299 -0.0265 -0.1679
  141TMC2     C 2195   1.156   2.091  14.230 -0.2359 -0.4223  0.3048
  141TMC2     O 2196   1.262   2.041  14.184  0.3186 -0.0141 -0.7463
  141TMC2     H 2197   0.913   2.129  14.362  1.4504 -1.6606 -2.5792
  141TMC2    H1 2198   1.332   2.051  14.409 -0.1817 -0.9523  0.6770
  141TMC2    H2 2199   1.080   2.122  14.752  1.1495  1.3184 -0.0078
  141TMC2    C7 2200   1.340   2.121  14.648 -0.4644 -0.4503  0.6657
  141TMC2    C8 2201   0.871   2.180  14.605  0.7268  0.8196 -0.5610
  141TMC2    O1 2202   1.443   2.100  14.591 -0.1008  0.0087 -0.1787
  141TMC2    O2 2203   0.798   2.254  14.544 -0.6659  0.2639 -0.3241
  141TMC2    O5 2204   0.832   2.107  14.714 -0.2245 -0.5317  0.1378
  141TMC2    H5 2205   0.889   2.033  14.743  0.3801  0.2961  1.1000
  142TMC2    C1 2206   3.894   0.688  10.795 -0.2331 -0.0720 -0.2267
  142TMC2    C2 2207   3.964   0.736  10.691 -0.3009  0.8115  0.1205
  142TMC2    C3 2208   4.053   0.834  10.718  0.5548 -0.3093  0.0926
  142TMC2    C4 2209   3.905   0.747  10.924  0.3182 -0.0605  0.1655
  142TMC2    C5 2210   3.987   0.855  10.944  0.2753  0.7314  0.2310
  142TMC2    C6 2211   4.059   0.898  10.835  0.0236 -0.0048  0.6200
  142TMC2     C 2212   3.824   0.559  10.776  0.2208 -0.6327  0.7147
  142TMC2     O 2213   3.860   0.480  10.691  0.1272 -0.2130 -0.7609
  142TMC2     H 2214   3.959   0.689  10.593 -1.9819 -0.2063  0.6941
  142TMC2    H1 2215   3.841   0.716  11.005 -0.4226  1.5645  0.1951
  142TMC2    H2 2216   4.123   0.985  10.843 -0.1617  0.0492  1.5091
  142TMC2    C7 2217   3.983   0.928  11.063 -0.1559 -0.4083 -0.0061
  142TMC2    C8 2218   4.149   0.876  10.612  0.9855  0.6949 -0.0330
  142TMC2    O1 2219   3.916   0.882  11.151 -0.0836  0.4092  0.1938
  142TMC2    O2 2220   4.206   0.987  10.619 -0.0984 -0.3758  0.7253
  142TMC2    O5 2221   4.172   0.774  10.528 -0.4028 -0.1151 -0.0990
  142TMC2    H5 2222   4.158   0.688  10.573  0.7226  0.1072  0.6796
  143MPD2     C 2223   3.543   0.202  11.004  0.0535 -0.0289  0.5681
  143MPD2    C1 2224   3.588   0.199  10.874  0.5520  0.0040  0.2524
  143MPD2    C2 2225   3.642   0.317  10.826  0.4508 -0.0102 -0.0242
  143MPD2    C3 2226   3.664   0.427  10.908 -0.1631 -0.1728  0.2783
  143MPD2    C4 2227   3.622   0.414  11.035 -0.2197  0.8898  0.1053
  143MPD2    C5 2228   3.552   0.310  11.086 -0.7359  1.0449 -0.0677
  143MPD2     H 2229   3.673   0.333  10.723  0.5171  0.0571  0.0056
  143MPD2    H1 2230   3.637   0.504  11.094  1.1232 -0.5088  1.9229
  143MPD2    H2 2231   3.509   0.113  11.056 -0.2223  1.0778  2.2935
  143MPD2    H3 2232   3.518   0.308  11.189 -1.5543 -2.9484 -0.4347
  143MPD2     N 2233   3.729   0.550  10.872  0.7747  0.2458 -0.3183
  143MPD2    H5 2234   3.733   0.628  10.937  0.3480  0.8912 -1.0681
  143MPD2    N1 2235   3.548   0.091  10.795 -0.5428  0.4376 -0.3306
  143MPD2    H7 2236   3.506   0.015  10.847  0.9391  0.2952  0.6403
  144TMC2    C1 2237   1.731   4.007   1.495  0.1517 -0.1313 -0.4300
  144TMC2    C2 2238   1.844   3.958   1.551 -0.2373 -0.1798 -0.2687
  144TMC2    C3 2239   1.853   3.946   1.682 -0.6248 -0.1646  0.4460
  144TMC2    C4 2240   1.628   4.049   1.575  0.1809 -0.0921 -0.0609
  144TMC2    C5 2241   1.643   4.035   1.712  0.0105  0.3889 -0.6232
  144TMC2    C6 2242   1.756   3.978   1.767 -0.2421 -0.5883 -0.0485
  144TMC2     C 2243   1.737   4.032   1.347 -0.2189 -0.0060 -0.1578
  144TMC2     O 2244   1.830   3.984   1.283  0.5548 -0.1961  0.2225
  144TMC2     H 2245   1.930   3.940   1.488  0.3725  1.3811  0.1176
  144TMC2    H1 2246   1.538   4.084   1.526 -0.3647 -1.9195 -0.3663
  144TMC2    H2 2247   1.760   3.985   1.875 -1.1098  0.6569 -0.0972
  144TMC2    C7 2248   1.545   4.079   1.808  0.3619 -0.5897  0.0764
  144TMC2    C8 2249   1.972   3.898   1.744  0.2734 -0.0183 -0.5298
  144TMC2    O1 2250   1.547   4.030   1.919  0.4974  0.3076 -0.2441
  144TMC2    O2 2251   1.991   3.907   1.866  0.2402 -0.0677  0.2434
  144TMC2    O5 2252   2.025   3.799   1.671 -0.4364  0.2114 -0.4301
  144TMC2    H5 2253   1.990   3.793   1.579  2.0642  2.4264 -1.5580
  145MPD2     C 2254   1.491   4.163   0.916  0.4946  0.2575  0.1204
  145MPD2    C1 2255   1.588   4.068   0.941 -0.4024  0.5772 -0.3950
  145MPD2    C2 2256   1.628   4.047   1.069 -0.9914 -0.5803  0.2999
  145MPD2    C3 2257   1.593   4.134   1.169 -0.2061 -0.5079 -0.3049
  145MPD2    C4 2258   1.499   4.233   1.143  0.6986  0.0416  0.0380
  145MPD2    C5 2259   1.449   4.248   1.013  0.1350 -0.1839 -0.2641
  145MPD2     H 2260   1.690   3.963   1.098 -1.9811 -0.8222  1.7340
  145MPD2    H1 2261   1.469   4.308   1.215 -1.6785 -1.6868  0.8692
  145MPD2    H2 2262   1.441   4.171   0.821  0.0176  0.9475  0.4349
  145MPD2    H3 2263   1.383   4.330   0.986  1.4487  1.2890  1.0335
  145MPD2     N 2264   1.633   4.117   1.305 -0.6642  0.4369 -0.1016
  145MPD2    H5 2265   1.583   4.176   1.371  1.3708  0.9753  0.9768
  145MPD2    N1 2266   1.610   3.967   0.841  0.4887 -0.2364 -0.4533
  145MPD2    H7 2267   1.667   3.887   0.864 -0.6493 -0.8728  0.1649
  146TMC2    C1 2268   2.558   3.116  13.211 -0.4981 -0.3954  0.1514
  146TMC2    C2 2269   2.464   3.206  13.239 -0.4371  0.2279  0.2170
  146TMC2    C3 2270   2.394   3.250  13.132 -0.2075 -0.1075  0.1985
  146TMC2    C4 2271   2.575   3.060  13.087 -0.0619  0.9517  0.1129
  146TMC2    C5 2272   2.495   3.098  12.984 -0.0428  0.6806  0.4201
  146TMC2    C6 2273   2.407   3.199  13.005  0.3186 -0.1037  0.4396
  146TMC2     C 2274   2.661   3.131  13.312 -0.0489 -0.3509 -0.2292
  146TMC2     O 2275   2.665   3.234  13.375  0.1158  0.1769 -0.1220
  146TMC2     H 2276   2.445   3.260  13.331 -0.3792 -0.2284  0.4964
  146TMC2    H1 2277   2.660   2.995  13.067 -1.2162 -0.8456  1.0580
  146TMC2    H2 2278   2.338   3.223  12.924  0.4914 -0.3103  0.2303
  146TMC2    C7 2279   2.538   3.084  12.843  0.4033  0.7593 -0.8440
  146TMC2    C8 2280   2.327   3.382  13.145 -0.0396  0.0563  0.1726
  146TMC2    O1 2281   2.513   3.171  12.768  0.0431 -0.4642  0.6092
  146TMC2    O2 2282   2.208   3.391  13.181  0.0628 -0.0637 -0.2878
  146TMC2    O5 2283   2.374   3.447  13.041 -0.2556 -0.1697  0.6087
  146TMC2    H5 2284   2.460   3.413  13.006 -1.2013 -2.0760  0.1515
  147MPD2     C 2285   2.791   2.861  12.464 -0.4559 -0.0834 -0.5871
  147MPD2    C1 2286   2.764   2.767  12.558  1.1446 -0.4088 -0.0259
  147MPD2    C2 2287   2.702   2.808  12.674 -0.4465 -0.1368  0.2327
  147MPD2    C3 2288   2.665   2.941  12.693 -1.0258 -0.3119  0.2144
  147MPD2    C4 2289   2.705   3.038  12.605 -0.5791  0.3160 -0.2075
  147MPD2    C5 2290   2.757   2.994  12.481 -0.2222  0.0193 -0.3797
  147MPD2     H 2291   2.676   2.732  12.746 -3.4967  0.2666 -0.4405
  147MPD2    H1 2292   2.694   3.142  12.632 -1.8372  0.1417 -0.0631
  147MPD2    H2 2293   2.836   2.832  12.369 -2.8050 -1.4309 -1.3120
  147MPD2    H3 2294   2.797   3.059  12.404  2.9727 -1.0939  0.3507
  147MPD2     N 2295   2.597   2.966  12.813  0.0006  0.0122 -0.6226
  147MPD2    H5 2296   2.578   2.885  12.872  1.0961  1.5329  1.8243
  147MPD2    N1 2297   2.810   2.634  12.537 -0.4223 -0.4198 -0.5077
  147MPD2    H7 2298   2.830   2.611  12.440 -2.5774  0.3373 -1.1357
  148TMC2    C1 2299   2.707   1.719  10.948 -0.2635 -0.6961 -0.4581
  148TMC2    C2 2300   2.657   1.674  11.063  0.3317 -0.2777  0.2686
  148TMC2    C3 2301   2.737   1.598  11.148 -0.7233  0.5189  1.0988
  148TMC2    C4 2302   2.829   1.677  10.903  0.7454 -0.1121 -0.3863
  148TMC2    C5 2303   2.901   1.601  10.988  0.5518 -0.1557 -0.2420
  148TMC2    C6 2304   2.864   1.563  11.114  1.2026 -0.1949  1.2720
  148TMC2     C 2305   2.628   1.802  10.861 -0.3561 -0.2234 -0.0304
  148TMC2     O 2306   2.593   1.909  10.897  0.5513  0.0892 -0.2292
  148TMC2     H 2307   2.564   1.715  11.099 -0.3883  0.0483 -1.9820
  148TMC2    H1 2308   2.873   1.712  10.811  0.2705  2.0385  0.1967
  148TMC2    H2 2309   2.931   1.505  11.176  1.5590 -1.3362 -0.1756
  148TMC2    C7 2310   3.041   1.586  10.954 -0.7584  0.7039 -0.3236
  148TMC2    C8 2311   2.688   1.543  11.277 -0.0157  0.0354 -0.2978
  148TMC2    O1 2312   3.068   1.609  10.835  0.0631 -0.0556  0.0277
  148TMC2    O2 2313   2.590   1.591  11.333 -0.2873  0.3722 -0.3350
  148TMC2    O5 2314   2.728   1.415  11.268  0.4585  0.0005 -0.6185
  148TMC2    H5 2315   2.749   1.382  11.178 -1.5789 -2.6662 -0.1010
  149MPD2     C 2316   2.460   1.882  10.624  0.0609 -0.6741  0.3236
  149MPD2    C1 2317   2.551   1.782  10.621 -0.7878 -0.1623  0.0447
  149MPD2    C2 2318   2.574   1.715  10.505  0.4171 -0.6283  0.6184
  149MPD2    C3 2319   2.517   1.753  10.384  0.0491  0.7472  0.6952
  149MPD2    C4 2320   2.440   1.861  10.385  0.1248  0.3558  0.1981
  149MPD2    C5 2321   2.418   1.928  10.503  0.7772  0.2897 -0.3349
  149MPD2     H 2322   2.659   1.647  10.508  0.4799 -0.6318 -1.2228
  149MPD2    H1 2323   2.384   1.895  10.299  0.1473 -0.5120 -0.1518
  149MPD2    H2 2324   2.434   1.935  10.715  1.5156  1.3352 -0.4216
  149MPD2    H3 2325   2.347   2.010  10.512  0.4476  0.0796 -0.9902
  149MPD2     N 2326   2.532   1.679  10.262  0.7476  0.1918 -0.1519
  149MPD2    H5 2327   2.489   1.726  10.183  0.8970 -1.1787 -1.0425
  149MPD2    N1 2328   2.622   1.738  10.737  0.2490  0.0675  0.2084
  149MPD2    H7 2329   2.679   1.654  10.733 -0.6981 -0.5478 -0.6241
  150TMC2    C1 2330   0.647   0.940  11.977 -0.0745 -0.5972  0.9478
  150TMC2    C2 2331   0.589   0.919  12.094  0.4047  0.1407  0.5534
  150TMC2    C3 2332   0.652   0.947  12.210  0.0969  0.0228  0.2425
  150TMC2    C4 2333   0.778   0.981  11.970  0.3308 -0.4239  0.7182
  150TMC2    C5 2334   0.847   1.000  12.091  0.3946  0.0946  0.5332
  150TMC2    C6 2335   0.782   0.984  12.210 -0.3453 -0.3706  0.0890
  150TMC2     C 2336   0.605   0.850  11.868  0.2268 -0.5251 -0.2898
  150TMC2     O 2337   0.687   0.787  11.803 -0.0490 -0.5371  0.2534
  150TMC2     H 2338   0.489   0.878  12.096 -0.2810  1.7982  0.5905
  150TMC2    H1 2339   0.835   0.987  11.878 -1.4733  0.1847 -0.3707
  150TMC2    H2 2340   0.831   1.011  12.303 -0.9553 -1.3907  0.6997
  150TMC2    C7 2341   0.986   1.007  12.077 -0.3986 -0.4394  0.0019
  150TMC2    C8 2342   0.576   0.921  12.327 -0.5208 -0.6299  0.4774
  150TMC2    O1 2343   1.033   1.044  11.973 -0.5638  0.8139  0.1763
  150TMC2    O2 2344   0.460   0.952  12.341 -0.9821 -0.4255  0.0405
  150TMC2    O5 2345   0.648   0.826  12.401 -0.2123  0.4805 -0.0332
  150TMC2    H5 2346   0.736   0.811  12.360 -1.0087  1.3432 -2.0937
  151MPD2     C 2347   0.240   0.638  11.576 -0.1957  0.3850  0.4392
  151MPD2    C1 2348   0.183   0.711  11.675  0.0816  0.1449 -0.8277
  151MPD2    C2 2349   0.263   0.773  11.775 -0.1508  1.0877 -0.1738
  151MPD2    C3 2350   0.402   0.769  11.762  0.1112 -0.0811  0.8749
  151MPD2    C4 2351   0.459   0.682  11.668  0.3181  0.2540 -0.4456
  151MPD2    C5 2352   0.373   0.614  11.585 -0.3480  0.3250  0.1330
  151MPD2     H 2353   0.219   0.824  11.860 -0.1331 -0.5486  0.7965
  151MPD2    H1 2354   0.564   0.669  11.648  0.5761  1.5463  0.0731
  151MPD2    H2 2355   0.185   0.582  11.503  1.2297 -0.5908  0.1167
  151MPD2    H3 2356   0.412   0.525  11.536  0.0293  1.4974 -1.6877
  151MPD2     N 2357   0.469   0.848  11.858 -0.0888  0.0976  0.4408
  151MPD2    H5 2358   0.407   0.905  11.913 -2.1570 -0.5151 -1.2394
  151MPD2    N1 2359   0.042   0.701  11.678 -0.5947  0.4367  0.0148
  151MPD2    H7 2360   0.000   0.637  11.612  0.3352  1.2136 -1.3250
  152TMC2    C1 2361   0.292   0.561  12.685  0.3372 -0.8342 -0.1052
  152TMC2    C2 2362   0.413   0.501  12.671 -0.5480 -0.1452 -0.2758
  152TMC2    C3 2363   0.520   0.539  12.747  0.1763 -0.2225  0.9513
  152TMC2    C4 2364   0.285   0.669  12.771  0.6404 -0.7346 -0.6174
  152TMC2    C5 2365   0.394   0.699  12.855 -0.7845 -0.2857 -0.3209
  152TMC2    C6 2366   0.510   0.631  12.847  0.0476 -0.2150  0.1116
  152TMC2     C 2367   0.200   0.579  12.577 -0.3885 -0.5686 -0.0750
  152TMC2     O 2368   0.106   0.652  12.601 -0.2945  0.2403  0.0323
  152TMC2     H 2369   0.417   0.418  12.601 -0.7223 -0.5919  0.2345
  152TMC2    H1 2370   0.190   0.718  12.788 -0.0300 -1.8191 -1.2134
  152TMC2    H2 2371   0.600   0.661  12.898  1.0357 -0.5538 -1.4107
  152TMC2    C7 2372   0.392   0.837  12.911 -0.2788 -0.2720  0.3329
  152TMC2    C8 2373   0.641   0.453  12.747  0.1830 -0.2658  0.1047
  152TMC2    O1 2374   0.280   0.884  12.921  0.0912 -0.4921 -0.9852
  152TMC2    O2 2375   0.711   0.420  12.838  0.2114  0.2518 -0.4496
  152TMC2    O5 2376   0.688   0.484  12.627 -0.1751 -0.3120  0.1796
  152TMC2    H5 2377   0.626   0.536  12.571  0.2629  2.6250  2.4221
  153MPD2     C 2378   0.243   0.534  12.212 -0.5741  0.7008 -0.2320
  153MPD2    C1 2379   0.181   0.556  12.331  0.0849  0.2658 -0.0441
  153MPD2    C2 2380   0.048   0.591  12.333 -0.0211  0.0572  0.4992
  153MPD2    C3 2381   4.722   0.620  12.215 -0.4865  0.1017 -0.2327
  153MPD2    C4 2382   0.051   0.618  12.096  0.6896  0.3494 -0.0446
  153MPD2    C5 2383   0.187   0.579  12.092  0.0100  0.0084 -0.4782
  153MPD2     H 2384   4.726   0.604  12.425  1.2206  1.2449  1.0800
  153MPD2    H1 2385   0.009   0.666  12.009  0.4306  2.5150  1.2638
  153MPD2    H2 2386   0.348   0.511  12.198 -0.9418 -1.0402 -0.1511
  153MPD2    H3 2387   0.244   0.579  12.000  2.4895 -0.6914  1.0346
  153MPD2     N 2388   4.595   0.682  12.229 -0.3764 -0.5336  0.3477
  153MPD2    H5 2389   4.563   0.713  12.320 -0.8255  0.9408 -0.3084
  153MPD2    N1 2390   0.257   0.543  12.449  0.4530  0.8302 -0.7783
  153MPD2    H7 2391   0.355   0.519  12.439  0.1741 -0.0128 -1.5004
  154TMC2    C1 2392   1.931   4.731   0.871  0.6407  0.5610  0.2498
  154TMC2    C2 2393   1.883   0.024   0.996  0.0324  0.7293  0.1079
  154TMC2    C3 2394   1.964   4.725   1.096 -0.0220 -1.5027  0.3634
  154TMC2    C4 2395   2.058   4.677   0.850  0.4691 -0.9456  0.1913
  154TMC2    C5 2396   2.135   4.638   0.960  0.2534 -0.2954 -0.4832
  154TMC2    C6 2397   2.095   4.670   1.087  0.1829 -0.7231 -0.1051
  154TMC2     C 2398   1.860   0.054   0.752 -0.5935  0.8544 -0.9461
  154TMC2     O 2399   1.784   0.153   0.774 -0.1130  0.4681 -0.4280
  154TMC2     H 2400   1.780   0.057   1.007  0.4137  2.0551 -0.3394
  154TMC2    H1 2401   2.106   4.653   0.755  0.2528  1.4079 -0.5243
  154TMC2    H2 2402   2.145   4.637   1.178  1.5216  1.3559 -0.0598
  154TMC2    C7 2403   2.267   4.581   0.931 -0.4795 -0.8229  0.1186
  154TMC2    C8 2404   1.905   4.706   1.231 -0.5051  0.8349 -0.3912
  154TMC2    O1 2405   2.278   4.502   0.838  0.4931  0.5637  0.2136
  154TMC2    O2 2406   1.946   4.620   1.309  0.3578  0.3201  0.4727
  154TMC2    O5 2407   1.780   0.022   1.235 -0.6275 -0.5684  0.1919
  154TMC2    H5 2408   1.772   0.110   1.193 -3.6514 -0.7864  0.3000
  155MPD2     C 2409   1.827   4.633   0.418  0.2317 -0.0864 -0.2243
  155MPD2    C1 2410   1.811   4.726   0.518 -0.6108  0.2019  0.2342
  155MPD2    C2 2411   1.754   0.120   0.482  0.3639 -0.2151 -0.0881
  155MPD2    C3 2412   1.702   0.143   0.350  0.0069 -0.3331  0.1603
  155MPD2    C4 2413   1.700   0.029   0.269 -0.4623 -0.2299 -0.4546
  155MPD2    C5 2414   1.772   4.651   0.296  0.1372  0.6582  0.2793
  155MPD2     H 2415   1.745   0.204   0.550  0.9392 -0.3946  0.2055
  155MPD2    H1 2416   1.649   0.036   0.174 -0.4664 -0.0644 -0.4409
  155MPD2    H2 2417   1.876   4.537   0.432  2.0681  0.8436 -0.3980
  155MPD2    H3 2418   1.784   4.577   0.218 -0.2342  1.9321 -0.9852
  155MPD2     N 2419   1.639   0.267   0.322  0.0146 -0.2398  0.2510
  155MPD2    H5 2420   1.654   0.337   0.393 -1.1857  0.1406  0.1268
  155MPD2    N1 2421   1.875   4.704   0.641  0.1495  0.1307  0.2997
  155MPD2    H7 2422   1.928   4.618   0.653 -1.5149 -1.0157 -0.4439
  156TMC2    C1 2423   4.720   3.201  11.424 -0.2370 -0.5166  0.2488
  156TMC2    C2 2424   4.686   3.094  11.346  0.2709  0.0315  0.4183
  156TMC2    C3 2425   4.637   3.120  11.221 -0.2540 -0.5218  0.0300
  156TMC2    C4 2426   4.676   3.329  11.392 -0.1026 -0.2782 -0.1123
  156TMC2    C5 2427   4.608   3.351  11.267 -0.1547 -0.4355  0.7728
  156TMC2    C6 2428   4.608   3.243  11.177 -0.2766  0.3866 -0.1432
  156TMC2     C 2429   0.061   3.188  11.550  0.0607  0.4422  0.2580
  156TMC2     O 2430   0.037   3.277  11.631 -1.0539  0.3909  0.4290
  156TMC2     H 2431   4.709   2.993  11.379  0.6468  0.0342  0.1698
  156TMC2    H1 2432   4.691   3.411  11.461 -2.1742  0.6410 -0.7481
  156TMC2    H2 2433   4.569   3.268  11.079  0.1636  0.4854 -0.2940
  156TMC2    C7 2434   4.584   3.480  11.222 -0.5627  0.2109  0.0148
  156TMC2    C8 2435   4.626   3.001  11.123  0.1175  0.2767  0.0509
  156TMC2    O1 2436   4.610   3.517  11.109 -0.1491 -0.1715  0.2695
  156TMC2    O2 2437   4.579   3.030  11.013 -0.2770 -0.0077 -0.1422
  156TMC2    O5 2438   0.014   2.937  11.140  0.6499 -0.1500 -0.5734
  156TMC2    H5 2439   0.066   2.949  11.222  1.1528 -1.0172 -0.7673
  157MPD2     C 2440   0.299   2.927  11.672  0.2227  0.0236  0.7279
  157MPD2    C1 2441   0.229   3.046  11.669 -0.1631  0.3587  0.7897
  157MPD2    C2 2442   0.243   3.132  11.775 -0.6016 -0.4750  0.0295
  157MPD2    C3 2443   0.325   3.102  11.881  0.2131 -0.9199 -0.2483
  157MPD2    C4 2444   0.386   2.972  11.885  0.1013  0.0525 -0.5011
  157MPD2    C5 2445   0.386   2.896  11.774  0.2555  0.2792 -0.2611
  157MPD2     H 2446   0.208   3.235  11.771  1.6968  0.2946 -0.0831
  157MPD2    H1 2447   0.446   2.936  11.967 -1.0517  0.8452  0.6888
  157MPD2    H2 2448   0.288   2.856  11.591 -0.1666  1.4699 -0.4889
  157MPD2    H3 2449   0.451   2.810  11.764  0.4690  0.4401 -0.2783
  157MPD2     N 2450   0.340   3.204  11.982 -0.2775  0.3446  0.2700
  157MPD2    H5 2451   0.282   3.286  11.969 -1.0908 -0.0454  1.4367
  157MPD2    N1 2452   0.140   3.073  11.561 -0.8294 -0.3366 -0.2626
  157MPD2    H7 2453   0.127   3.002  11.489  1.8621 -0.9772 -0.1299
  158TMC2    C1 2454   0.976   1.889  13.678 -0.3191  1.0210 -0.2892
  158TMC2    C2 2455   0.986   1.968  13.568  0.7993 -0.4375  0.6049
  158TMC2    C3 2456   0.884   2.059  13.541 -0.3242 -0.3945 -0.0033
  158TMC2    C4 2457   0.872   1.906  13.763  0.4005 -0.0204 -0.9421
  158TMC2    C5 2458   0.781   2.007  13.742  0.0722  0.6540 -0.4919
  158TMC2    C6 2459   0.782   2.082  13.630  0.3588  0.4081  0.4879
  158TMC2     C 2460   1.068   1.780  13.687 -0.1054  0.7416 -0.2118
  158TMC2     O 2461   1.167   1.791  13.622  0.0188 -0.0645 -0.1781
  158TMC2     H 2462   1.067   1.960  13.497 -0.5028  1.7948 -1.1031
  158TMC2    H1 2463   0.855   1.841  13.848 -0.2699 -2.6807 -3.1010
  158TMC2    H2 2464   0.709   2.157  13.602 -0.5614 -1.4571 -2.1182
  158TMC2    C7 2465   0.657   1.998  13.814 -0.3015 -0.3431 -0.2464
  158TMC2    C8 2466   0.873   2.125  13.414  0.2697 -0.2610  0.2186
  158TMC2    O1 2467   0.599   2.099  13.850  0.1500  0.1415  0.4354
  158TMC2    O2 2468   0.802   2.227  13.406  0.1796  0.4737 -0.1839
  158TMC2    O5 2469   0.877   2.023  13.319 -0.1006 -0.1606  0.3534
  158TMC2    H5 2470   0.877   1.931  13.353  0.7433  0.0590  0.9505
  159MPD2     C 2471   1.238   1.333  13.894  0.3107 -0.4271  0.1363
  159MPD2    C1 2472   1.121   1.360  13.952 -0.4260 -0.9361  0.4522
  159MPD2    C2 2473   1.057   1.480  13.914 -0.2717  0.4498 -0.4890
  159MPD2    C3 2474   1.110   1.566  13.815 -0.0515 -0.4843  0.1706
  159MPD2    C4 2475   1.236   1.531  13.763 -0.5845 -0.1675 -0.0663
  159MPD2    C5 2476   1.302   1.419  13.805 -0.1509 -0.7757 -0.2343
  159MPD2     H 2477   0.961   1.507  13.956 -0.3151  0.6048 -0.6863
  159MPD2    H1 2478   1.292   1.598  13.698  2.0718  0.6340  3.0180
  159MPD2    H2 2479   1.284   1.238  13.919  1.4385  0.0802  0.0236
  159MPD2    H3 2480   1.402   1.393  13.772 -0.3150 -1.3037 -0.3187
  159MPD2     N 2481   1.034   1.682  13.782  0.6313 -0.4064  0.0863
  159MPD2    H5 2482   0.946   1.700  13.830  0.2187  1.3713 -1.3421
  159MPD2    N1 2483   1.071   1.267  14.054 -0.0504  0.6796  0.0843
  159MPD2    H7 2484   1.123   1.183  14.075 -1.5052 -0.3504 -0.4174
  160TMC2    C1 2485   0.819   0.114   1.680  0.2278  0.4021 -0.3599
  160TMC2    C2 2486   0.840   0.094   1.813  0.2097  0.0804  0.1012
  160TMC2    C3 2487   0.791   4.715   1.862 -0.0726  0.3801  0.9533
  160TMC2    C4 2488   0.756   0.021   1.599 -0.6746  0.6815  0.2476
  160TMC2    C5 2489   0.716   4.635   1.656 -0.6019  0.5042 -0.3311
  160TMC2    C6 2490   0.737   4.615   1.785  0.3558  0.5876 -0.4503
  160TMC2     C 2491   0.819   0.253   1.632 -0.6324  0.6970  0.3720
  160TMC2     O 2492   0.894   0.322   1.701 -0.3494  0.8866 -0.2266
  160TMC2     H 2493   0.884   0.173   1.873 -0.6007  1.9477 -1.7793
  160TMC2    H1 2494   0.747   0.046   1.494 -0.4434 -1.7122 -0.3383
  160TMC2    H2 2495   0.699   4.531   1.843 -1.0463 -0.4120 -2.7950
  160TMC2    C7 2496   0.633   4.545   1.580  0.6838  0.3352 -0.5131
  160TMC2    C8 2497   0.807   4.697   1.997 -0.0580 -0.4336 -0.0073
  160TMC2    O1 2498   0.577   4.457   1.645 -0.5655  0.1356  0.4352
  160TMC2    O2 2499   0.816   0.053   2.083 -0.2877 -0.2027 -0.2947
  160TMC2    O5 2500   0.876   4.583   2.015 -0.1348 -0.0421 -0.3799
  160TMC2    H5 2501   0.881   4.533   1.930 -0.8095 -1.6220  0.5220
  161MPD2     C 2502   0.782   0.531   1.508 -0.1368  0.2864  0.5864
  161MPD2    C1 2503   0.729   0.414   1.460 -0.8771 -0.4677  0.2470
  161MPD2    C2 2504   0.647   0.427   1.354  0.7657  0.0207 -0.2579
  161MPD2    C3 2505   0.626   0.545   1.286 -0.4809  0.9029 -0.4202
  161MPD2    C4 2506   0.685   0.661   1.336  0.2039  0.6751  0.7319
  161MPD2    C5 2507   0.768   0.648   1.443 -0.0975  0.0420  0.1885
  161MPD2     H 2508   0.599   0.334   1.325 -1.0611  0.9767 -0.3311
  161MPD2    H1 2509   0.677   0.761   1.294 -2.7738  0.1162 -0.0408
  161MPD2    H2 2510   0.850   0.539   1.592  0.4266  0.7778  0.0857
  161MPD2    H3 2511   0.828   0.730   1.480  1.3531 -1.1844  0.5789
  161MPD2     N 2512   0.547   0.547   1.160 -0.8899 -0.5189  0.2192
  161MPD2    H5 2513   0.521   0.640   1.127 -0.1233 -0.7410 -0.9925
  161MPD2    N1 2514   0.750   0.286   1.519  0.3639  0.3551 -0.5206
  161MPD2    H7 2515   0.684   0.217   1.486 -2.0671  1.3517  2.3041
  162TMC2    C1 2516   2.230   1.318   0.522  0.4334  0.5366  0.2352
  162TMC2    C2 2517   2.164   1.244   0.437 -0.4468  0.7686 -0.4192
  162TMC2    C3 2518   2.028   1.238   0.445 -0.0010  0.0492  0.0638
  162TMC2    C4 2519   2.165   1.417   0.599  0.5479  0.2832  0.4604
  162TMC2    C5 2520   2.025   1.430   0.583  0.4451 -0.6672  0.8217
  162TMC2    C6 2521   1.958   1.342   0.501 -0.1196 -0.8773 -0.4678
  162TMC2     C 2522   2.371   1.314   0.522  0.3643 -0.0344 -0.5429
  162TMC2     O 2523   2.423   1.257   0.425  0.1710  0.1290  0.1511
  162TMC2     H 2524   2.213   1.162   0.385  1.7543  1.5575  0.4459
  162TMC2    H1 2525   2.221   1.483   0.665  4.0270 -0.1474 -2.0497
  162TMC2    H2 2526   1.857   1.363   0.471 -0.1245  0.6690  0.6268
  162TMC2    C7 2527   1.948   1.526   0.659 -0.1732 -0.3572  0.7641
  162TMC2    C8 2528   1.955   1.131   0.381 -0.4561 -0.6019  0.2438
  162TMC2    O1 2529   1.827   1.507   0.663 -0.4559  0.2027 -0.3482
  162TMC2    O2 2530   1.990   1.076   0.276  0.1150 -0.1520 -0.1406
  162TMC2    O5 2531   1.841   1.110   0.449 -0.4994  0.2905 -0.1763
  162TMC2    H5 2532   1.837   1.153   0.537  1.2303  0.6588 -0.2805
  163MPD2     C 2533   2.817   1.439   0.766  0.4288 -0.8092  0.3212
  163MPD2    C1 2534   2.789   1.409   0.633  0.3312 -0.0433  0.6593
  163MPD2    C2 2535   2.663   1.379   0.589  0.6819  0.6079 -0.0041
  163MPD2    C3 2536   2.558   1.393   0.675  0.0208  0.6952  0.7121
  163MPD2    C4 2537   2.580   1.432   0.807  0.1944 -0.1068  0.6112
  163MPD2    C5 2538   2.711   1.451   0.854  0.0194  0.4431  0.8204
  163MPD2     H 2539   2.640   1.347   0.488 -0.1637  1.4246 -0.0682
  163MPD2    H1 2540   2.506   1.439   0.886 -0.7797  1.4464 -0.4405
  163MPD2    H2 2541   2.912   1.469   0.809  1.9864 -2.7831 -1.7703
  163MPD2    H3 2542   2.727   1.467   0.960 -0.7599 -2.1309  1.3357
  163MPD2     N 2543   2.427   1.362   0.638 -0.3358  0.2885 -0.2450
  163MPD2    H5 2544   2.363   1.379   0.715  1.2478  0.0165  1.1287
  163MPD2    N1 2545   2.896   1.392   0.552  0.2617  0.4630 -0.4776
  163MPD2    H7 2546   2.989   1.377   0.590  0.1326 -2.1982 -1.1851
  164TMC2    C1 2547   3.567   1.853  11.145 -0.1336 -0.3847 -0.2802
  164TMC2    C2 2548   3.579   1.851  11.011 -0.0223  0.5208 -0.0911
  164TMC2    C3 2549   3.474   1.869  10.935 -0.3195  0.0248 -0.2171
  164TMC2    C4 2550   3.441   1.878  11.208  0.3869  0.5894 -0.4389
  164TMC2    C5 2551   3.335   1.900  11.121 -0.7216  0.1429  0.3072
  164TMC2    C6 2552   3.346   1.884  10.986  0.3565  0.5368  0.5014
  164TMC2     C 2553   3.682   1.884  11.225 -0.8294  0.2630  0.0686
  164TMC2     O 2554   3.673   1.968  11.314  0.1255  0.1791 -0.7076
  164TMC2     H 2555   3.665   1.833  10.948 -1.0865  0.9251 -1.6644
  164TMC2    H1 2556   3.437   1.898  11.314  0.8610 -0.1972 -0.2771
  164TMC2    H2 2557   3.266   1.903  10.914  1.8089  0.9484 -1.0105
  164TMC2    C7 2558   3.202   1.893  11.168 -0.5269  0.0390 -0.3719
  164TMC2    C8 2559   3.477   1.819  10.793 -0.1044 -0.7395 -0.1710
  164TMC2    O1 2560   3.112   1.894  11.087  0.5586 -0.4162  0.3706
  164TMC2    O2 2561   3.399   1.860  10.707  0.0277  0.9444 -0.5605
  164TMC2    O5 2562   3.537   1.699  10.796 -0.5502 -0.1437 -0.0216
  164TMC2    H5 2563   3.584   1.678  10.880 -0.7492 -1.6163 -0.2731
  165TMC2    C1 2564   4.554   3.665   0.591 -0.2600  0.0648  0.0788
  165TMC2    C2 2565   4.572   3.565   0.493  0.0796 -0.1590 -0.1370
  165TMC2    C3 2566   4.656   3.463   0.534  0.2657 -0.9523  0.4596
  165TMC2    C4 2567   4.629   3.673   0.709  0.2820 -0.8545 -0.6261
  165TMC2    C5 2568   4.715   3.574   0.733 -0.0374  0.8008 -0.5144
  165TMC2    C6 2569   0.006   3.482   0.636 -0.4207 -0.4419  0.4086
  165TMC2     C 2570   4.434   3.753   0.574 -0.1636  0.5086 -0.4750
  165TMC2     O 2571   4.387   3.799   0.673 -0.1853 -0.2410  0.1126
  165TMC2     H 2572   4.509   3.554   0.405  3.0583  0.3808 -2.3419
  165TMC2    H1 2573   4.615   3.748   0.786 -0.4437 -0.3943 -1.1988
  165TMC2    H2 2574   0.076   3.400   0.647  1.3211  0.6710 -2.6745
  165TMC2    C7 2575   0.063   3.573   0.854  0.2263  0.0032  0.0380
  165TMC2    C8 2576   4.720   3.382   0.425 -0.3163  0.1026  0.5126
  165TMC2    O1 2577   0.170   3.518   0.840  0.2453 -0.2105 -0.2306
  165TMC2    O2 2578   0.106   3.372   0.402 -0.3885  0.6276 -0.9326
  165TMC2    O5 2579   4.620   3.351   0.343 -0.7240 -0.0460  0.1487
  165TMC2    H5 2580   4.537   3.345   0.394 -0.0348  0.1765  1.2886
  166MPD2     C 2581   4.112   4.004   0.282  0.1944 -0.2027  0.5496
  166MPD2    C1 2582   4.105   3.987   0.418 -0.8480  0.2292  0.8106
  166MPD2    C2 2583   4.201   3.908   0.477  0.1021 -0.4605  0.5868
  166MPD2    C3 2584   4.300   3.851   0.397  0.2961 -0.5546  0.6315
  166MPD2    C4 2585   4.299   3.865   0.258 -0.0274  1.0036  0.2768
  166MPD2    C5 2586   4.202   3.939   0.199 -0.2891 -0.1026 -0.1178
  166MPD2     H 2587   4.200   3.893   0.585  3.1412 -1.2716  0.5004
  166MPD2    H1 2588   4.370   3.816   0.192 -0.8497  0.8186 -0.4633
  166MPD2    H2 2589   4.043   4.070   0.232 -1.2394 -0.0120  2.8035
  166MPD2    H3 2590   4.195   3.956   0.092  3.5419  1.5756 -0.1016
  166MPD2     N 2591   4.400   3.767   0.445  0.6414  0.0143  0.4875
  166MPD2    H5 2592   4.458   3.735   0.368 -0.4632 -0.4333 -0.1494
  166MPD2    N1 2593   4.003   4.060   0.490  0.0428  0.2503 -0.0335
  166MPD2    H7 2594   3.959   4.136   0.438  0.1849 -0.0125 -0.5427
  167TMC2    C1 2595   3.083   1.150  13.217 -0.0411 -0.5577 -0.2404
  167TMC2    C2 2596   3.015   1.196  13.326  0.9230  0.1455  0.0737
  167TMC2    C3 2597   2.919   1.104  13.383  0.2939 -0.6449 -0.1924
  167TMC2    C4 2598   3.054   1.027  13.160  0.3567  0.4030  0.5184
  167TMC2    C5 2599   2.964   0.939  13.220 -0.1779 -0.2297 -0.7470
  167TMC2    C6 2600   2.898   0.979  13.334 -0.7096  0.1792 -0.8788
  167TMC2     C 2601   3.179   1.239  13.160 -0.2382  0.1343  0.0519
  167TMC2     O 2602   3.224   1.326  13.233  0.0052 -0.1462  0.0619
  167TMC2     H 2603   3.038   1.296  13.360 -1.6839  0.5872  0.4941
  167TMC2    H1 2604   3.111   1.002  13.071 -0.1964  1.4942 -0.1449
  167TMC2    H2 2605   2.838   0.910  13.393  0.2846  0.0440 -0.0385
  167TMC2    C7 2606   2.897   0.844  13.140  0.3617  0.7682 -0.5433
  167TMC2    C8 2607   2.865   1.128  13.512  0.6760  0.1671  0.6242
  167TMC2    O1 2608   2.798   0.788  13.176  0.0964  0.5378  0.1810
  167TMC2    O2 2609   2.869   1.042  13.601  0.1600  0.4803  0.0881
  167TMC2    O5 2610   2.893   1.258  13.534 -0.0759  0.4299  0.3274
  167TMC2    H5 2611   2.866   1.319  13.461 -0.5824 -1.0029 -0.6956
  168MPD2     C 2612   3.419   1.348  12.992  0.7235 -0.0376  0.6057
  168MPD2    C1 2613   3.318   1.262  12.949  0.5761  0.8181  0.0111
  168MPD2    C2 2614   3.315   1.225  12.818 -0.3312  0.0876  0.0871
  168MPD2    C3 2615   3.405   1.267  12.728  0.1142  0.1859  0.9179
  168MPD2    C4 2616   3.496   1.362  12.769  0.0768 -0.4729  0.1747
  168MPD2    C5 2617   3.512   1.407  12.897 -0.0269  0.2207  0.6640
  168MPD2     H 2618   3.233   1.162  12.787 -1.0648  0.3960  1.4104
  168MPD2    H1 2619   3.563   1.404  12.695 -0.2043  0.0238  0.2037
  168MPD2    H2 2620   3.417   1.386  13.094  0.6679  0.8052  0.2944
  168MPD2    H3 2621   3.596   1.469  12.927 -0.8007  1.9878 -0.8305
  168MPD2     N 2622   3.387   1.242  12.589 -0.0437  0.5859 -0.0533
  168MPD2    H5 2623   3.434   1.306  12.526 -0.9308  1.0486 -0.2367
  168MPD2    N1 2624   3.216   1.202  13.033  0.3148  0.3673 -0.8225
  168MPD2    H7 2625   3.147   1.143  12.987  0.4615 -1.3502  1.1607
  169MPD1     C 2626   0.027   0.472   9.063 -0.0708 -0.1072  0.3360
  169MPD1    C1 2627   0.136   0.386   9.100  0.1555 -0.4031  0.2478
  169MPD1    C2 2628   0.259   0.442   9.117 -0.0277  0.2760 -0.0917
  169MPD1    C3 2629   0.277   0.581   9.110 -0.5291  0.0850 -0.5538
  169MPD1    C4 2630   0.163   0.662   9.082  0.0540 -0.0503 -0.1877
  169MPD1    C5 2631   0.043   0.607   9.054  0.1215 -0.2593  0.7073
  169MPD1     H 2632   0.348   0.383   9.133  0.3659  1.2919  1.4488
  169MPD1    H1 2633   0.168   0.770   9.076 -1.7166  0.1105  1.2019
  169MPD1    H2 2634   4.663   0.428   9.042 -0.0994  0.7960 -1.4263
  169MPD1    H3 2635   4.701   0.676   9.018  1.4924  0.5730 -0.5521
  169MPD1     N 2636   0.411   0.634   9.128 -0.2294  0.5809  0.2240
  169MPD1    H5 2637   0.477   0.561   9.151  1.8330  1.7878 -1.8829
  169MPD1    N1 2638   0.115   0.247   9.092  0.6733  0.1059  0.4539
  169MPD1    H6 2639   0.176   0.203   9.161  1.5181 -1.6953 -1.4862
  169MPD1    H7 2640   0.019   0.224   9.118  1.1103 -3.1489 -0.9395
  170MPD1     C 2641   0.109   3.239  13.129  0.9125 -0.1159  0.1007
  170MPD1    C1 2642   0.040   3.183  13.235 -0.1111 -0.1566  0.4024
  170MPD1    C2 2643   4.709   3.277  13.312  0.3691  0.0307  0.4793
  170MPD1    C3 2644   4.699   3.411  13.279  0.2672 -0.2276  0.1040
  170MPD1    C4 2645   0.021   3.453  13.167  0.6053  0.7438  0.1529
  170MPD1    C5 2646   0.097   3.374  13.089  0.5993  0.2204  0.0341
  170MPD1     H 2647   4.649   3.235  13.393 -0.7317  1.4401  0.3944
  170MPD1    H1 2648   0.015   3.558  13.142  1.6738  0.7703  0.0476
  170MPD1    H2 2649   0.172   3.169  13.074 -1.4014 -0.6999 -1.8007
  170MPD1    H3 2650   0.130   3.412  12.993 -0.7225  0.0741 -0.4757
  170MPD1     N 2651   4.638   3.502  13.375 -0.4722  0.3840  0.2884
  170MPD1    H5 2652   4.614   3.462  13.465  1.7223 -1.9366 -0.1568
  170MPD1    N1 2653   0.061   3.044  13.258  0.7002  0.3029  0.0672
  170MPD1    H6 2654   0.082   2.991  13.174 -0.8208  0.3182 -0.3300
  170MPD1    H7 2655   4.711   3.015  13.310  2.6953 -1.4803  2.2668
  171MPD1     C 2656   2.787   4.251  14.954 -0.0486  0.4773 -0.1570
  171MPD1    C1 2657   2.723   4.240  15.073  0.2269 -0.3335  0.3059
  171MPD1    C2 2658   2.788   4.206  15.187 -0.1872  0.1349 -0.0278
  171MPD1    C3 2659   2.921   4.169  15.179  0.2060 -1.0860 -0.4463
  171MPD1    C4 2660   2.987   4.167  15.058 -0.1802  0.4927  0.1697
  171MPD1    C5 2661   2.919   4.212  14.951  0.5941 -0.3189 -0.1316
  171MPD1     H 2662   2.737   4.183  15.280 -1.8116  0.6171 -0.7979
  171MPD1    H1 2663   3.089   4.130  15.055 -0.7228 -1.2340  3.0798
  171MPD1    H2 2664   2.738   4.295  14.868  1.8427 -0.4192 -1.6778
  171MPD1    H3 2665   2.978   4.243  14.866 -0.5098  0.5077 -0.5993
  171MPD1     N 2666   2.986   4.121  15.290  0.2226  0.4376  0.6646
  171MPD1    H5 2667   3.081   4.092  15.270  0.2382  0.0066  1.3653
  171MPD1    N1 2668   2.587   4.289  15.092  0.2919  0.0003 -0.3151
  171MPD1    H6 2669   2.537   4.255  15.174  0.7477 -0.0312 -0.0508
  171MPD1    H7 2670   2.540   4.289  15.001 -0.4249  3.0104  0.0761
  172MPD1     C 2671   1.728   3.373   0.652  0.1678  0.2718  0.8219
  172MPD1    C1 2672   1.667   3.459   0.737 -0.7875 -0.0051 -0.7360
  172MPD1    C2 2673   1.748   3.562   0.787  0.5266 -1.0591  0.1084
  172MPD1    C3 2674   1.883   3.577   0.749 -0.2406  0.2069 -0.1371
  172MPD1    C4 2675   1.937   3.486   0.663  0.0937 -0.2374 -0.4786
  172MPD1    C5 2676   1.855   3.380   0.613  0.0187 -0.1412  0.2086
  172MPD1     H 2677   1.704   3.624   0.864  1.9420 -0.6524  0.5840
  172MPD1    H1 2678   2.042   3.508   0.646  0.2798 -1.0458 -0.3765
  172MPD1    H2 2679   1.668   3.298   0.600 -0.7108  0.6667  1.2663
  172MPD1    H3 2680   1.891   3.299   0.551  0.0696 -0.4249  0.6089
  172MPD1     N 2681   1.965   3.682   0.787 -0.2949  0.1206  0.1812
  172MPD1    H5 2682   2.059   3.684   0.749 -1.2442  0.8595 -2.1293
  172MPD1    N1 2683   1.535   3.457   0.770 -0.9776 -0.6891  0.1325
  172MPD1    H6 2684   1.510   3.504   0.857  1.3047 -2.2015  1.5817
  172MPD1    H7 2685   1.501   3.361   0.772 -1.5965 -0.5127 -2.0618
  173MPD1     C 2686   3.827   4.033  13.525  0.1422  0.0722  0.6564
  173MPD1    C1 2687   3.728   3.937  13.516 -0.0643 -0.1153 -0.3030
  173MPD1    C2 2688   3.739   3.838  13.615  0.8913  0.3730 -0.4008
  173MPD1    C3 2689   3.821   3.840  13.726  0.0201 -0.2342  0.8339
  173MPD1    C4 2690   3.911   3.945  13.733 -0.0617  0.5775  0.4757
  173MPD1    C5 2691   3.915   4.041  13.633 -0.1545 -0.3696  0.0378
  173MPD1     H 2692   3.676   3.751  13.603 -0.5700  1.3772  0.0253
  173MPD1    H1 2693   3.968   3.958  13.824 -1.9924 -0.5456  1.8543
  173MPD1    H2 2694   3.836   4.106  13.445 -0.1918 -0.7963 -0.1736
  173MPD1    H3 2695   3.998   4.110  13.630 -1.7347  1.5240  0.1466
  173MPD1     N 2696   3.808   3.744  13.834 -0.4717 -0.8058 -0.3775
  173MPD1    H5 2697   3.725   3.685  13.828 -0.9671 -0.0109 -1.3448
  173MPD1    N1 2698   3.647   3.929  13.400  0.3703  0.1652 -0.7813
  173MPD1    H6 2699   3.644   4.011  13.340 -1.8546  1.2369  0.7651
  173MPD1    H7 2700   3.556   3.883  13.399 -0.0804  1.0547 -0.8611
  174MPD1     C 2701   4.406   3.280  14.512 -0.0909 -0.8551 -0.2170
  174MPD1    C1 2702   4.306   3.327  14.594 -0.4589  0.1036  0.5971
  174MPD1    C2 2703   4.193   3.378  14.522 -0.6678 -0.3716  0.1385
  174MPD1    C3 2704   4.196   3.393  14.382  0.1015 -0.3631  0.7844
  174MPD1    C4 2705   4.298   3.341  14.310  0.1072 -0.2612  0.5223
  174MPD1    C5 2706   4.404   3.280  14.375 -0.3315 -1.3561  0.8668
  174MPD1     H 2707   4.111   3.417  14.580  0.0760  0.2322  0.7892
  174MPD1    H1 2708   4.305   3.351  14.202  0.4246 -0.1251  0.5549
  174MPD1    H2 2709   4.497   3.243  14.559 -1.6092 -0.9315  2.6557
  174MPD1    H3 2710   4.490   3.248  14.318 -0.2704 -0.4746  0.4663
  174MPD1     N 2711   4.085   3.441  14.306 -0.2273  0.1057 -0.0160
  174MPD1    H5 2712   4.093   3.420  14.207 -0.6422  0.1424 -0.0564
  174MPD1    N1 2713   4.306   3.311  14.734  0.6972  0.0977  0.1577
  174MPD1    H6 2714   4.241   3.370  14.786  1.3989 -0.0416  1.1818
  174MPD1    H7 2715   4.398   3.299  14.776  0.6583 -1.3954 -0.1674
  175MPD1     C 2716   1.404   0.008  15.815  0.1268 -0.0539  0.1896
  175MPD1    C1 2717   1.480   4.628  15.829  0.2789  1.0010  1.0745
  175MPD1    C2 2718   1.544   4.603  15.948  0.3028 -0.1806  0.2535
  175MPD1    C3 2719   1.530   4.695  16.047 -0.3634  0.3184  0.8490
  175MPD1    C4 2720   1.462   0.081  16.023 -0.2963  0.0508 -0.3892
  175MPD1    C5 2721   1.392   0.103  15.909  0.0789 -0.0265 -0.0350
  175MPD1     H 2722   1.607   4.517  15.965 -1.3308 -1.1212  1.5725
  175MPD1    H1 2723   1.447   0.153  16.102  3.5272  0.0477  0.3800
  175MPD1    H2 2724   1.348   0.019  15.723  1.4052 -1.4495 -0.7618
  175MPD1    H3 2725   1.325   0.188  15.906 -0.8697 -0.7295  1.2625
  175MPD1     N 2726   1.603   4.682  16.167  0.4967 -0.0249 -0.2043
  175MPD1    H5 2727   1.592   0.026  16.232 -0.9421  0.3634 -0.9131
  175MPD1    N1 2728   1.482   4.531  15.730  0.2358 -0.1076 -0.0799
  175MPD1    H6 2729   1.563   4.470  15.729  0.5318  0.2794  0.3647
  175MPD1    H7 2730   1.453   4.561  15.637  2.7267 -0.6474 -1.0420
  176MPD1     C 2731   2.631   2.266  16.741 -0.6136  0.1312  0.0519
  176MPD1    C1 2732   2.609   2.385  16.804 -0.0480 -0.5416  0.1758
  176MPD1    C2 2733   2.656   2.399  16.931  0.0465 -0.1776 -0.0024
  176MPD1    C3 2734   2.739   2.306  16.991 -0.0366 -0.5344 -0.0590
  176MPD1    C4 2735   2.784   2.191  16.917 -0.3649 -0.6814  0.7795
  176MPD1    C5 2736   2.728   2.177  16.789  0.3583  0.2744 -0.2096
  176MPD1     H 2737   2.639   2.482  16.999 -0.7735 -0.7026  0.4325
  176MPD1    H1 2738   2.857   2.121  16.955  2.3173  1.5411 -0.3342
  176MPD1    H2 2739   2.589   2.260  16.642 -2.6853 -0.8648  0.9976
  176MPD1    H3 2740   2.755   2.081  16.747  0.3670  0.4976 -0.7072
  176MPD1     N 2741   2.780   2.341  17.123  0.3198 -0.6378 -0.4213
  176MPD1    H5 2742   2.752   2.431  17.161  1.1728 -0.1920 -0.8676
  176MPD1    N1 2743   2.521   2.476  16.741 -0.1529 -0.2219  0.1519
  176MPD1    H6 2744   2.524   2.470  16.639  0.7968  3.2850 -0.0265
  176MPD1    H7 2745   2.543   2.569  16.773 -0.3515 -0.4539  0.9491
  177MPD1     C 2746   1.346   1.714  10.133  0.4184 -0.1865  0.0162
  177MPD1    C1 2747   1.297   1.653  10.021  0.2506  0.0041  0.3876
  177MPD1    C2 2748   1.242   1.740   9.926 -0.4970  0.3072  0.0801
  177MPD1    C3 2749   1.249   1.873   9.931 -0.3100 -0.5304  0.1630
  177MPD1    C4 2750   1.322   1.931  10.037  0.3040  0.0212 -0.0021
  177MPD1    C5 2751   1.363   1.851  10.136 -0.3696 -0.1767 -0.2258
  177MPD1     H 2752   1.191   1.686   9.847  0.5471 -1.1498  0.4127
  177MPD1    H1 2753   1.350   2.035  10.037  1.1365 -0.2033  0.5810
  177MPD1    H2 2754   1.378   1.664  10.224 -0.8052  0.2465  0.6823
  177MPD1    H3 2755   1.428   1.891  10.213  0.1291 -0.2108 -0.6271
  177MPD1     N 2756   1.179   1.954   9.840  0.3616 -0.1217  0.2650
  177MPD1    H5 2757   1.133   1.908   9.762 -0.9724  0.1300  0.9045
  177MPD1    N1 2758   1.266   1.517  10.023 -0.4064  0.5707 -0.0928
  177MPD1    H6 2759   1.261   1.474   9.931  2.2401  2.4069 -1.1216
  177MPD1    H7 2760   1.344   1.464  10.061 -0.8646  0.7253  1.0652
  178MPD1     C 2761   3.667   2.813   0.174  0.4892 -0.1201 -0.2145
  178MPD1    C1 2762   3.608   2.699   0.123 -0.2990  0.6772 -0.5438
  178MPD1    C2 2763   3.684   2.591   0.085 -0.5038 -0.4203  0.1217
  178MPD1    C3 2764   3.822   2.606   0.076  0.1221  0.1725 -0.1617
  178MPD1    C4 2765   3.882   2.724   0.112 -0.1322  0.5871  0.1082
  178MPD1    C5 2766   3.804   2.829   0.158 -0.1231  0.8824 -0.0027
  178MPD1     H 2767   3.641   2.492   0.079 -0.0307 -0.6260  0.0790
  178MPD1    H1 2768   3.988   2.739   0.099 -0.2419  2.7746  1.7060
  178MPD1    H2 2769   3.604   2.894   0.211  1.0932  0.2924 -0.0879
  178MPD1    H3 2770   3.857   2.922   0.171 -1.4480  1.5047  0.9873
  178MPD1     N 2771   3.909   2.519   0.009 -0.8729  0.1674 -0.1939
  178MPD1    H5 2772   4.010   2.531  17.732 -1.0469  0.8853 -1.1596
  178MPD1    N1 2773   3.473   2.679   0.140  0.9674 -0.2830 -0.0541
  178MPD1    H6 2774   3.405   2.755   0.131  0.7677 -0.1978  2.1139
  178MPD1    H7 2775   3.442   2.600   0.085  0.9748 -0.1753 -0.2140
  179MPD1     C 2776   4.072   1.427  15.877 -0.1890 -0.4661  0.3117
  179MPD1    C1 2777   4.112   1.311  15.802  0.3874 -0.2578  0.1000
  179MPD1    C2 2778   4.040   1.194  15.820  0.4959  0.2415 -0.2008
  179MPD1    C3 2779   3.947   1.181  15.917  1.0075  0.1872  0.5041
  179MPD1    C4 2780   3.916   1.290  16.002 -0.6076 -0.0687  0.1557
  179MPD1    C5 2781   3.982   1.411  15.983  0.3806 -0.1970  0.3334
  179MPD1     H 2782   4.065   1.115  15.749 -2.7500 -0.7772 -0.2048
  179MPD1    H1 2783   3.853   1.282  16.090 -0.2936 -1.1284  0.2823
  179MPD1    H2 2784   4.118   1.526  15.873 -0.3925 -0.4304 -1.3421
  179MPD1    H3 2785   3.954   1.494  16.046  1.4450  1.2235 -1.0840
  179MPD1     N 2786   3.897   1.052  15.949  0.2850 -0.5896 -0.1157
  179MPD1    H5 2787   3.855   1.050  16.041 -0.6461  1.8662 -0.4652
  179MPD1    N1 2788   4.185   1.323  15.683  0.1169 -0.2841  0.0999
  179MPD1    H6 2789   4.244   1.242  15.661  0.7020  0.2147 -0.1843
  179MPD1    H7 2790   4.249   1.402  15.687  0.4734 -0.5237 -0.7499
  180MPD1     C 2791   4.127   1.933  14.880  0.2707 -1.2708  0.1119
  180MPD1    C1 2792   4.136   2.064  14.827  0.1042  1.0280 -0.4553
  180MPD1    C2 2793   4.054   2.105  14.729 -0.1103 -0.2367  0.4845
  180MPD1    C3 2794   3.964   2.013  14.674  0.2476  0.3400  0.5399
  180MPD1    C4 2795   3.956   1.881  14.721 -0.0393 -0.4924  0.7677
  180MPD1    C5 2796   4.045   1.843  14.817 -0.2258 -0.4375  0.7349
  180MPD1     H 2797   4.070   2.205  14.692 -1.7605 -1.1357 -2.7310
  180MPD1    H1 2798   3.883   1.816  14.674  0.4874 -0.5186 -0.0235
  180MPD1    H2 2799   4.194   1.909  14.962  1.6168  2.1911  0.0340
  180MPD1    H3 2800   4.036   1.740  14.849 -0.9419 -0.4607  0.4594
  180MPD1     N 2801   3.867   2.053  14.577  0.0139  0.3122  0.3961
  180MPD1    H5 2802   3.797   1.983  14.555  0.5155 -0.2676  0.6489
  180MPD1    N1 2803   4.211   2.160  14.899 -0.2801  0.1953  0.0388
  180MPD1    H6 2804   4.162   2.184  14.985 -0.3925  0.5301 -0.1196
  180MPD1    H7 2805   4.223   2.250  14.853 -0.4344 -0.6778 -1.6753
  181MPD1     C 2806   0.504   4.359  10.059 -0.4788 -0.4105 -0.1177
  181MPD1    C1 2807   0.508   4.447   9.958  0.1311 -0.1219  0.4922
  181MPD1    C2 2808   0.638   4.500   9.918  0.0229  0.8110  0.2807
  181MPD1    C3 2809   0.752   4.437   9.959 -0.7209 -0.8738  0.5719
  181MPD1    C4 2810   0.741   4.349  10.067 -0.0865 -0.3187  0.2899
  181MPD1    C5 2811   0.617   4.319  10.124  0.4975  0.1552  0.1410
  181MPD1     H 2812   0.640   4.567   9.833  0.7484 -1.4062 -1.4510
  181MPD1    H1 2813   0.834   4.305  10.101 -0.4900 -0.5863  1.0615
  181MPD1    H2 2814   0.413   4.319  10.100 -1.3866 -0.3732 -2.1217
  181MPD1    H3 2815   0.620   4.258  10.213 -1.7800 -1.2809 -0.7791
  181MPD1     N 2816   0.879   4.455   9.896 -0.0361  0.0333  0.3143
  181MPD1    H5 2817   0.953   4.405   9.944  0.3551 -1.8786 -2.2780
  181MPD1    N1 2818   0.385   4.509   9.920  0.5449  0.1945 -0.0988
  181MPD1    H6 2819   0.378   4.532   9.821 -1.3764 -0.2578 -0.0606
  181MPD1    H7 2820   0.301   4.459   9.947  0.0575 -0.5663 -3.0614
  182MPD1     C 2821   0.666   3.244   2.183 -0.6194  0.4698 -0.2844
  182MPD1    C1 2822   0.530   3.230   2.161 -0.0714 -0.2078  0.0494
  182MPD1    C2 2823   0.483   3.249   2.028 -0.2260  0.6479 -0.4046
  182MPD1    C3 2824   0.570   3.284   1.929 -0.3483  0.4023  0.3633
  182MPD1    C4 2825   0.699   3.299   1.965 -0.0217 -0.0928  0.3387
  182MPD1    C5 2826   0.749   3.276   2.088 -0.5391  0.1336 -0.1884
  182MPD1     H 2827   0.378   3.229   2.012  0.3836 -3.2808  0.5731
  182MPD1    H1 2828   0.776   3.334   1.897 -0.2866  1.8114  1.0176
  182MPD1    H2 2829   0.711   3.233   2.281  1.4111 -1.2449 -1.4028
  182MPD1    H3 2830   0.855   3.283   2.107 -0.6494  2.0811 -0.2489
  182MPD1     N 2831   0.531   3.302   1.794 -0.4791  0.2130 -0.5410
  182MPD1    H5 2832   0.602   3.340   1.733 -1.3278 -0.5940 -2.0177
  182MPD1    N1 2833   0.446   3.212   2.272 -0.2744 -0.4302  0.0764
  182MPD1    H6 2834   0.484   3.132   2.322  0.1719 -0.5216 -0.4054
  182MPD1    H7 2835   0.352   3.187   2.243 -0.6192  1.3699 -0.3483
  183MPD1     C 2836   2.308   4.120   8.598 -1.0030  0.0557 -0.0268
  183MPD1    C1 2837   2.174   4.113   8.575 -0.6126 -0.3856 -0.0936
  183MPD1    C2 2838   2.086   4.134   8.681 -0.2956  0.0023 -0.3820
  183MPD1    C3 2839   2.140   4.139   8.808  0.4581  0.6513 -0.4811
  183MPD1    C4 2840   2.279   4.149   8.824  1.0469 -0.3288 -0.4536
  183MPD1    C5 2841   2.360   4.149   8.719 -0.1596 -0.2042  0.0392
  183MPD1     H 2842   1.982   4.125   8.654 -0.2335 -0.2981 -0.5295
  183MPD1    H1 2843   2.323   4.166   8.922 -1.3761  0.5391  0.5126
  183MPD1    H2 2844   2.372   4.120   8.510 -0.5557 -0.4770  0.3014
  183MPD1    H3 2845   2.467   4.163   8.727 -0.3239  0.9459  0.3122
  183MPD1     N 2846   2.047   4.161   8.910  0.7664 -0.0193  0.1062
  183MPD1    H5 2847   1.954   4.182   8.877  0.0537  0.0734  2.1515
  183MPD1    N1 2848   2.131   4.129   8.435  0.3634  0.1842  0.1450
  183MPD1    H6 2849   2.036   4.092   8.428  0.5064 -0.6580  2.8796
  183MPD1    H7 2850   2.192   4.096   8.360 -0.4184 -1.4577  0.2253
  184MPD1     C 2851   0.222   1.392  10.064 -0.3721  0.0098  0.5459
  184MPD1    C1 2852   0.165   1.365   9.939  0.2489 -0.3023 -0.0832
  184MPD1    C2 2853   0.198   1.448   9.830  0.5439  0.0209  0.1335
  184MPD1    C3 2854   0.295   1.544   9.845 -0.3614 -0.5876  0.5996
  184MPD1    C4 2855   0.352   1.563   9.972 -0.0489 -0.0009  0.1268
  184MPD1    C5 2856   0.310   1.492  10.080 -0.9805  0.0235 -0.0042
  184MPD1     H 2857   0.145   1.433   9.737  0.2008  1.6249  0.0819
  184MPD1    H1 2858   0.423   1.644   9.984 -0.2640  0.2886 -0.5597
  184MPD1    H2 2859   0.190   1.338  10.153  0.1559 -0.2776  0.5613
  184MPD1    H3 2860   0.343   1.522  10.179  0.9449  1.0969 -0.9519
  184MPD1     N 2861   0.348   1.629   9.743  0.1310  0.0133 -0.1816
  184MPD1    H5 2862   0.422   1.693   9.767 -1.0172  0.5589  1.8880
  184MPD1    N1 2863   0.050   1.278   9.928  0.3143 -0.3574  0.1096
  184MPD1    H6 2864   0.051   1.223   9.842 -0.5737 -0.4745  0.1701
  184MPD1    H7 2865   0.023   1.230  10.013 -2.2872  1.5692  0.3844
  185MPD1     C 2866   0.378   1.527   8.729 -0.1231  0.2793 -0.8267
  185MPD1    C1 2867   0.473   1.622   8.764  0.0485 -0.7539  0.2567
  185MPD1    C2 2868   0.472   1.682   8.885 -0.4119  0.1282 -0.5264
  185MPD1    C3 2869   0.378   1.638   8.984  0.3197 -0.2891  0.6950
  185MPD1    C4 2870   0.284   1.540   8.951  0.5828  0.0574  0.3516
  185MPD1    C5 2871   0.290   1.486   8.826  0.6598 -0.1730  0.8332
  185MPD1     H 2872   0.542   1.761   8.911  0.1770 -0.7939  0.7089
  185MPD1    H1 2873   0.207   1.504   9.018  1.9493 -1.4610  1.1159
  185MPD1    H2 2874   0.364   1.473   8.636  0.1221 -0.5393 -0.3870
  185MPD1    H3 2875   0.218   1.410   8.800 -0.3560  0.6602  1.2143
  185MPD1     N 2876   0.383   1.677   9.122  0.5629  0.1449 -0.1411
  185MPD1    H5 2877   0.303   1.641   9.173 -0.0418  0.1861 -1.0538
  185MPD1    N1 2878   0.561   1.666   8.662 -0.0214 -0.0046 -1.0231
  185MPD1    H6 2879   0.615   1.752   8.674  0.0571 -0.0787 -0.8507
  185MPD1    H7 2880   0.516   1.668   8.570 -2.6950 -0.0712  0.2818
  186MPD1     C 2881   4.142   0.384  15.900  0.0241 -0.8895 -0.1539
  186MPD1    C1 2882   4.129   0.404  16.031  0.8941  0.3065 -0.3647
  186MPD1    C2 2883   4.158   0.532  16.076 -0.1131 -0.3573 -0.1855
  186MPD1    C3 2884   4.169   0.643  15.993 -0.5335  0.2355  0.2074
  186MPD1    C4 2885   4.170   0.621  15.862 -0.5286  0.4248 -0.0757
  186MPD1    C5 2886   4.167   0.494  15.817  0.2930  0.2759  0.5181
  186MPD1     H 2887   4.139   0.554  16.181 -1.4481 -0.7447 -0.3429
  186MPD1    H1 2888   4.197   0.705  15.799  3.5211 -1.6981 -1.1898
  186MPD1    H2 2889   4.145   0.290  15.846  1.8338 -0.4377 -0.8476
  186MPD1    H3 2890   4.171   0.485  15.709  1.8301  1.2328  0.4874
  186MPD1     N 2891   4.164   0.774  16.054  0.4235  0.4325 -0.1639
  186MPD1    H5 2892   4.138   0.776  16.152 -0.1196  1.0794 -0.3198
  186MPD1    N1 2893   4.096   0.303  16.113 -0.3897 -0.0858  0.1383
  186MPD1    H6 2894   4.054   0.227  16.059  0.8891 -1.8203  1.6178
  186MPD1    H7 2895   4.038   0.334  16.190 -0.3498  0.0879  0.0985
  187MPD1     C 2896   3.175   3.111   0.429  0.7994  0.2779  0.3537
  187MPD1    C1 2897   3.155   2.996   0.366  0.3486  0.3181 -0.7882
  187MPD1    C2 2898   3.220   2.968   0.243  0.6527  0.3464  0.3523
  187MPD1    C3 2899   3.285   3.069   0.177 -0.3185 -0.5432  0.1418
  187MPD1    C4 2900   3.306   3.191   0.247 -0.4841  0.8261 -0.0311
  187MPD1    C5 2901   3.252   3.206   0.371 -0.8524 -0.2245  0.0452
  187MPD1     H 2902   3.225   2.866   0.206  1.5327 -0.4642  2.7202
  187MPD1    H1 2903   3.353   3.280   0.206  0.9094 -1.2113 -2.9019
  187MPD1    H2 2904   3.138   3.139   0.527  0.6383 -1.0215  0.6659
  187MPD1    H3 2905   3.256   3.298   0.428  0.5111  0.9401 -1.9461
  187MPD1     N 2906   3.348   3.039   0.049  0.6147 -0.1382  0.7687
  187MPD1    H5 2907   3.400   3.117   0.008  1.7185 -1.8556 -1.0847
  187MPD1    N1 2908   3.095   2.896   0.439 -0.2083  0.0555 -0.2854
  187MPD1    H6 2909   3.033   2.838   0.383  0.9713 -1.9443  0.4641
  187MPD1    H7 2910   3.046   2.921   0.525  0.4053  0.1031  0.0528
  188MPD1     C 2911   2.287   3.317  10.955  0.4564  1.0122 -0.1810
  188MPD1    C1 2912   2.420   3.306  10.946  0.1710  0.3729  0.4788
  188MPD1    C2 2913   2.482   3.200  10.878  0.7609 -0.3002  0.4897
  188MPD1    C3 2914   2.405   3.100  10.822  0.1384 -0.4239  0.2285
  188MPD1    C4 2915   2.262   3.114  10.837  1.0614  0.0061 -0.1072
  188MPD1    C5 2916   2.210   3.220  10.901  0.5122 -0.1966 -0.1002
  188MPD1     H 2917   2.590   3.191  10.888  0.9136 -0.3740 -1.2007
  188MPD1    H1 2918   2.192   3.055  10.780 -2.1554  2.3582  1.4138
  188MPD1    H2 2919   2.230   3.382  11.021 -0.0721  0.1359  0.2205
  188MPD1    H3 2920   2.102   3.229  10.910  0.4015  0.5547 -2.3091
  188MPD1     N 2921   2.460   2.996  10.741 -0.1431  0.5840 -0.1688
  188MPD1    H5 2922   2.390   2.924  10.726  1.0320 -0.1787 -1.9799
  188MPD1    N1 2923   2.496   3.385  11.028 -0.1540 -0.2042 -0.3566
  188MPD1    H6 2924   2.593   3.400  10.999  0.2450 -0.0674  1.0321
  188MPD1    H7 2925   2.449   3.474  11.041 -0.1410 -0.2235 -0.1752
  189MPD1     C 2926   0.052   4.297  16.844 -0.2333  0.4240  0.6030
  189MPD1    C1 2927   4.689   4.340  16.930  0.3484 -0.1119 -0.1353
  189MPD1    C2 2928   4.696   4.298  17.061  0.3901  0.3629 -0.3331
  189MPD1    C3 2929   0.056   4.224  17.114  0.0100 -0.7259  0.7739
  189MPD1    C4 2930   0.166   4.192  17.034  0.5120  0.5629  0.3685
  189MPD1    C5 2931   0.163   4.234  16.899  0.7583 -0.1873 -0.6443
  189MPD1     H 2932   4.605   4.325  17.115 -0.2221  1.1762 -1.7495
  189MPD1    H1 2933   0.260   4.151  17.071  0.6497  0.7435  0.2224
  189MPD1    H2 2934   0.050   4.327  16.740  1.2894  0.6614  0.6283
  189MPD1    H3 2935   0.256   4.243  16.843  1.4879 -2.9219  0.1137
  189MPD1     N 2936   0.040   4.184  17.252 -0.1485 -0.0654 -0.1665
  189MPD1    H5 2937   4.688   4.213  17.298  0.3618  1.3233 -0.0999
  189MPD1    N1 2938   4.577   4.393  16.869  0.1003 -0.0883  0.6685
  189MPD1    H6 2939   4.589   4.444  16.782 -0.8962 -0.0196  0.5699
  189MPD1    H7 2940   4.513   4.446  16.928  1.5474  2.7011 -0.2752
  190MPD1     C 2941   3.983   2.971  15.545 -1.0637  0.3446  0.1795
  190MPD1    C1 2942   4.080   2.906  15.466  0.1775  0.6019 -0.1165
  190MPD1    C2 2943   4.080   2.766  15.480  1.1931 -0.3088  0.3609
  190MPD1    C3 2944   3.984   2.696  15.551  0.8544  0.8941  0.4643
  190MPD1    C4 2945   3.884   2.762  15.617 -1.0253 -0.1208 -0.7287
  190MPD1    C5 2946   3.892   2.903  15.619 -0.0837  0.0865 -0.0847
  190MPD1     H 2947   4.154   2.698  15.440  0.4258 -1.0665  0.2203
  190MPD1    H1 2948   3.798   2.715  15.662 -1.2042  1.4011  0.5243
  190MPD1    H2 2949   3.978   3.079  15.541  0.9589  0.5078  1.7124
  190MPD1    H3 2950   3.822   2.959  15.679 -1.3886  0.3600 -1.8707
  190MPD1     N 2951   3.995   2.560  15.562  0.2670 -0.1368  0.1335
  190MPD1    H5 2952   4.073   2.522  15.510  0.4356 -0.5884  0.7110
  190MPD1    N1 2953   4.182   2.979  15.395  0.3937  0.4682 -0.3925
  190MPD1    H6 2954   4.238   2.926  15.329  0.2448  1.0026 -0.9504
  190MPD1    H7 2955   4.141   3.056  15.343  0.0299 -1.1829 -2.5396
  191MPD1     C 2956   3.605   3.516  13.104  0.1244  0.1424 -0.7029
  191MPD1    C1 2957   3.668   3.617  13.042  0.2147 -0.1540  0.2439
  191MPD1    C2 2958   3.591   3.725  13.004 -0.5394  0.2261 -0.4704
  191MPD1    C3 2959   3.451   3.732  13.035  0.1861  0.4529  0.0663
  191MPD1    C4 2960   3.394   3.631  13.111 -0.1769  0.2859  0.4788
  191MPD1    C5 2961   3.474   3.529  13.151  0.1748  0.2101  0.2284
  191MPD1     H 2962   3.632   3.797  12.935  0.9659  2.3285  2.5936
  191MPD1    H1 2963   3.290   3.625  13.138  0.6579 -1.1587  3.4560
  191MPD1    H2 2964   3.657   3.423  13.123 -0.5353 -0.1391 -0.2798
  191MPD1    H3 2965   3.441   3.449  13.216 -0.7324 -0.3286 -0.9036
  191MPD1     N 2966   3.368   3.841  12.992  0.3574  0.1269 -0.3878
  191MPD1    H5 2967   3.399   3.905  12.919 -2.9310  1.5858 -0.5632
  191MPD1    N1 2968   3.800   3.608  13.008  0.0594 -0.5423 -0.3224
  191MPD1    H6 2969   3.846   3.555  13.081  1.1318 -1.7487 -1.8821
  191MPD1    H7 2970   3.835   3.703  13.009 -0.1919 -0.4457 -1.0614
  192MPD1     C 2971   2.746   4.422  13.509 -0.0390  0.2529 -0.3529
  192MPD1    C1 2972   2.844   4.504  13.448  0.2731 -0.2700  0.6698
  192MPD1    C2 2973   2.916   4.439  13.353 -0.1148  0.3597  0.1900
  192MPD1    C3 2974   2.901   4.301  13.333  1.1005  0.0203 -0.0677
  192MPD1    C4 2975   2.812   4.233  13.399  0.4241 -0.1471  0.3818
  192MPD1    C5 2976   2.735   4.291  13.492  0.2600 -0.2382  0.2631
  192MPD1     H 2977   2.988   4.491  13.291 -0.9587 -1.4825 -2.3318
  192MPD1    H1 2978   2.800   4.128  13.376  0.8782  0.0105 -0.5840
  192MPD1    H2 2979   2.688   4.476  13.583 -0.0879 -0.1486 -0.1007
  192MPD1    H3 2980   2.655   4.224  13.523  0.0910 -0.9900 -1.7688
  192MPD1     N 2981   2.971   4.235  13.233 -0.1469  0.1553 -0.1563
  192MPD1    H5 2982   2.958   4.136  13.219  2.6290 -0.5545  2.1474
  192MPD1    N1 2983   2.850   4.640  13.462  0.4839  0.0881  0.0017
  192MPD1    H6 2984   2.948   4.664  13.452  0.0988  0.5114 -2.7313
  192MPD1    H7 2985   2.826   4.666  13.558  1.9556  0.7876  0.1746
  193MPD1     C 2986   2.674   0.013  16.270 -0.4125 -0.6033  1.0680
  193MPD1    C1 2987   2.617   4.719  16.388 -0.1271 -0.4814 -0.5224
  193MPD1    C2 2988   2.695   4.684  16.499  1.0181  0.5147  0.6049
  193MPD1    C3 2989   2.821   4.633  16.488  0.3146  0.1265 -0.7290
  193MPD1    C4 2990   2.876   4.638  16.358  0.0434 -0.0124  0.0847
  193MPD1    C5 2991   2.800   4.694  16.253  0.0915 -0.4643  1.1161
  193MPD1     H 2992   2.649   4.684  16.598 -0.2080 -1.0009  0.0232
  193MPD1    H1 2993   2.979   4.611  16.338  0.5837  2.1610 -0.0112
  193MPD1    H2 2994   2.622   0.065  16.190  2.5776  0.8931  0.0591
  193MPD1    H3 2995   2.849   4.702  16.156  0.3562 -0.1813  1.2734
  193MPD1     N 2996   2.901   4.581  16.592  0.3779 -0.6398  0.0423
  193MPD1    H5 2997   3.000   4.565  16.577  0.3863  0.3621 -0.9313
  193MPD1    N1 2998   2.501   0.046  16.413  0.4087 -0.0142 -0.1587
  193MPD1    H6 2999   2.453   4.733  16.490  3.6113 -0.9668  1.2701
  193MPD1    H7 3000   2.441   0.060  16.332  1.4451  5.6173  0.0103
  194MPD1     C 3001   1.632   2.110  17.644 -0.6980 -0.3588 -0.3164
  194MPD1    C1 3002   1.683   2.033  17.537  0.0504 -0.6614  1.3029
  194MPD1    C2 3003   1.630   1.905  17.530  0.8458  0.0854 -0.1346
  194MPD1    C3 3004   1.543   1.855  17.626  0.6033 -0.1601  0.1006
  194MPD1    C4 3005   1.512   1.926   0.005  0.2793 -0.1040  0.3006
  194MPD1    C5 3006   1.567   2.051   0.008 -0.1230  0.1453  0.0279
  194MPD1     H 3007   1.658   1.848  17.442  0.6069 -0.4131  0.1096
  194MPD1    H1 3008   1.454   1.895   0.090  0.9170  1.3773  1.2680
  194MPD1    H2 3009   1.665   2.213  17.656  1.8341 -1.2601  0.4949
  194MPD1    H3 3010   1.545   2.105   0.099 -3.5783  1.1896 -1.4303
  194MPD1     N 3011   1.493   1.723  17.617 -0.5410  0.3351 -0.2638
  194MPD1    H5 3012   1.438   1.692  17.697 -1.4067  2.2143 -0.1317
  194MPD1    N1 3013   1.760   2.080  17.434 -0.6626 -0.0192 -0.6703
  194MPD1    H6 3014   1.816   2.164  17.450  2.0495 -2.7357  4.1024
  194MPD1    H7 3015   1.809   2.009  17.380 -0.4167 -1.2918  1.2232
  195MPD1     C 3016   2.837   4.042   0.524 -0.2021 -0.3747 -0.4225
  195MPD1    C1 3017   2.717   3.973   0.520  0.6891 -0.2436  0.2111
  195MPD1    C2 3018   2.725   3.836   0.508  0.5505 -0.1389 -0.2538
  195MPD1    C3 3019   2.840   3.781   0.457 -0.0918 -0.2278  0.3281
  195MPD1    C4 3020   2.957   3.857   0.435  0.2027 -0.5199  0.1193
  195MPD1    C5 3021   2.951   3.985   0.482  0.1480  0.7299 -0.3781
  195MPD1     H 3022   2.634   3.777   0.513  1.3090 -1.2430  0.7046
  195MPD1    H1 3023   3.045   3.823   0.382 -0.4271 -1.7181 -0.1548
  195MPD1    H2 3024   2.838   4.146   0.556  0.3365 -0.1485 -1.1856
  195MPD1    H3 3025   3.041   4.043   0.466  0.6669  0.0968  0.2472
  195MPD1     N 3026   2.856   3.640   0.432  0.3217  0.3782 -0.1578
  195MPD1    H5 3027   2.941   3.617   0.381  0.2741 -1.3392  0.5653
  195MPD1    N1 3028   2.597   4.036   0.561  0.0355 -0.9260  0.4546
  195MPD1    H6 3029   2.578   4.130   0.527  0.1517 -0.8701  0.5455
  195MPD1    H7 3030   2.516   3.975   0.551  0.1394 -1.2383  1.5467
  196MPD1     C 3031   1.942   2.203   0.033  0.7901  1.0882  0.0054
  196MPD1    C1 3032   1.971   2.340   0.034 -0.1070 -0.3000 -0.5030
  196MPD1    C2 3033   1.969   2.405   0.156  0.0507 -0.4687 -0.2214
  196MPD1    C3 3034   1.911   2.347   0.269 -0.1716  0.0416 -0.2493
  196MPD1    C4 3035   1.859   2.217   0.257 -0.3239  0.3974 -0.2193
  196MPD1    C5 3036   1.894   2.142   0.150  0.3441  0.3257  0.1895
  196MPD1     H 3037   2.005   2.507   0.159 -0.2061 -0.3333 -1.5723
  196MPD1    H1 3038   1.819   2.167   0.345 -2.3147 -0.1193 -1.4339
  196MPD1    H2 3039   1.962   2.139  17.681 -0.6337  0.3724  0.2063
  196MPD1    H3 3040   1.870   2.036   0.151  0.5401  0.2719 -1.2386
  196MPD1     N 3041   1.887   2.414   0.392  0.0055 -0.2400 -0.3002
  196MPD1    H5 3042   1.843   2.354   0.462 -1.2826  0.0574 -0.8445
  196MPD1    N1 3043   2.041   2.399  17.660  0.4928 -0.1370  0.1173
  196MPD1    H6 3044   1.992   2.381  17.573 -0.5402 -0.5246  0.7751
  196MPD1    H7 3045   2.033   2.500  17.660  0.8176 -0.1186  4.5477
  197MPD1     C 3046   1.686   0.614  17.292  0.1044  0.9093 -0.7505
  197MPD1    C1 3047   1.713   0.497  17.363 -0.5074  0.3259 -0.0506
  197MPD1    C2 3048   1.815   0.416  17.323  0.3705 -0.5123  0.1857
  197MPD1    C3 3049   1.875   0.443  17.203 -1.1255 -0.3104  0.4681
  197MPD1    C4 3050   1.849   0.561  17.131 -0.3944  0.2909  0.2971
  197MPD1    C5 3051   1.752   0.647  17.180  0.2751  0.0853  0.1907
  197MPD1     H 3052   1.845   0.329  17.382 -0.7029 -0.3989  0.8972
  197MPD1    H1 3053   1.892   0.576  17.033  1.1404  0.0314  0.9244
  197MPD1    H2 3054   1.603   0.678  17.319 -0.4098 -0.2969  0.5606
  197MPD1    H3 3055   1.726   0.735  17.121 -0.1542  0.7265  1.3325
  197MPD1     N 3056   1.962   0.352  17.140 -0.0541  0.0722 -0.0006
  197MPD1    H5 3057   1.996   0.360  17.044  0.8022 -0.1828  0.2766
  197MPD1    N1 3058   1.660   0.483  17.499 -0.5273  0.0216 -0.6495
  197MPD1    H6 3059   1.563   0.511  17.488  0.0345  2.2832  0.1074
  197MPD1    H7 3060   1.657   0.392  17.545 -0.0188 -0.2583 -1.1702
  198MPD1     C 3061   3.604   2.747  15.309  0.5930  0.5535  0.3915
  198MPD1    C1 3062   3.517   2.745  15.417 -0.6633  0.4654  0.0288
  198MPD1    C2 3063   3.526   2.860  15.501 -0.2018  0.0474 -0.3489
  198MPD1    C3 3064   3.601   2.968  15.472 -0.6059  0.3577 -0.0501
  198MPD1    C4 3065   3.683   2.958  15.357 -1.1194  0.2212  0.6138
  198MPD1    C5 3066   3.683   2.853  15.278 -0.0926 -0.4004  0.7548
  198MPD1     H 3067   3.463   2.858  15.589  1.5307 -0.7524  0.8641
  198MPD1    H1 3068   3.757   3.034  15.335  0.1151 -1.1225  0.1021
  198MPD1    H2 3069   3.612   2.663  15.242 -1.1358 -2.3286  3.8367
  198MPD1    H3 3070   3.724   2.866  15.178 -1.2909 -0.1115  0.3041
  198MPD1     N 3071   3.611   3.076  15.563  0.1768 -0.0344 -0.0639
  198MPD1    H5 3072   3.557   3.067  15.648  1.8931 -0.1090  1.0221
  198MPD1    N1 3073   3.434   2.636  15.450 -0.6692 -0.3480 -0.0726
  198MPD1    H6 3074   3.346   2.674  15.484  1.6081  3.2401  1.7298
  198MPD1    H7 3075   3.407   2.577  15.371 -0.2428 -0.3998 -0.1771
  199MPD1     C 3076   1.090   3.953   9.739  0.1850 -0.5291 -0.5248
  199MPD1    C1 3077   1.131   3.988   9.617 -0.4524  0.2329 -0.7799
  199MPD1    C2 3078   1.055   4.085   9.551  0.4316 -0.2478 -0.2679
  199MPD1    C3 3079   0.945   4.145   9.602  0.9749 -0.1726 -0.0358
  199MPD1    C4 3080   0.907   4.103   9.728  0.6092  0.0348 -0.2105
  199MPD1    C5 3081   0.981   4.011   9.795 -0.1542 -0.2926 -0.1909
  199MPD1     H 3082   1.081   4.114   9.450 -2.1857 -0.6418 -1.0427
  199MPD1    H1 3083   0.813   4.132   9.774  1.3231 -1.7063  2.3579
  199MPD1    H2 3084   1.134   3.869   9.791 -0.3096 -1.8289 -2.1898
  199MPD1    H3 3085   0.937   3.964   9.883 -0.3277  1.0603  0.4614
  199MPD1     N 3086   0.864   4.237   9.542  0.8286  0.1152  0.4842
  199MPD1    H5 3087   0.781   4.254   9.599  1.0686 -0.1227  0.9076
  199MPD1    N1 3088   1.225   3.908   9.549 -0.1845  0.4232  0.1734
  199MPD1    H6 3089   1.298   3.869   9.608 -0.7455 -1.3274 -0.3107
  199MPD1    H7 3090   1.271   3.952   9.469  0.2265 -0.8640 -0.2887
  200MPD1     C 3091   0.281   0.113  14.658 -0.0456  0.1625  0.3353
  200MPD1    C1 3092   0.280   4.716  14.623  0.4929 -0.2365  0.5221
  200MPD1    C2 3093   0.393   4.636  14.628  0.2017  0.1208 -0.5209
  200MPD1    C3 3094   0.517   4.697  14.625  0.1478  0.2137  0.7740
  200MPD1    C4 3095   0.523   0.100  14.638  0.3890 -0.3735 -0.1312
  200MPD1    C5 3096   0.405   0.171  14.660 -0.2783 -0.1952 -0.6040
  200MPD1     H 3097   0.375   4.531  14.608 -0.1345  0.3520 -1.4783
  200MPD1    H1 3098   0.618   0.150  14.627 -1.7274  2.9680 -3.1207
  200MPD1    H2 3099   0.188   0.168  14.666 -0.3442 -0.3902  0.6807
  200MPD1    H3 3100   0.411   0.279  14.672 -0.5300 -0.2178 -0.2607
  200MPD1     N 3101   0.628   4.616  14.599 -1.0518 -0.5465  0.3649
  200MPD1    H5 3102   0.617   4.516  14.594 -2.2472 -0.3275 -1.0629
  200MPD1    N1 3103   0.158   4.650  14.598  0.0758 -0.3183  0.3168
  200MPD1    H6 3104   0.172   4.593  14.515 -0.8058  0.3282 -0.2693
  200MPD1    H7 3105   0.090   4.723  14.577 -0.1490 -0.7244 -0.3827
  201MPD1     C 3106   1.922   4.089  13.612 -0.3290  0.3853 -0.6333
  201MPD1    C1 3107   1.882   4.008  13.512 -0.1975 -0.7113 -0.1384
  201MPD1    C2 3108   1.875   3.868  13.533 -0.4660  0.8778  0.5855
  201MPD1    C3 3109   1.907   3.815  13.655 -0.2834  0.2540 -0.5718
  201MPD1    C4 3110   1.930   3.897  13.762  0.3797  0.0912  0.1990
  201MPD1    C5 3111   1.937   4.035  13.739 -0.0552  0.3127 -0.4267
  201MPD1     H 3112   1.857   3.808  13.444  0.1522  0.1799  0.9318
  201MPD1    H1 3113   1.958   3.850  13.856  1.9447 -0.2922 -0.4536
  201MPD1    H2 3114   1.948   4.194  13.606  2.1357 -0.2665 -1.4643
  201MPD1    H3 3115   1.971   4.101  13.818  2.4388 -1.9182  0.3839
  201MPD1     N 3116   1.920   3.677  13.667  0.8620  0.3159 -0.4870
  201MPD1    H5 3117   1.950   3.651  13.760 -0.3534  0.7190  0.0217
  201MPD1    N1 3118   1.855   4.057  13.384 -0.1758 -0.6792 -0.6588
  201MPD1    H6 3119   1.798   4.000  13.322  0.5234 -1.2165 -0.7994
  201MPD1    H7 3120   1.843   4.158  13.379 -1.2557 -0.7594  0.2451
  202MPD1     C 3121   2.498   3.351   9.117  0.7031 -0.2619 -0.5280
  202MPD1    C1 3122   2.578   3.312   9.229 -0.8189  0.2342 -0.1624
  202MPD1    C2 3123   2.501   3.298   9.341  0.3140  0.1064  0.4025
  202MPD1    C3 3124   2.384   3.369   9.371  0.1209  0.3400 -0.0099
  202MPD1    C4 3125   2.335   3.440   9.272 -0.0190 -0.1320  0.0897
  202MPD1    C5 3126   2.387   3.429   9.145 -0.5389  0.0594  0.3957
  202MPD1     H 3127   2.546   3.228   9.412 -3.5737  0.2220  3.0085
  202MPD1    H1 3128   2.245   3.498   9.284 -0.3112 -0.4658 -0.4944
  202MPD1    H2 3129   2.523   3.319   9.017  0.5790  0.1245 -0.6819
  202MPD1    H3 3130   2.334   3.465   9.058  0.8049  1.3260  0.0976
  202MPD1     N 3131   2.310   3.370   9.491 -0.0994  1.0102 -0.1132
  202MPD1    H5 3132   2.245   3.447   9.500  1.8761  2.5233  1.1619
  202MPD1    N1 3133   2.688   3.227   9.207  0.2304  0.3807 -0.0656
  202MPD1    H6 3134   2.750   3.232   9.287  0.5287 -1.6073 -0.1811
  202MPD1    H7 3135   2.727   3.247   9.115 -0.2890 -2.6164 -0.9170
  203MPD1     C 3136   0.701   4.451  12.564  0.7316 -0.4151 -0.0817
  203MPD1    C1 3137   0.698   4.358  12.462  0.1921 -0.0543  0.2686
  203MPD1    C2 3138   0.716   4.226  12.504  0.3098  0.4998 -0.1297
  203MPD1    C3 3139   0.743   4.190  12.633 -0.2631  0.2936  0.5317
  203MPD1    C4 3140   0.749   4.286  12.731  0.5881  0.3022  0.1750
  203MPD1    C5 3141   0.722   4.416  12.694  0.3110  0.0941 -0.0946
  203MPD1     H 3142   0.717   4.141  12.438 -1.0997  0.6122 -0.2952
  203MPD1    H1 3143   0.769   4.279  12.837  0.3902  0.3956  0.2172
  203MPD1    H2 3144   0.698   4.556  12.538  0.9687 -0.0942  1.1820
  203MPD1    H3 3145   0.730   4.497  12.766  0.6546  1.3238 -1.5228
  203MPD1     N 3146   0.768   4.052  12.652 -0.6316 -0.0421 -0.1889
  203MPD1    H5 3147   0.788   3.992  12.573 -1.3260 -0.2122 -0.2299
  203MPD1    N1 3148   0.707   4.402  12.325  0.5023  0.4721  0.0332
  203MPD1    H6 3149   0.672   4.334  12.258  2.2087 -1.7279  1.4029
  203MPD1    H7 3150   0.662   4.493  12.312  1.1952  0.6975 -0.8222
  204MPD1     C 3151   0.084   0.227  17.503  0.7353 -0.3807 -0.9931
  204MPD1    C1 3152   0.160   0.203  17.392  0.3629  0.2804  0.3814
  204MPD1    C2 3153   0.273   0.125  17.404  0.1909 -0.6940 -0.8973
  204MPD1    C3 3154   0.324   0.087  17.529  0.0750  0.7116 -0.2968
  204MPD1    C4 3155   0.248   0.111  17.640 -0.6690 -0.2346  1.0815
  204MPD1    C5 3156   0.136   0.189  17.625 -0.3156  0.1518 -0.3633
  204MPD1     H 3157   0.320   0.101  17.309 -0.7186 -0.8810 -1.2935
  204MPD1    H1 3158   0.279   0.073   0.005  2.0891  0.6525  0.5553
  204MPD1    H2 3159   4.730   0.290  17.488  0.0140 -1.3572 -0.9340
  204MPD1    H3 3160   0.081   0.222  17.713  0.5957 -0.7656  0.5574
  204MPD1     N 3161   0.443   0.015  17.545 -0.3996  0.7364  0.0846
  204MPD1    H5 3162   0.507   0.004  17.467  2.1374 -0.1510  2.3153
  204MPD1    N1 3163   0.124   0.238  17.262 -0.5346 -0.5502  0.1880
  204MPD1    H6 3164   0.202   0.265  17.203 -0.5670  0.4996  0.6236
  204MPD1    H7 3165   0.053   0.311  17.262  1.1311  1.0908 -1.5872
  205MPD1     C 3166   1.332   3.494  17.089  0.9457 -0.7123 -0.1531
  205MPD1    C1 3167   1.262   3.380  17.111 -0.4380  0.1446  0.2570
  205MPD1    C2 3168   1.135   3.399  17.166 -0.9148  0.3920 -0.1407
  205MPD1    C3 3169   1.079   3.526  17.179 -0.1609 -0.7144  0.0599
  205MPD1    C4 3170   1.153   3.637  17.149 -0.2579 -0.6668 -0.7117
  205MPD1    C5 3171   1.287   3.622  17.113  0.3685  0.5292 -0.2964
  205MPD1     H 3172   1.075   3.311  17.189 -1.1170 -0.0537 -2.3878
  205MPD1    H1 3173   1.118   3.738  17.165  0.8372 -0.5398  0.9401
  205MPD1    H2 3174   1.438   3.487  17.068  1.1594  0.8203  0.4165
  205MPD1    H3 3175   1.354   3.702  17.083  1.2907 -0.0915  0.1186
  205MPD1     N 3176   0.948   3.542  17.223  0.1061 -0.0670  0.1577
  205MPD1    H5 3177   0.918   3.638  17.236 -3.6639 -1.1401 -0.6016
  205MPD1    N1 3178   1.316   3.253  17.112  0.2839  0.2928 -0.6685
  205MPD1    H6 3179   1.244   3.189  17.077  0.2258  1.1997 -2.2049
  205MPD1    H7 3180   1.387   3.255  17.039  1.3745 -2.5747  0.3119
  206MPD1     C 3181   0.685   1.155  17.023 -0.1458  0.1930  0.2295
  206MPD1    C1 3182   0.690   1.050  16.931  0.5734 -0.5268 -0.8125
  206MPD1    C2 3183   0.716   1.081  16.798 -0.1830  0.1556 -0.2292
  206MPD1    C3 3184   0.706   1.214  16.752 -0.3151  0.0518  0.4669
  206MPD1    C4 3185   0.695   1.311  16.846 -0.2721  0.8415 -0.3872
  206MPD1    C5 3186   0.690   1.284  16.982 -0.1492 -0.4582  0.7257
  206MPD1     H 3187   0.741   1.001  16.729  0.4634 -0.6240  0.9140
  206MPD1    H1 3188   0.676   1.414  16.817 -2.0513  0.1485 -1.6972
  206MPD1    H2 3189   0.686   1.135  17.130  2.5242 -2.3338 -0.2695
  206MPD1    H3 3190   0.677   1.361  17.057  1.1304  0.2903  0.1787
  206MPD1     N 3191   0.719   1.260  16.619 -0.4768  0.4509  0.7131
  206MPD1    H5 3192   0.713   1.360  16.600  1.0279  0.3796 -0.1633
  206MPD1    N1 3193   0.705   0.919  16.988  0.3374 -0.0238 -0.2285
  206MPD1    H6 3194   0.635   0.912  17.062 -0.8636 -1.4575 -1.4956
  206MPD1    H7 3195   0.682   0.849  16.918  1.5342 -0.9341  0.2760
  207MPD1     C 3196   3.374   4.287   9.848  0.7484 -0.0562 -0.1699
  207MPD1    C1 3197   3.484   4.368   9.885  0.3133  0.3175  0.3186
  207MPD1    C2 3198   3.482   4.424  10.009  0.0254  0.0199 -0.3011
  207MPD1    C3 3199   3.371   4.410  10.101 -0.7193 -0.5349  0.6142
  207MPD1    C4 3200   3.261   4.340  10.053 -0.2862  0.4222  0.1714
  207MPD1    C5 3201   3.263   4.282   9.927 -0.1693 -0.1565  0.1452
  207MPD1     H 3202   3.566   4.487  10.032 -1.1417  1.6386 -0.4812
  207MPD1    H1 3203   3.178   4.316  10.118 -1.0217  1.8291 -0.2633
  207MPD1    H2 3204   3.374   4.227   9.758  1.0788 -0.4017  0.0595
  207MPD1    H3 3205   3.179   4.218   9.900 -0.4520  0.8818 -1.3817
  207MPD1     N 3206   3.378   4.450  10.238 -0.0463 -0.8911  0.0444
  207MPD1    H5 3207   3.318   4.403  10.306  2.8385 -0.1399  3.1081
  207MPD1    N1 3208   3.597   4.372   9.797 -0.0179  0.4589  0.1895
  207MPD1    H6 3209   3.640   4.464   9.795 -1.7538  1.3376  3.6051
  207MPD1    H7 3210   3.568   4.350   9.702 -2.0605 -0.2007  0.9760
  208MPD1     C 3211   1.479   2.986   0.156  0.0007  0.0665  0.0438
  208MPD1    C1 3212   1.370   2.917   0.115  0.4578  0.0271 -1.0371
  208MPD1    C2 3213   1.270   2.895   0.207  0.1734  0.5192  0.1218
  208MPD1    C3 3214   1.273   2.946   0.341  0.0562 -0.0511 -0.0004
  208MPD1    C4 3215   1.390   3.006   0.382  0.6796  0.3152 -0.5504
  208MPD1    C5 3216   1.482   3.028   0.287  0.2987  0.4364 -0.3949
  208MPD1     H 3217   1.182   2.835   0.184  1.1324 -0.6000 -0.6081
  208MPD1    H1 3218   1.400   3.055   0.478 -1.3701  0.2002 -0.2757
  208MPD1    H2 3219   1.556   3.019   0.087  0.3410  0.7979  0.7750
  208MPD1    H3 3220   1.571   3.080   0.321  0.6955 -0.0278 -0.7099
  208MPD1     N 3221   1.160   2.929   0.420  0.4351  0.4071  0.6539
  208MPD1    H5 3222   1.084   2.873   0.382  0.0510  1.9336 -0.8682
  208MPD1    N1 3223   1.350   2.867  17.721 -0.0812 -0.0767  0.2369
  208MPD1    H6 3224   1.301   2.778  17.720 -1.1719  0.5473 -0.9402
  208MPD1    H7 3225   1.441   2.865  17.676  0.4761 -1.2243  1.4200
  209MPD1     C 3226   2.282   3.817  11.459 -0.8891  0.3459 -0.0832
  209MPD1    C1 3227   2.271   3.928  11.371  0.5282 -0.1902 -0.1979
  209MPD1    C2 3228   2.383   4.016  11.373 -0.8364 -0.2492 -0.0321
  209MPD1    C3 3229   2.501   3.988  11.444  0.0486  0.4904 -0.3495
  209MPD1    C4 3230   2.501   3.885  11.529 -0.3450 -0.5178  0.3872
  209MPD1    C5 3231   2.391   3.807  11.537 -0.3512 -0.1120  0.5471
  209MPD1     H 3232   2.387   4.113  11.325 -0.7744 -1.1709 -1.8858
  209MPD1    H1 3233   2.576   3.847  11.598  0.3888 -2.1872 -1.3092
  209MPD1    H2 3234   2.202   3.744  11.470 -0.4474 -0.2480 -0.8397
  209MPD1    H3 3235   2.392   3.731  11.615  3.5581  0.1591  0.7562
  209MPD1     N 3236   2.624   4.062  11.444  0.0048  0.2650  0.4333
  209MPD1    H5 3237   2.696   4.035  11.511  0.6609  1.5973  0.2605
  209MPD1    N1 3238   2.151   3.954  11.300 -0.9080  0.0503 -0.4144
  209MPD1    H6 3239   2.176   4.008  11.217  2.5523  0.1317  0.6816
  209MPD1    H7 3240   2.098   3.872  11.270  3.3325 -3.1567  0.9652
  210MPD1     C 3241   3.072   4.263  12.145 -0.1466  0.1012 -0.1601
  210MPD1    C1 3242   3.178   4.269  12.058 -0.2984 -0.3345  0.1853
  210MPD1    C2 3243   3.138   4.272  11.926 -0.5497 -0.5954 -0.1479
  210MPD1    C3 3244   3.017   4.218  11.884  0.2335  0.0220  0.7517
  210MPD1    C4 3245   2.927   4.178  11.976 -0.6587  0.4885 -0.4889
  210MPD1    C5 3246   2.949   4.223  12.103  0.1641  0.1885  0.5006
  210MPD1     H 3247   3.203   4.303  11.845 -1.8870  0.9637 -0.6320
  210MPD1    H1 3248   2.839   4.119  11.952 -2.1281  2.3747  0.2383
  210MPD1    H2 3249   3.082   4.276  12.252  1.0057 -0.3534 -0.2179
  210MPD1    H3 3250   2.874   4.217  12.181  1.5901 -0.7165  1.7962
  210MPD1     N 3251   2.966   4.197  11.753  0.1835 -1.3413  0.6339
  210MPD1    H5 3252   2.873   4.158  11.746  0.2349 -0.9844 -2.0541
  210MPD1    N1 3253   3.303   4.315  12.102 -0.5618  0.4031 -0.1668
  210MPD1    H6 3254   3.324   4.294  12.199  1.2897 -0.7699 -0.8241
  210MPD1    H7 3255   3.379   4.296  12.037  0.1498 -0.0657  0.8136
  211MPD1     C 3256   1.256   2.632  17.366 -0.6322 -0.3143 -0.2486
  211MPD1    C1 3257   1.126   2.601  17.339  0.2347  0.5682 -0.4455
  211MPD1    C2 3258   1.062   2.682  17.249  0.2896 -0.6241  0.6316
  211MPD1    C3 3259   1.132   2.778  17.174 -0.4040  0.0748  0.7296
  211MPD1    C4 3260   1.268   2.793  17.197 -0.1969 -0.2627  0.5903
  211MPD1    C5 3261   1.330   2.719  17.287 -0.4738  0.3175  0.0626
  211MPD1     H 3262   0.956   2.664  17.234  0.0369  1.5928 -0.3168
  211MPD1    H1 3263   1.336   2.860  17.146 -1.3786 -1.9066 -3.1159
  211MPD1    H2 3264   1.314   2.572  17.436 -1.6039  1.0405  1.7176
  211MPD1    H3 3265   1.436   2.734  17.302 -0.1805 -1.2325 -0.4203
  211MPD1     N 3266   1.054   2.855  17.080 -0.1980  0.9059 -0.2549
  211MPD1    H5 3267   0.956   2.834  17.066 -0.8284  2.8109  1.3321
  211MPD1    N1 3268   1.063   2.496  17.415  0.2750 -0.3719  0.1829
  211MPD1    H6 3269   1.123   2.424  17.455 -0.4298  0.1237  2.1419
  211MPD1    H7 3270   0.974   2.461  17.380 -0.9276  0.7591  2.0874
  212MPD1     C 3271   0.109   1.410   0.063 -0.3904 -0.4355 -0.3626
  212MPD1    C1 3272   0.150   1.518  17.717 -1.0583 -0.0126  0.3803
  212MPD1    C2 3273   0.122   1.518  17.581 -0.3358 -0.2278  1.0034
  212MPD1    C3 3274   0.076   1.401  17.517 -0.1842 -0.1879  0.0458
  212MPD1    C4 3275   0.055   1.286  17.595  1.1819 -0.4285 -0.2710
  212MPD1    C5 3276   0.061   1.295   0.000  0.3017  0.3378 -0.7185
  212MPD1     H 3277   0.158   1.601  17.521 -0.1413 -0.2224  1.1283
  212MPD1    H1 3278   0.016   1.196  17.548  1.7251 -0.6811 -0.2357
  212MPD1    H2 3279   0.116   1.406   0.171  0.8047  2.0232 -0.3445
  212MPD1    H3 3280   0.020   1.213   0.058  0.3880  0.7830 -0.0327
  212MPD1     N 3281   0.053   1.400  17.377  0.0452  0.2677 -0.3511
  212MPD1    H5 3282   0.045   1.305  17.343  0.1731  0.9321 -2.2473
  212MPD1    N1 3283   0.180   1.642   0.048 -0.4001  0.7597  0.2875
  212MPD1    H6 3284   0.217   1.628   0.142  1.3830 -1.1572 -0.7037
  212MPD1    H7 3285   0.244   1.693  17.720  0.6701 -0.0016  0.7779
  213MPD1     C 3286   3.204   2.688  15.727  0.1950  0.1216  0.2241
  213MPD1    C1 3287   3.113   2.589  15.701  0.2705  0.2999 -0.3946
  213MPD1    C2 3288   3.054   2.598  15.577 -0.1029  0.5518 -0.2985
  213MPD1    C3 3289   3.041   2.716  15.515 -0.4528 -0.0519  0.2847
  213MPD1    C4 3290   3.097   2.824  15.571  0.1694 -0.1582 -0.0656
  213MPD1    C5 3291   3.195   2.805  15.669  0.2355  0.7164  0.3618
  213MPD1     H 3292   3.040   2.507  15.520  1.0029 -0.3650  0.9132
  213MPD1    H1 3293   3.083   2.927  15.541  2.4793 -0.2807 -1.6258
  213MPD1    H2 3294   3.254   2.682  15.823 -2.5102 -1.9287  1.4935
  213MPD1    H3 3295   3.244   2.884  15.724  3.0487 -0.2862 -0.7035
  213MPD1     N 3296   2.967   2.719  15.394 -0.1697 -0.0466  0.0282
  213MPD1    H5 3297   2.932   2.631  15.357 -0.8380  0.4387 -0.5086
  213MPD1    N1 3298   3.147   2.463  15.749  0.0679 -0.4260  0.0004
  213MPD1    H6 3299   3.065   2.403  15.760 -0.0900  0.1074  1.8186
  213MPD1    H7 3300   3.176   2.472  15.846 -0.0156 -0.9923  0.0811
  214MPD1     C 3301   2.570   2.080  14.813 -0.2184 -0.7549 -0.2988
  214MPD1    C1 3302   2.572   2.115  14.945  0.0813 -0.9827 -0.4970
  214MPD1    C2 3303   2.629   2.234  14.984 -0.1824 -0.9288 -0.7231
  214MPD1    C3 3304   2.692   2.312  14.892  0.8876  0.2303  0.0355
  214MPD1    C4 3305   2.699   2.269  14.758  0.7379 -0.4429  0.3735
  214MPD1    C5 3306   2.637   2.156  14.719  0.4121 -0.0890  0.1898
  214MPD1     H 3307   2.636   2.266  15.087 -1.3697  0.3699 -1.0436
  214MPD1    H1 3308   2.757   2.327  14.687  2.9085 -1.1105  1.5958
  214MPD1    H2 3309   2.517   1.996  14.771 -1.3972 -0.2905  0.2634
  214MPD1    H3 3310   2.646   2.134  14.613  2.4575 -0.6135  0.4851
  214MPD1     N 3311   2.750   2.435  14.922  0.4901 -0.7952  0.2255
  214MPD1    H5 3312   2.808   2.479  14.851  0.4858  0.4046  0.9741
  214MPD1    N1 3313   2.523   2.033  15.042  0.2866  0.3940 -0.1305
  214MPD1    H6 3314   2.534   2.081  15.131  0.5982 -1.6334  0.9159
  214MPD1    H7 3315   2.426   2.003  15.031  1.0549 -1.1519 -2.6943
  215MPD1     C 3316   3.421   3.041  11.048 -0.2148 -0.1060 -0.5446
  215MPD1    C1 3317   3.504   3.142  11.084 -0.1287 -0.0898  0.3308
  215MPD1    C2 3318   3.449   3.267  11.123  0.1923 -0.3243 -0.0943
  215MPD1    C3 3319   3.305   3.286  11.116 -0.5356 -0.3325  0.1032
  215MPD1    C4 3320   3.228   3.175  11.085  0.1908 -0.3973 -0.1322
  215MPD1    C5 3321   3.287   3.056  11.049 -0.4032 -0.2074 -0.5399
  215MPD1     H 3322   3.515   3.348  11.151 -1.1279  0.5128  0.6108
  215MPD1    H1 3323   3.120   3.172  11.097  0.0283  1.1781 -1.2710
  215MPD1    H2 3324   3.466   2.949  11.012 -1.9107 -0.9023 -0.6004
  215MPD1    H3 3325   3.220   2.971  11.034  0.9886 -1.5793  1.0128
  215MPD1     N 3326   3.255   3.410  11.151  0.2860 -0.6962 -0.1870
  215MPD1    H5 3327   3.325   3.479  11.177  2.1374 -1.4915 -3.0930
  215MPD1    N1 3328   3.642   3.109  11.105  0.6262 -0.3029 -0.3809
  215MPD1    H6 3329   3.675   3.035  11.043  0.4176  0.0812 -0.9448
  215MPD1    H7 3330   3.700   3.191  11.093  1.3573 -1.1105 -2.2892
  216MPD1     C 3331   0.446   1.180  16.082 -0.1472 -0.2327 -1.0136
  216MPD1    C1 3332   0.474   1.053  16.115  0.0069 -0.2408  0.5561
  216MPD1    C2 3333   0.450   1.012  16.247  0.7066  0.2565  0.0252
  216MPD1    C3 3334   0.420   1.104  16.350 -0.2060  0.7227  0.2809
  216MPD1    C4 3335   0.395   1.238  16.312  0.0390  0.3332  0.0674
  216MPD1    C5 3336   0.407   1.273  16.180 -0.0391 -0.0322  0.1684
  216MPD1     H 3337   0.480   0.911  16.271  0.6287  0.2935  0.2798
  216MPD1    H1 3338   0.352   1.312  16.379 -1.4057  0.3989 -0.9424
  216MPD1    H2 3339   0.468   1.225  15.986  2.2066  0.2703 -0.2299
  216MPD1    H3 3340   0.381   1.372  16.146  0.4108  0.1728  0.4298
  216MPD1     N 3341   0.411   1.057  16.487  0.2247  0.1539 -0.5596
  216MPD1    H5 3342   0.426   0.958  16.504  0.4648  0.1710 -0.6747
  216MPD1    N1 3343   0.492   0.961  16.013  0.5574  0.1227  0.2849
  216MPD1    H6 3344   0.540   1.009  15.937 -1.1541  1.7596  0.2379
  216MPD1    H7 3345   0.553   0.885  16.046 -0.1720 -0.4195  0.3868
  217MPD1     C 3346   0.344   2.540   8.848 -0.5256  0.3224 -0.5694
  217MPD1    C1 3347   0.346   2.679   8.835 -0.3771 -0.6954  0.2547
  217MPD1    C2 3348   0.456   2.751   8.883 -0.2996 -0.4007 -0.5450
  217MPD1    C3 3349   0.555   2.686   8.952 -0.3339 -0.5810  0.3040
  217MPD1    C4 3350   0.553   2.547   8.972 -0.2178  0.0392 -0.6465
  217MPD1    C5 3351   0.448   2.478   8.913 -0.5385 -0.7992  0.1553
  217MPD1     H 3352   0.469   2.853   8.849 -2.5935 -0.1730 -0.7082
  217MPD1    H1 3353   0.628   2.491   9.027 -0.1913 -0.5324 -1.2633
  217MPD1    H2 3354   0.257   2.482   8.819 -0.8225  1.0393 -1.1182
  217MPD1    H3 3355   0.447   2.371   8.927 -0.5389 -0.9120 -0.7259
  217MPD1     N 3356   0.665   2.758   9.003  0.0878  0.1672  0.3730
  217MPD1    H5 3357   0.735   2.701   9.048  0.0852 -1.8689 -2.1840
  217MPD1    N1 3358   0.246   2.736   8.760  0.7479  0.5586 -0.6832
  217MPD1    H6 3359   0.190   2.797   8.818  0.0415 -1.0482  0.3082
  217MPD1    H7 3360   0.172   2.674   8.727  1.0954 -0.5595  0.6579
  218MPD1     C 3361   2.114   3.460  12.644  0.0835  0.6485  0.6840
  218MPD1    C1 3362   2.014   3.489  12.742  0.4096  0.0260  0.5635
  218MPD1    C2 3363   2.038   3.602  12.817  0.7489 -0.0030  1.2807
  218MPD1    C3 3364   2.133   3.700  12.782 -0.6290 -0.0573  0.1012
  218MPD1    C4 3365   2.213   3.672  12.669  0.7403 -0.4115  0.1356
  218MPD1    C5 3366   2.205   3.553  12.610 -0.2019  0.3106  0.0865
  218MPD1     H 3367   1.979   3.608  12.907  0.3012 -1.6182  1.1018
  218MPD1    H1 3368   2.269   3.742  12.609  0.8650  1.4961  2.4628
  218MPD1    H2 3369   2.113   3.370  12.582  0.4768  1.6870 -0.8207
  218MPD1    H3 3370   2.268   3.541  12.523 -4.3534 -0.1889 -2.8636
  218MPD1     N 3371   2.138   3.824  12.847 -0.7871  0.0805 -0.5574
  218MPD1    H5 3372   2.102   3.834  12.942 -0.2871 -1.1370 -0.2406
  218MPD1    N1 3373   1.919   3.390  12.778  0.5690  0.7068  0.1030
  218MPD1    H6 3374   1.887   3.340  12.695  0.4391 -0.0018  0.5805
  218MPD1    H7 3375   1.841   3.439  12.823  0.1709  1.1185 -1.0329
  219MPD1     C 3376   2.784   4.688  12.863  0.8353  0.1611  0.1706
  219MPD1    C1 3377   2.654   4.705  12.832  0.6434  0.3184 -0.1121
  219MPD1    C2 3378   2.566   4.599  12.857 -0.5835  0.0992  0.1738
  219MPD1    C3 3379   2.616   4.483  12.921 -0.4475 -0.1922  0.1881
  219MPD1    C4 3380   2.747   4.472  12.954 -0.4131 -0.0681  0.7485
  219MPD1    C5 3381   2.825   4.582  12.928  0.1220  0.9762 -0.0489
  219MPD1     H 3382   2.462   4.598  12.828 -0.6958 -2.6524  0.6817
  219MPD1    H1 3383   2.783   4.388  13.012  0.1800 -0.3422 -0.0107
  219MPD1    H2 3384   2.852   0.038  12.844 -0.1786  0.7447 -0.8709
  219MPD1    H3 3385   2.932   4.571  12.942  0.1110 -0.3895 -0.9254
  219MPD1     N 3386   2.531   4.369  12.958 -0.0597 -0.0016  1.1000
  219MPD1    H5 3387   2.581   4.285  12.987 -0.7121 -0.7622  0.0387
  219MPD1    N1 3388   2.616   0.086  12.766  0.0002  0.3665 -0.2595
  219MPD1    H6 3389   2.676   0.165  12.787  1.3907 -0.8929  0.5448
  219MPD1    H7 3390   2.519   0.115  12.776 -0.6557 -1.2254 -1.9475
  220MPD1     C 3391   2.548   3.607   9.745 -0.1969 -0.3563  0.1721
  220MPD1    C1 3392   2.438   3.681   9.768  0.3563  0.1872  0.6571
  220MPD1    C2 3393   2.367   3.677   9.885  0.6920 -0.0271  0.8779
  220MPD1    C3 3394   2.415   3.603   9.989  0.4601 -0.4234  0.5118
  220MPD1    C4 3395   2.538   3.543   9.974  0.2142  0.8178 -0.6198
  220MPD1    C5 3396   2.598   3.541   9.850 -0.4521  0.1916  0.6222
  220MPD1     H 3397   2.276   3.734   9.897  0.3251 -0.2382 -0.9262
  220MPD1    H1 3398   2.572   3.473  10.050  0.8028  1.4162 -0.3322
  220MPD1    H2 3399   2.599   3.596   9.650  0.5847  0.2418  0.5280
  220MPD1    H3 3400   2.691   3.485   9.844  0.1284  1.2828 -0.4374
  220MPD1     N 3401   2.337   3.616  10.104  0.0830 -0.2908  0.9432
  220MPD1    H5 3402   2.261   3.683  10.105 -0.3887 -0.8327  1.2744
  220MPD1    N1 3403   2.384   3.758   9.667 -0.3242 -0.2024  0.5373
  220MPD1    H6 3404   2.447   3.763   9.587 -0.0985  0.3489  0.7484
  220MPD1    H7 3405   2.362   3.854   9.695 -1.3830 -0.6029  1.0900
  221MPD1     C 3406   0.383   3.959  16.263  1.0137 -0.2856  0.4981
  221MPD1    C1 3407   0.367   3.824  16.263 -0.3208  0.0346  0.2759
  221MPD1    C2 3408   0.482   3.754  16.289  0.0580 -0.0012 -0.1461
  221MPD1    C3 3409   0.604   3.816  16.320  0.1214 -0.0429  0.1351
  221MPD1    C4 3410   0.615   3.950  16.308 -0.1995 -0.1914 -0.0289
  221MPD1    C5 3411   0.506   4.020  16.272  0.0398  0.5113 -0.3727
  221MPD1     H 3412   0.484   3.646  16.289 -1.3015 -0.0171 -0.1858
  221MPD1    H1 3413   0.705   4.008  16.326 -0.2016  0.0264 -0.6931
  221MPD1    H2 3414   0.305   4.029  16.236  1.9493  0.2999 -0.6658
  221MPD1    H3 3415   0.515   4.128  16.267 -2.9272  0.6999 -1.8849
  221MPD1     N 3416   0.716   3.744  16.359 -0.2618 -0.5864  0.1656
  221MPD1    H5 3417   0.797   3.797  16.390  1.2877 -3.3811  0.8247
  221MPD1    N1 3418   0.258   3.754  16.205  0.1434  0.6707  0.4360
  221MPD1    H6 3419   0.174   3.806  16.226 -2.5311 -2.6658 -2.0010
  221MPD1    H7 3420   0.243   3.659  16.240  0.7751  0.6675  0.7016
  222MPD1     C 3421   0.572   1.716   0.380 -0.2068  0.1107 -0.1231
  222MPD1    C1 3422   0.462   1.676   0.449  0.1902  1.1740 -0.4744
  222MPD1    C2 3423   0.341   1.734   0.421  0.4547  0.4632 -0.0106
  222MPD1    C3 3424   0.326   1.814   0.312 -0.2666 -0.2560  0.1842
  222MPD1    C4 3425   0.437   1.851   0.238 -0.2108 -0.5309 -0.1423
  222MPD1    C5 3426   0.561   1.798   0.268  0.6756 -0.2167  0.4501
  222MPD1     H 3427   0.263   1.711   0.492  1.9335  0.7656  1.7295
  222MPD1    H1 3428   0.421   1.925   0.161  0.3596  1.0914  1.2821
  222MPD1    H2 3429   0.669   1.683   0.413 -0.2480  0.3046  0.1884
  222MPD1    H3 3430   0.652   1.830   0.219 -0.7251  0.1093 -1.9312
  222MPD1     N 3431   0.210   1.885   0.284 -0.4462  0.0084  0.0944
  222MPD1    H5 3432   0.224   1.964   0.221 -0.1551 -0.9564 -1.0491
  222MPD1    N1 3433   0.470   1.596   0.562 -0.8756  0.4748 -0.0239
  222MPD1    H6 3434   0.384   1.547   0.587 -1.2638  0.0864 -2.0979
  222MPD1    H7 3435   0.539   1.523   0.550 -2.8066 -1.8893  3.3244
  223MPD1     C 3436   4.181   1.816  17.396  0.7764 -0.0899 -0.1943
  223MPD1    C1 3437   4.119   1.839  17.520 -0.7602 -0.0042  0.4600
  223MPD1    C2 3438   4.206   1.859  17.625 -0.3661  0.2439  0.1590
  223MPD1    C3 3439   4.335   1.887  17.605 -0.4123 -0.0595 -0.0027
  223MPD1    C4 3440   4.385   1.896  17.476 -0.1380 -0.6029 -0.2503
  223MPD1    C5 3441   4.315   1.843  17.372  0.1488 -0.1138 -0.1306
  223MPD1     H 3442   4.174   1.857  17.729  1.3146 -1.8911  0.6253
  223MPD1    H1 3443   4.486   1.928  17.452 -0.0002  0.5994  1.9641
  223MPD1    H2 3444   4.117   1.801  17.310 -1.1087 -0.6744  1.3156
  223MPD1    H3 3445   4.359   1.855  17.274  0.5867 -0.0502  0.0695
  223MPD1     N 3446   4.411   1.924  17.716  0.2257 -0.4599  0.3383
  223MPD1    H5 3447   4.372   1.907   0.075 -0.9799  0.3365 -0.0247
  223MPD1    N1 3448   3.986   1.804  17.540  0.4859 -1.0130 -0.0550
  223MPD1    H6 3449   3.950   1.857  17.620  1.5042  1.4546 -1.2358
  223MPD1    H7 3450   3.934   1.817  17.453 -0.2471 -0.2165  0.4960
  224MPD1     C 3451   1.817   3.859   8.914 -0.0079  0.0666 -0.8707
  224MPD1    C1 3452   1.919   3.811   8.992  0.5560  0.8318 -0.6306
  224MPD1    C2 3453   1.890   3.745   9.113 -0.2014  0.2159 -0.0140
  224MPD1    C3 3454   1.764   3.759   9.170  0.1212 -0.2603  0.0400
  224MPD1    C4 3455   1.666   3.824   9.096  0.0439 -0.4260 -0.0682
  224MPD1    C5 3456   1.693   3.858   8.967 -0.3915  0.7122  0.2697
  224MPD1     H 3457   1.965   3.703   9.178 -1.4159 -0.4328  0.9491
  224MPD1    H1 3458   1.563   3.837   9.125  0.7157  0.9606  1.6616
  224MPD1    H2 3459   1.832   3.893   8.812 -0.1774 -0.3773 -1.0438
  224MPD1    H3 3460   1.605   3.891   8.913 -0.3896 -2.4258 -1.6101
  224MPD1     N 3461   1.731   3.696   9.291 -0.1043  0.1145  0.3106
  224MPD1    H5 3462   1.643   3.716   9.337  1.5320 -1.2003  4.0227
  224MPD1    N1 3463   2.046   3.811   8.940  0.3592 -0.1769  0.1452
  224MPD1    H6 3464   2.059   3.898   8.889  0.7809 -1.2563 -1.5889
  224MPD1    H7 3465   2.123   3.817   9.007  1.7433  0.4896 -1.5001
  225MPD1     C 3466   2.726   0.207  11.949 -0.6500  0.2210  0.5582
  225MPD1    C1 3467   2.611   0.136  11.920 -0.5172  0.0384 -0.0178
  225MPD1    C2 3468   2.543   0.074  12.034 -0.1613 -0.2847 -0.1311
  225MPD1    C3 3469   2.606   0.061  12.153 -0.3533  0.3155  0.8955
  225MPD1    C4 3470   2.728   0.115  12.168  0.7942 -0.8323  0.2221
  225MPD1    C5 3471   2.785   0.187  12.075  0.1470  0.5300  0.3590
  225MPD1     H 3472   2.448   0.024  12.017  0.1650 -0.0835 -2.5173
  225MPD1    H1 3473   2.777   0.106  12.264  0.1291 -2.7497  0.3802
  225MPD1    H2 3474   2.783   0.273  11.884  2.0989 -1.8449  0.8838
  225MPD1    H3 3475   2.872   0.243  12.107 -0.4264  1.4843  0.2484
  225MPD1     N 3476   2.547   0.001  12.267  0.0086 -0.2893  0.3476
  225MPD1    H5 3477   2.594   0.016  12.355 -0.6682 -2.1316  1.0292
  225MPD1    N1 3478   2.538   0.158  11.798  0.3318 -0.2805 -0.1449
  225MPD1    H6 3479   2.607   0.169  11.724  1.4770  0.2044  0.9892
  225MPD1    H7 3480   2.472   0.088  11.766  1.8086 -0.2259 -3.3711
  226MPD1     C 3481   0.598   4.178   9.161 -0.3037  0.6724 -0.3784
  226MPD1    C1 3482   0.737   4.175   9.154 -0.1570 -0.5723  0.3787
  226MPD1    C2 3483   0.799   4.276   9.083 -0.4480  0.4121 -0.2989
  226MPD1    C3 3484   0.731   4.390   9.048  0.9182 -0.4592  0.2832
  226MPD1    C4 3485   0.596   4.398   9.068  0.0657  0.2695  0.2348
  226MPD1    C5 3486   0.524   4.284   9.114 -0.6922  0.2889 -0.4791
  226MPD1     H 3487   0.906   4.270   9.071 -0.2560  0.9131  1.1372
  226MPD1    H1 3488   0.534   4.482   9.038  0.5872  0.4719 -0.2820
  226MPD1    H2 3489   0.544   4.086   9.177  0.9033  0.5523  2.9172
  226MPD1    H3 3490   0.417   4.272   9.110 -0.5519 -0.9635 -0.3861
  226MPD1     N 3491   0.795   4.494   8.977 -0.0440 -0.6129 -0.4627
  226MPD1    H5 3492   0.895   4.481   8.966  0.0725 -0.6582  0.7354
  226MPD1    N1 3493   0.798   4.054   9.173 -0.1414 -0.2672  0.0372
  226MPD1    H6 3494   0.772   4.016   9.264  0.2658 -0.3062  0.1400
  226MPD1    H7 3495   0.898   4.061   9.194 -0.0227 -0.8875 -0.3238
  227MPD1     C 3496   0.501   0.701   8.767  0.1352 -0.2362  0.3174
  227MPD1    C1 3497   0.432   0.587   8.808 -0.0842 -0.6951  0.0669
  227MPD1    C2 3498   0.512   0.467   8.816  0.2171 -0.1415 -0.8563
  227MPD1    C3 3499   0.646   0.467   8.782 -0.2009  0.3350 -0.0568
  227MPD1    C4 3500   0.708   0.586   8.759 -0.1675 -0.0098  0.6875
  227MPD1    C5 3501   0.636   0.705   8.758  0.1378 -0.5062 -0.3133
  227MPD1     H 3502   0.464   0.372   8.838 -0.0616 -0.1511 -1.4791
  227MPD1    H1 3503   0.810   0.588   8.724 -0.0058  0.1858  1.1696
  227MPD1    H2 3504   0.443   0.792   8.754 -0.4551 -0.8189 -1.1032
  227MPD1    H3 3505   0.681   0.799   8.728  0.5338 -0.2535  1.0505
  227MPD1     N 3506   0.712   0.344   8.778 -0.2093  0.6983 -0.1997
  227MPD1    H5 3507   0.659   0.261   8.804  0.1353  0.5675  0.0863
  227MPD1    N1 3508   0.291   0.579   8.798 -0.6992  0.2421  0.2006
  227MPD1    H6 3509   0.250   0.510   8.861 -1.9225 -0.3796 -1.2600
  227MPD1    H7 3510   0.246   0.665   8.828  1.4534  1.4279 -0.0024
  228MPD1     C 3511   3.646   2.505  12.783 -0.6784 -0.5587 -0.1192
  228MPD1    C1 3512   3.538   2.468  12.869 -0.1182  0.0336 -0.0505
  228MPD1    C2 3513   3.420   2.430  12.810 -1.5410 -0.6489  0.0416
  228MPD1    C3 3514   3.401   2.442  12.676 -0.3055 -0.2612  0.1155
  228MPD1    C4 3515   3.501   2.487  12.592 -0.5157 -0.1460 -0.8530
  228MPD1    C5 3516   3.622   2.513  12.646  0.1216 -0.8818 -0.4633
  228MPD1     H 3517   3.336   2.402  12.872 -0.4240 -1.6605  1.1194
  228MPD1    H1 3518   3.489   2.493  12.484 -4.4039 -0.2429 -0.4001
  228MPD1    H2 3519   3.749   2.522  12.810  0.0920 -1.5076 -2.4351
  228MPD1    H3 3520   3.710   2.530  12.585  0.3602  2.3798  0.8055
  228MPD1     N 3521   3.276   2.398  12.621  0.4350 -0.6138 -0.1774
  228MPD1    H5 3522   3.210   2.354  12.685  0.5646 -0.7849 -0.1605
  228MPD1    N1 3523   3.550   2.494  13.013  0.5495 -0.2393 -0.5073
  228MPD1    H6 3524   3.647   2.495  13.043  0.0028 -0.3550  1.2523
  228MPD1    H7 3525   3.513   2.411  13.060  0.1973 -0.6186 -1.4538
  229MPD1     C 3526   3.796   0.990  14.258  0.0214  0.1704 -0.2246
  229MPD1    C1 3527   3.745   0.917  14.364  0.0700 -0.3638 -0.8177
  229MPD1    C2 3528   3.830   0.867  14.456 -0.0381 -0.0928  0.4612
  229MPD1    C3 3529   3.966   0.883  14.444 -0.0936 -0.4440 -0.2917
  229MPD1    C4 3530   4.013   0.943  14.331 -0.2956  0.3761  0.6248
  229MPD1    C5 3531   3.933   0.990  14.233 -0.3341  0.5702  0.7262
  229MPD1     H 3532   3.784   0.822  14.544 -0.6375  1.1213  0.7643
  229MPD1    H1 3533   4.119   0.954  14.311 -0.3679  0.1490  0.1028
  229MPD1    H2 3534   3.731   1.021  14.177 -1.2202 -0.6562  0.4649
  229MPD1    H3 3535   3.966   1.042  14.144 -3.0167  0.1735 -0.4834
  229MPD1     N 3536   4.063   0.840  14.538 -0.1133 -0.6417 -0.2636
  229MPD1    H5 3537   4.158   0.877  14.530 -0.4799  0.1306 -1.0089
  229MPD1    N1 3538   3.611   0.878  14.356 -0.3763  0.2041 -0.2612
  229MPD1    H6 3539   3.581   0.867  14.453  1.4077 -2.2466  0.0180
  229MPD1    H7 3540   3.556   0.943  14.300 -0.5644  1.0278  0.8813
  230MPD1     C 3541   4.114   0.150  15.369 -0.6621 -0.5723  0.3537
  230MPD1    C1 3542   4.234   0.125  15.307 -0.5562 -0.1430 -0.8680
  230MPD1    C2 3543   4.279   0.225  15.217 -0.3488 -0.1851  0.1021
  230MPD1    C3 3544   4.190   0.323  15.174 -0.5866 -0.5952  0.1819
  230MPD1    C4 3545   4.066   0.332  15.226  0.4649  0.0364  0.0094
  230MPD1    C5 3546   4.027   0.252  15.332  0.5174  0.2044 -0.1582
  230MPD1     H 3547   4.379   0.215  15.178  0.1226 -0.3819  1.3684
  230MPD1    H1 3548   3.988   0.396  15.186  1.0951 -0.0500 -1.3564
  230MPD1    H2 3549   4.065   0.088  15.443 -0.8262 -0.1104  0.6305
  230MPD1    H3 3550   3.927   0.257  15.375  1.3409 -2.7036  2.0931
  230MPD1     N 3551   4.239   0.407  15.070 -0.3051  0.2424 -0.0507
  230MPD1    H5 3552   4.328   0.380  15.031  0.5721  2.5723  0.4042
  230MPD1    N1 3553   4.323   0.033  15.360 -0.2999 -0.0928  0.1422
  230MPD1    H6 3554   4.280   4.675  15.378 -0.7196 -0.2321 -1.5556
  230MPD1    H7 3555   4.399   0.008  15.296 -1.2961 -1.0678 -0.6570
  231MPD1     C 3556   2.515   2.984  15.460  0.4687 -0.3594 -0.7394
  231MPD1    C1 3557   2.472   2.912  15.345  0.2403 -0.8053 -0.0249
  231MPD1    C2 3558   2.534   2.941  15.224  0.3323  0.0758  0.1868
  231MPD1    C3 3559   2.640   3.026  15.219 -1.1544 -0.1035  0.3978
  231MPD1    C4 3560   2.692   3.086  15.328  0.3191 -0.3724 -0.1302
  231MPD1    C5 3561   2.630   3.064  15.449  0.4914 -0.0288 -0.2191
  231MPD1     H 3562   2.499   2.893  15.133 -0.7195  1.9774 -0.4047
  231MPD1    H1 3563   2.781   3.147  15.312 -0.1890 -0.2930 -2.5841
  231MPD1    H2 3564   2.462   2.980  15.554 -0.7485  0.0843 -1.3911
  231MPD1    H3 3565   2.671   3.109  15.539  0.5360  1.6489 -1.0805
  231MPD1     N 3566   2.680   3.051  15.086 -0.5874  0.2576  0.3203
  231MPD1    H5 3567   2.613   3.022  15.015  0.1502  3.5699 -1.7702
  231MPD1    N1 3568   2.358   2.831  15.348  0.0163 -0.0639  0.0227
  231MPD1    H6 3569   2.367   2.766  15.270  0.0881 -0.8883  0.7163
  231MPD1    H7 3570   2.344   2.788  15.440 -1.4965 -1.0715 -0.6756
  232MPD1     C 3571   4.253   1.454  17.513  0.7730  1.2991 -0.0002
  232MPD1    C1 3572   4.339   1.357  17.546 -0.6119 -0.4996 -1.6744
  232MPD1    C2 3573   4.288   1.233  17.590  0.1977 -0.0364 -0.1655
  232MPD1    C3 3574   4.151   1.221  17.602  0.2466  0.6813  0.1002
  232MPD1    C4 3575   4.068   1.333  17.599 -0.3150  0.3637  0.2798
  232MPD1    C5 3576   4.123   1.446  17.546 -0.2579  0.5100 -0.7640
  232MPD1     H 3577   4.349   1.145  17.608 -0.0935 -0.3300 -0.6279
  232MPD1    H1 3578   3.960   1.331  17.607 -0.2926  0.4463  0.6045
  232MPD1    H2 3579   4.285   1.547  17.468 -1.3763  0.5754 -2.9659
  232MPD1    H3 3580   4.064   1.534  17.522 -0.7107  0.1544 -0.9629
  232MPD1     N 3581   4.100   1.091  17.625 -0.4318 -0.1017 -0.6627
  232MPD1    H5 3582   4.165   1.013  17.625  1.6852  1.6879 -0.4491
  232MPD1    N1 3583   4.467   1.365  17.501 -0.2052 -0.2225 -0.1034
  232MPD1    H6 3584   4.505   1.460  17.507 -0.0201 -0.2453 -0.9604
  232MPD1    H7 3585   4.525   1.297  17.550 -0.0593  0.1422  0.2320
  233MPD1     C 3586   3.767   3.632   0.679 -0.1691  0.1323  0.6536
  233MPD1    C1 3587   3.712   3.508   0.687  0.3219  0.2630 -0.5438
  233MPD1    C2 3588   3.793   3.420   0.760  0.2477  0.1369  0.5129
  233MPD1    C3 3589   3.926   3.443   0.793 -0.0959  0.2309 -0.4276
  233MPD1    C4 3590   3.982   3.564   0.763  0.4370 -0.2572  0.3969
  233MPD1    C5 3591   3.898   3.658   0.706  0.2886 -0.2459 -0.0968
  233MPD1     H 3592   3.751   3.321   0.775  2.6647 -1.1370 -1.1804
  233MPD1    H1 3593   4.083   3.588   0.795  0.3228  0.5516  0.1495
  233MPD1    H2 3594   3.695   3.706   0.647 -0.2561 -0.3976 -0.3804
  233MPD1    H3 3595   3.940   3.755   0.681 -0.5613  0.2059  0.2462
  233MPD1     N 3596   4.015   3.356   0.853 -0.0481  0.1156  0.1812
  233MPD1    H5 3597   4.111   3.383   0.872 -0.3372  0.6431  0.9023
  233MPD1    N1 3598   3.570   3.494   0.681 -0.4856  0.7097  0.5804
  233MPD1    H6 3599   3.524   3.545   0.606  0.6875 -0.4174 -0.9000
  233MPD1    H7 3600   3.543   3.396   0.675  0.3871  0.4843  0.3275
  234MPD1     C 3601   1.785   1.909  10.260 -0.3672 -0.4984  0.1666
  234MPD1    C1 3602   1.722   2.010  10.332 -0.1736  0.1574  0.6952
  234MPD1    C2 3603   1.650   2.108  10.263  0.5979  0.5362  0.6228
  234MPD1    C3 3604   1.665   2.117  10.122  0.1822  0.0409  0.6541
  234MPD1    C4 3605   1.739   2.022  10.054  0.5682  0.5581  0.5861
  234MPD1    C5 3606   1.801   1.918  10.126  0.6104 -0.2755  0.3915
  234MPD1     H 3607   1.602   2.192  10.313  0.4684 -0.7040  2.5631
  234MPD1    H1 3608   1.754   2.029   9.947 -2.1743  2.0285  0.3041
  234MPD1    H2 3609   1.847   1.836  10.310 -0.7285 -0.9958 -0.1116
  234MPD1    H3 3610   1.860   1.849  10.068  0.8201 -0.9071  1.3640
  234MPD1     N 3611   1.592   2.221  10.062  0.0087 -0.1294 -0.2819
  234MPD1    H5 3612   1.551   2.289  10.125 -1.8457 -0.4304 -1.1631
  234MPD1    N1 3613   1.718   2.014  10.471  1.0155 -0.3646 -0.5266
  234MPD1    H6 3614   1.706   2.110  10.503  4.7433  0.5249 -1.7847
  234MPD1    H7 3615   1.805   1.980  10.512  0.1690 -0.1521  1.4380
  235MPD1     C 3616   3.026   4.514  10.598  0.2622  0.7249  0.4539
  235MPD1    C1 3617   3.058   4.581  10.481  0.8541  0.2897  0.6159
  235MPD1    C2 3618   3.136   4.700  10.488 -0.0659  0.0570 -0.6475
  235MPD1    C3 3619   3.159   0.028  10.609  0.1758  0.9817 -0.0269
  235MPD1    C4 3620   3.121   4.694  10.722 -0.6273  0.2035  0.0267
  235MPD1    C5 3621   3.052   4.575  10.717 -0.2076 -0.2444 -0.2766
  235MPD1     H 3622   3.171   0.005  10.393 -0.1555  2.2994  0.2104
  235MPD1    H1 3623   3.152   0.004  10.817  0.1609 -0.5381  0.1144
  235MPD1    H2 3624   2.990   4.412  10.601 -2.9356  1.7792 -2.3585
  235MPD1    H3 3625   3.049   4.517  10.809 -1.8385 -0.6791 -0.5977
  235MPD1     N 3626   3.236   0.150  10.609 -0.2168 -0.4448  0.0046
  235MPD1    H5 3627   3.252   0.196  10.520 -1.1789  1.4245  0.7821
  235MPD1    N1 3628   3.041   4.523  10.353 -0.2004 -0.2711  0.0254
  235MPD1    H6 3629   2.950   4.476  10.350 -0.4800  0.3528 -1.3282
  235MPD1    H7 3630   3.020   4.599  10.289  2.5120  0.0145 -0.5215
  236MPD1     C 3631   2.011   1.723   9.568  0.3307 -0.6973  0.0215
  236MPD1    C1 3632   2.107   1.635   9.520 -0.5112 -0.2466  0.0200
  236MPD1    C2 3633   2.204   1.587   9.606 -0.2025  0.1063 -0.6928
  236MPD1    C3 3634   2.213   1.637   9.740 -0.1932 -0.6842  0.5940
  236MPD1    C4 3635   2.109   1.714   9.787  0.0007  0.5803 -0.2740
  236MPD1    C5 3636   2.011   1.753   9.701  0.0542  0.0902  0.0962
  236MPD1     H 3637   2.271   1.510   9.570 -0.4336 -0.0239 -0.8470
  236MPD1    H1 3638   2.107   1.751   9.889 -3.3777 -2.8297  0.9181
  236MPD1    H2 3639   1.920   1.749   9.516  0.1965 -1.0947  0.0572
  236MPD1    H3 3640   1.933   1.812   9.747  0.1747  0.9282 -0.7851
  236MPD1     N 3641   2.320   1.598   9.831  0.5620  0.2220 -0.3287
  236MPD1    H5 3642   2.319   1.645   9.921 -0.2986  1.2796 -0.8905
  236MPD1    N1 3643   2.095   1.584   9.397 -0.6239  0.0646 -0.4673
  236MPD1    H6 3644   2.049   1.641   9.326  0.2985 -0.3217 -1.3763
  236MPD1    H7 3645   2.185   1.570   9.352 -0.4328  0.1719 -0.1182
  237MPD1     C 3646   2.738   3.863  15.473 -0.0664 -0.3789 -0.8625
  237MPD1    C1 3647   2.635   3.939  15.529 -0.2158 -1.2326 -0.2121
  237MPD1    C2 3648   2.506   3.929  15.479 -0.2609  0.2434  0.3893
  237MPD1    C3 3649   2.479   3.837  15.379  0.0497  0.7173  0.6712
  237MPD1    C4 3650   2.581   3.759  15.328 -0.4070  0.0297 -0.4500
  237MPD1    C5 3651   2.709   3.779  15.373  0.2871  0.0135  0.7663
  237MPD1     H 3652   2.438   4.003  15.519  1.2539 -0.3850  4.0675
  237MPD1    H1 3653   2.554   3.699  15.241 -2.1387 -1.5567  1.1905
  237MPD1    H2 3654   2.840   3.874  15.507  0.0811  1.6298 -1.9824
  237MPD1    H3 3655   2.796   3.736  15.325  0.7588  0.8476  0.8870
  237MPD1     N 3656   2.350   3.830  15.318  0.6095 -0.1139 -0.2828
  237MPD1    H5 3657   2.346   3.785  15.227 -0.8157  0.6693 -0.5988
  237MPD1    N1 3658   2.663   4.020  15.640  0.2327 -0.1780 -1.5444
  237MPD1    H6 3659   2.747   4.076  15.627  1.0369 -1.5029 -2.0987
  237MPD1    H7 3660   2.591   4.087  15.664 -0.5924 -0.5465 -2.9523
  238MPD1     C 3661   4.497   3.003  15.156  0.4125 -0.3953  0.0575
  238MPD1    C1 3662   4.432   2.883  15.176  1.4774 -0.6301  0.4319
  238MPD1    C2 3663   4.308   2.855  15.123 -0.3669  0.5977  1.0616
  238MPD1    C3 3664   4.263   2.933  15.022 -0.5911  0.8085 -0.5889
  238MPD1    C4 3665   4.333   3.048  14.989  0.1197  0.5239 -0.5147
  238MPD1    C5 3666   4.443   3.090  15.067 -0.0693 -0.2039 -0.1526
  238MPD1     H 3667   4.279   2.751  15.136 -1.5070  0.7400 -0.3922
  238MPD1    H1 3668   4.299   3.109  14.906  0.3721  1.7520  0.2792
  238MPD1    H2 3669   4.586   3.034  15.209  1.5083 -1.7910 -0.9704
  238MPD1    H3 3670   4.495   3.182  15.043  1.5896 -1.5667 -1.8023
  238MPD1     N 3671   4.154   2.896  14.936 -0.0238  0.6081 -0.3841
  238MPD1    H5 3672   4.144   2.934  14.842  1.9524  2.2554  0.0909
  238MPD1    N1 3673   4.467   2.810  15.292 -0.2556 -0.1139 -0.7947
  238MPD1    H6 3674   4.568   2.805  15.306 -0.3084  1.5712  0.2734
  238MPD1    H7 3675   4.436   2.713  15.290  0.0172 -0.1896 -1.3184
  239MPD1     C 3676   0.033   3.817  15.095 -0.5917  0.6500  0.1792
  239MPD1    C1 3677   4.636   3.802  15.048  0.6908 -0.1049  0.1356
  239MPD1    C2 3678   4.608   3.830  14.915  0.2733 -0.4735 -0.0288
  239MPD1    C3 3679   4.710   3.866  14.823  0.0553 -0.0283 -0.0953
  239MPD1    C4 3680   0.105   3.851  14.871 -0.0505  0.3285  0.1039
  239MPD1    C5 3681   0.133   3.835  15.004  0.2348  0.1942  0.1735
  239MPD1     H 3682   4.508   3.837  14.873  0.7878  2.0834 -0.8089
  239MPD1    H1 3683   0.184   3.875  14.801 -0.0542  2.5521  0.8427
  239MPD1    H2 3684   0.059   3.812  15.201 -0.4478 -0.0267  0.1126
  239MPD1    H3 3685   0.237   3.841  15.036  0.7543  0.5479 -1.5554
  239MPD1     N 3686   4.677   3.905  14.685 -0.0028  0.0906  0.2163
  239MPD1    H5 3687   0.017   3.917  14.615 -1.3214 -0.7337 -1.3179
  239MPD1    N1 3688   4.532   3.792  15.138 -0.0249 -0.1173  0.1281
  239MPD1    H6 3689   4.440   3.758  15.109  1.2790 -2.3669 -1.4055
  239MPD1    H7 3690   4.559   3.754  15.229  1.3262  0.9485  0.1604
  240MPD1     C 3691   3.842   3.430  13.721 -0.0263 -0.2743  0.3718
  240MPD1    C1 3692   3.721   3.429  13.783  0.3215  0.2228 -0.0941
  240MPD1    C2 3693   3.716   3.373  13.909 -0.5180  1.3518  0.6313
  240MPD1    C3 3694   3.818   3.307  13.971  0.4435  0.4870 -0.2245
  240MPD1    C4 3695   3.942   3.301  13.904  0.6019  0.5673 -0.1194
  240MPD1    C5 3696   3.942   3.355  13.779 -0.5944 -0.7437  0.8888
  240MPD1     H 3697   3.621   3.379  13.961 -0.7774  1.3466  0.1606
  240MPD1    H1 3698   4.035   3.260  13.942 -0.3538 -0.7258  0.8316
  240MPD1    H2 3699   3.870   3.483  13.631  1.9159 -1.3293  0.3494
  240MPD1    H3 3700   4.043   3.363  13.739 -0.5743  0.6743  1.2206
  240MPD1     N 3701   3.790   3.238  14.088  0.1290  0.2646  0.2628
  240MPD1    H5 3702   3.693   3.230  14.114  0.1870 -1.6845 -0.1274
  240MPD1    N1 3703   3.620   3.522  13.742  0.1019  0.4662  0.2544
  240MPD1    H6 3704   3.614   3.529  13.640  3.2028 -0.7973  0.0051
  240MPD1    H7 3705   3.527   3.489  13.766 -0.1426  1.2917  0.4361
  241MPD1     C 3706   4.025   3.342  15.042 -0.3097 -0.3370 -0.0706
  241MPD1    C1 3707   4.003   3.208  15.028 -0.1259  0.1215 -0.1968
  241MPD1    C2 3708   3.962   3.159  14.901 -0.6940  0.5541  0.5244
  241MPD1    C3 3709   3.949   3.245  14.793  0.2143 -0.2373  0.1761
  241MPD1    C4 3710   3.987   3.381  14.803  0.3675 -0.1398 -0.5409
  241MPD1    C5 3711   4.018   3.422  14.932  0.2156 -0.2887 -0.1405
  241MPD1     H 3712   3.916   3.062  14.898 -0.2307  0.3492  0.0736
  241MPD1    H1 3713   3.969   3.455  14.726  0.9303  1.4360  0.8515
  241MPD1    H2 3714   4.036   3.387  15.140 -1.2183 -0.5526  0.1310
  241MPD1    H3 3715   4.019   3.527  14.960  0.4115 -0.0958 -0.8833
  241MPD1     N 3716   3.901   3.198  14.667  0.1997 -0.0468 -0.2350
  241MPD1    H5 3717   3.908   3.273  14.599  1.2469  0.0920  0.0226
  241MPD1    N1 3718   3.988   3.134  15.147 -0.0922 -0.2981 -0.5149
  241MPD1    H6 3719   4.038   3.180  15.224 -0.4343 -1.6817  0.5388
  241MPD1    H7 3720   4.025   3.041  15.129  2.0660  0.4404  0.1479
  242MPD1     C 3721   3.864   2.505  15.276 -0.1952  0.3548  0.0226
  242MPD1    C1 3722   3.988   2.453  15.252 -0.6369 -0.7320 -0.1690
  242MPD1    C2 3723   4.009   2.315  15.241 -0.8160 -0.0417 -0.4975
  242MPD1    C3 3724   3.904   2.232  15.264 -0.0917  0.2928 -0.0173
  242MPD1    C4 3725   3.786   2.286  15.311  0.3839 -0.0674 -0.1207
  242MPD1    C5 3726   3.764   2.419  15.315  0.5552  0.4712 -0.9918
  242MPD1     H 3727   4.109   2.277  15.225 -0.3047 -0.1738  2.9564
  242MPD1    H1 3728   3.707   2.221  15.348 -0.2457  0.9079  0.2579
  242MPD1    H2 3729   3.860   2.614  15.276  0.7969  0.3942  0.1435
  242MPD1    H3 3730   3.670   2.452  15.358  1.0382  1.0129 -0.3415
  242MPD1     N 3731   3.910   2.093  15.265  0.4850 -1.3894  0.2462
  242MPD1    H5 3732   3.830   2.041  15.300 -0.7354  0.2687 -0.0609
  242MPD1    N1 3733   4.101   2.538  15.247  0.0008 -0.1633  0.1823
  242MPD1    H6 3734   4.079   2.637  15.235 -0.7194 -0.2801  0.5600
  242MPD1    H7 3735   4.180   2.510  15.190 -0.5003 -0.9665 -0.1080
  243MPD1     C 3736   4.253   0.317  17.713  0.0388 -0.2545 -0.3351
  243MPD1    C1 3737   4.387   0.327   0.015 -0.3134  0.1229  0.2285
  243MPD1    C2 3738   4.484   0.242  17.693 -0.0150 -0.0064  0.9864
  243MPD1    C3 3739   4.440   0.144  17.598  0.1220 -0.9379  0.2285
  243MPD1    C4 3740   4.309   0.131  17.563 -0.3648 -0.0253 -0.2109
  243MPD1    C5 3741   4.219   0.218  17.624 -0.3035  0.3352  0.4116
  243MPD1     H 3742   4.590   0.253  17.714  0.2795  0.1285 -0.5841
  243MPD1    H1 3743   4.278   0.055  17.492 -0.2016 -0.8303  0.5770
  243MPD1    H2 3744   4.178   0.385   0.018  0.9882 -1.0234  3.0307
  243MPD1    H3 3745   4.114   0.210  17.596  0.1313 -1.7527 -0.6844
  243MPD1     N 3746   4.542   0.060  17.538  0.2804  0.1729  0.0511
  243MPD1    H5 3747   4.635   0.067  17.578  1.8587 -1.9491 -3.2665
  243MPD1    N1 3748   4.420   0.419   0.117  0.4926  0.0510  1.3595
  243MPD1    H6 3749   4.516   0.451   0.110  0.5400 -0.0830  1.3831
  243MPD1    H7 3750   4.352   0.495   0.117 -0.0283 -0.4144  0.6769
  244MPD1     C 3751   0.432   4.002  17.561  0.2666 -0.6030 -0.2757
  244MPD1    C1 3752   0.495   4.070  17.458 -1.0222  0.2274 -0.7114
  244MPD1    C2 3753   0.446   4.193  17.425 -0.2878  0.2083 -0.2596
  244MPD1    C3 3754   0.353   4.258  17.511  0.6081  0.5135 -0.7978
  244MPD1    C4 3755   0.307   4.200  17.627 -0.2728  0.6009 -0.4448
  244MPD1    C5 3756   0.342   4.069  17.646 -0.4486  0.4734 -0.2424
  244MPD1     H 3757   0.484   4.244  17.338  0.7070  2.1588  1.3386
  244MPD1    H1 3758   0.245   4.245  17.705 -2.6999 -2.2884 -0.6729
  244MPD1    H2 3759   0.445   3.897  17.582  0.3804  0.2338  3.8574
  244MPD1    H3 3760   0.293   4.008  17.721 -1.3450  1.6900  0.1589
  244MPD1     N 3761   0.308   4.387  17.463 -0.4796  0.5748  0.1504
  244MPD1    H5 3762   0.355   4.418  17.379 -2.1224 -0.2664 -1.0915
  244MPD1    N1 3763   0.581   4.001  17.367  0.4723  0.1613 -0.1206
  244MPD1    H6 3764   0.648   4.072  17.338  0.5699  0.6479  1.2983
  244MPD1    H7 3765   0.634   3.925  17.409 -1.4514 -1.1747 -0.1241
  245MPD1     C 3766   1.730   0.279  13.678 -0.8260 -0.7128 -0.2374
  245MPD1    C1 3767   1.835   0.286  13.772 -0.5878  0.7344 -0.7958
  245MPD1    C2 3768   1.893   0.405  13.803 -0.2830 -0.3488  0.4580
  245MPD1    C3 3769   1.840   0.523  13.746  0.3001 -0.2389 -0.6127
  245MPD1    C4 3770   1.750   0.515  13.646 -0.3246  0.5035 -0.3576
  245MPD1    C5 3771   1.693   0.393  13.615  1.5428  0.2258  0.0587
  245MPD1     H 3772   1.967   0.401  13.882 -1.5060 -2.0738  1.5357
  245MPD1    H1 3773   1.711   0.597  13.587  0.3297  0.9310 -0.1900
  245MPD1    H2 3774   1.693   0.181  13.653  1.0583 -1.1932 -1.1228
  245MPD1    H3 3775   1.630   0.387  13.527  0.4056  2.6027  0.7123
  245MPD1     N 3776   1.898   0.647  13.777  0.8697 -0.2877 -0.7886
  245MPD1    H5 3777   1.975   0.643  13.844 -1.1040 -0.7028  1.4618
  245MPD1    N1 3778   1.900   0.165  13.790 -0.1884  0.1129  0.3200
  245MPD1    H6 3779   1.833   0.090  13.804  0.3327  0.0352  2.4834
  245MPD1    H7 3780   1.962   0.166  13.871  1.2415 -1.1410 -0.7681
  246MPD1     C 3781   3.101   3.217  10.720  0.2435 -1.1430  0.0193
  246MPD1    C1 3782   3.006   3.156  10.645 -0.2791  0.1121  0.0306
  246MPD1    C2 3783   3.051   3.063  10.553 -0.7770 -0.2779  0.4853
  246MPD1    C3 3784   3.182   3.021  10.554 -0.1031  0.2318 -0.6547
  246MPD1    C4 3785   3.274   3.066  10.646  0.6780 -0.5187 -0.3162
  246MPD1    C5 3786   3.230   3.175  10.726 -0.0548 -0.7744  0.5540
  246MPD1     H 3787   2.989   3.019  10.475 -0.4886 -0.0610  0.1334
  246MPD1    H1 3788   3.378   3.038  10.656  1.4313  2.4048  0.1359
  246MPD1    H2 3789   3.058   3.289  10.789  1.0643 -0.8433  0.2228
  246MPD1    H3 3790   3.304   3.241  10.770 -2.6530  2.9980 -0.7256
  246MPD1     N 3791   3.231   2.943  10.451  0.3387  0.1475 -0.0743
  246MPD1    H5 3792   3.168   2.896  10.388  0.2796 -0.5582  0.5135
  246MPD1    N1 3793   2.878   3.209  10.651 -0.1240  0.2284 -0.4660
  246MPD1    H6 3794   2.867   3.245  10.746  1.0948  2.0831 -1.0190
  246MPD1    H7 3795   2.803   3.141  10.643 -0.4949  0.7979 -1.8076
  247MPD1     C 3796   2.299   1.052  16.866 -0.2634 -0.0429  0.4229
  247MPD1    C1 3797   2.291   0.915  16.893 -0.2189  0.5459  0.6593
  247MPD1    C2 3798   2.237   0.835  16.793  0.4380 -0.2970  0.6962
  247MPD1    C3 3799   2.217   0.884  16.666  0.7619  0.0969 -1.1391
  247MPD1    C4 3800   2.232   1.020  16.639 -0.2605 -0.0325  0.5280
  247MPD1    C5 3801   2.270   1.102  16.742  0.1296 -0.3004  0.6994
  247MPD1     H 3802   2.225   0.731  16.821 -0.2465  0.2984  2.6163
  247MPD1    H1 3803   2.209   1.063  16.543 -1.0391 -1.4358  0.0830
  247MPD1    H2 3804   2.332   1.127  16.936 -2.3352  0.7702  0.5336
  247MPD1    H3 3805   2.286   1.208  16.733  0.0763 -0.3718 -0.1773
  247MPD1     N 3806   2.165   0.802  16.562  0.2429 -0.0560 -0.4058
  247MPD1    H5 3807   2.166   0.843  16.469 -0.2063  1.1926  0.1419
  247MPD1    N1 3808   2.290   0.869  17.028 -0.1151 -0.0562 -0.7763
  247MPD1    H6 3809   2.361   0.918  17.083 -2.5856  3.7778 -0.9999
  247MPD1    H7 3810   2.297   0.769  17.043  1.2272  0.1664  0.0743
  248MPD1     C 3811   2.785   4.597   0.984 -0.2950 -0.2414 -0.5471
  248MPD1    C1 3812   2.728   4.692   1.065 -0.2879 -0.5874 -0.3182
  248MPD1    C2 3813   2.587   4.704   1.070  0.3366 -0.2010 -0.1081
  248MPD1    C3 3814   2.505   4.623   1.000 -0.2144 -1.1778 -0.1405
  248MPD1    C4 3815   2.562   4.517   0.923  0.2847 -0.3400 -0.6847
  248MPD1    C5 3816   2.703   4.509   0.916  0.3926  0.3140 -1.2881
  248MPD1     H 3817   2.536   0.042   1.133 -1.7657 -0.2135 -1.7999
  248MPD1    H1 3818   2.512   4.452   0.853  0.9373  0.1857 -1.6483
  248MPD1    H2 3819   2.890   4.576   0.969 -0.0093 -0.8994  2.3648
  248MPD1    H3 3820   2.746   4.437   0.847  0.7067 -0.4255 -0.3387
  248MPD1     N 3821   2.365   4.644   1.006 -0.1376 -0.4150  0.0414
  248MPD1    H5 3822   2.332   4.707   1.078 -0.0460 -0.9290  0.5364
  248MPD1    N1 3823   2.804   0.026   1.161  0.3944 -0.9915 -0.4211
  248MPD1    H6 3824   2.901   0.046   1.139  0.4307  0.2337  0.8185
  248MPD1    H7 3825   2.754   0.107   1.199  0.8451 -0.0706 -1.8083
  249MPD1     C 3826   3.767   3.875  11.465  0.4693  0.3778 -0.0189
  249MPD1    C1 3827   3.768   3.984  11.379  0.0635  0.3524 -0.0834
  249MPD1    C2 3828   3.700   3.979  11.257  0.2558  0.2153 -0.6621
  249MPD1    C3 3829   3.629   3.866  11.223  0.4504 -0.1247 -0.9293
  249MPD1    C4 3830   3.603   3.772  11.322 -0.4057 -1.1488  0.1507
  249MPD1    C5 3831   3.676   3.778  11.440 -0.0238  0.8781  1.0121
  249MPD1     H 3832   3.718   4.052  11.180  0.5226 -2.6071 -3.2550
  249MPD1    H1 3833   3.558   3.677  11.296  0.0265 -0.4002 -3.2819
  249MPD1    H2 3834   3.818   3.878  11.560 -1.7035 -0.2472  1.1644
  249MPD1    H3 3835   3.671   3.697  11.512  0.9155 -1.4562 -1.5403
  249MPD1     N 3836   3.571   3.868  11.090  0.3236 -0.2308 -0.0943
  249MPD1    H5 3837   3.593   3.941  11.022  2.3070 -0.3189  0.4620
  249MPD1    N1 3838   3.867   4.081  11.409  0.3188 -0.3681  0.4674
  249MPD1    H6 3839   3.847   4.177  11.384 -0.3694 -0.3446  1.1007
  249MPD1    H7 3840   3.950   4.061  11.354  0.5443  1.3924  0.1681
  250MPD2     C 3841   0.705   4.490  13.220 -0.4946 -0.0900  0.9487
  250MPD2    C1 3842   0.672   4.599  13.138  0.2173 -0.4168 -0.2765
  250MPD2    C2 3843   0.582   4.588  13.030 -0.1344  0.3179 -0.6226
  250MPD2    C3 3844   0.521   4.469  13.009  0.1659 -0.2342 -0.1672
  250MPD2    C4 3845   0.565   4.366  13.090 -0.4654 -0.0998  0.6877
  250MPD2    C5 3846   0.646   4.372  13.196 -0.8566  0.0940 -0.1719
  250MPD2     H 3847   0.572   4.668  12.958  0.4462  1.2263  0.3017
  250MPD2    H1 3848   0.532   4.264  13.072  1.4649 -0.2411 -2.0720
  250MPD2    H2 3849   0.791   4.491  13.287 -0.1221 -0.1685  0.4708
  250MPD2    H3 3850   0.669   4.278  13.245 -3.4337 -0.8014 -0.6691
  250MPD2     N 3851   0.432   4.434  12.895 -0.0933  0.5807  0.1215
  250MPD2    H5 3852   0.397   4.339  12.888  1.5265  0.1205 -1.7462
  250MPD2    N1 3853   0.754   4.717  13.151  0.0955 -0.0086 -0.1652
  250MPD2    H7 3854   0.827   4.696  13.218  1.2571 -0.4451 -1.5596
  251TMC3    C1 3855   0.850   0.199  13.118 -0.1290 -0.3685 -0.2652
  251TMC3    C2 3856   0.820   0.332  13.139 -0.2140 -0.0532 -0.6850
  251TMC3    C3 3857   0.917   0.422  13.172  0.1863 -0.3671  0.0953
  251TMC3    C4 3858   0.974   0.155  13.145  0.1524 -0.1411 -0.7633
  251TMC3    C5 3859   1.065   0.249  13.186 -0.8812  0.1088  0.3389
  251TMC3    C6 3860   1.036   0.378  13.218  0.5281  0.3891 -0.7693
  251TMC3     C 3861   0.744   0.102  13.082  0.1023 -0.1345  0.3981
  251TMC3     O 3862   0.651   0.140  13.011  0.1205 -0.2046  0.1203
  251TMC3     H 3863   0.730   0.384  13.108 -0.2529  0.4164  0.1908
  251TMC3    H1 3864   1.006   0.053  13.125 -0.7389 -0.4198 -0.7514
  251TMC3    H2 3865   1.099   0.446  13.274  1.9639 -0.6891 -1.0889
  251TMC3    C7 3866   1.199   0.200  13.182 -0.0027  0.3177 -0.1127
  251TMC3    C8 3867   0.871   0.548  13.230  0.2681 -0.0535  0.4490
  251TMC3    O1 3868   1.219   0.084  13.200 -0.5322 -0.6821  0.1246
  251TMC3    O2 3869   0.756   0.555  13.274 -0.8931  1.0725 -0.3833
  252TMC3    C1 3870   0.592   0.783   9.159 -0.4018  0.0651 -0.3323
  252TMC3    C2 3871   0.633   0.905   9.216  0.0702 -0.8005  0.1356
  252TMC3    C3 3872   0.768   0.935   9.204  0.0032  0.5532  0.2081
  252TMC3    C4 3873   0.678   0.708   9.085  0.3977 -0.0553 -0.2153
  252TMC3    C5 3874   0.810   0.744   9.077 -0.5357  0.1698 -0.7948
  252TMC3    C6 3875   0.855   0.863   9.129 -0.2486 -0.6551 -0.4424
  252TMC3     C 3876   0.446   0.768   9.133  0.2843  0.4452 -0.3569
  252TMC3     O 3877   0.371   0.863   9.153 -0.2367  0.5322 -0.8922
  252TMC3     H 3878   0.565   0.970   9.271  1.8304 -0.0767  1.4576
  252TMC3    H1 3879   0.641   0.623   9.029  0.0634 -0.9090  1.3066
  252TMC3    H2 3880   0.959   0.892   9.118 -0.2944  0.5907  2.2638
  252TMC3    C7 3881   0.910   0.647   9.038 -0.7009 -0.7270  0.3533
  252TMC3    C8 3882   0.802   1.063   9.270 -0.0093  0.0245 -0.8500
  252TMC3    O1 3883   1.025   0.681   9.010 -0.4623 -0.0585 -0.4995
  252TMC3    O2 3884   0.737   1.167   9.245  0.5387  0.5575  0.3053
  253MPD2     C 3885   2.004   4.211  15.402 -0.2491 -0.1087  0.0553
  253MPD2    C1 3886   1.870   4.190  15.384  0.2567  0.5318  0.4783
  253MPD2    C2 3887   1.787   4.186  15.492 -0.5350 -0.3650  0.3863
  253MPD2    C3 3888   1.836   4.216  15.620  0.3738  0.2871  0.6427
  253MPD2    C4 3889   1.972   4.235  15.636  0.1812 -0.1967 -0.2513
  253MPD2    C5 3890   2.051   4.232  15.524 -0.2416  0.2851 -0.1414
  253MPD2     H 3891   1.684   4.160  15.471 -0.4305 -0.9225  0.5570
  253MPD2    H1 3892   2.019   4.233  15.734  0.7786 -2.0377 -0.5796
  253MPD2    H2 3893   2.074   4.214  15.320 -1.3635  1.5759 -0.8297
  253MPD2    H3 3894   2.155   4.254  15.546 -0.2709  0.1527  0.1363
  253MPD2     N 3895   1.757   4.228  15.737 -0.3848 -0.1969  0.1731
  253MPD2    H5 3896   1.812   4.244  15.821 -3.0500  0.1445  1.8826
  253MPD2    N1 3897   1.808   4.188  15.252 -0.4128 -0.1602 -0.3706
  253MPD2    H7 3898   1.709   4.168  15.253 -0.6027  0.7949  0.6375
  254TMC3    C1 3899   1.579   4.213  15.884 -1.1581 -0.4664 -0.2337
  254TMC3    C2 3900   1.460   4.256  15.919  1.0149  0.1619  0.0096
  254TMC3    C3 3901   1.431   4.274  16.050  0.3288 -0.0839  0.6808
  254TMC3    C4 3902   1.668   4.162  15.978  0.4535  0.5008  0.1546
  254TMC3    C5 3903   1.619   4.153  16.107  0.3330  0.0078  0.4124
  254TMC3    C6 3904   1.507   4.217  16.151 -0.0533  0.3674  0.0046
  254TMC3     C 3905   1.619   4.218  15.740 -0.0385  0.0962 -0.1144
  254TMC3     O 3906   1.540   4.242  15.651 -0.3869 -0.1562 -0.2464
  254TMC3     H 3907   1.395   4.289  15.839 -0.2153  0.0151  0.9503
  254TMC3    H1 3908   1.756   4.102  15.958  0.2197  0.1151  0.2600
  254TMC3    H2 3909   1.476   4.196  16.252 -1.1845 -0.0773 -0.4377
  254TMC3    C7 3910   1.708   4.109  16.215 -0.0746  0.3597  0.0663
  254TMC3    C8 3911   1.292   4.301  16.088  0.5956 -0.5609 -0.0988
  254TMC3    O1 3912   1.662   4.072  16.323  0.2596  0.4715 -0.3496
  254TMC3    O2 3913   1.237   4.236  16.177  0.0131  0.3181 -0.0139
  255MPD2     C 3914   4.416   1.700  10.640  1.0125 -0.1651  0.2355
  255MPD2    C1 3915   4.425   1.739  10.505  0.2159 -0.7150 -0.4446
  255MPD2    C2 3916   4.445   1.641  10.411  0.9526  0.4679 -0.1331
  255MPD2    C3 3917   4.447   1.506  10.459  0.5363  0.1354  0.1407
  255MPD2    C4 3918   4.426   1.470  10.587  0.7312  0.2165 -0.1969
  255MPD2    C5 3919   4.401   1.568  10.680  0.1388 -0.2544  0.1165
  255MPD2     H 3920   4.458   1.666  10.306  1.4016  0.3945 -0.0935
  255MPD2    H1 3921   4.422   1.369  10.626  1.7272  0.1508 -0.2581
  255MPD2    H2 3922   4.401   1.773  10.719 -1.5902  0.0116 -0.4126
  255MPD2    H3 3923   4.389   1.535  10.783 -1.7390  1.1521  0.3406
  255MPD2     N 3924   4.466   1.403  10.365  0.2111 -0.8000  0.2565
  255MPD2    H5 3925   4.434   1.312  10.398 -0.5134 -1.1015 -1.3090
  255MPD2    N1 3926   4.423   1.876  10.474 -0.9914  0.1533  0.1574
  255MPD2    H7 3927   4.405   1.936  10.554  0.0509 -0.6922  1.0270
  256TMC3    C1 3928   4.505   2.062  10.363  0.0545  0.1521  0.3059
  256TMC3    C2 3929   4.589   2.109  10.263 -0.1947 -0.2992  0.8331
  256TMC3    C3 3930   4.622   2.239  10.263  0.2907 -0.0224  0.1782
  256TMC3    C4 3931   4.457   2.153  10.461 -0.5189  0.2839 -0.5068
  256TMC3    C5 3932   4.487   2.288  10.446  0.2378 -0.2346  0.5008
  256TMC3    C6 3933   4.571   2.336  10.351 -0.0677  0.2193  0.6616
  256TMC3     C 3934   4.460   1.930  10.352  0.0199  0.2286 -0.8836
  256TMC3     O 3935   4.488   1.871  10.246 -0.2701 -0.4944 -0.2543
  256TMC3     H 3936   4.637   2.032  10.204 -2.1865 -0.4841 -0.5598
  256TMC3    H1 3937   4.373   2.122  10.522  1.2975 -1.0731  1.3120
  256TMC3    H2 3938   4.587   2.441  10.334 -1.4774 -0.0143 -2.0246
  256TMC3    C7 3939   4.400   2.375  10.523 -0.3340  0.7858 -0.2768
  256TMC3    C8 3940   4.733   2.266  10.168  0.4883  0.2859  0.3122
  256TMC3    O1 3941   4.295   2.329  10.555 -0.3577  0.5636 -0.3538
  256TMC3    O2 3942   0.044   2.170  10.102  0.3334  0.0638 -1.3139
  257MPD2     C 3943   4.377   4.379  13.070 -0.0155 -0.0724 -0.3735
  257MPD2    C1 3944   4.314   4.259  13.037  0.3339 -0.2119  0.4076
  257MPD2    C2 3945   4.301   4.163  13.128 -0.6521  0.6828  0.9899
  257MPD2    C3 3946   4.375   4.169  13.244  0.8128 -0.6914 -0.2319
  257MPD2    C4 3947   4.453   4.280  13.268  0.3326 -0.9466  0.0214
  257MPD2    C5 3948   4.452   4.389  13.186 -0.0898 -0.3855 -0.5005
  257MPD2     H 3949   4.233   4.081  13.106 -1.0027  1.9117 -2.4703
  257MPD2    H1 3950   4.517   4.281  13.355 -0.3526  1.3086  0.5016
  257MPD2    H2 3951   4.377   4.460  12.998 -2.5586  1.8606  1.7979
  257MPD2    H3 3952   4.509   4.478  13.211 -3.0843  1.4945 -0.3619
  257MPD2     N 3953   4.359   4.058  13.334  0.0195  0.2929 -0.5485
  257MPD2    H5 3954   4.293   3.986  13.307 -1.0568  1.0765 -0.0121
  257MPD2    N1 3955   4.243   4.261  12.908 -0.0207 -0.4479 -0.6782
  257MPD2    H7 3956   4.274   4.330  12.840  0.7236 -0.0930  0.0186
  258TMC3    C1 3957   4.403   3.900  13.504 -0.6063 -0.6678 -0.7023
  258TMC3    C2 3958   4.436   3.808  13.409 -0.6758 -0.4159 -0.3684
  258TMC3    C3 3959   4.517   3.702  13.442 -0.2926 -0.0375  0.3848
  258TMC3    C4 3960   4.440   3.884  13.635 -0.6821 -0.3150 -0.4698
  258TMC3    C5 3961   4.511   3.770  13.670  0.2816 -0.8554  0.1152
  258TMC3    C6 3962   4.553   3.680  13.574 -0.1616  0.1462  0.1202
  258TMC3     C 3963   4.436   4.033  13.444 -0.5215  0.0976  0.6211
  258TMC3     O 3964   4.498   4.114  13.513  0.3106  0.0124  0.1150
  258TMC3     H 3965   4.411   3.823  13.305 -0.9458  0.9888 -0.0937
  258TMC3    H1 3966   4.404   3.951  13.713  0.8312 -0.4497  0.3420
  258TMC3    H2 3967   4.616   3.596  13.602  0.4097  1.0227  1.4109
  258TMC3    C7 3968   4.542   3.729  13.806  0.5269 -0.2047  1.2296
  258TMC3    C8 3969   4.567   3.620  13.339 -0.2635 -1.0524 -0.5693
  258TMC3    O1 3970   4.633   3.641  13.815 -0.2019 -0.5201  0.8158
  258TMC3    O2 3971   4.558   3.659  13.223 -0.2386  0.4605 -0.2914
  259MPD2     C 3972   2.320   0.697   0.795 -0.0850  0.3523 -0.3005
  259MPD2    C1 3973   2.422   0.775   0.848 -0.1429  0.7961 -0.5654
  259MPD2    C2 3974   2.556   0.764   0.804  0.4605 -0.4261  0.3617
  259MPD2    C3 3975   2.586   0.671   0.709  0.6761  0.1336 -0.3353
  259MPD2    C4 3976   2.487   0.587   0.658  0.1958  0.2779  0.1455
  259MPD2    C5 3977   2.354   0.604   0.698 -0.3550  0.3108  0.1748
  259MPD2     H 3978   2.634   0.830   0.842  2.5349 -3.3636  1.2202
  259MPD2    H1 3979   2.506   0.509   0.585 -0.0346 -0.4064  0.8206
  259MPD2    H2 3980   2.219   0.696   0.835  0.5363  0.2422  1.2423
  259MPD2    H3 3981   2.275   0.544   0.654  0.4024 -1.2637  0.9869
  259MPD2     N 3982   2.716   0.661   0.659  0.0692  1.1100  0.0160
  259MPD2    H5 3983   2.779   0.733   0.693  2.7754 -1.1683 -0.1979
  259MPD2    N1 3984   2.382   0.863   0.949 -0.1473 -0.5093  0.0592
  259MPD2    H7 3985   2.283   0.856   0.971 -0.6087  0.7482 -1.6340
  260TMC3    C1 3986   2.902   0.601   0.531  0.0060 -0.2275  0.9055
  260TMC3    C2 3987   2.925   0.727   0.485 -0.3020 -0.2411  0.2796
  260TMC3    C3 3988   3.047   0.752   0.443  0.2969 -0.6745  0.2229
  260TMC3    C4 3989   3.000   0.510   0.547 -0.0870  0.0145  0.3144
  260TMC3    C5 3990   3.132   0.551   0.529 -0.1322 -0.0005  0.5766
  260TMC3    C6 3991   3.150   0.673   0.479 -0.3132  0.4681 -0.1680
  260TMC3     C 3992   2.770   0.567   0.575 -0.1857  0.6927 -0.5357
  260TMC3     O 3993   2.721   0.466   0.533  0.0641  0.1848 -0.3811
  260TMC3     H 3994   2.840   0.791   0.462  0.0916  0.9243  2.0580
  260TMC3    H1 3995   2.974   0.408   0.573  1.7541 -0.2083  1.3512
  260TMC3    H2 3996   3.248   0.721   0.484 -0.2711  0.2363  1.2059
  260TMC3    C7 3997   3.222   0.459   0.482 -0.6767 -0.3115  0.0650
  260TMC3    C8 3998   3.060   0.839   0.332  0.3439  0.4010  0.1220
  260TMC3    O1 3999   3.288   0.498   0.386  0.3640 -0.7416  0.1304
  260TMC3    O2 4000   2.969   0.915   0.297  0.2742 -0.6902  0.2654
  261MPD2     C 4001   0.533   4.656  12.097 -0.0566  0.3753 -1.1957
  261MPD2    C1 4002   0.411   4.586  12.107  0.5930 -0.2619  0.0184
  261MPD2    C2 4003   0.336   4.570  11.991 -0.7825  0.5521 -0.0815
  261MPD2    C3 4004   0.380   4.625  11.871  0.0041 -0.3102 -0.0369
  261MPD2    C4 4005   0.505   4.682  11.862  0.0118  1.2047  0.0339
  261MPD2    C5 4006   0.576   4.699  11.978  0.8922 -0.8404  0.0394
  261MPD2     H 4007   0.252   4.501  11.996 -1.8037  1.7768 -0.4733
  261MPD2    H1 4008   0.533   4.725  11.767  1.7701  1.1909  0.5593
  261MPD2    H2 4009   0.601   4.664  12.182  0.4649  1.3458 -1.7140
  261MPD2    H3 4010   0.665   0.026  11.970 -0.1570  0.6962 -0.2088
  261MPD2     N 4011   0.310   4.607  11.746 -0.3813  0.0430 -0.3058
  261MPD2    H5 4012   0.360   4.637  11.663 -3.6307  2.3781 -1.3840
  261MPD2    N1 4013   0.358   4.541  12.225 -0.3533 -0.1054  0.4918
  261MPD2    H7 4014   0.276   4.484  12.207 -0.6013  0.6108 -0.6301
  262TMC3    C1 4015   0.139   4.554  11.584 -0.7238 -0.4440 -0.2994
  262TMC3    C2 4016   0.005   4.570  11.568 -0.2585 -0.6122 -0.0268
  262TMC3    C3 4017   4.699   4.620  11.451 -0.4703  1.0210  0.0990
  262TMC3    C4 4018   0.228   4.554  11.479  0.2858 -0.2272 -0.0026
  262TMC3    C5 4019   0.168   4.577  11.352  0.4355  0.2606  0.5106
  262TMC3    C6 4020   0.041   4.620  11.336 -0.0078 -0.5358  0.3170
  262TMC3     C 4021   0.186   4.551  11.727  0.0204 -0.3857  0.0782
  262TMC3     O 4022   0.098   4.546  11.813  0.8000  1.2258  0.1348
  262TMC3     H 4023   4.676   4.569  11.657  0.5377  0.4854  0.5329
  262TMC3    H1 4024   0.334   4.539  11.491  0.3559  1.9140  1.9142
  262TMC3    H2 4025   4.725   4.634  11.240  0.9662 -4.9952 -0.8393
  262TMC3    C7 4026   0.252   4.564  11.233  0.5570 -0.6791  0.5113
  262TMC3    C8 4027   4.587   4.711  11.447  0.6730 -0.0658  0.0172
  262TMC3    O1 4028   0.374   4.574  11.251  0.2485 -0.1194 -0.6101
  262TMC3    O2 4029   4.609   0.074  11.373  0.3007  0.3732  0.0517
  263MPD2     C 4030   0.712   3.730  11.724 -0.6659  0.0771 -0.1275
  263MPD2    C1 4031   0.683   3.642  11.618  0.2930 -0.4388  0.5513
  263MPD2    C2 4032   0.700   3.677  11.490  0.2422  0.0223  0.1450
  263MPD2    C3 4033   0.747   3.811  11.458 -0.1237  0.3987  0.5286
  263MPD2    C4 4034   0.760   3.898  11.567  0.1172 -0.0931 -0.0406
  263MPD2    C5 4035   0.733   3.863  11.694  0.1681  0.1452 -0.6763
  263MPD2     H 4036   0.674   3.606  11.412 -1.1167 -1.1936  1.7357
  263MPD2    H1 4037   0.766   4.005  11.548  0.1191 -0.3049 -1.2222
  263MPD2    H2 4038   0.692   3.694  11.824 -1.4978  3.9712  1.1220
  263MPD2    H3 4039   0.733   3.937  11.774 -0.3598 -0.0287 -0.5145
  263MPD2     N 4040   0.763   3.861  11.331 -0.0477  0.7839 -0.2138
  263MPD2    H5 4041   0.771   3.962  11.319  2.1701  0.3197 -2.6214
  263MPD2    N1 4042   0.645   3.507  11.636  0.0306 -0.3882 -0.4369
  263MPD2    H7 4043   0.660   3.439  11.562 -1.2682 -0.5331 -0.5669
  264TMC3    C1 4044   0.780   3.850  11.094 -0.2435  0.0160  0.0111
  264TMC3    C2 4045   0.875   3.949  11.097 -0.4068  0.3101 -0.3505
  264TMC3    C3 4046   0.909   4.005  10.982  0.1466  0.5143  1.5553
  264TMC3    C4 4047   0.731   3.800  10.976 -0.4700 -0.6786 -0.0472
  264TMC3    C5 4048   0.766   3.857  10.862 -0.1360 -0.2102 -0.2722
  264TMC3    C6 4049   0.855   3.964  10.861  0.1174 -0.0289  0.7629
  264TMC3     C 4050   0.755   3.779  11.220  0.1250 -0.9116 -0.5000
  264TMC3     O 4051   0.747   3.657  11.203  0.7664 -0.0434 -0.2032
  264TMC3     H 4052   0.927   3.973  11.189  0.2479 -1.3300 -0.2892
  264TMC3    H1 4053   0.664   3.715  10.978 -1.3175 -0.0043 -0.0618
  264TMC3    H2 4054   0.876   4.019  10.770  0.5284 -0.2935  0.6982
  264TMC3    C7 4055   0.785   3.768  10.745 -0.9498  0.0184  0.1817
  264TMC3    C8 4056   1.012   4.106  10.969 -1.0529  0.8785 -0.5577
  264TMC3    O1 4057   0.875   3.801  10.662  0.1488 -1.1213 -0.3469
  264TMC3    O2 4058   1.057   4.126  10.857  0.0266  0.2398  0.2062
  265MPD2     C 4059   3.302   3.499  15.509 -0.1954 -0.8544  0.7006
  265MPD2    C1 4060   3.313   3.614  15.436 -0.1218  0.4763 -0.2657
  265MPD2    C2 4061   3.400   3.622  15.332 -0.7710 -0.4626 -0.7700
  265MPD2    C3 4062   3.470   3.508  15.288  0.3448  0.3052  0.4015
  265MPD2    C4 4063   3.455   3.398  15.365 -0.3732 -0.5645 -0.7144
  265MPD2    C5 4064   3.372   3.385  15.473 -0.3641 -0.1850 -0.0722
  265MPD2     H 4065   3.413   3.711  15.271  1.0746 -0.5034 -0.4203
  265MPD2    H1 4066   3.511   3.309  15.341 -1.4753 -1.4390 -0.0338
  265MPD2    H2 4067   3.226   3.480  15.585 -0.0613 -1.1152  0.7684
  265MPD2    H3 4068   3.379   3.295  15.532  2.5226  0.9062  1.2802
  265MPD2     N 4069   3.559   3.498  15.177  0.1395  0.1413 -0.5512
  265MPD2    H5 4070   3.606   3.408  15.170 -0.5306 -0.0900 -1.9648
  265MPD2    N1 4071   3.242   3.728  15.471 -0.2251 -0.0993  0.3605
  265MPD2    H7 4072   3.264   3.809  15.415  0.7585  0.1802  1.1504
  266TMC3    C1 4073   3.113   3.878  15.605 -0.3197  0.3602 -0.5319
  266TMC3    C2 4074   3.084   3.917  15.737  0.6869 -0.4036  0.2420
  266TMC3    C3 4075   3.044   4.048  15.755 -0.0300  0.3786  0.1331
  266TMC3    C4 4076   3.093   3.964  15.497  0.0805  0.4679  0.7137
  266TMC3    C5 4077   3.033   4.084  15.517  0.7143  0.4870 -0.0170
  266TMC3    C6 4078   3.015   4.131  15.647 -0.1413 -0.6078 -0.7807
  266TMC3     C 4079   3.165   3.745  15.583  0.5807 -0.1313  0.0845
  266TMC3     O 4080   3.139   3.664  15.670 -0.1022  0.3459  0.2926
  266TMC3     H 4081   3.100   3.845  15.816 -0.9259  1.1075  1.9652
  266TMC3    H1 4082   3.113   3.928  15.397 -0.9333  2.8615 -0.3489
  266TMC3    H2 4083   2.984   4.234  15.659  0.6335 -0.5387  0.5619
  266TMC3    C7 4084   2.942   4.141  15.420  0.4012 -0.3475 -0.7079
  266TMC3    C8 4085   3.092   4.103  15.875  0.1378 -0.9164  0.5927
  266TMC3    O1 4086   2.862   4.222  15.472 -0.7552 -0.2480  0.5080
  266TMC3    O2 4087   3.144   4.031  15.958  1.1406 -0.3952 -0.0108
  267MPD2     C 4088   0.416   1.443  17.448  0.7772 -0.7517  0.0772
  267MPD2    C1 4089   0.394   1.309  17.461  0.2007 -0.2476 -0.2890
  267MPD2    C2 4090   0.373   1.228  17.342 -0.4785  0.6789  0.1436
  267MPD2    C3 4091   0.374   1.280  17.215  0.2775  0.3067  0.9335
  267MPD2    C4 4092   0.381   1.417  17.217  0.3881  0.4719 -0.3631
  267MPD2    C5 4093   0.403   1.503  17.329 -0.7017  0.0404 -0.2301
  267MPD2     H 4094   0.340   1.125  17.351 -1.7547  0.9771 -1.2576
  267MPD2    H1 4095   0.369   1.460  17.119  1.9484 -1.2284 -1.3103
  267MPD2    H2 4096   0.425   1.508  17.534  2.0313 -2.2011  1.0300
  267MPD2    H3 4097   0.402   1.611  17.321 -3.5064  0.1634  1.8664
  267MPD2     N 4098   0.361   1.214  17.089  0.0293 -0.2508 -0.2617
  267MPD2    H5 4099   0.349   1.278  17.012  0.6046  1.3565  0.9954
  267MPD2    N1 4100   0.386   1.257  17.591 -0.1474  0.5187 -0.3533
  267MPD2    H7 4101   0.412   1.316  17.669  0.9366 -0.5442  0.0914
  268TMC3    C1 4102   0.355   1.108   0.037 -0.1773  0.5025 -0.9062
  268TMC3    C2 4103   0.484   1.111   0.083  0.2509  0.4249 -0.1742
  268TMC3    C3 4104   0.511   1.047   0.202  0.0042  0.4129  0.0342
  268TMC3    C4 4105   0.263   1.024   0.096 -0.1192  0.0687 -0.1380
  268TMC3    C5 4106   0.295   0.962   0.215  0.5781 -0.5506  0.2474
  268TMC3    C6 4107   0.419   0.968   0.269  0.1527 -1.3099  0.5222
  268TMC3     C 4108   0.346   1.131  17.624  0.6879  0.6169  0.0875
  268TMC3     O 4109   0.285   1.050  17.558  0.6251 -0.0861  0.1725
  268TMC3     H 4110   0.557   1.175   0.036  0.1120  1.0325  0.4419
  268TMC3    H1 4111   0.160   1.011   0.064  0.4152  2.4837 -2.8030
  268TMC3    H2 4112   0.447   0.906   0.353 -2.9753 -1.6779  1.3036
  268TMC3    C7 4113   0.212   0.846   0.243 -0.2143  0.0043  0.1893
  268TMC3    C8 4114   0.641   1.051   0.271 -0.2391 -0.6462 -0.4222
  268TMC3    O1 4115   0.091   0.845   0.219  0.1426 -0.2489 -0.3907
  268TMC3    O2 4116   0.654   1.007   0.385  0.2285 -0.2056  0.6686
  269MPD2     C 4117   1.075   4.285  15.756  0.6057  0.4773  0.6659
  269MPD2    C1 4118   0.956   4.323  15.819  0.0490 -0.8317 -0.0431
  269MPD2    C2 4119   0.920   4.452  15.815 -0.7352  0.5378 -0.3486
  269MPD2    C3 4120   0.996   4.548  15.750 -0.8187 -0.0230 -0.3176
  269MPD2    C4 4121   1.117   4.515  15.689  0.0217  0.5619  0.2530
  269MPD2    C5 4122   1.157   4.381  15.689 -0.1609 -0.3479  0.5372
  269MPD2     H 4123   0.831   4.484  15.869  0.7402 -0.7822  2.7989
  269MPD2    H1 4124   1.184   4.587  15.644  1.3059  0.8422  2.5902
  269MPD2    H2 4125   1.116   4.185  15.756 -0.5578 -0.0168 -1.7047
  269MPD2    H3 4126   1.250   4.350  15.643  0.0954  0.6682  0.3690
  269MPD2     N 4127   0.942   4.679  15.738  0.4889 -0.5107 -1.0844
  269MPD2    H5 4128   0.846   4.695  15.765  1.2989 -0.3464  1.8182
  269MPD2    N1 4129   0.888   4.222  15.891 -0.1355 -0.4587 -0.4321
  269MPD2    H7 4130   0.928   4.129  15.898 -0.1544 -0.4041  0.3889
  270TMC3    C1 4131   0.700   4.097  15.971  0.2735  0.9559 -0.5507
  270TMC3    C2 4132   0.571   4.090  15.939  0.2774  0.1412 -0.9404
  270TMC3    C3 4133   0.527   3.956  15.918 -0.2178  1.2339 -0.0211
  270TMC3    C4 4134   0.790   3.996  15.994 -0.9028  0.5492 -0.0305
  270TMC3    C5 4135   0.739   3.875  15.974 -1.1725 -0.3554 -0.3306
  270TMC3    C6 4136   0.609   3.854  15.930  0.8245 -0.2587  0.2646
  270TMC3     C 4137   0.755   4.230  15.931  0.8642  0.4165  0.3832
  270TMC3     O 4138   0.671   4.318  15.930  0.1365  0.4617 -0.7630
  270TMC3     H 4139   0.507   4.175  15.916  1.1915 -0.0170 -4.1581
  270TMC3    H1 4140   0.892   4.010  16.028 -0.3200 -2.2037 -0.6230
  270TMC3    H2 4141   0.565   3.757  15.909  1.8741 -0.4834 -0.9096
  270TMC3    C7 4142   0.828   3.754  16.006 -0.2799  0.1728  0.1822
  270TMC3    C8 4143   0.421   3.946  15.823 -0.4369  0.1153 -0.4837
  270TMC3    O1 4144   0.948   3.774  16.010  0.2957 -0.4232 -0.7493
  270TMC3    O2 4145   0.324   4.014  15.841 -0.1611 -0.1535 -0.3126
  271MPD2     C 4146   0.470   4.218  13.954  0.3912  0.2000  0.0758
  271MPD2    C1 4147   0.360   4.196  14.034  0.1250 -0.5012  0.1511
  271MPD2    C2 4148   0.246   4.274  14.017  0.0502  0.4283  0.4690
  271MPD2    C3 4149   0.247   4.380  13.929  0.1049 -0.3788 -0.1081
  271MPD2    C4 4150   0.370   4.411  13.874  0.6954  0.7694  0.4112
  271MPD2    C5 4151   0.472   4.328  13.871 -0.0460  0.0615 -0.9019
  271MPD2     H 4152   0.160   4.251  14.080  1.4507 -0.2605  2.1368
  271MPD2    H1 4153   0.382   4.492  13.803 -0.6747  0.2714 -0.3784
  271MPD2    H2 4154   0.562   4.161  13.957  0.5615  0.4232 -0.7049
  271MPD2    H3 4155   0.555   4.343  13.803  1.5154 -0.1988  0.9456
  271MPD2     N 4156   0.141   4.470  13.895  0.7279 -0.2639 -0.4381
  271MPD2    H5 4157   0.171   4.557  13.852 -0.7231  0.3773 -0.1593
  271MPD2    N1 4158   0.363   4.096  14.139 -0.5580 -0.2521 -0.2559
  271MPD2    H7 4159   0.284   4.074  14.198 -0.3473 -0.6946 -0.1349
  272TMC3    C1 4160   0.484   3.936  14.275 -0.7584 -0.3320 -0.4204
  272TMC3    C2 4161   0.595   3.863  14.294  0.3292 -0.6882  0.3035
  272TMC3    C3 4162   0.621   3.818  14.422 -0.1111  0.1384  0.6631
  272TMC3    C4 4163   0.401   3.971  14.380  0.5553  1.1786 -0.1972
  272TMC3    C5 4164   0.438   3.942  14.505  0.3436  0.2335 -0.0963
  272TMC3    C6 4165   0.545   3.854  14.531  0.7979 -0.0578  0.5803
  272TMC3     C 4166   0.470   4.004  14.145  0.0469 -0.2323 -0.0054
  272TMC3     O 4167   0.556   3.969  14.063  0.5189 -0.3373 -0.0868
  272TMC3     H 4168   0.658   3.836  14.210  0.8700 -0.3293  0.5944
  272TMC3    H1 4169   0.313   4.032  14.364 -0.7752 -0.7274 -0.2025
  272TMC3    H2 4170   0.569   3.836  14.635 -1.3526  2.1616  1.4696
  272TMC3    C7 4171   0.341   3.969  14.605  0.6334 -0.2870 -0.7880
  272TMC3    C8 4172   0.734   3.727  14.436  0.3275  0.4934 -0.1119
  272TMC3    O1 4173   0.225   3.983  14.583  0.1342 -0.9935 -0.3697
  272TMC3    O2 4174   0.816   3.727  14.343 -0.0436 -0.4156  0.6035
  273MPD2     C 4175   0.930   2.031  11.838  0.4653 -0.0887 -0.8994
  273MPD2    C1 4176   0.932   2.166  11.827 -0.0135  0.2385 -0.3799
  273MPD2    C2 4177   0.926   2.216  11.699  0.5223 -0.4231  0.0068
  273MPD2    C3 4178   0.927   2.135  11.584 -0.2900  0.2241  0.3174
  273MPD2    C4 4179   0.927   2.000  11.602  0.0525  0.7353  0.6371
  273MPD2    C5 4180   0.932   1.947  11.727 -0.4405  0.6411 -0.2964
  273MPD2     H 4181   0.943   2.323  11.692  0.2524 -0.3505  0.5019
  273MPD2    H1 4182   0.926   1.930  11.520 -1.1736  0.8952  0.5181
  273MPD2    H2 4183   0.938   1.976  11.932  0.6689  1.9258  0.2636
  273MPD2    H3 4184   0.942   1.840  11.740  2.8642  1.0428  0.5643
  273MPD2     N 4185   0.943   2.188  11.453  0.6446  0.1754  0.2273
  273MPD2    H5 4186   0.976   2.123  11.382  3.1628  3.5933 -1.7402
  273MPD2    N1 4187   0.953   2.248  11.942  0.8906 -0.9237 -0.0331
  273MPD2    H7 4188   0.969   2.344  11.911 -0.8563 -1.2910 -2.1013
  274TMC3    C1 4189   0.976   2.350  11.302  0.4918  1.1002 -0.1503
  274TMC3    C2 4190   0.922   2.321  11.180 -0.6116 -0.5682 -0.4749
  274TMC3    C3 4191   0.957   2.394  11.067 -0.0249  0.0515  0.1392
  274TMC3    C4 4192   1.049   2.461  11.320  0.6664  0.2168  0.5066
  274TMC3    C5 4193   1.093   2.518  11.215  0.5556 -0.6246 -0.1426
  274TMC3    C6 4194   1.060   2.490  11.083 -0.4459  0.4259  0.2134
  274TMC3     C 4195   0.917   2.315  11.420  0.2730  0.1178 -0.0698
  274TMC3     O 4196   0.862   2.404  11.486 -0.3654  0.1581 -0.5180
  274TMC3     H 4197   0.832   2.261  11.179  0.0242 -1.5796  2.0611
  274TMC3    H1 4198   1.087   2.482  11.419 -2.3211  1.1446  1.4498
  274TMC3    H2 4199   1.079   2.571  11.014  0.9884 -0.6285 -0.6270
  274TMC3    C7 4200   1.157   2.648  11.240 -0.0663 -0.7301  0.7594
  274TMC3    C8 4201   0.844   2.447  11.001  0.2294  0.4248  0.1187
  274TMC3    O1 4202   1.229   2.689  11.150  0.1484  0.0389 -0.2481
  274TMC3    O2 4203   0.831   2.571  11.012  0.1835  0.3752  0.8803
  275MPD2     C 4204   1.664   0.569  14.964  0.1896  0.0311 -0.4677
  275MPD2    C1 4205   1.722   0.452  14.918 -0.8195 -0.4954  0.7413
  275MPD2    C2 4206   1.651   0.343  14.886  0.0602 -0.0039 -0.1818
  275MPD2    C3 4207   1.510   0.347  14.909  0.5637  0.7180 -0.6675
  275MPD2    C4 4208   1.451   0.454  14.956  0.4891  0.0749 -0.6181
  275MPD2    C5 4209   1.527   0.566  14.982 -0.6071  0.1256  0.7681
  275MPD2     H 4210   1.694   0.256  14.838  0.5427 -0.2363  0.6709
  275MPD2    H1 4211   1.345   0.468  14.970  0.7151 -0.4341  1.5992
  275MPD2    H2 4212   1.716   0.663  14.981  2.4722 -1.2972 -0.0567
  275MPD2    H3 4213   1.475   0.659  15.003 -1.6590  0.0589 -1.5272
  275MPD2     N 4214   1.429   0.234  14.881  0.8357 -0.0432 -0.3037
  275MPD2    H5 4215   1.340   0.261  14.923 -0.2692 -1.7728 -1.5061
  275MPD2    N1 4216   1.864   0.444  14.886  0.5630  0.0101  0.1490
  275MPD2    H7 4217   1.902   0.354  14.857 -3.4479 -0.7232 -2.8217
  276TMC3    C1 4218   2.094   0.514  14.892  0.3010 -0.1550 -0.3247
  276TMC3    C2 4219   2.126   0.391  14.941 -0.0067 -0.2441 -0.6740
  276TMC3    C3 4220   2.264   0.368  14.962  0.7231 -0.2946 -0.4399
  276TMC3    C4 4221   2.188   0.612  14.867 -0.3386 -0.0161  0.3341
  276TMC3    C5 4222   2.320   0.581  14.891  0.4327 -0.0510  0.8678
  276TMC3    C6 4223   2.361   0.458  14.944  0.1303 -0.1134 -0.2278
  276TMC3     C 4224   1.953   0.551  14.892  0.1109 -0.3782  0.1163
  276TMC3     O 4225   1.926   0.667  14.910 -0.2852 -0.5120  0.1955
  276TMC3     H 4226   2.044   0.324  14.965  0.3467 -0.9223 -1.3662
  276TMC3    H1 4227   2.160   0.712  14.835 -0.8506 -0.2949 -0.0665
  276TMC3    H2 4228   2.462   0.424  14.966  0.0190 -0.1353  0.2440
  276TMC3    C7 4229   2.381   0.689  14.960  0.6484 -0.5767  0.2836
  276TMC3    C8 4230   2.304   0.239  15.004 -0.0433 -0.4541 -0.8274
  276TMC3    O1 4231   2.308   0.764  15.018 -0.3230 -0.4925 -0.6208
  276TMC3    O2 4232   2.412   0.222  15.063 -0.0418  0.4286 -0.3214
  277MPD2     C 4233   3.373   4.389  13.249  0.1214 -0.5551 -0.0767
  277MPD2    C1 4234   3.292   4.460  13.336  0.3444  0.9476 -0.3533
  277MPD2    C2 4235   3.227   4.397  13.439  0.1408  0.5980  0.5189
  277MPD2    C3 4236   3.242   4.258  13.444  0.4662  0.5140 -0.3902
  277MPD2    C4 4237   3.328   4.186  13.364  0.5703 -0.4345 -0.1396
  277MPD2    C5 4238   3.392   4.254  13.270 -0.6899  0.0767  0.4031
  277MPD2     H 4239   3.157   4.446  13.506  0.5453 -0.3685  1.6348
  277MPD2    H1 4240   3.346   4.079  13.372 -1.7869 -0.5633  3.2855
  277MPD2    H2 4241   3.433   4.441  13.176 -2.1486  1.0719 -0.7848
  277MPD2    H3 4242   3.463   4.201  13.208 -0.6946  1.3344 -0.6907
  277MPD2     N 4243   3.149   4.196  13.526 -0.1047 -0.1215  0.2039
  277MPD2    H5 4244   3.076   4.260  13.559 -2.1219 -2.8630  1.0393
  277MPD2    N1 4245   3.266   4.597  13.324  0.3242 -0.3558  0.4023
  277MPD2    H7 4246   3.309   4.641  13.243  0.6570 -1.3410  0.0323
  278TMC3    C1 4247   3.016   4.028  13.625 -0.0807  0.5188  0.7453
  278TMC3    C2 4248   2.994   3.890  13.622  0.7862 -0.2153  0.3771
  278TMC3    C3 4249   2.891   3.838  13.689 -0.3053  0.6110 -0.1317
  278TMC3    C4 4250   2.931   4.113  13.700 -0.1355  0.0361 -0.1210
  278TMC3    C5 4251   2.834   4.053  13.769 -0.8569 -0.1707  0.0731
  278TMC3    C6 4252   2.808   3.916  13.766  0.5126  0.4189 -0.5389
  278TMC3     C 4253   3.139   4.069  13.560  0.0385  0.0011 -0.4791
  278TMC3     O 4254   3.220   3.980  13.533  0.2530 -0.3951 -0.3010
  278TMC3     H 4255   3.068   3.817  13.591  0.6208 -0.3500  0.3015
  278TMC3    H1 4256   2.953   4.219  13.702 -1.0106  0.2310 -1.2241
  278TMC3    H2 4257   2.744   3.878  13.845 -2.2105  3.3509 -1.3075
  278TMC3    C7 4258   2.778   4.123  13.879 -0.6323  0.6562 -0.2666
  278TMC3    C8 4259   2.872   3.693  13.700  1.0927 -0.5796  0.3961
  278TMC3    O1 4260   2.845   4.217  13.918  0.0639  0.0483 -0.0045
  278TMC3    O2 4261   2.963   3.621  13.661  0.7819  0.4446  0.7085
  279MPD2     C 4262   2.333   3.798   0.367  0.8625 -0.6685 -0.3375
  279MPD2    C1 4263   2.311   3.927   0.412 -0.3811  0.6389 -0.3544
  279MPD2    C2 4264   2.331   4.039   0.328  0.2152  0.7975  0.4143
  279MPD2    C3 4265   2.396   4.022   0.213 -0.2527  0.5304 -0.8608
  279MPD2    C4 4266   2.416   3.896   0.170 -0.6104  0.0391 -0.6030
  279MPD2    C5 4267   2.392   3.782   0.245  0.6254 -0.1981 -0.3392
  279MPD2     H 4268   2.300   4.136   0.364  0.2507  0.8566  0.2849
  279MPD2    H1 4269   2.447   3.881   0.067  0.4385 -2.0549  0.0174
  279MPD2    H2 4270   2.309   3.704   0.415 -0.0685 -0.4882 -0.4542
  279MPD2    H3 4271   2.403   3.680   0.210  1.0899 -0.8067  1.5808
  279MPD2     N 4272   2.414   4.132   0.124  0.4222 -0.7328  0.1585
  279MPD2    H5 4273   2.457   4.109   0.035 -1.0506  0.2521 -0.8061
  279MPD2    N1 4274   2.256   3.934   0.543 -0.2972 -0.1558  0.1043
  279MPD2    H7 4275   2.222   3.846   0.581  1.0058 -0.2055  1.1955
  280TMC3    C1 4276   2.157   4.039   0.729 -0.7325  0.2413 -0.2610
  280TMC3    C2 4277   2.096   3.918   0.754  0.3215  0.1205 -0.1973
  280TMC3    C3 4278   2.028   3.895   0.867 -0.0049  0.6811 -0.3300
  280TMC3    C4 4279   2.128   4.149   0.815 -0.1422 -0.0787 -0.5629
  280TMC3    C5 4280   2.042   4.126   0.922  0.4276 -0.4072  0.4077
  280TMC3    C6 4281   2.000   4.000   0.955 -0.7318  0.4062 -0.2169
  280TMC3     C 4282   2.236   4.055   0.605 -0.0683  0.3094  0.7704
  280TMC3     O 4283   2.288   4.165   0.586  0.3214  0.1650 -0.2230
  280TMC3     H 4284   2.083   3.841   0.679  0.3733 -1.3311  1.2982
  280TMC3    H1 4285   2.174   4.247   0.810  0.4686 -0.3211  0.3141
  280TMC3    H2 4286   1.936   3.986   1.041 -2.0702  2.7004 -0.8574
  280TMC3    C7 4287   1.975   4.232   0.992  0.5685 -0.0285 -0.9460
  280TMC3    C8 4288   1.931   3.792   0.865 -0.2206  0.0557 -0.0343
  280TMC3    O1 4289   1.980   4.239   1.114 -0.0042  0.4735  0.2602
  280TMC3    O2 4290   1.834   3.804   0.934  0.2307  0.8803 -0.2473
  281TMC3    C1 4291   1.443   4.575  13.384 -0.1605 -0.0287 -0.3222
  281TMC3    C2 4292   1.518   4.630  13.285 -0.4308 -0.4355  0.0956
  281TMC3    C3 4293   1.490   4.593  13.157 -0.0240  0.0203  0.6531
  281TMC3    C4 4294   1.347   4.481  13.362 -0.2340 -0.1338 -0.1272
  281TMC3    C5 4295   1.334   4.444  13.233  0.0489 -0.2181  0.0629
  281TMC3    C6 4296   1.405   4.498  13.132  0.6024  0.3842  0.5962
  281TMC3     C 4297   1.442   4.647  13.504 -0.0860  0.0797  0.9107
  281TMC3     O 4298   1.433   4.576  13.608  0.4118  0.8108  0.6859
  281TMC3     H 4299   1.603   4.692  13.314 -1.3375  0.9250 -0.1352
  281TMC3    H1 4300   1.288   4.448  13.447  0.4875 -1.2930 -0.0817
  281TMC3    H2 4301   1.399   4.453  13.033  0.0516  1.4121  0.1664
  281TMC3    C7 4302   1.242   4.333  13.194 -0.2602 -0.5288  0.1721
  281TMC3    C8 4303   1.605   4.615  13.064 -0.3111  1.0896  0.2066
  281TMC3    O1 4304   1.228   4.308  13.073  0.2307  0.0072  0.0901
  281TMC3    O2 4305   1.652   4.518  13.009  0.4785  0.1504  0.2454
  282MPD2     C 4306   3.095   0.998  14.813 -0.1021 -0.4208 -0.0915
  282MPD2    C1 4307   3.035   1.091  14.893 -0.0188 -0.7818 -0.2712
  282MPD2    C2 4308   2.909   1.125  14.859  0.5164  0.4632 -0.0163
  282MPD2    C3 4309   2.832   1.057  14.772  0.6316  0.9685 -0.4036
  282MPD2    C4 4310   2.895   0.962  14.705  0.2224 -0.3135 -0.0888
  282MPD2    C5 4311   3.029   0.940  14.709  0.3966 -0.4929  0.1979
  282MPD2     H 4312   2.855   1.197  14.919 -0.6116 -1.7451  1.5908
  282MPD2    H1 4313   2.837   0.893  14.644 -1.4571  1.9751 -1.0731
  282MPD2    H2 4314   3.200   0.974  14.824 -0.0910 -0.0571  0.5732
  282MPD2    H3 4315   3.061   0.871  14.631  0.0541 -0.6045  0.1579
  282MPD2     N 4316   2.694   1.091  14.754 -0.1118 -0.0613  0.1800
  282MPD2    H5 4317   2.663   1.179  14.793  0.1848  1.0303 -2.0639
  282MPD2    N1 4318   3.093   1.158  15.003 -0.2858  0.1825 -0.4313
  282MPD2    H7 4319   3.046   1.240  15.040  0.5608  2.4088 -4.2676
  283TMC3    C1 4320   3.138   1.103  15.224 -0.0537  0.8510 -0.7844
  283TMC3    C2 4321   3.122   1.228  15.280 -0.1274  0.3417 -0.3889
  283TMC3    C3 4322   3.096   1.228  15.421 -0.6865 -0.4423 -0.2821
  283TMC3    C4 4323   3.119   0.985  15.290  0.4811 -0.2008  0.1535
  283TMC3    C5 4324   3.081   0.997  15.423  0.0705 -0.5192 -0.2540
  283TMC3    C6 4325   3.076   1.111  15.490 -0.5163 -0.2208 -0.5335
  283TMC3     C 4326   3.177   1.090  15.086 -0.3652 -0.1650  0.5446
  283TMC3     O 4327   3.227   0.981  15.062 -0.2398 -0.3138 -0.3062
  283TMC3     H 4328   3.139   1.315  15.219 -0.4537 -0.9497 -2.3220
  283TMC3    H1 4329   3.125   0.887  15.244  1.3193 -0.1951  0.2378
  283TMC3    H2 4330   3.041   1.117  15.592  0.4805  1.0681 -0.2673
  283TMC3    C7 4331   3.005   0.894  15.488  0.4992  0.7453  0.5274
  283TMC3    C8 4332   3.034   1.346  15.478 -0.0374  0.6902  0.5953
  283TMC3    O1 4333   2.985   0.903  15.607  0.9204 -0.6441 -0.3100
  283TMC3    O2 4334   3.009   1.341  15.600  0.0541  0.1477  0.8255
  284MPD2     C 4335   1.706   0.405  11.799  0.0747  0.4594 -0.4796
  284MPD2    C1 4336   1.643   0.367  11.683  0.3879  0.8748  0.7088
  284MPD2    C2 4337   1.606   0.234  11.660  0.3690  0.1007 -0.3422
  284MPD2    C3 4338   1.644   0.138  11.748 -0.3877 -0.5297  0.3661
  284MPD2    C4 4339   1.710   0.175  11.861 -0.5193 -0.8213  0.1733
  284MPD2    C5 4340   1.735   0.308  11.887 -0.0559 -0.4600  0.0270
  284MPD2     H 4341   1.546   0.213  11.571  0.1824  0.9846 -0.4294
  284MPD2    H1 4342   1.749   0.104  11.933 -1.1602 -1.7571 -0.3926
  284MPD2    H2 4343   1.733   0.507  11.823  0.8002 -0.0265  0.7357
  284MPD2    H3 4344   1.775   0.322  11.986  2.3601  3.0152 -1.4554
  284MPD2     N 4345   1.612   0.000  11.729  0.1789  0.8374  0.1138
  284MPD2    H5 4346   1.628   4.681  11.815  0.5672  0.0302 -0.4503
  284MPD2    N1 4347   1.626   0.448  11.570 -0.0182  0.4232  0.2517
  284MPD2    H7 4348   1.568   0.417  11.492  0.2762  0.0372  0.1861
  285TMC3    C1 4349   1.647   0.620  11.425  1.2886 -0.0586 -0.0965
  285TMC3    C2 4350   1.687   0.537  11.324 -0.4197 -0.2172  0.1387
  285TMC3    C3 4351   1.693   0.582  11.193  0.3232  0.1084 -0.2871
  285TMC3    C4 4352   1.629   0.758  11.410 -0.1052  0.2217  0.3245
  285TMC3    C5 4353   1.632   0.797  11.277 -0.0972  0.0099  0.6298
  285TMC3    C6 4354   1.667   0.712  11.171 -0.2127 -0.1788 -0.3555
  285TMC3     C 4355   1.656   0.579  11.559  0.2414 -0.1270  0.2982
  285TMC3     O 4356   1.701   0.654  11.645  0.1821  0.1638  0.1332
  285TMC3     H 4357   1.722   0.438  11.350  0.1782  0.1416  0.7094
  285TMC3    H1 4358   1.610   0.821  11.496  0.6550 -0.2631  0.8543
  285TMC3    H2 4359   1.709   0.747  11.077  0.4486 -0.1387 -0.0467
  285TMC3    C7 4360   1.623   0.941  11.259 -0.0405  0.1261 -0.4323
  285TMC3    C8 4361   1.715   0.482  11.085  0.4211  0.4060  0.6836
  285TMC3    O1 4362   1.636   1.007  11.361  0.1456 -0.7808 -0.2289
  285TMC3    O2 4363   1.744   0.370  11.123  0.4937  0.1775  0.2113
  286MPD2     C 4364   1.129   3.545   1.654 -0.9217  1.0839 -0.2284
  286MPD2    C1 4365   1.127   3.556   1.516 -1.4359  0.2414  0.1730
  286MPD2    C2 4366   1.226   3.481   1.450 -0.3349  0.3096 -0.4894
  286MPD2    C3 4367   1.320   3.411   1.522  0.0741 -0.3011 -0.0039
  286MPD2    C4 4368   1.337   3.422   1.655 -1.3577  0.4715 -0.5523
  286MPD2    C5 4369   1.234   3.485   1.724  0.1689  0.4271 -0.4616
  286MPD2     H 4370   1.219   3.475   1.342 -0.5659  2.3794 -0.6043
  286MPD2    H1 4371   1.421   3.382   1.710 -1.0977 -0.1254 -1.3664
  286MPD2    H2 4372   1.052   3.587   1.718 -0.2748  0.8823  0.6813
  286MPD2    H3 4373   1.244   3.492   1.832  1.9097  0.8912 -0.6532
  286MPD2     N 4374   1.409   3.322   1.466 -0.1302  0.5296 -0.9508
  286MPD2    H5 4375   1.481   3.281   1.524 -1.9344  0.8949  1.5437
  286MPD2    N1 4376   1.032   3.624   1.435  0.0537 -0.1227 -0.7266
  286MPD2    H7 4377   1.051   3.623   1.335 -1.1848  1.0724 -0.9717
  287TMC3    C1 4378   1.490   3.184   1.301  0.3406 -0.3598 -0.3715
  287TMC3    C2 4379   1.472   3.120   1.178  0.9156  0.3926  0.0831
  287TMC3    C3 4380   1.586   3.068   1.113  0.2155 -0.1491 -0.2696
  287TMC3    C4 4381   1.612   3.191   1.357 -0.3514 -0.6622  0.3624
  287TMC3    C5 4382   1.717   3.148   1.288 -0.6785 -0.4747  0.0938
  287TMC3    C6 4383   1.707   3.088   1.167 -0.6614 -0.1033  0.2928
  287TMC3     C 4384   1.394   3.283   1.335  0.4905  0.8386 -0.4154
  287TMC3     O 4385   1.330   3.316   1.240 -0.8897  0.8568  0.0500
  287TMC3     H 4386   1.374   3.112   1.131  0.9973 -0.7045  0.1031
  287TMC3    H1 4387   1.619   3.246   1.451  0.8669 -1.7128  0.8937
  287TMC3    H2 4388   1.794   3.041   1.123 -1.1685 -0.7109 -0.0620
  287TMC3    C7 4389   1.847   3.185   1.343  0.9324  0.2929 -0.6507
  287TMC3    C8 4390   1.566   3.025   0.976 -0.4736 -0.2430 -0.3678
  287TMC3    O1 4391   1.848   3.264   1.438  0.0434  0.4956  0.3118
  287TMC3    O2 4392   1.461   2.967   0.948 -0.1392  0.1084  0.2020
  288TMC3    C1 4393   3.881   3.540  14.256  0.8968 -0.5121  0.0429
  288TMC3    C2 4394   3.745   3.519  14.273 -0.6119  0.4725  0.4171
  288TMC3    C3 4395   3.653   3.561  14.179  0.1801  0.1920  0.3152
  288TMC3    C4 4396   3.928   3.601  14.137 -0.1621  0.8804  0.2365
  288TMC3    C5 4397   3.833   3.652  14.048 -0.0649  0.0019  0.2006
  288TMC3    C6 4398   3.697   3.641  14.074  0.2038  0.1598 -0.2535
  288TMC3     C 4399   3.966   3.484  14.354  0.4117  0.4718  0.4315
  288TMC3     O 4400   3.926   3.477  14.468 -0.3431  0.1073 -0.3345
  288TMC3     H 4401   3.706   3.477  14.364 -3.7565 -0.7348 -1.4849
  288TMC3    H1 4402   4.031   3.634  14.129 -0.0481  0.5552  0.3589
  288TMC3    H2 4403   3.621   3.681  14.008  0.7176  1.1512 -0.2502
  288TMC3    C7 4404   3.886   3.737  13.946 -0.0527  0.9948  0.4399
  288TMC3    C8 4405   3.522   3.597  14.225 -0.4166  0.0085  1.0461
  288TMC3    O1 4406   4.005   3.771  13.958  0.3087  0.6283 -0.1895
  288TMC3    O2 4407   3.494   3.714  14.195  0.0928 -0.5225 -0.0547
  289MPD2     C 4408   3.543   2.494  14.425  0.1255 -0.5409  0.0416
  289MPD2    C1 4409   3.515   2.620  14.382  0.1673  0.3281 -0.2554
  289MPD2    C2 4410   3.382   2.657  14.356 -0.0046  0.3906  0.1406
  289MPD2    C3 4411   3.285   2.565  14.334 -0.5275 -0.1794 -0.2127
  289MPD2    C4 4412   3.316   2.431  14.362 -0.5801 -0.2910 -0.3109
  289MPD2    C5 4413   3.438   2.398  14.417 -0.7981  0.0723  0.5099
  289MPD2     H 4414   3.365   2.762  14.336  1.0273  1.1524  3.1988
  289MPD2    H1 4415   3.243   2.354  14.338 -0.4643 -0.8218  1.0480
  289MPD2    H2 4416   3.643   2.462  14.450  0.4692  0.3571 -0.1863
  289MPD2    H3 4417   3.464   2.295  14.435 -0.7508  0.2404  1.4097
  289MPD2     N 4418   3.155   2.591  14.287 -0.0732  0.0758 -0.8301
  289MPD2    H5 4419   3.090   2.514  14.270 -0.5840  0.5217 -0.9137
  289MPD2    N1 4420   3.624   2.709  14.383 -0.2995 -1.0567  0.2129
  289MPD2    H7 4421   3.710   2.682  14.429 -0.8339 -1.5180  0.9549
  290TMC3    C1 4422   2.997   2.718  14.189 -0.2169  0.3553  0.4906
  290TMC3    C2 4423   2.926   2.829  14.202 -0.0785 -0.2249  0.2002
  290TMC3    C3 4424   2.846   2.860  14.095 -0.4035  0.2583 -0.3264
  290TMC3    C4 4425   2.978   2.623  14.089 -0.4216  0.0772  0.4391
  290TMC3    C5 4426   2.907   2.668  13.977  0.1915 -0.2936  0.1782
  290TMC3    C6 4427   2.837   2.780  13.983  0.5191  0.6246 -0.7647
  290TMC3     C 4428   3.107   2.715  14.278 -0.9355  0.2728 -0.6786
  290TMC3     O 4429   3.154   2.819  14.322 -0.4953  0.5941 -0.1251
  290TMC3     H 4430   2.934   2.892  14.290 -0.3783  1.1105 -0.7296
  290TMC3    H1 4431   3.050   2.543  14.077 -0.1977  0.5586 -1.4424
  290TMC3    H2 4432   2.767   2.813  13.906 -2.0785 -0.9905  0.8967
  290TMC3    C7 4433   2.856   2.571  13.883  0.4052 -0.2885 -0.6322
  290TMC3    C8 4434   2.807   3.001  14.065  0.2431  0.1628  0.3304
  290TMC3    O1 4435   2.799   2.618  13.784  0.5107 -0.1202  0.1919
  290TMC3    O2 4436   2.741   3.027  13.968 -0.3948 -0.2857  0.5902
  291MPD2     C 4437   2.224   2.913   0.226  0.3367  0.0028 -0.0928
  291MPD2    C1 4438   2.325   2.841   0.295 -0.5753  1.2142  0.5247
  291MPD2    C2 4439   2.426   2.911   0.363 -0.0395  0.2243  0.7377
  291MPD2    C3 4440   2.424   3.050   0.376  0.2018 -0.4574 -0.1892
  291MPD2    C4 4441   2.314   3.113   0.327 -0.8420 -0.7642 -0.8152
  291MPD2    C5 4442   2.226   3.048   0.251  0.3046 -0.3022  0.3663
  291MPD2     H 4443   2.512   2.856   0.401 -0.4151 -0.7381  0.1770
  291MPD2    H1 4444   2.295   3.220   0.329  1.1225 -0.4356  0.2598
  291MPD2    H2 4445   2.138   2.866   0.178  0.1537 -0.5944  0.8153
  291MPD2    H3 4446   2.150   3.111   0.206  1.5619  1.7111  1.0873
  291MPD2     N 4447   2.532   3.132   0.422  0.1205 -0.2103  0.3292
  291MPD2    H5 4448   2.512   3.231   0.432  1.0354 -0.0771  0.8843
  291MPD2    N1 4449   2.343   2.699   0.293  0.0666  0.2035  0.6464
  291MPD2    H7 4450   2.405   2.650   0.357 -0.3520 -0.1707  0.7676
  292TMC3    C1 4451   2.286   2.486   0.234  0.3881  0.6321 -0.3920
  292TMC3    C2 4452   2.294   2.450   0.364  0.3909 -0.1079  0.1316
  292TMC3    C3 4453   2.320   2.321   0.400  0.1049  0.0699 -0.3222
  292TMC3    C4 4454   2.299   2.403   0.134 -0.5258  0.1952 -0.4121
  292TMC3    C5 4455   2.319   2.269   0.171  1.0094  0.0042 -0.2610
  292TMC3    C6 4456   2.328   2.228   0.298  1.1581  0.0202 -0.1403
  292TMC3     C 4457   2.284   2.624   0.200 -0.0547  0.1324  0.2421
  292TMC3     O 4458   2.239   2.659   0.092 -0.1687  0.3835 -0.3919
  292TMC3     H 4459   2.255   2.519   0.438 -1.1342 -1.1586  0.3039
  292TMC3    H1 4460   2.275   2.435   0.033 -0.5769 -2.7450 -1.3272
  292TMC3    H2 4461   2.360   2.125   0.311  1.0196  0.0466  0.3853
  292TMC3    C7 4462   2.340   2.171   0.072 -0.4877 -0.3064  0.1723
  292TMC3    C8 4463   2.252   2.285   0.530 -0.6804 -0.4392  0.1902
  292TMC3    O1 4464   2.393   2.065   0.108 -0.2241  0.1401 -0.2139
  292TMC3    O2 4465   2.261   2.357   0.626 -0.6255  0.4760  0.4397
  293MPD2     C 4466   4.612   4.228  12.726 -1.1173 -0.4042  0.5293
  293MPD2    C1 4467   4.586   4.143  12.832  0.9337  0.0231  0.0614
  293MPD2    C2 4468   4.643   4.173  12.952  0.9753  0.7608  0.4305
  293MPD2    C3 4469   4.726   4.283  12.956 -0.2207 -0.3588 -0.0879
  293MPD2    C4 4470   0.027   4.365  12.850  0.0685  0.0833 -0.0665
  293MPD2    C5 4471   4.697   4.336  12.733  0.0526  0.2807 -0.5435
  293MPD2     H 4472   4.606   4.133  13.046  1.1397 -1.6630 -0.5465
  293MPD2    H1 4473   0.097   4.447  12.848  1.4652 -1.0823  0.4288
  293MPD2    H2 4474   4.575   4.214  12.625 -2.8036  2.1896  0.7898
  293MPD2    H3 4475   0.002   4.394  12.650 -0.1727  0.0512 -0.8074
  293MPD2     N 4476   0.048   4.302  13.079  0.2561  0.5194  0.7050
  293MPD2    H5 4477   0.031   4.228  13.147  2.3335  0.2097  0.8944
  293MPD2    N1 4478   4.498   4.039  12.813 -0.4308  0.7926 -0.7578
  293MPD2    H7 4479   4.458   4.025  12.721 -0.5513 -2.4742 -0.2037
  294TMC3    C1 4480   4.331   3.891  12.869 -0.1745 -0.6282  0.5711
  294TMC3    C2 4481   4.289   3.793  12.951 -0.3486  0.0482 -0.0844
  294TMC3    C3 4482   4.189   3.712  12.904 -0.9532 -0.3618  0.1803
  294TMC3    C4 4483   4.269   3.906  12.743  0.1251  0.0650 -0.2708
  294TMC3    C5 4484   4.176   3.813  12.698  0.1135 -0.3988 -0.6609
  294TMC3    C6 4485   4.132   3.719  12.781  0.3272  0.9225 -0.6851
  294TMC3     C 4486   4.447   3.967  12.910  0.1599  0.2781  0.0839
  294TMC3     O 4487   4.486   3.944  13.025  0.0457 -0.1034 -0.4975
  294TMC3     H 4488   4.355   3.756  13.029 -2.1813 -0.5552  1.1632
  294TMC3    H1 4489   4.295   3.991  12.681  0.0368  1.5488  1.7333
  294TMC3    H2 4490   4.057   3.646  12.754 -1.9923  3.0096  0.0978
  294TMC3    C7 4491   4.107   3.826  12.570 -0.4901 -0.2482  0.2055
  294TMC3    C8 4492   4.153   3.607  12.997 -0.7711  0.1079  0.1882
  294TMC3    O1 4493   3.997   3.768  12.575  0.2190 -0.0274 -0.5130
  294TMC3    O2 4494   4.157   3.638  13.111 -0.5088 -0.4893  0.2122
  295MPD2     C 4495   3.568   2.803   0.971 -0.4305  0.3546 -0.0035
  295MPD2    C1 4496   3.622   2.928   0.940  0.6385  0.0934 -0.2149
  295MPD2    C2 4497   3.569   3.038   1.007 -0.5169  0.1151 -0.0812
  295MPD2    C3 4498   3.461   3.030   1.094  0.2121 -0.4791  0.5317
  295MPD2    C4 4499   3.405   2.906   1.120 -0.1706 -0.5222 -0.3015
  295MPD2    C5 4500   3.470   2.796   1.061  0.9993 -0.0809 -0.0922
  295MPD2     H 4501   3.614   3.135   0.988  0.6162 -0.7770 -1.8768
  295MPD2    H1 4502   3.328   2.875   1.190 -1.2976  0.8209 -0.9311
  295MPD2    H2 4503   3.611   2.709   0.940 -0.7891 -0.0374  0.6658
  295MPD2    H3 4504   3.428   2.699   1.082 -2.0971  1.2667 -0.0574
  295MPD2     N 4505   3.406   3.136   1.168  0.0121 -0.5441 -0.2292
  295MPD2    H5 4506   3.331   3.116   1.232 -0.9792  2.0237 -0.6200
  295MPD2    N1 4507   3.716   2.938   0.837 -0.2500 -0.6690  0.4954
  295MPD2    H7 4508   3.781   3.015   0.850  0.6083 -1.2389 -0.3692
  296TMC3    C1 4509   3.385   3.332   1.282  0.9749 -0.1872  0.0064
  296TMC3    C2 4510   3.376   3.467   1.277 -0.5778 -0.0408 -0.1641
  296TMC3    C3 4511   3.342   3.534   1.393  0.2812  0.1339  0.0605
  296TMC3    C4 4512   3.375   3.265   1.399  0.6016  0.1496 -0.5234
  296TMC3    C5 4513   3.333   3.336   1.506  0.1851  1.2193 -0.0309
  296TMC3    C6 4514   3.321   3.475   1.510  0.2583  0.3330 -0.4776
  296TMC3     C 4515   3.446   3.265   1.172  0.3631  0.4141 -0.5673
  296TMC3     O 4516   3.524   3.330   1.098  0.4586 -0.4592 -0.1525
  296TMC3     H 4517   3.390   3.514   1.181 -0.6806 -2.3134 -1.2940
  296TMC3    H1 4518   3.414   3.164   1.408 -2.1412 -0.5915  3.2016
  296TMC3    H2 4519   3.295   3.523   1.604  2.0116  1.0693 -0.3761
  296TMC3    C7 4520   3.324   3.269   1.631  0.6295 -0.4405  0.1100
  296TMC3    C8 4521   3.337   3.678   1.395 -0.1124  0.1406 -0.4761
  296TMC3    O1 4522   3.345   3.332   1.734 -0.3860  0.3891 -0.1768
  296TMC3    O2 4523   3.306   3.724   1.504  0.9423  0.0820 -0.7316
  297MPD2     C 4524   2.357   4.405  16.291 -0.8294 -0.2180  0.5373
  297MPD2    C1 4525   2.280   4.505  16.238 -0.4036 -0.1031  0.2985
  297MPD2    C2 4526   2.327   4.569  16.130  0.2513 -0.0580 -0.5819
  297MPD2    C3 4527   2.452   4.556  16.086  0.0372  0.6102  0.0339
  297MPD2    C4 4528   2.527   4.455  16.137  0.2341  0.3834 -0.0497
  297MPD2    C5 4529   2.479   4.376  16.241  0.4092  1.0304  0.0115
  297MPD2     H 4530   2.268   4.644  16.079 -1.4034 -0.5102  0.6584
  297MPD2    H1 4531   2.632   4.447  16.112  0.1957  0.6085 -0.2883
  297MPD2    H2 4532   2.334   4.342  16.377 -0.7501 -0.7196  0.1877
  297MPD2    H3 4533   2.548   4.297  16.269  1.1260  1.7997  0.4376
  297MPD2     N 4534   2.495   4.634  15.977  0.1667 -0.0661  0.3636
  297MPD2    H5 4535   2.434   4.710  15.947  1.2548  0.6060 -0.1382
  297MPD2    N1 4536   2.155   4.548  16.293 -0.5020 -0.0091 -0.3326
  297MPD2    H7 4537   2.108   4.622  16.242 -2.3897  0.0705  1.5255
  298TMC3    C1 4538   1.968   4.560  16.424  1.0653  0.1925  0.4706
  298TMC3    C2 4539   1.897   4.562  16.309  0.2869  0.1557  0.1037
  298TMC3    C3 4540   1.772   4.614  16.320 -0.1395  0.2384  0.2022
  298TMC3    C4 4541   1.911   4.589  16.542 -0.2603  0.4620 -0.6415
  298TMC3    C5 4542   1.780   4.637  16.544 -0.1260 -0.0950 -0.3152
  298TMC3    C6 4543   1.713   4.657  16.434 -0.6555  0.3609 -0.2203
  298TMC3     C 4544   2.107   4.515  16.418  0.9577 -0.1865  0.2242
  298TMC3     O 4545   2.173   4.478  16.519  0.3431 -0.1362 -0.3525
  298TMC3     H 4546   1.934   4.524  16.214  0.2332  2.1039 -0.7057
  298TMC3    H1 4547   1.975   4.583  16.629 -0.8374  3.0577 -0.0367
  298TMC3    H2 4548   1.615   4.702  16.441  0.0309  1.9974 -1.0597
  298TMC3    C7 4549   1.739   4.707  16.665 -0.0746  0.4765  0.1302
  298TMC3    C8 4550   1.693   4.586  16.200  0.1259  0.4304 -0.0060
  298TMC3    O1 4551   1.639   0.046  16.660 -0.0357  0.4692 -0.0698
  298TMC3    O2 4552   1.736   4.494  16.131  0.0532 -0.3916  0.1039
  299MPD2     C 4553   2.633   4.308  10.890  0.2138 -0.1266  0.6600
  299MPD2    C1 4554   2.621   4.375  10.772 -0.3133 -0.0907  0.4156
  299MPD2    C2 4555   2.596   4.306  10.655  0.5408  0.1052  0.3444
  299MPD2    C3 4556   2.586   4.164  10.655 -0.7783 -1.0750  0.6905
  299MPD2    C4 4557   2.577   4.099  10.779 -0.2612  0.2830 -0.3731
  299MPD2    C5 4558   2.605   4.173  10.894  0.2257  0.3728  0.0893
  299MPD2     H 4559   2.604   4.358  10.560 -0.5530 -1.5645 -0.6536
  299MPD2    H1 4560   2.575   3.991  10.789 -1.1779  0.4973  1.7095
  299MPD2    H2 4561   2.660   4.353  10.985  0.9951 -1.0459  0.8677
  299MPD2    H3 4562   2.610   4.122  10.989 -0.0600  1.5646  0.7457
  299MPD2     N 4563   2.580   4.083  10.536  0.4662 -0.0600  0.2840
  299MPD2    H5 4564   2.573   3.982  10.530  0.9955 -0.0101 -1.1126
  299MPD2    N1 4565   2.647   4.513  10.783 -0.0526 -0.5454  0.7430
  299MPD2    H7 4566   2.694   4.538  10.869  1.6076  0.2681 -0.3978
  300TMC3    C1 4567   2.542   4.046  10.312  1.2953  0.4618 -0.0238
  300TMC3    C2 4568   2.606   4.075  10.194  0.2101 -0.2219  0.4445
  300TMC3    C3 4569   2.545   4.040  10.080  0.6191 -0.3500  0.2028
  300TMC3    C4 4570   2.411   4.014  10.320 -0.9216 -0.0694 -0.1767
  300TMC3    C5 4571   2.354   3.978  10.200  0.2450 -0.5477  0.1613
  300TMC3    C6 4572   2.414   3.986  10.084  0.0208  1.0415  0.7390
  300TMC3     C 4573   2.562   4.146  10.412 -0.0500 -0.0375  0.6251
  300TMC3     O 4574   2.594   4.261  10.371  0.4762  0.3305  0.0448
  300TMC3     H 4575   2.712   4.096  10.185  0.0360 -0.2798 -1.7859
  300TMC3    H1 4576   2.367   4.007  10.418  1.6397 -0.6222  0.9471
  300TMC3    H2 4577   2.374   3.958   9.988 -0.4977  2.3185  0.5856
  300TMC3    C7 4578   2.218   3.950  10.201 -0.3258  0.1657 -0.2981
  300TMC3    C8 4579   2.567   4.142   9.981 -0.4088 -0.7237 -0.9782
  300TMC3    O1 4580   2.190   3.871  10.112 -0.5439  0.0792 -0.3429
  300TMC3    O2 4581   2.506   4.125   9.872 -0.9699  0.0736  0.1480
  301MPD2     C 4582   0.421   1.225   0.631  0.1157 -1.0208 -0.1194
  301MPD2    C1 4583   0.304   1.150   0.609 -0.0914 -0.1454  0.0038
  301MPD2    C2 4584   0.298   1.022   0.664  0.1346 -0.2402 -0.6510
  301MPD2    C3 4585   0.406   0.966   0.731  0.5905 -0.0787 -0.8026
  301MPD2    C4 4586   0.525   1.026   0.728  0.4248 -0.2979  0.4668
  301MPD2    C5 4587   0.531   1.152   0.678  0.0191 -0.1436 -0.0666
  301MPD2     H 4588   0.207   0.965   0.653  0.1657 -0.2447 -0.8712
  301MPD2    H1 4589   0.609   0.981   0.779  2.0983  2.6699  0.3854
  301MPD2    H2 4590   0.440   1.329   0.607  0.8581 -1.2844 -0.7006
  301MPD2    H3 4591   0.627   1.202   0.683 -0.0219 -0.0069 -0.5863
  301MPD2     N 4592   0.409   0.832   0.782 -0.3262 -0.1741  0.4689
  301MPD2    H5 4593   0.497   0.803   0.824 -0.5527  0.5531  1.4227
  301MPD2    N1 4594   0.181   1.202   0.559  0.4067 -0.2349 -0.4274
  301MPD2    H7 4595   0.099   1.142   0.567  1.4366 -1.9267 -2.2658
  302TMC3    C1 4596   0.317   0.635   0.846  0.6402 -0.5608 -0.4486
  302TMC3    C2 4597   0.420   0.604   0.929  0.5811  0.2138  0.7232
  302TMC3    C3 4598   0.419   0.476   0.984  0.2093 -0.2894 -0.5343
  302TMC3    C4 4599   0.208   0.551   0.825  0.1665  0.2984 -0.5209
  302TMC3    C5 4600   0.216   0.423   0.884  0.1387 -0.1659  0.3569
  302TMC3    C6 4601   0.327   0.386   0.947 -0.4566  0.1563  0.0342
  302TMC3     C 4602   0.295   0.764   0.793 -0.5076  0.2056  0.0235
  302TMC3     O 4603   0.174   0.794   0.791 -0.2445  0.3215  0.3198
  302TMC3     H 4604   0.497   0.680   0.940  1.1701 -0.6762  2.7667
  302TMC3    H1 4605   0.122   0.582   0.766 -0.5410 -3.2235 -1.3577
  302TMC3    H2 4606   0.324   0.295   1.006 -0.4961 -1.1215 -1.9565
  302TMC3    C7 4607   0.093   0.347   0.904 -0.1216 -0.3326  0.4991
  302TMC3    C8 4608   0.504   0.438   1.093 -0.5421  0.1675  0.4603
  302TMC3    O1 4609   0.116   0.229   0.933 -0.5345 -0.6719  0.1936
  302TMC3    O2 4610   0.525   0.320   1.118 -0.9906  0.2992 -0.0706
  303MPD2     C 4611   0.224   4.147  10.615  0.3271 -0.1557 -0.8319
  303MPD2    C1 4612   0.148   4.038  10.611  0.5441 -0.1611  0.1225
  303MPD2    C2 4613   0.143   3.963  10.501 -0.9665 -0.0142 -0.2515
  303MPD2    C3 4614   0.205   4.005  10.381 -0.0866 -0.4459  0.0856
  303MPD2    C4 4615   0.278   4.121  10.390  0.2573 -0.6692  0.2201
  303MPD2    C5 4616   0.290   4.190  10.509 -0.5265  0.6502 -0.4567
  303MPD2     H 4617   0.097   3.865  10.495 -1.2459  0.1864 -1.2676
  303MPD2    H1 4618   0.324   4.165  10.303 -0.1700  1.2847  0.9865
  303MPD2    H2 4619   0.216   4.217  10.698 -2.0321 -1.0720 -0.2879
  303MPD2    H3 4620   0.343   4.285  10.516  1.2671 -0.5903  2.5252
  303MPD2     N 4621   0.212   3.940  10.258  0.7193  0.3749  0.0206
  303MPD2    H5 4622   0.266   3.988  10.188  1.2582 -0.4245 -0.1184
  303MPD2    N1 4623   0.091   4.001  10.735  0.1377  0.1566  0.3149
  303MPD2    H7 4624   0.112   4.068  10.808  0.6031 -0.5744  0.8565
  304TMC3    C1 4625   4.672   3.918  10.889  0.3949  0.1765 -0.4189
  304TMC3    C2 4626   4.652   4.043  10.940 -0.7245  0.3529 -0.3298
  304TMC3    C3 4627   4.549   4.060  11.023 -0.1998  0.0602 -0.3383
  304TMC3    C4 4628   4.592   3.813  10.934 -0.4013  0.7846  0.5168
  304TMC3    C5 4629   4.491   3.822  11.021  0.2748 -0.6712 -0.5216
  304TMC3    C6 4630   4.476   3.952  11.067  0.0745 -0.3338 -0.0135
  304TMC3     C 4631   0.002   3.904  10.757  0.3679 -0.2690 -0.3100
  304TMC3     O 4632   4.700   3.805  10.691 -0.3621  0.2144 -0.5814
  304TMC3     H 4633   4.710   4.132  10.917  1.3326 -0.9152 -0.1020
  304TMC3    H1 4634   4.588   3.714  10.889  1.1953  2.0176 -2.3044
  304TMC3    H2 4635   4.392   3.970  11.132  0.0716  0.7582 -0.3301
  304TMC3    C7 4636   4.367   3.756  10.985 -0.6593  0.0418 -0.1990
  304TMC3    C8 4637   4.469   4.168  10.981 -0.0974  0.3745 -0.4316
  304TMC3    O1 4638   4.276   3.842  10.967  0.3188 -0.8625 -0.0977
  304TMC3    O2 4639   4.519   4.279  10.983  0.1074  0.3495  0.3159
  305MPD2     C 4640   3.099   1.333  14.058  0.2230 -0.6139  0.3339
  305MPD2    C1 4641   3.076   1.219  14.135  0.6539  0.0617  0.4223
  305MPD2    C2 4642   3.011   1.102  14.083 -0.1808 -0.6970 -0.1804
  305MPD2    C3 4643   2.948   1.108  13.964 -0.2373  0.1799  0.2279
  305MPD2    C4 4644   2.958   1.231  13.894  0.4588 -0.9144  0.5105
  305MPD2    C5 4645   3.038   1.339  13.933 -0.7267 -0.1403 -0.1879
  305MPD2     H 4646   2.989   1.016  14.146  2.3842 -0.1246  1.4951
  305MPD2    H1 4647   2.893   1.248  13.810  1.4664  0.6607  0.0479
  305MPD2    H2 4648   3.155   1.416  14.099  1.6333 -0.9011 -1.0000
  305MPD2    H3 4649   3.041   1.426  13.869  1.0052 -0.5149 -0.6091
  305MPD2     N 4650   2.886   1.004  13.894  0.1994 -0.9041 -0.1772
  305MPD2    H5 4651   2.844   1.036  13.807  0.1001 -1.8337 -0.4748
  305MPD2    N1 4652   3.143   1.224  14.263 -0.2421  0.2992 -0.1790
  305MPD2    H7 4653   3.188   1.312  14.286 -1.5414  1.6432 -2.7019
  306TMC3    C1 4654   3.259   1.142  14.454  0.0822  0.0169 -0.0093
  306TMC3    C2 4655   3.321   1.036  14.506 -0.5538  0.1426  0.3302
  306TMC3    C3 4656   3.392   1.052  14.624 -0.0883  0.2288 -0.8900
  306TMC3    C4 4657   3.254   1.265  14.512  0.3504 -0.3321 -0.1841
  306TMC3    C5 4658   3.331   1.281  14.618 -0.1386  0.3914  0.7688
  306TMC3    C6 4659   3.400   1.177  14.675  0.4450 -0.8130 -0.1158
  306TMC3     C 4660   3.161   1.115  14.344  0.0768 -0.3932  0.0579
  306TMC3     O 4661   3.136   0.998  14.323  0.1682 -1.1905  0.1133
  306TMC3     H 4662   3.294   0.936  14.475  1.4488 -0.4365  0.4776
  306TMC3    H1 4663   3.215   1.353  14.462 -0.9116 -0.9111 -0.2262
  306TMC3    H2 4664   3.452   1.194  14.769  2.9505 -2.5090 -1.2233
  306TMC3    C7 4665   3.291   1.389  14.699  0.3743  0.6762 -0.0153
  306TMC3    C8 4666   3.469   0.940  14.681 -0.2106 -0.1447  0.3057
  306TMC3    O1 4667   3.177   1.420  14.716  0.1046  0.3643 -0.1156
  306TMC3    O2 4668   3.504   0.846  14.604 -0.3111  0.5744  0.1382
  307MPD2     C 4669   1.112   3.769   0.192  0.1146  0.2096  0.3312
  307MPD2    C1 4670   1.032   3.876   0.225  0.4285 -0.0923  0.6639
  307MPD2    C2 4671   0.960   3.884   0.340 -0.3834  0.0254 -0.3142
  307MPD2    C3 4672   0.966   3.772   0.427 -0.1516  0.5227 -0.4477
  307MPD2    C4 4673   1.039   3.657   0.385  0.5121  0.0573  0.2990
  307MPD2    C5 4674   1.111   3.661   0.270  0.2093 -0.2015  0.4336
  307MPD2     H 4675   0.896   3.969   0.360 -0.1928 -0.1957  1.2620
  307MPD2    H1 4676   1.026   3.563   0.437  1.6884  0.4323  1.2662
  307MPD2    H2 4677   1.155   3.760   0.093 -0.1643  1.1991  0.1101
  307MPD2    H3 4678   1.174   3.575   0.248  0.1069  0.3534 -2.0789
  307MPD2     N 4679   0.895   3.774   0.550  0.2001  0.1681 -0.1671
  307MPD2    H5 4680   0.880   3.686   0.598 -0.4622  1.0756  1.3001
  307MPD2    N1 4681   1.036   3.993   0.150  0.0517  0.0366 -0.2174
  307MPD2    H7 4682   1.001   4.079   0.192  1.0281 -0.0362  0.7558
  308TMC3    C1 4683   0.506   3.720   0.685  0.3278 -0.0046  0.9985
  308TMC3    C2 4684   0.461   3.811   0.774  0.0830  0.4641  0.1755
  308TMC3    C3 4685   0.530   3.931   0.806 -0.1684 -0.6137  0.0281
  308TMC3    C4 4686   0.639   3.731   0.643 -0.3274 -0.3534 -0.3407
  308TMC3    C5 4687   0.711   3.846   0.678 -0.2476  0.5560  0.0562
  308TMC3    C6 4688   0.655   3.952   0.750 -0.5730  0.4867  0.5199
  308TMC3     C 4689   0.408   3.699   0.580  0.2030  0.9277  0.5112
  308TMC3     O 4690   0.448   3.659   0.475 -0.1470 -0.4125  0.5371
  308TMC3     H 4691   0.367   3.789   0.825 -0.5155  2.0806 -0.2382
  308TMC3    H1 4692   0.660   3.679   0.550  0.1092  0.4218 -0.6755
  308TMC3    H2 4693   0.701   4.048   0.766 -0.2739  0.5376 -0.6530
  308TMC3    C7 4694   0.832   3.885   0.608  0.7573  0.4745  0.1906
  308TMC3    C8 4695   0.452   4.022   0.891 -0.1355 -0.3719 -0.1271
  308TMC3    O1 4696   0.840   4.001   0.574 -0.0615  0.1156  0.4142
  308TMC3    O2 4697   0.366   3.982   0.965  0.2685  0.1314 -0.2414
  309MPD2     C 4698   4.501   3.862  17.156 -0.0544 -0.5443 -1.2254
  309MPD2    C1 4699   4.526   3.958  17.062 -0.0391 -1.2128 -0.0761
  309MPD2    C2 4700   4.442   4.076  17.063  0.8495  0.7166  0.7535
  309MPD2    C3 4701   4.352   4.098  17.158 -0.3540  0.3490  0.9135
  309MPD2    C4 4702   4.341   4.004  17.252  0.1102 -0.4707 -0.1344
  309MPD2    C5 4703   4.406   3.885  17.252  0.4696 -0.1691  0.0328
  309MPD2     H 4704   4.473   4.155  16.996 -1.7514 -0.1185 -1.4765
  309MPD2    H1 4705   4.278   4.014  17.340 -0.7417  2.2829 -1.0461
  309MPD2    H2 4706   4.564   3.774  17.150  0.9142  0.0231  0.7247
  309MPD2    H3 4707   4.396   3.816  17.335 -0.0159 -1.0994 -0.7881
  309MPD2     N 4708   4.270   4.211  17.167 -0.4437  0.7203  0.0202
  309MPD2    H5 4709   4.219   4.231  17.252  0.4223 -0.1789  0.7559
  309MPD2    N1 4710   4.628   3.955  16.967  0.2603 -0.0763 -0.3927
  309MPD2    H7 4711   4.632   4.029  16.898 -3.1784  1.9516  1.6232
  310TMC3    C1 4712   0.089   3.875  16.865 -0.5216  0.4775 -0.1303
  310TMC3    C2 4713   0.049   3.937  16.749 -0.1356 -0.7254  0.6228
  310TMC3    C3 4714   0.142   3.951  16.655  0.2134  0.3290  0.2413
  310TMC3    C4 4715   0.215   3.833  16.879  0.6551 -0.0684  0.4475
  310TMC3    C5 4716   0.307   3.854  16.780 -0.7412  0.8855 -0.6403
  310TMC3    C6 4717   0.271   3.907  16.662  0.3694 -0.0489  0.0475
  310TMC3     C 4718   4.730   3.858  16.971  0.7889 -0.0677  0.2089
  310TMC3     O 4719   0.030   3.771  17.050 -0.0867 -0.3844 -0.4151
  310TMC3     H 4720   4.682   3.975  16.732  0.4542  2.0540  3.3521
  310TMC3    H1 4721   0.242   3.789  16.974  0.4839  1.2515  1.1115
  310TMC3    H2 4722   0.341   3.923  16.581 -0.1121 -1.8711 -0.7381
  310TMC3    C7 4723   0.422   3.765  16.790 -0.3095  0.5020 -0.3352
  310TMC3    C8 4724   0.118   4.057  16.554 -0.5270 -0.6029  0.4003
  310TMC3    O1 4725   0.430   3.682  16.881  0.1068  0.0992  0.8044
  310TMC3    O2 4726   0.009   4.059  16.496 -0.1782 -0.2735  0.1571
  311MPD2     C 4727   1.917   1.048  13.269  0.4809 -0.3346 -0.4030
  311MPD2    C1 4728   1.902   1.152  13.185 -0.2055 -0.1178 -0.3084
  311MPD2    C2 4729   1.774   1.173  13.131  0.7593  0.1863 -0.4116
  311MPD2    C3 4730   1.665   1.102  13.171  0.2952  0.1993 -0.6115
  311MPD2    C4 4731   1.675   1.000  13.260 -0.1582  0.0257  0.7245
  311MPD2    C5 4732   1.802   0.978  13.302 -0.1517  0.1335 -0.2318
  311MPD2     H 4733   1.766   1.270  13.083 -0.9231  0.2993  0.0975
  311MPD2    H1 4734   1.589   0.949  13.302 -0.3733  0.1614  0.4568
  311MPD2    H2 4735   2.008   1.013  13.315  0.7893  2.0429  0.7901
  311MPD2    H3 4736   1.811   0.885  13.358  0.0299 -2.1676 -4.0721
  311MPD2     N 4737   1.545   1.147  13.119 -0.4171  0.3362  0.1614
  311MPD2    H5 4738   1.540   1.220  13.048  0.3615 -1.6374 -1.9272
  311MPD2    N1 4739   2.011   1.230  13.139  0.6856  0.3449 -0.0954
  311MPD2    H7 4740   1.989   1.308  13.079  3.6442  1.6236  0.4696
  312TMC3    C1 4741   1.309   1.172  13.107 -0.9285 -0.4845 -0.5443
  312TMC3    C2 4742   1.186   1.107  13.092  0.7570  0.4629  0.1846
  312TMC3    C3 4743   1.072   1.191  13.082 -0.0252  0.0642 -0.2983
  312TMC3    C4 4744   1.314   1.309  13.120 -0.4061 -0.1342 -0.0236
  312TMC3    C5 4745   1.202   1.385  13.107 -0.4141 -0.0281  0.2004
  312TMC3    C6 4746   1.081   1.335  13.080  0.2680  0.3958 -0.9693
  312TMC3     C 4747   1.424   1.088  13.149 -0.1862  0.0262  0.0010
  312TMC3     O 4748   1.392   0.975  13.189 -0.0599  0.3479  0.1137
  312TMC3     H 4749   1.182   1.000  13.108 -2.4647  0.6345  0.5262
  312TMC3    H1 4750   1.410   1.354  13.146 -0.3466  0.7170 -1.7509
  312TMC3    H2 4751   0.994   1.398  13.066  1.5973  2.4964  0.2612
  312TMC3    C7 4752   1.216   1.520  13.133 -0.1823  0.2192 -0.5389
  312TMC3    C8 4753   0.940   1.133  13.052  0.3638  0.3693  0.6126
  312TMC3    O1 4754   1.160   1.604  13.063 -0.4877  0.2282  0.1343
  312TMC3    O2 4755   0.953   1.035  12.976 -0.5430 -0.6262 -0.5406
  313MPD2     C 4756   2.456   0.281   9.812  0.4113 -0.1724 -0.3819
  313MPD2    C1 4757   2.366   0.179   9.831  0.1194 -1.0565  0.1862
  313MPD2    C2 4758   2.327   0.104   9.716  0.2799 -0.4911  0.0366
  313MPD2    C3 4759   2.370   0.130   9.590 -0.5640 -0.7350 -0.2422
  313MPD2    C4 4760   2.462   0.233   9.575 -0.7530 -0.0626 -0.1366
  313MPD2    C5 4761   2.510   0.304   9.683  0.5540 -0.5834 -0.5007
  313MPD2     H 4762   2.261   0.018   9.729  0.6696 -0.7453  0.3437
  313MPD2    H1 4763   2.506   0.254   9.478 -1.0828  1.6272  0.0684
  313MPD2    H2 4764   2.506   0.328   9.896 -1.3224 -0.7101  0.9625
  313MPD2    H3 4765   2.591   0.375   9.666  0.7952 -0.7571 -0.0831
  313MPD2     N 4766   2.300   0.052   9.489 -0.1415  0.2255  0.4083
  313MPD2    H5 4767   2.223   4.729   9.522  0.3131 -0.2370  0.6905
  313MPD2    N1 4768   2.295   0.172   9.951 -0.7924 -0.0827  0.1183
  313MPD2    H7 4769   2.219   0.105   9.956 -0.8391 -0.0721 -0.5448
  314TMC3    C1 4770   2.172   0.272  10.127  0.6493  0.1838 -0.1779
  314TMC3    C2 4771   2.174   0.332  10.251 -0.2797  0.4913 -0.3129
  314TMC3    C3 4772   2.056   0.377  10.298  0.1158  0.6835 -0.5368
  314TMC3    C4 4773   2.059   0.265  10.045 -0.6282 -0.3461 -0.3563
  314TMC3    C5 4774   1.944   0.317  10.099  0.8858  0.3513  0.2504
  314TMC3    C6 4775   1.945   0.368  10.226 -0.2158 -0.1626 -0.3317
  314TMC3     C 4776   2.294   0.259  10.057  0.1145 -0.9274 -0.0709
  314TMC3     O 4777   2.367   0.348  10.093 -0.0480  0.0322 -0.0710
  314TMC3     H 4778   2.260   0.333  10.316 -0.3827 -1.4139 -0.1275
  314TMC3    H1 4779   2.061   0.246   9.938  0.2882 -0.0858 -0.3848
  314TMC3    H2 4780   1.860   0.406  10.282 -1.5762 -0.3762 -2.2491
  314TMC3    C7 4781   1.819   0.305  10.020 -0.1448  0.0998 -0.1968
  314TMC3    C8 4782   2.051   0.473  10.411 -0.0385 -0.6320  0.7061
  314TMC3    O1 4783   1.817   0.217   9.933  0.3003 -0.3534 -0.2891
  314TMC3    O2 4784   1.981   0.571  10.398 -0.0834  0.0774  0.7097
  315MPD2     C 4785   1.403   3.975   0.157  0.1886 -0.1850 -0.1027
  315MPD2    C1 4786   1.389   3.982   0.296 -0.4163 -0.1491 -0.2326
  315MPD2    C2 4787   1.354   4.108   0.349  0.3609  0.0816 -0.1974
  315MPD2    C3 4788   1.359   4.214   0.269 -0.1584 -0.4936  0.2805
  315MPD2    C4 4789   1.390   4.207   0.138  0.0217  0.2232 -0.5018
  315MPD2    C5 4790   1.417   4.087   0.079 -0.5377  0.3319  0.2853
  315MPD2     H 4791   1.348   4.116   0.457 -3.3275 -0.3411 -0.3653
  315MPD2    H1 4792   1.414   4.294   0.078  4.2214 -0.4629  0.1849
  315MPD2    H2 4793   1.437   3.883   0.109  1.6893 -0.5349  1.6326
  315MPD2    H3 4794   1.445   4.072  17.708 -0.9325  0.2855  0.1835
  315MPD2     N 4795   1.342   4.332   0.334 -0.0363 -0.3882  0.5493
  315MPD2    H5 4796   1.328   4.329   0.435  1.3217 -0.5544  0.7427
  315MPD2    N1 4797   1.408   3.875   0.387  0.0783  0.0009  0.3280
  315MPD2    H7 4798   1.420   3.904   0.483 -0.2110  0.5903  0.1869
  316TMC3    C1 4799   1.329   4.565   0.368 -0.1802  0.1224  0.2883
  316TMC3    C2 4800   1.403   4.560   0.482 -0.1839  0.1689  0.3905
  316TMC3    C3 4801   1.427   4.683   0.541  0.2132  0.6826 -0.6297
  316TMC3    C4 4802   1.284   4.686   0.309 -0.1762  0.1202  0.5458
  316TMC3    C5 4803   1.299   0.069   0.386  0.2303  0.1447  0.3133
  316TMC3    C6 4804   1.366   0.062   0.505 -0.3160 -0.7624 -0.7465
  316TMC3     C 4805   1.326   4.452   0.272 -0.5907 -0.6923 -0.1935
  316TMC3     O 4806   1.313   4.478   0.152 -0.0351 -0.2383 -0.0439
  316TMC3     H 4807   1.454   4.469   0.510 -1.1172 -0.3687  0.3294
  316TMC3    H1 4808   1.229   4.671   0.217  1.4610  1.3008 -0.6421
  316TMC3    H2 4809   1.375   0.148   0.571 -0.7665  0.9740 -2.9316
  316TMC3    C7 4810   1.246   0.198   0.340 -0.5970 -0.1197  0.2584
  316TMC3    C8 4811   1.494   4.674   0.669  0.0928  0.1728  0.0715
  316TMC3    O1 4812   1.236   0.281   0.428 -0.1931 -0.4658  0.1561
  316TMC3    O2 4813   1.451   0.021   0.753 -0.0911 -0.1081  0.3525
  317MPD2     C 4814   2.909   3.130  13.485  0.4574  0.9481 -0.1581
  317MPD2    C1 4815   2.892   3.049  13.371  0.0917  0.0157 -0.3751
  317MPD2    C2 4816   3.003   2.970  13.332  0.0022  0.4150 -1.0342
  317MPD2    C3 4817   3.118   2.971  13.406  0.1095 -0.4376  0.0415
  317MPD2    C4 4818   3.127   3.041  13.522  0.1228 -0.4205 -0.6415
  317MPD2    C5 4819   3.016   3.115  13.566  0.4190  0.7330 -0.5671
  317MPD2     H 4820   2.999   2.909  13.243 -0.9851 -0.5219 -0.3578
  317MPD2    H1 4821   3.208   3.038  13.593 -1.2134  0.6181  0.9265
  317MPD2    H2 4822   2.826   3.192  13.517 -0.3807 -1.4208  2.1969
  317MPD2    H3 4823   3.016   3.163  13.663  2.4073 -0.5710  0.0824
  317MPD2     N 4824   3.230   2.898  13.359 -0.1644 -1.0190  0.2728
  317MPD2    H5 4825   3.205   2.827  13.291  0.2771 -0.1042 -0.8381
  317MPD2    N1 4826   2.770   3.055  13.285  0.9408  0.0206 -0.0884
  317MPD2    H7 4827   2.762   2.985  13.213  0.0295 -0.3999  0.4168
  318TMC3    C1 4828   3.431   2.781  13.385  0.8653 -0.8332 -0.8512
  318TMC3    C2 4829   3.369   2.658  13.366 -0.4284 -0.0511 -0.0713
  318TMC3    C3 4830   3.444   2.549  13.345 -0.3384 -0.1373 -0.1259
  318TMC3    C4 4831   3.567   2.792  13.389 -0.2104  0.6629  0.0278
  318TMC3    C5 4832   3.637   2.675  13.391 -0.1605  0.7655  0.0470
  318TMC3    C6 4833   3.578   2.552  13.367 -0.1815  0.2148 -0.7933
  318TMC3     C 4834   3.353   2.900  13.410  0.1032  0.0616 -0.4757
  318TMC3     O 4835   3.411   2.987  13.474  0.2555 -0.3387  0.5642
  318TMC3     H 4836   3.263   2.653  13.388 -0.1630 -3.2201  0.4005
  318TMC3    H1 4837   3.630   2.878  13.411  2.9963 -1.5643 -0.4799
  318TMC3    H2 4838   3.634   2.460  13.353  0.0883  0.5289 -1.8072
  318TMC3    C7 4839   3.782   2.679  13.391  0.7012 -0.1237  0.0574
  318TMC3    C8 4840   3.383   2.435  13.283  0.1423  0.5341  0.6177
  318TMC3    O1 4841   3.848   2.775  13.352 -0.1569  0.0652  0.1974
  318TMC3    O2 4842   3.461   2.345  13.267  0.0756 -0.9396  0.2593
  319MPD2     C 4843   4.520   3.734  16.570 -0.4158  0.9828  0.1902
  319MPD2    C1 4844   4.474   3.627  16.641  0.2992 -0.7261  0.4456
  319MPD2    C2 4845   4.339   3.594  16.631 -0.3253 -0.3073 -0.1684
  319MPD2    C3 4846   4.253   3.668  16.546  0.8000 -0.4687 -0.3844
  319MPD2    C4 4847   4.305   3.774  16.477  0.1158 -0.2049 -0.1737
  319MPD2    C5 4848   4.438   3.815  16.508 -1.1694  0.1453 -0.2700
  319MPD2     H 4849   4.305   3.506  16.683  0.8337 -0.8574 -0.3403
  319MPD2    H1 4850   4.246   3.832  16.407  0.9136  1.5108  0.5738
  319MPD2    H2 4851   4.624   3.764  16.566  0.1037 -0.6739  1.0598
  319MPD2    H3 4852   4.475   3.898  16.449 -0.5711  1.1072  1.4704
  319MPD2     N 4853   4.121   3.630  16.522  0.7181 -0.6397 -0.1555
  319MPD2    H5 4854   4.066   3.688  16.460  0.9606 -0.2013  0.0360
  319MPD2    N1 4855   4.554   3.539  16.712 -0.3636  0.0974  0.6771
  319MPD2    H7 4856   4.506   3.464  16.759  1.1393 -0.3041  1.5687
  320TMC3    C1 4857   3.927   3.508  16.525 -0.2021  0.4803 -0.0494
  320TMC3    C2 4858   3.881   3.588  16.425 -0.3071 -1.0837 -0.1827
  320TMC3    C3 4859   3.748   3.583  16.391 -0.8907  0.0908  0.7449
  320TMC3    C4 4860   3.839   3.433  16.600 -0.1254  0.1982 -0.3350
  320TMC3    C5 4861   3.710   3.434  16.559  0.2920 -0.4589 -0.4938
  320TMC3    C6 4862   3.656   3.511  16.458  0.4801 -0.1234 -0.5800
  320TMC3     C 4863   4.061   3.515  16.573 -0.1473  0.7160  0.2246
  320TMC3     O 4864   4.098   3.435  16.660 -0.6520 -0.2014 -0.5062
  320TMC3     H 4865   3.939   3.650  16.357 -0.2459  1.0900  1.8557
  320TMC3    H1 4866   3.882   3.371  16.678 -0.0228  0.6112 -0.0653
  320TMC3    H2 4867   3.549   3.526  16.447  0.8011  1.7653 -1.1832
  320TMC3    C7 4868   3.630   3.318  16.587  0.1428 -0.0275 -0.4712
  320TMC3    C8 4869   3.711   3.659  16.273  0.6491  0.3646 -0.3132
  320TMC3    O1 4870   3.542   3.296  16.507  0.1769 -0.4152 -0.6666
  320TMC3    O2 4871   3.764   3.768  16.258 -0.6869 -0.5528  0.0028
  321TMC3    C1 4872   0.013   3.438  16.799 -0.9477  0.4894 -0.5136
  321TMC3    C2 4873   4.702   3.312  16.774 -0.0181  0.3612  0.6078
  321TMC3    C3 4874   0.038   3.208  16.812  0.3502 -0.7246  0.8592
  321TMC3    C4 4875   0.146   3.461  16.842  0.2743  0.3224 -0.0613
  321TMC3    C5 4876   0.221   3.357  16.885 -0.5248 -0.5256  0.6757
  321TMC3    C6 4877   0.164   3.230  16.864 -0.1245 -0.0554 -0.3294
  321TMC3     C 4878   4.691   3.542  16.719 -0.0076  0.5980  0.3827
  321TMC3     O 4879   0.045   3.615  16.677  0.3786  0.0122 -0.2947
  321TMC3     H 4880   4.603   3.294  16.732 -0.0968  0.6651  0.6629
  321TMC3    H1 4881   0.186   3.562  16.851  0.4348  0.1800  0.8500
  321TMC3    H2 4882   0.216   3.148  16.913 -1.3325 -0.5396  0.1243
  321TMC3    C7 4883   0.253   3.368  17.028  0.4654 -0.4831  0.0885
  321TMC3    C8 4884   4.684   3.110  16.887 -0.2865 -0.5847  0.2841
  321TMC3    O1 4885   0.217   3.272  17.095  0.8902 -0.8033  0.3986
  321TMC3    O2 4886   4.575   3.075  16.842  0.0111 -0.3337 -0.4354
  322MPD2     C 4887   3.290   0.448  13.177  0.3712  0.3799 -0.2206
  322MPD2    C1 4888   3.329   0.407  13.302 -0.1043 -0.5561 -0.4156
  322MPD2    C2 4889   3.408   0.291  13.311  0.4158  0.3725 -0.1230
  322MPD2    C3 4890   3.456   0.222  13.201  0.3348 -0.7081 -0.5092
  322MPD2    C4 4891   3.401   0.256  13.081 -0.5590 -0.9958 -0.3158
  322MPD2    C5 4892   3.311   0.362  13.070 -0.1241 -0.7595  0.4675
  322MPD2     H 4893   3.441   0.257  13.408 -0.3051  0.0404  0.0099
  322MPD2    H1 4894   3.418   0.205  12.987  0.5632 -1.1507 -0.0242
  322MPD2    H2 4895   3.223   0.533  13.165  0.4402  0.9067  3.2509
  322MPD2    H3 4896   3.257   0.376  12.976  0.6361 -1.8660 -0.1337
  322MPD2     N 4897   3.541   0.115  13.214  0.2311 -0.7553  0.2214
  322MPD2    H5 4898   3.572   0.095  13.309  0.4779 -0.7153  0.1500
  322MPD2    N1 4899   3.290   0.472  13.420  0.3190  0.1952  0.5031
  322MPD2    H7 4900   3.226   0.552  13.421  1.7939  1.3695  0.3114
  323TMC3    C1 4901   3.288   0.523  13.654  0.0427  0.5160  0.2205
  323TMC3    C2 4902   3.359   0.639  13.648  0.8011  0.4808 -0.7379
  323TMC3    C3 4903   3.388   0.700  13.767 -0.0778 -0.2128  0.3567
  323TMC3    C4 4904   3.255   0.466  13.766  0.5950  0.6339 -0.1613
  323TMC3    C5 4905   3.268   0.540  13.881 -0.4427 -0.3339 -0.3893
  323TMC3    C6 4906   3.328   0.664  13.885  0.0047  0.1705  0.6099
  323TMC3     C 4907   3.306   0.423  13.552 -0.2832 -0.4583 -0.6819
  323TMC3     O 4908   3.354   0.325  13.598  0.0314 -0.2681  0.3269
  323TMC3     H 4909   3.405   0.677  13.557  1.2385  0.2272 -0.6228
  323TMC3    H1 4910   3.205   0.370  13.762  0.1041  0.9107 -0.5095
  323TMC3    H2 4911   3.350   0.729  13.969 -0.1157  1.9547 -0.7297
  323TMC3    C7 4912   3.280   0.461  14.003 -0.2086 -0.4064  0.3825
  323TMC3    C8 4913   3.514   0.774  13.777 -0.2128  0.0497  0.3087
  323TMC3    O1 4914   3.263   0.341  13.987  0.4372  0.0797 -0.5116
  323TMC3    O2 4915   3.567   0.782  13.885 -0.0769  0.2227  0.2049
  324MPD2     C 4916   0.024   1.253  14.524 -0.0536  0.2553  0.1687
  324MPD2    C1 4917   0.037   1.383  14.486 -0.2882 -0.2376  0.7306
  324MPD2    C2 4918   4.663   1.475  14.496  0.4177 -0.1707 -0.4523
  324MPD2    C3 4919   4.538   1.426  14.531  0.0494 -0.8875  0.3723
  324MPD2    C4 4920   4.525   1.294  14.577 -0.1432  0.0154  0.0790
  324MPD2    C5 4921   4.635   1.214  14.575 -0.3360  0.0577 -0.5683
  324MPD2     H 4922   4.680   1.570  14.447 -0.2555 -0.6188 -1.5367
  324MPD2    H1 4923   4.427   1.263  14.612  1.0249 -0.2389  3.1249
  324MPD2    H2 4924   0.104   1.180  14.524 -0.4939 -0.2069 -2.0315
  324MPD2    H3 4925   4.620   1.109  14.597  0.8186  0.3144  1.4372
  324MPD2     N 4926   4.424   1.509  14.537  0.0589 -0.1872  0.0603
  324MPD2    H5 4927   4.337   1.469  14.571 -1.0852  2.4125  0.2003
  324MPD2    N1 4928   0.160   1.427  14.426 -0.0508 -0.6009 -0.0019
  324MPD2    H7 4929   0.169   1.525  14.401 -0.6363 -0.0138  2.1516
  325TMC3    C1 4930   4.264   1.673  14.477  0.1531 -0.3811 -0.4529
  325TMC3    C2 4931   4.172   1.573  14.481 -0.6338  0.1262  0.2130
  325TMC3    C3 4932   4.042   1.607  14.446 -0.0722  0.5289  0.6626
  325TMC3    C4 4933   4.243   1.800  14.433 -0.0710  0.4857 -0.1961
  325TMC3    C5 4934   4.121   1.827  14.387 -0.4221 -0.2525 -0.1582
  325TMC3    C6 4935   4.014   1.738  14.402  0.5132 -1.3552  0.2353
  325TMC3     C 4936   4.406   1.638  14.483  0.1271  0.3948  0.0902
  325TMC3     O 4937   4.484   1.715  14.423 -0.7695 -0.2177 -0.7418
  325TMC3     H 4938   4.181   1.475  14.527 -2.1026 -0.3103 -0.4305
  325TMC3    H1 4939   4.326   1.870  14.429 -1.5410  2.2054 -0.6605
  325TMC3    H2 4940   3.910   1.763  14.389  0.7443 -1.2377 -1.3864
  325TMC3    C7 4941   4.086   1.952  14.321 -0.2702  0.5209  0.5875
  325TMC3    C8 4942   3.960   1.496  14.398  0.0570  0.5223 -0.0969
  325TMC3    O1 4943   3.978   1.959  14.266  0.4133  0.2062 -0.2128
  325TMC3    O2 4944   4.010   1.395  14.353  0.0244  0.1078  0.0484
  326MPD2     C 4945   0.526   3.314  11.021 -0.1797 -0.6928 -0.0366
  326MPD2    C1 4946   0.550   3.189  10.968  1.4252  0.2649  0.1546
  326MPD2    C2 4947   0.685   3.169  10.922 -0.8367 -0.1412 -0.4521
  326MPD2    C3 4948   0.781   3.273  10.925  0.2462  0.4539 -0.0450
  326MPD2    C4 4949   0.749   3.393  10.982 -0.3508 -0.4493  0.0185
  326MPD2    C5 4950   0.626   3.410  11.028 -0.6314 -0.2246  0.4051
  326MPD2     H 4951   0.718   3.069  10.897 -0.3544 -0.2738  0.6935
  326MPD2    H1 4952   0.819   3.472  11.008 -0.9477  0.6537 -1.7572
  326MPD2    H2 4953   0.424   3.334  11.053  0.4798  1.0835  0.9654
  326MPD2    H3 4954   0.603   3.507  11.072 -1.7711  0.2290 -1.1772
  326MPD2     N 4955   0.908   3.261  10.873 -0.1211 -0.2270 -0.2453
  326MPD2    H5 4956   0.976   3.336  10.880  0.2134 -0.7943  2.7783
  326MPD2    N1 4957   0.459   3.083  10.961 -0.6496 -0.3026 -0.0449
  326MPD2    H7 4958   0.492   3.004  10.906  0.4571  0.4831 -0.4921
  327TMC3    C1 4959   0.244   2.987  10.930  0.2834 -0.2481  0.0922
  327TMC3    C2 4960   0.148   3.040  10.853  0.0192 -0.0525 -0.5061
  327TMC3    C3 4961   0.089   2.964  10.760 -0.7146 -0.1342 -1.0258
  327TMC3    C4 4962   0.288   2.861  10.913  0.3972  0.0948 -0.7387
  327TMC3    C5 4963   0.224   2.787  10.820 -1.1191  0.1299  0.1638
  327TMC3    C6 4964   0.119   2.833  10.746 -0.3416  0.2400  0.0874
  327TMC3     C 4965   0.331   3.089  10.996  0.8037 -0.1455 -0.1604
  327TMC3     O 4966   0.269   3.183  11.045 -0.1119 -0.4791 -0.6304
  327TMC3     H 4967   0.139   3.148  10.856  1.7303  0.0675 -0.1728
  327TMC3    H1 4968   0.357   2.819  10.985 -0.5014  0.4692  0.3358
  327TMC3    H2 4969   0.068   2.777  10.668 -2.7538  1.0895  1.0504
  327TMC3    C7 4970   0.265   2.663  10.767 -0.0055  0.2238  0.5538
  327TMC3    C8 4971   0.027   3.030  10.646 -0.4950 -0.3956 -0.6561
  327TMC3    O1 4972   0.187   2.593  10.706 -0.3947 -0.4944 -0.5653
  327TMC3    O2 4973   0.046   2.983  10.533 -0.6297  0.0808  0.1684
  328MPD2     C 4974   3.468   2.657  17.486  1.0869  0.3079  0.1578
  328MPD2    C1 4975   3.401   2.567  17.406  0.0539  0.4340  0.2630
  328MPD2    C2 4976   3.406   2.584  17.269 -0.3433 -0.1442 -0.2088
  328MPD2    C3 4977   3.496   2.674  17.212  0.0492  0.7566 -0.8911
  328MPD2    C4 4978   3.584   2.738  17.299  0.7289  0.1055 -0.3055
  328MPD2    C5 4979   3.566   2.742  17.438 -0.7277  0.3893  0.0756
  328MPD2     H 4980   3.339   2.528  17.203  1.2336 -0.9843 -1.0906
  328MPD2    H1 4981   3.644   2.816  17.255  1.7008 -0.1707  0.5140
  328MPD2    H2 4982   3.461   2.660  17.594  0.1991 -0.8455  0.1306
  328MPD2    H3 4983   3.618   2.807  17.507 -0.5363  0.1736  0.1324
  328MPD2     N 4984   3.487   2.707  17.077  0.3001  0.1077  0.4151
  328MPD2    H5 4985   3.557   2.774  17.046  3.0500 -1.6517  2.7653
  328MPD2    N1 4986   3.313   2.467  17.467 -0.1847  0.3701 -0.3090
  328MPD2    H7 4987   3.312   2.462  17.568 -1.0356 -0.6751 -0.3633
  329TMC3    C1 4988   3.103   2.365  17.456  0.0266 -0.4222 -0.7809
  329TMC3    C2 4989   3.049   2.487  17.500  0.3279 -0.2529 -0.7593
  329TMC3    C3 4990   2.920   2.527  17.457 -0.0655 -0.2021 -0.8849
  329TMC3    C4 4991   3.021   2.281  17.386 -0.2862  0.3535  0.1385
  329TMC3    C5 4992   2.902   2.326  17.329 -0.2506  0.2658  0.0756
  329TMC3    C6 4993   2.856   2.456  17.356  0.0331  0.1410  0.1128
  329TMC3     C 4994   3.231   2.378  17.395  0.0261  0.2978  0.1901
  329TMC3     O 4995   3.236   2.351  17.275  0.4668  0.1539  0.4599
  329TMC3     H 4996   3.116   2.555  17.553 -1.0225  1.3615 -1.1336
  329TMC3    H1 4997   3.062   2.187  17.352  1.0497  0.5675  1.1287
  329TMC3    H2 4998   2.754   2.475  17.325 -0.0497 -2.3359 -1.1534
  329TMC3    C7 4999   2.858   2.264  17.202  0.7088  0.1769  0.7060
  329TMC3    C8 5000   2.879   2.664  17.465  0.1298  0.5692 -0.6818
  329TMC3    O1 5001   2.895   2.146  17.177 -0.0932 -0.2361  0.0336
  329TMC3    O2 5002   2.802   2.705  17.381  0.1962  0.0400  0.4515
  330TMC3    C1 5003   1.002   2.310   9.587 -0.3374  0.3709 -1.0881
  330TMC3    C2 5004   0.968   2.229   9.487 -0.0233  0.1559 -0.1855
  330TMC3    C3 5005   1.003   2.093   9.499 -0.1735 -0.1743 -0.3173
  330TMC3    C4 5006   1.072   2.264   9.693  0.4588 -0.1766  0.1276
  330TMC3    C5 5007   1.109   2.130   9.707  0.2996  0.2941  0.2166
  330TMC3    C6 5008   1.080   2.042   9.603 -0.1136  1.3235  0.2486
  330TMC3     C 5009   0.959   2.457   9.594 -0.0959 -0.0336  1.4672
  330TMC3     O 5010   1.004   2.518   9.688 -0.4287 -0.3636  0.5131
  330TMC3     H 5011   0.909   2.261   9.402  0.5461  1.9748  0.1084
  330TMC3    H1 5012   1.108   2.335   9.767 -1.1568  1.3483 -0.5443
  330TMC3    H2 5013   1.117   1.941   9.590  0.6840  1.6831 -0.2698
  330TMC3    C7 5014   1.171   2.088   9.829 -0.5848  0.0062  0.2729
  330TMC3    C8 5015   0.952   1.993   9.407  0.4612  0.0636 -0.0589
  330TMC3    O1 5016   1.208   2.180   9.908 -0.7531 -0.7151 -0.1515
  330TMC3    O2 5017   0.948   2.033   9.292  0.0248 -0.5762  0.0999
  331MPD2     C 5018   3.599   1.056  11.904 -0.4848 -0.2988 -0.6620
  331MPD2    C1 5019   3.666   1.144  11.981  0.4486 -0.3577  0.2356
  331MPD2    C2 5020   3.790   1.122  12.019 -0.3231 -0.3749 -0.5079
  331MPD2    C3 5021   3.854   1.005  11.988 -0.1390 -0.0105 -0.1088
  331MPD2    C4 5022   3.781   0.909  11.923  0.2226 -0.0312  0.8926
  331MPD2    C5 5023   3.658   0.938  11.872  0.1291  0.5239  0.2795
  331MPD2     H 5024   3.841   1.197  12.079 -0.4579  1.5588 -2.7766
  331MPD2    H1 5025   3.817   0.808  11.911  1.0111  0.4349 -0.6990
  331MPD2    H2 5026   3.494   1.069  11.880 -0.2487  1.6502 -0.6235
  331MPD2    H3 5027   3.600   0.871  11.809  1.3269  0.7979 -1.1015
  331MPD2     N 5028   3.978   0.971  12.055 -0.3279 -0.1147 -0.0259
  331MPD2    H5 5029   4.026   1.041  12.111  2.3837 -3.2033  1.4659
  331MPD2    N1 5030   3.592   1.266  11.997 -0.0051  0.5981 -0.2869
  331MPD2    H7 5031   3.505   1.267  11.944 -0.0125 -0.1110 -0.2943
  332TMC3    C1 5032   4.179   0.869  12.124  0.9551 -0.5835  0.2126
  332TMC3    C2 5033   4.199   0.961  12.219 -0.1975 -0.3521  0.0739
  332TMC3    C3 5034   4.308   0.950  12.302  0.6355  0.1197 -0.0187
  332TMC3    C4 5035   4.277   0.777  12.093  0.7091  0.3953  0.2758
  332TMC3    C5 5036   4.395   0.779  12.169  0.1749  0.5738 -0.3117
  332TMC3    C6 5037   4.416   0.867  12.275  0.2559  0.3675 -0.1392
  332TMC3     C 5038   4.051   0.858  12.047 -0.0661 -0.4076 -0.0004
  332TMC3     O 5039   4.022   0.750  11.988 -0.0704  0.2077 -0.9052
  332TMC3     H 5040   4.121   1.031  12.248 -2.2497 -1.6029 -2.4719
  332TMC3    H1 5041   4.262   0.699  12.020  2.2616  0.3609 -0.0011
  332TMC3    H2 5042   4.514   0.881  12.321  0.2942 -2.6214  0.7088
  332TMC3    C7 5043   4.506   0.699  12.125  1.1119  0.4199 -0.3504
  332TMC3    C8 5044   4.337   1.065  12.387  0.1961  0.2962 -0.8860
  332TMC3    O1 5045   4.501   0.629  12.024 -0.0546 -0.2154 -0.2571
  332TMC3    O2 5046   4.295   1.174  12.359 -0.0113 -0.1420 -0.2936
  333MPD2     C 5047   4.380   1.013  11.270 -1.0813  0.0445 -0.2483
  333MPD2    C1 5048   4.445   0.898  11.226 -0.5205 -0.2048 -0.3293
  333MPD2    C2 5049   4.389   0.771  11.254  0.0744 -0.3045 -0.0999
  333MPD2    C3 5050   4.272   0.762  11.327 -0.6458 -0.2986 -0.4146
  333MPD2    C4 5051   4.210   0.884  11.363  0.1458 -0.4546 -0.1605
  333MPD2    C5 5052   4.278   1.003  11.350  0.3823  0.0792  0.7921
  333MPD2     H 5053   4.441   0.680  11.224  1.7382  0.5032  0.3542
  333MPD2    H1 5054   4.109   0.890  11.401 -0.8006 -0.9516 -2.5655
  333MPD2    H2 5055   4.415   1.113  11.248  1.5327 -0.5267  1.3083
  333MPD2    H3 5056   4.217   1.089  11.375 -2.5111 -1.5962 -0.6106
  333MPD2     N 5057   4.213   0.638  11.359 -0.0629 -0.1288  0.8070
  333MPD2    H5 5058   4.257   0.553  11.326 -1.9728 -1.5991  2.0000
  333MPD2    N1 5059   4.555   0.918  11.145 -0.4469  0.2413  0.0318
  333MPD2    H7 5060   4.592   1.013  11.138  0.0718  0.1538  1.4898
  334TMC3    C1 5061   0.004   0.871  11.008 -0.5859 -0.1060  0.1780
  334TMC3    C2 5062   0.114   0.788  10.989  0.2420  0.0421  0.3703
  334TMC3    C3 5063   0.216   0.834  10.909 -0.4396 -0.4439 -0.4473
  334TMC3    C4 5064   0.008   1.002  10.974  0.3602  0.2361 -0.5544
  334TMC3    C5 5065   0.117   1.038  10.895  0.0675 -0.1061  1.0430
  334TMC3    C6 5066   0.223   0.964  10.867 -0.0765  0.0974 -0.9444
  334TMC3     C 5067   4.630   0.819  11.090  1.0471 -0.1234  0.7431
  334TMC3     O 5068   4.623   0.697  11.103  0.8653 -0.1948 -0.2970
  334TMC3     H 5069   0.110   0.686  11.025 -0.3078  0.2944  1.0097
  334TMC3    H1 5070   4.652   1.064  10.981  0.7420  0.5158  1.9139
  334TMC3    H2 5071   0.306   1.005  10.811  0.9479 -1.1939 -0.3794
  334TMC3    C7 5072   0.125   1.183  10.855  0.1840  0.4304 -0.5441
  334TMC3    C8 5073   0.314   0.735  10.863  0.6390 -0.1873 -0.0452
  334TMC3    O1 5074   0.081   1.254  10.947 -1.0777 -0.1510 -0.3454
  334TMC3    O2 5075   0.330   0.640  10.933 -0.4072  0.2572  0.1460
  335TMC3    C1 5076   3.967   2.315  17.629  0.1708  0.2559  0.0936
  335TMC3    C2 5077   3.933   2.263  17.509 -0.2756  0.3928 -0.0905
  335TMC3    C3 5078   4.027   2.228  17.425  0.0827  0.3545  0.2604
  335TMC3    C4 5079   4.106   2.342  17.656  0.9077 -0.8241  0.5742
  335TMC3    C5 5080   4.195   2.305  17.563 -0.4203 -0.4403  0.6606
  335TMC3    C6 5081   4.158   2.253  17.442  0.3745  0.3655  0.1553
  335TMC3     C 5082   3.867   2.403  17.682 -0.1493  0.6005 -0.1015
  335TMC3     O 5083   3.754   2.373  17.660  0.1768  0.0014  0.3689
  335TMC3     H 5084   3.830   2.261  17.476  0.1227 -1.0985 -1.2579
  335TMC3    H1 5085   4.130   2.379   0.023  2.3427  0.0142 -0.0786
  335TMC3    H2 5086   4.233   2.212  17.376  1.1864  1.5748  0.3250
  335TMC3    C7 5087   4.341   2.321  17.586  0.1834 -0.0989  0.0302
  335TMC3    C8 5088   3.987   2.232  17.284 -0.0564 -0.1871  0.3504
  335TMC3    O1 5089   4.413   2.270  17.500 -0.5836 -0.0921 -0.1502
  335TMC3    O2 5090   4.065   2.287  17.207  0.1834 -0.3200 -0.7593
  336MPD2     C 5091   3.853   0.407  16.409 -0.2443  0.4752 -0.2223
  336MPD2    C1 5092   3.821   0.361  16.288  0.4111 -0.2532 -0.2085
  336MPD2    C2 5093   3.818   0.228  16.261  0.2378  0.1020 -0.5616
  336MPD2    C3 5094   3.866   0.138  16.351 -0.6103  0.3529 -0.1930
  336MPD2    C4 5095   3.906   0.183  16.473  0.4110  0.0560  0.5380
  336MPD2    C5 5096   3.895   0.316  16.503 -0.1263 -0.0875  0.6706
  336MPD2     H 5097   3.787   0.194  16.163  2.5501  1.8967 -1.9093
  336MPD2    H1 5098   3.925   0.118  16.557  0.8546 -0.3690  0.1114
  336MPD2    H2 5099   3.849   0.513  16.429 -1.4539 -0.1258  2.7780
  336MPD2    H3 5100   3.905   0.338  16.609  2.0704 -1.2116  0.6878
  336MPD2     N 5101   3.861   4.726  16.335 -0.7956 -0.2227 -0.8190
  336MPD2    H5 5102   3.884   4.673  16.419 -0.5633 -0.7942 -1.2415
  336MPD2    N1 5103   3.792   0.451  16.180 -0.2402 -0.1842 -0.0205
  336MPD2    H7 5104   3.764   0.417  16.088 -1.2122 -0.2942  0.3276
  337TMC3    C1 5105   3.772   0.665  16.058 -0.6047  0.1352 -0.8312
  337TMC3    C2 5106   3.678   0.613  15.976 -0.4883  0.3664 -0.4221
  337TMC3    C3 5107   3.659   0.669  15.857 -0.2249 -0.2314  0.2913
  337TMC3    C4 5108   3.836   0.785  16.028  0.0610  0.4360 -0.6652
  337TMC3    C5 5109   3.800   0.843  15.908 -0.0930  0.5198  0.0181
  337TMC3    C6 5110   3.704   0.793  15.827 -0.3039 -0.2039 -0.1281
  337TMC3     C 5111   3.808   0.593  16.182 -0.3324  0.1566  0.2242
  337TMC3     O 5112   3.878   0.662  16.252 -0.0624  0.1950 -0.1129
  337TMC3     H 5113   3.621   0.523  15.996 -1.5915  0.7391 -1.9413
  337TMC3    H1 5114   3.909   0.820  16.099  1.4914 -0.0124 -1.9090
  337TMC3    H2 5115   3.678   0.841  15.733  1.7989  2.0577  0.4476
  337TMC3    C7 5116   3.884   0.944  15.858  0.2289 -0.2921  0.1651
  337TMC3    C8 5117   3.527   0.641  15.807  0.0187  0.3867  0.1691
  337TMC3    O1 5118   3.891   0.953  15.738 -0.4604 -0.2702 -0.1568
  337TMC3    O2 5119   3.441   0.623  15.892 -0.4308  0.3031  0.2857
  338MPD2     C 5120   4.059   4.294   0.903  0.0011 -0.7546  0.4076
  338MPD2    C1 5121   4.057   4.372   0.787  1.0283 -0.2274 -0.7233
  338MPD2    C2 5122   3.960   4.468   0.782  0.6445 -0.8801 -0.7262
  338MPD2    C3 5123   3.866   4.492   0.875 -0.7332  0.0655  0.2039
  338MPD2    C4 5124   3.874   4.415   0.987  0.7574  0.9667 -0.4146
  338MPD2    C5 5125   3.960   4.314   0.993  0.4443 -0.0863  0.3148
  338MPD2     H 5126   3.971   4.530   0.693  0.8668  3.7566  2.5571
  338MPD2    H1 5127   3.809   4.426   1.073  1.5463  0.7308  0.2186
  338MPD2    H2 5128   4.119   4.205   0.920 -1.0718 -1.1554  2.1116
  338MPD2    H3 5129   3.955   4.256   1.085 -0.4443  0.5005  0.6345
  338MPD2     N 5130   3.803   4.619   0.860  0.1258  0.3629  0.3227
  338MPD2    H5 5131   3.816   4.664   0.770 -0.6436 -0.8538 -0.3981
  338MPD2    N1 5132   4.143   4.350   0.680  0.2497  0.0615 -0.6304
  338MPD2    H7 5133   4.126   4.409   0.599  0.5211  1.0018 -0.0062
  339TMC3    C1 5134   3.676   0.080   0.904 -0.2870 -0.2161  0.5208
  339TMC3    C2 5135   3.554   0.117   0.959 -0.2221 -0.3770 -0.2058
  339TMC3    C3 5136   3.511   0.244   0.927 -0.4406 -0.1825 -0.6622
  339TMC3    C4 5137   3.746   0.164   0.822  0.0966  0.3017 -0.3975
  339TMC3    C5 5138   3.692   0.284   0.789 -0.2120  0.6395 -0.5390
  339TMC3    C6 5139   3.567   0.326   0.836  0.3943 -0.7602  0.0893
  339TMC3     C 5140   3.711   4.679   0.941 -0.4616  0.2856  0.2387
  339TMC3     O 5141   3.643   4.618   1.024 -0.7708 -0.3827  0.4394
  339TMC3     H 5142   3.507   0.045   1.025  1.3230 -1.3067 -0.1218
  339TMC3    H1 5143   3.827   0.119   0.766 -2.2007 -2.0300 -1.8393
  339TMC3    H2 5144   3.541   0.431   0.826 -0.2568 -0.6936  2.2410
  339TMC3    C7 5145   3.746   0.364   0.681 -0.2033 -0.1074  0.1769
  339TMC3    C8 5146   3.394   0.304   0.994 -0.4064 -0.6079  1.1547
  339TMC3    O1 5147   3.677   0.439   0.610  0.9601 -0.1903  0.1283
  339TMC3    O2 5148   3.366   0.418   0.957  0.0595 -0.7461  0.2119
  340MPD2     C 5149   4.290   2.806  10.791 -0.1054  0.1642  0.2465
  340MPD2    C1 5150   4.211   2.695  10.767  0.4002 -0.1022 -0.0051
  340MPD2    C2 5151   4.261   2.590  10.690  0.2818  1.0362  0.1698
  340MPD2    C3 5152   4.387   2.596  10.634  0.5831  0.0017 -0.3239
  340MPD2    C4 5153   4.467   2.701  10.658 -0.4165 -0.9120 -0.3019
  340MPD2    C5 5154   4.419   2.806  10.733 -0.1990 -0.1556  0.1290
  340MPD2     H 5155   4.211   2.494  10.688 -0.4474  1.4083  0.5325
  340MPD2    H1 5156   4.569   2.701  10.622 -0.2209  1.4047  0.2963
  340MPD2    H2 5157   4.262   2.888  10.857  0.0571  1.3242 -1.1271
  340MPD2    H3 5158   4.483   2.886  10.766 -0.4912  0.0136  0.2877
  340MPD2     N 5159   4.453   2.493  10.557 -0.4958 -0.8408 -0.2894
  340MPD2    H5 5160   4.549   2.516  10.530 -0.8608 -0.7563 -1.4827
  340MPD2    N1 5161   4.083   2.687  10.830  0.9734  0.3442  0.1701
  340MPD2    H7 5162   4.057   2.754  10.902 -0.5371  0.1749 -0.2185
  341TMC3    C1 5163   3.985   2.554  10.655 -0.3977 -0.3752 -0.2561
  341TMC3    C2 5164   3.970   2.418  10.635 -0.4013 -0.2120  0.4473
  341TMC3    C3 5165   3.982   2.370  10.512  0.2420  0.3873 -0.3432
  341TMC3    C4 5166   4.002   2.644  10.555  0.5872  0.3176 -0.0248
  341TMC3    C5 5167   4.023   2.592  10.432  0.4545  0.1259  0.4332
  341TMC3    C6 5168   3.997   2.457  10.401 -0.0251 -0.3475 -0.7742
  341TMC3     C 5169   3.989   2.592  10.794  0.3392  0.2308 -0.3577
  341TMC3     O 5170   3.885   2.567  10.848 -0.0673  0.1351  0.2682
  341TMC3     H 5171   3.937   2.352  10.715  1.9685 -1.3052  0.5108
  341TMC3    H1 5172   4.024   2.748  10.573 -1.0633  0.5469  0.7030
  341TMC3    H2 5173   4.002   2.423  10.299  1.2170  0.3949 -0.9598
  341TMC3    C7 5174   4.121   2.652  10.342  0.1331 -0.4811  0.2841
  341TMC3    C8 5175   4.000   2.233  10.490  0.2021 -0.5348 -0.0133
  341TMC3    O1 5176   4.133   2.606  10.230  0.2661 -0.3598 -0.6806
  341TMC3    O2 5177   3.945   2.156  10.568 -0.1080 -0.2616 -0.1581
  342MPD2     C 5178   2.313   0.991   0.034 -0.2225  0.7027  0.8888
  342MPD2    C1 5179   2.404   0.973  17.665  0.2951 -0.7252 -0.6614
  342MPD2    C2 5180   2.459   1.082  17.601  0.5504  0.3897  0.5440
  342MPD2    C3 5181   2.435   1.209  17.651 -0.0887  0.0330 -0.1991
  342MPD2    C4 5182   2.350   1.230   0.031 -0.7347  0.1593 -0.7515
  342MPD2    C5 5183   2.295   1.116   0.086  0.2836  0.2559 -0.2947
  342MPD2     H 5184   2.524   1.068  17.516 -1.6250 -2.8123 -0.5974
  342MPD2    H1 5185   2.335   1.327   0.077  1.3062  0.9664 -1.8032
  342MPD2    H2 5186   2.253   0.910   0.073 -0.3333 -0.3500 -1.5220
  342MPD2    H3 5187   2.243   1.125   0.181 -3.8188 -0.4727 -2.5126
  342MPD2     N 5188   2.508   1.327  17.612  0.0626  0.2747 -0.2117
  342MPD2    H5 5189   2.485   1.415  17.657 -2.5263 -1.1683  1.2988
  342MPD2    N1 5190   2.434   0.840  17.614  0.9228 -0.7779  0.2227
  342MPD2    H7 5191   2.493   0.841  17.531  0.2539  2.5651 -0.2236
  343TMC3    C1 5192   2.454   0.607  17.622  0.1727 -0.2698 -0.1643
  343TMC3    C2 5193   2.557   0.611  17.533 -0.4326 -0.1647  0.2289
  343TMC3    C3 5194   2.582   0.500  17.459  0.6646  0.0308  0.6696
  343TMC3    C4 5195   2.389   0.489  17.650  0.0904  0.6465  0.4220
  343TMC3    C5 5196   2.409   0.383  17.570  0.5008 -0.7582  0.4670
  343TMC3    C6 5197   2.498   0.389  17.468  0.6395  0.1876 -0.3439
  343TMC3     C 5198   2.414   0.726  17.692 -0.1686  0.4976  0.1193
  343TMC3     O 5199   2.368   0.706   0.067 -0.2933  0.1531  0.6580
  343TMC3     H 5200   2.614   0.702  17.517 -2.5861  1.2715  0.5917
  343TMC3    H1 5201   2.298   0.492  17.707  1.0168 -1.6313  2.0152
  343TMC3    H2 5202   2.496   0.314  17.389  1.9300 -2.8885  2.5406
  343TMC3    C7 5203   2.341   0.263  17.608 -0.4527  0.5505  0.2502
  343TMC3    C8 5204   2.707   0.503  17.382 -0.4458  0.5006 -0.1620
  343TMC3    O1 5205   2.356   0.176  17.523 -0.2447 -0.0023 -0.6450
  343TMC3    O2 5206   2.769   0.611  17.367  0.1163 -0.8027  0.3358
  344MPD2     C 5207   3.029   0.393  10.292  0.3176  0.3823 -0.0556
  344MPD2    C1 5208   3.018   0.431  10.424  0.3824 -0.5651 -0.1206
  344MPD2    C2 5209   3.072   0.554  10.468  0.3922 -0.0942  0.5308
  344MPD2    C3 5210   3.134   0.636  10.374  0.2714 -0.1643  0.0392
  344MPD2    C4 5211   3.137   0.600  10.240  0.0422 -0.1731 -0.3940
  344MPD2    C5 5212   3.083   0.479  10.205  0.7136  0.7468 -0.1724
  344MPD2     H 5213   3.058   0.574  10.573 -1.3001  1.6404 -0.0133
  344MPD2    H1 5214   3.189   0.654  10.161 -0.9455  0.9613 -0.2668
  344MPD2    H2 5215   2.994   0.299  10.252  1.1166 -1.1852  2.9610
  344MPD2    H3 5216   3.087   0.450  10.101 -2.4125 -1.2285  0.2770
  344MPD2     N 5217   3.185   0.768  10.406  0.0407 -0.2686 -0.3077
  344MPD2    H5 5218   3.242   0.814  10.336 -0.9929 -0.1211 -1.0448
  344MPD2    N1 5219   2.954   0.348  10.528 -0.1633  0.7165 -0.6172
  344MPD2    H7 5220   2.943   0.380  10.623 -0.5598 -0.2591 -0.3424
  345TMC3    C1 5221   3.261   0.949  10.515  0.4223 -0.1798 -0.7645
  345TMC3    C2 5222   3.302   0.995  10.637 -0.4620  0.1070 -0.5281
  345TMC3    C3 5223   3.368   1.110  10.628  0.2732 -0.6213 -0.3668
  345TMC3    C4 5224   3.288   1.017  10.398 -0.7856  0.5900 -0.8010
  345TMC3    C5 5225   3.374   1.126  10.397 -0.3508  0.2245 -0.2699
  345TMC3    C6 5226   3.420   1.168  10.518 -0.1133  0.0510  0.0167
  345TMC3     C 5227   3.183   0.829  10.521  0.3324  0.8061 -0.3359
  345TMC3     O 5228   3.144   0.792  10.630 -0.1481 -0.2540 -0.1765
  345TMC3     H 5229   3.255   0.965  10.730  3.6266  0.3862  1.6306
  345TMC3    H1 5230   3.238   0.991  10.305  1.8020  0.3541 -2.1255
  345TMC3    H2 5231   3.475   1.260  10.533 -2.7622  1.4891  0.9569
  345TMC3    C7 5232   3.359   1.229  10.299  0.1501 -0.3298 -0.4814
  345TMC3    C8 5233   3.317   1.205  10.721  0.2927  0.5312 -0.6961
  345TMC3    O1 5234   3.372   1.348  10.334  0.1462  0.3719  0.9508
  345TMC3    O2 5235   3.199   1.194  10.749  0.4272  0.0413  0.1685
  346MPD2     C 5236   3.249   1.694  13.946 -0.1627  0.2209  0.3779
  346MPD2    C1 5237   3.267   1.812  13.887 -0.7691 -0.0104 -0.2349
  346MPD2    C2 5238   3.361   1.894  13.946 -0.1223  0.5551  0.6752
  346MPD2    C3 5239   3.435   1.855  14.051 -0.1311  0.7975  0.5079
  346MPD2    C4 5240   3.422   1.730  14.101  0.1359 -0.0563  0.8573
  346MPD2    C5 5241   3.322   1.655  14.047 -0.2154 -0.3424 -0.6569
  346MPD2     H 5242   3.366   1.995  13.907 -1.9891 -0.4985 -2.3013
  346MPD2    H1 5243   3.482   1.687  14.181  1.7854  1.1440  0.2702
  346MPD2    H2 5244   3.165   1.631  13.918  0.3838  0.1755 -1.1798
  346MPD2    H3 5245   3.314   1.559  14.095  0.9570 -0.1967 -0.1503
  346MPD2     N 5246   3.529   1.949  14.102  0.1464  0.4362  0.0120
  346MPD2    H5 5247   3.521   2.042  14.061  0.8367  0.3507 -0.3138
  346MPD2    N1 5248   3.192   1.851  13.775 -0.7827  0.1312 -0.3803
  346MPD2    H7 5249   3.206   1.947  13.743  1.9262 -0.7181 -1.6996
  347TMC3    C1 5250   3.653   2.047  14.267  0.1881 -0.1846  0.3709
  347TMC3    C2 5251   3.703   2.126  14.159  0.0232  0.3472  0.1431
  347TMC3    C3 5252   3.778   2.237  14.196 -0.0082  0.4737 -0.3064
  347TMC3    C4 5253   3.675   2.074  14.408 -0.4919 -0.1926 -0.8100
  347TMC3    C5 5254   3.741   2.193  14.434 -0.5700  0.9975  0.1357
  347TMC3    C6 5255   3.775   2.273  14.329  0.3845  0.6903  0.4097
  347TMC3     C 5256   3.584   1.931  14.223  0.5368  0.1350 -0.1746
  347TMC3     O 5257   3.570   1.848  14.312  0.9727 -0.4728  0.6363
  347TMC3     H 5258   3.715   2.093  14.057 -0.7653  0.3330  0.0621
  347TMC3    H1 5259   3.632   2.022  14.493  1.0449 -0.1127  0.0194
  347TMC3    H2 5260   3.837   2.358  14.356 -0.1993  0.9178  1.0350
  347TMC3    C7 5261   3.849   2.182  14.529 -0.0339 -0.4724 -0.5193
  347TMC3    C8 5262   3.805   2.325  14.091 -0.7939  0.3728 -0.2234
  347TMC3    O1 5263   3.891   2.289  14.576  0.0859  0.3732 -0.3789
  347TMC3    O2 5264   3.709   2.350  14.028 -0.6173 -0.4762  0.2496
  348MPD2     C 5265   0.874   1.369  11.969 -0.0609 -0.1193  0.2790
  348MPD2    C1 5266   0.995   1.432  11.976  0.6456  0.1561  0.4390
  348MPD2    C2 5267   1.056   1.494  11.870  0.1253 -0.2974 -0.1935
  348MPD2    C3 5268   0.985   1.513  11.753  0.3559 -0.1617  0.0714
  348MPD2    C4 5269   0.855   1.466  11.752  0.1074  0.4491 -0.2152
  348MPD2    C5 5270   0.803   1.395  11.856 -0.5269  0.2759 -0.1975
  348MPD2     H 5271   1.157   1.533  11.869  0.2963 -0.5968  4.9556
  348MPD2    H1 5272   0.788   1.487  11.669 -1.5836 -2.8564  0.2938
  348MPD2    H2 5273   0.822   1.332  12.056  1.6577 -1.6683  0.6373
  348MPD2    H3 5274   0.700   1.360  11.854 -1.0777  1.7313  2.7221
  348MPD2     N 5275   1.045   1.575  11.641 -0.0074  0.2173  0.0436
  348MPD2    H5 5276   1.144   1.594  11.650 -0.3981  2.7942 -0.9723
  348MPD2    N1 5277   1.077   1.426  12.091  0.7665 -0.1901 -0.1636
  348MPD2    H7 5278   1.171   1.465  12.087  1.5545 -1.9946  0.7943
  349TMC3    C1 5279   1.150   1.374  12.306 -1.0470  0.7999 -0.5373
  349TMC3    C2 5280   1.182   1.260  12.377 -0.0855 -0.3898 -0.3761
  349TMC3    C3 5281   1.312   1.240  12.387  0.1192 -0.1866 -0.0384
  349TMC3    C4 5282   1.237   1.472  12.279  0.1371  0.0626  0.0786
  349TMC3    C5 5283   1.374   1.447  12.297  0.1687 -0.2184  0.1360
  349TMC3    C6 5284   1.409   1.324  12.338  0.6008  0.3683  0.5787
  349TMC3     C 5285   1.049   1.355  12.206  0.0939  0.3743 -0.0070
  349TMC3     O 5286   0.951   1.292  12.242 -0.6271  0.0510  0.1186
  349TMC3     H 5287   1.111   1.181  12.400 -0.5949  0.6351  1.5558
  349TMC3    H1 5288   1.211   1.567  12.234 -0.4169 -0.5752 -0.9323
  349TMC3    H2 5289   1.510   1.293  12.315  0.8896  0.7896  1.2648
  349TMC3    C7 5290   1.450   1.488  12.179 -0.6392  0.1907  1.1121
  349TMC3    C8 5291   1.366   1.146  12.486  0.4073 -0.4789 -0.6499
  349TMC3    O1 5292   1.384   1.482  12.075 -0.1852  0.5205 -0.6655
  349TMC3    O2 5293   1.488   1.140  12.476  0.4875  0.7829  0.0010
  350MPD2     C 5294   1.398   0.059   9.283 -0.1045  1.0877 -0.1956
  350MPD2    C1 5295   1.449   4.684   9.352 -0.8654  0.3199 -0.4688
  350MPD2    C2 5296   1.581   4.655   9.341  0.4230  0.3194  0.0627
  350MPD2    C3 5297   1.659   4.730   9.259 -0.5516 -0.0203  0.1870
  350MPD2    C4 5298   1.607   0.110   9.194 -0.6888  0.7759 -0.6352
  350MPD2    C5 5299   1.473   0.132   9.201 -0.0894 -0.0168  0.2453
  350MPD2     H 5300   1.614   4.569   9.399 -1.3299 -0.6097 -0.3293
  350MPD2    H1 5301   1.669   0.176   9.135 -1.0385 -0.1386 -2.0242
  350MPD2    H2 5302   1.291   0.075   9.276 -0.1193  0.5871 -1.1133
  350MPD2    H3 5303   1.429   0.220   9.156  0.2188 -0.1873 -0.3934
  350MPD2     N 5304   1.796   4.697   9.251 -0.4929  0.1793 -0.3733
  350MPD2    H5 5305   1.819   4.616   9.308 -1.9317 -0.6839 -1.0211
  350MPD2    N1 5306   1.371   4.595   9.432  0.6099 -0.6055  0.6340
  350MPD2    H7 5307   1.421   4.515   9.470  4.3537 -0.0226 -3.0964
  351TMC3    C1 5308   1.180   4.504   9.548  0.6035  0.9207  0.6323
  351TMC3    C2 5309   1.268   4.424   9.606 -0.5194 -0.6581 -0.6312
  351TMC3    C3 5310   1.230   4.361   9.726  0.5033 -0.0117  0.0380
  351TMC3    C4 5311   1.066   4.547   9.618 -0.1534 -0.3123  0.0844
  351TMC3    C5 5312   1.037   4.482   9.731 -0.1949  0.7032  0.1229
  351TMC3    C6 5313   1.111   4.384   9.790  0.1862 -0.7822  0.3831
  351TMC3     C 5314   1.231   4.600   9.448  0.0620 -0.1146 -0.5559
  351TMC3     O 5315   1.151   4.665   9.382 -0.4929  0.0982 -0.2949
  351TMC3     H 5316   1.350   4.388   9.544  1.4634 -0.8771  2.1599
  351TMC3    H1 5317   1.003   4.628   9.584 -1.1132 -1.4009 -0.7149
  351TMC3    H2 5318   1.070   4.310   9.857 -1.7456 -0.0476  0.0037
  351TMC3    C7 5319   0.902   4.512   9.780 -0.0487 -0.7270 -0.7231
  351TMC3    C8 5320   1.319   4.249   9.765  0.8543  0.2849 -0.3473
  351TMC3    O1 5321   0.827   4.589   9.720  0.1774 -0.4894 -0.4450
  351TMC3    O2 5322   1.422   4.242   9.700  0.5440 -0.0878  0.0872
  352MPD2     C 5323   4.379   2.003   0.816 -0.0877 -0.0722  0.4347
  352MPD2    C1 5324   4.321   1.956   0.706 -0.0000 -0.3045 -0.1125
  352MPD2    C2 5325   4.383   1.867   0.625  0.6739  0.4747  0.8127
  352MPD2    C3 5326   4.500   1.808   0.663 -0.4482 -0.0688 -0.2849
  352MPD2    C4 5327   4.555   1.853   0.785  0.2866 -0.3727 -0.2379
  352MPD2    C5 5328   4.497   1.948   0.857  0.1145  0.0904  0.6737
  352MPD2     H 5329   4.333   1.833   0.534 -0.9316  1.9437  1.1415
  352MPD2    H1 5330   4.636   1.793   0.825  1.5939  1.4852 -0.0912
  352MPD2    H2 5331   4.335   2.070   0.889  1.2745  1.4811 -0.1849
  352MPD2    H3 5332   4.547   1.976   0.949  0.6409 -1.2881  0.8069
  352MPD2     N 5333   4.560   1.703   0.592 -0.1143 -0.0383 -0.4485
  352MPD2    H5 5334   4.644   1.663   0.632 -0.5311  1.0072  1.4803
  352MPD2    N1 5335   4.197   2.023   0.666 -0.2183  0.1426 -0.4346
  352MPD2    H7 5336   4.156   2.094   0.726 -2.1653 -1.2796 -0.0816
  353TMC3    C1 5337   4.587   1.524   0.439 -0.1649 -0.1340 -0.4130
  353TMC3    C2 5338   4.698   1.486   0.515  0.0086  0.0634  0.8344
  353TMC3    C3 5339   0.009   1.356   0.506 -0.2709  0.2150  0.1420
  353TMC3    C4 5340   4.527   1.437   0.356  0.3189 -0.3967 -0.3159
  353TMC3    C5 5341   4.571   1.307   0.346  0.4523  0.0260 -0.2903
  353TMC3    C6 5342   4.679   1.267   0.423 -0.0995 -0.0121  0.0605
  353TMC3     C 5343   4.528   1.655   0.467 -0.2591 -0.5316 -0.4345
  353TMC3     O 5344   4.446   1.701   0.389 -0.2695  0.1886 -0.2697
  353TMC3     H 5345   0.019   1.562   0.571 -0.7183  1.5262 -0.4325
  353TMC3    H1 5346   4.440   1.480   0.308 -0.2840 -1.1274  0.1283
  353TMC3    H2 5347   4.717   1.166   0.411 -0.7342 -0.2259 -0.2056
  353TMC3    C7 5348   4.457   1.217   0.339  0.7939  0.5540 -0.0339
  353TMC3    C8 5349   0.150   1.330   0.527 -0.4677 -0.4062  0.4667
  353TMC3    O1 5350   4.465   1.138   0.431  0.2312  0.1621 -0.8693
  353TMC3    O2 5351   0.222   1.429   0.537  0.4831  0.0622 -0.3678
  354TMC3    C1 5352   0.917   2.998  13.695  0.1174  0.2552  0.3005
  354TMC3    C2 5353   1.013   3.091  13.676  1.1165  0.0260 -0.2413
  354TMC3    C3 5354   0.990   3.183  13.574 -0.0469  0.3485 -0.4169
  354TMC3    C4 5355   0.808   2.992  13.611 -0.7277 -0.4381 -0.2811
  354TMC3    C5 5356   0.793   3.081  13.506 -0.5393 -0.5539 -0.8700
  354TMC3    C6 5357   0.883   3.170  13.487 -0.9998  0.9288  0.1182
  354TMC3     C 5358   0.921   2.901  13.800 -0.4640 -0.3762  0.3906
  354TMC3     O 5359   0.812   2.869  13.848 -0.9856  0.2925  0.0063
  354TMC3     H 5360   1.102   3.099  13.738  0.8108 -0.9520  0.3176
  354TMC3    H1 5361   0.749   2.901  13.602  0.1902 -1.1378  0.8495
  354TMC3    H2 5362   0.857   3.238  13.407  0.5796 -1.0391 -2.0787
  354TMC3    C7 5363   0.695   3.059  13.403 -0.2628  0.1196 -0.2484
  354TMC3    C8 5364   1.071   3.308  13.562  0.6641 -0.8550  0.5784
  354TMC3    O1 5365   0.584   3.025  13.437  0.0795 -0.1150 -0.4110
  354TMC3    O2 5366   1.152   3.343  13.646  0.6651  0.3581  0.1463
  355MPD2     C 5367   1.435   3.635  11.881  0.5107  0.2185 -0.0679
  355MPD2    C1 5368   1.573   3.639  11.860  0.2778  0.6479 -0.4810
  355MPD2    C2 5369   1.652   3.590  11.965  0.0397  0.4254  0.0380
  355MPD2    C3 5370   1.599   3.555  12.089 -0.4087 -0.1373 -0.5151
  355MPD2    C4 5371   1.458   3.563  12.107 -0.3843  0.6412  1.1659
  355MPD2    C5 5372   1.378   3.596  11.998 -0.0783 -0.7700  0.3616
  355MPD2     H 5373   1.759   3.587  11.947  0.0569 -1.4685  0.4041
  355MPD2    H1 5374   1.411   3.545  12.204 -0.9844 -0.1682  0.7285
  355MPD2    H2 5375   1.368   3.666  11.802 -1.8326 -0.5660  1.6090
  355MPD2    H3 5376   1.272   3.589  12.018 -0.1159 -0.4425  0.2870
  355MPD2     N 5377   1.694   3.525  12.191  0.6473  0.3846  0.3901
  355MPD2    H5 5378   1.790   3.506  12.163  0.5403  3.3342 -1.9504
  355MPD2    N1 5379   1.634   3.700  11.747  0.2601  0.0276  0.1898
  355MPD2    H7 5380   1.732   3.724  11.753 -0.4623  3.1947 -0.8462
  356TMC3    C1 5381   1.784   3.515  12.416 -0.2804 -0.1648 -0.1567
  356TMC3    C2 5382   1.901   3.512  12.342  0.1514 -0.2045 -0.2432
  356TMC3    C3 5383   1.981   3.620  12.326  0.1379  0.1683  0.0637
  356TMC3    C4 5384   1.771   3.611  12.518  0.6484  0.3720  0.3023
  356TMC3    C5 5385   1.854   3.719  12.508  0.3199  0.1042 -0.4439
  356TMC3    C6 5386   1.954   3.730  12.411  0.0568  0.1361 -0.0705
  356TMC3     C 5387   1.667   3.521  12.327 -0.5919  0.7273  0.5547
  356TMC3     O 5388   1.563   3.532  12.389  0.5665  0.4300 -0.2099
  356TMC3     H 5389   1.933   3.415  12.307 -1.3143 -0.9287  0.4065
  356TMC3    H1 5390   1.688   3.610  12.587  0.5751 -2.3980  0.1909
  356TMC3    H2 5391   2.033   3.804  12.414  0.4990 -0.3030 -0.8526
  356TMC3    C7 5392   1.850   3.812  12.619  0.3757  0.0139  0.0767
  356TMC3    C8 5393   2.042   3.634  12.195  0.1744  0.3753 -0.9694
  356TMC3    O1 5394   1.781   3.777  12.715 -0.4731  0.4913 -0.4496
  356TMC3    O2 5395   2.006   3.546  12.116  0.0312  0.4619 -0.1643
  357MPD2     C 5396   4.549   3.556   1.515 -0.2217 -0.3834 -0.5056
  357MPD2    C1 5397   4.622   3.469   1.435  0.8090  0.8371  0.2650
  357MPD2    C2 5398   4.558   3.402   1.335 -0.6761  0.0391 -0.6091
  357MPD2    C3 5399   4.418   3.398   1.326  0.3289  0.1236  0.5212
  357MPD2    C4 5400   4.346   3.482   1.407  0.4757 -0.3613  0.0616
  357MPD2    C5 5401   4.407   3.568   1.496  0.4230  0.4443 -0.2949
  357MPD2     H 5402   4.621   3.352   1.263 -0.1052  1.0443 -0.8079
  357MPD2    H1 5403   4.239   3.487   1.389  0.3933 -2.9415 -0.0324
  357MPD2    H2 5404   4.598   3.624   1.584 -0.3497 -0.0433 -0.7487
  357MPD2    H3 5405   4.352   3.634   1.562  1.8888 -0.6514  2.0267
  357MPD2     N 5406   4.349   3.319   1.227 -0.7302  0.0753  0.2615
  357MPD2    H5 5407   4.252   3.346   1.213 -0.9091 -0.0899  1.2265
  357MPD2    N1 5408   0.029   3.466   1.461 -0.5186 -0.1942 -0.0583
  357MPD2    H7 5409   0.064   3.528   1.534  0.8591 -0.6847 -0.3011
  358TMC3    C1 5410   0.254   3.398   1.428  0.1838  0.2156  0.3553
  358TMC3    C2 5411   0.354   3.379   1.348 -0.2631  0.0830 -0.1383
  358TMC3    C3 5412   0.474   3.342   1.391 -0.1777 -0.3929  0.3311
  358TMC3    C4 5413   0.266   3.360   1.560  0.0633  0.1523  0.6845
  358TMC3    C5 5414   0.390   3.322   1.607 -0.1211  0.3800 -0.2376
  358TMC3    C6 5415   0.496   3.319   1.522 -0.6087 -0.0488  0.2732
  358TMC3     C 5416   0.123   3.411   1.377 -0.1076  0.2378 -0.7358
  358TMC3     O 5417   0.111   3.363   1.264  0.1493 -0.1134 -0.3130
  358TMC3     H 5418   0.332   3.407   1.245  1.8527  1.3691 -0.2390
  358TMC3    H1 5419   0.180   3.345   1.624  0.2381  0.7822  1.0703
  358TMC3    H2 5420   0.569   3.247   1.557  1.7552  0.9601 -2.5737
  358TMC3    C7 5421   0.405   3.287   1.744 -0.6431  0.7296 -0.3427
  358TMC3    C8 5422   0.576   3.328   1.296 -0.1860 -0.0213  0.5256
  358TMC3    O1 5423   0.305   3.253   1.803  0.7372 -0.6263 -0.2176
  358TMC3    O2 5424   0.541   3.308   1.180 -0.1342  0.1194 -0.4027
  359MPD2     C 5425   0.463   2.646  12.124  0.1361 -1.1439 -0.1748
  359MPD2    C1 5426   0.503   2.594  12.241  0.2435  0.1800 -0.1459
  359MPD2    C2 5427   0.415   2.574  12.343 -0.0673  0.3971  1.1404
  359MPD2    C3 5428   0.283   2.619  12.336  0.7682  0.1704  0.3609
  359MPD2    C4 5429   0.248   2.667  12.211  0.1869 -0.2119 -0.0078
  359MPD2    C5 5430   0.328   2.677  12.108 -0.6982  1.2752 -0.0670
  359MPD2     H 5431   0.453   2.534  12.437  1.7495 -1.4902 -0.3901
  359MPD2    H1 5432   0.153   2.717  12.192  0.1236 -0.6427 -0.8424
  359MPD2    H2 5433   0.525   2.670  12.038 -0.6119  2.0080  0.1616
  359MPD2    H3 5434   0.299   2.717  12.011 -1.7655 -1.3063 -0.7965
  359MPD2     N 5435   0.195   2.608  12.442  0.2006 -0.1248  0.0261
  359MPD2    H5 5436   0.096   2.626  12.428  0.6166  0.1002 -2.5846
  359MPD2    N1 5437   0.639   2.563  12.270  0.2731 -0.5760  0.7557
  359MPD2    H7 5438   0.653   2.502  12.350 -0.2338 -1.8966 -0.1651
  360TMC3    C1 5439   0.861   2.508  12.229 -0.0232 -0.0542 -0.1494
  360TMC3    C2 5440   0.963   2.592  12.192 -0.1821  0.2924 -0.6843
  360TMC3    C3 5441   1.072   2.536  12.126 -0.0822  0.2066  0.1958
  360TMC3    C4 5442   0.862   2.371  12.213 -0.2226 -0.1363 -0.1921
  360TMC3    C5 5443   0.974   2.322  12.150 -0.4916 -0.0749 -0.1092
  360TMC3    C6 5444   1.079   2.399  12.106 -0.1043 -0.3878  0.0379
  360TMC3     C 5445   0.743   2.573  12.184  0.8500 -0.2861  0.3742
  360TMC3     O 5446   0.752   2.632  12.077  0.1207 -0.5130  0.0935
  360TMC3     H 5447   0.941   2.698  12.181 -1.0573  0.3141  1.4233
  360TMC3    H1 5448   0.771   2.311  12.218 -0.8930  0.9766  1.0823
  360TMC3    H2 5449   1.155   2.362  12.038 -0.1748  0.3134 -0.4285
  360TMC3    C7 5450   0.941   2.208  12.073 -0.0009 -0.0457 -0.1652
  360TMC3    C8 5451   1.144   2.622  12.031  0.4437 -0.2503  0.4475
  360TMC3    O1 5452   0.887   2.111  12.129 -0.6188 -0.3652 -0.5128
  360TMC3    O2 5453   1.090   2.733  12.020  0.0526 -0.1751 -0.0891
  361MPD2     C 5454   3.214   0.999  16.049  0.4039  0.0996  0.1969
  361MPD2    C1 5455   3.202   1.039  16.178 -0.7355 -0.3045  0.0237
  361MPD2    C2 5456   3.270   0.978  16.278  0.0009  0.6884 -0.1425
  361MPD2    C3 5457   3.363   0.880  16.246 -0.2447  0.0520 -0.2761
  361MPD2    C4 5458   3.383   0.848  16.118 -0.2455 -0.3517  0.1711
  361MPD2    C5 5459   3.298   0.901  16.022 -0.7080  0.1719 -0.9045
  361MPD2     H 5460   3.250   1.001  16.382 -1.0056  2.4088 -0.7305
  361MPD2    H1 5461   3.456   0.775  16.084 -0.6187 -0.4116 -0.5141
  361MPD2    H2 5462   3.138   1.030  15.978  2.1209  0.6626 -1.4060
  361MPD2    H3 5463   3.309   0.868  15.920  1.8856 -1.3903 -0.0996
  361MPD2     N 5464   3.434   0.814  16.353  0.5329  0.6400  0.5023
  361MPD2    H5 5465   3.495   0.736  16.330 -0.7093 -1.0475  2.9619
  361MPD2    N1 5466   3.118   1.149  16.213  0.2178 -0.0137 -0.3728
  361MPD2    H7 5467   3.099   1.144  16.313  0.2727 -2.1983 -0.4787
  362TMC3    C1 5468   2.987   1.357  16.193 -0.4335  0.1971 -0.1635
  362TMC3    C2 5469   2.947   1.341  16.322  0.0679 -0.8396  0.1732
  362TMC3    C3 5470   2.853   1.435  16.362 -0.1234 -0.4364 -0.1901
  362TMC3    C4 5471   2.939   1.449  16.104 -0.3850  0.4007  0.1503
  362TMC3    C5 5472   2.846   1.538  16.148 -0.2128  0.3062  0.0226
  362TMC3    C6 5473   2.788   1.519  16.272 -0.0685  0.1914  0.1220
  362TMC3     C 5474   3.077   1.256  16.133 -0.1824  0.2054  0.3489
  362TMC3     O 5475   3.123   1.279  16.025 -0.0784  0.5958 -0.6855
  362TMC3     H 5476   2.997   1.275  16.392  0.5212  0.8046  1.3919
  362TMC3    H1 5477   2.982   1.463  16.005 -0.9653 -0.3227 -0.2081
  362TMC3    H2 5478   2.717   1.593  16.308 -2.1524 -0.9138 -1.6969
  362TMC3    C7 5479   2.839   1.671  16.092 -0.8845 -0.3299 -0.0454
  362TMC3    C8 5480   2.834   1.437  16.510 -0.0550 -0.4825 -0.3957
  362TMC3    O1 5481   2.764   1.751  16.145 -0.2710 -0.2851 -0.1037
  362TMC3    O2 5482   2.899   1.367  16.581  0.2094 -0.1585 -0.0777
  363TMC3    C1 5483   1.941   4.163   9.130 -0.6304  0.1660  0.0537
  363TMC3    C2 5484   1.947   4.125   9.260  0.3511  0.5459 -0.5424
  363TMC3    C3 5485   1.837   4.156   9.342 -0.0375  0.0978 -0.5339
  363TMC3    C4 5486   1.828   4.227   9.081  0.1289 -0.0725  0.2027
  363TMC3    C5 5487   1.722   4.254   9.159  0.4757 -0.6103  0.2931
  363TMC3    C6 5488   1.721   4.215   9.292 -0.4857  0.6767 -0.0538
  363TMC3     C 5489   2.070   4.156   9.045 -0.7245  0.6067 -0.1047
  363TMC3     O 5490   2.175   4.129   9.099 -0.2035  0.3375 -0.5296
  363TMC3     H 5491   2.046   4.103   9.299  0.3920  0.1804 -0.8512
  363TMC3    H1 5492   1.825   4.246   8.974  2.2694  0.2700  0.1968
  363TMC3    H2 5493   1.638   4.240   9.358 -0.0038  1.2973  0.3198
  363TMC3    C7 5494   1.623   4.344   9.121 -0.2775 -0.0954 -0.0804
  363TMC3    C8 5495   1.829   4.125   9.485  0.4597 -0.4430  0.2423
  363TMC3    O1 5496   1.516   4.354   9.180  0.3910 -0.0419  0.2142
  363TMC3    O2 5497   1.745   4.190   9.549 -0.0306 -0.3106 -0.2216
  364MPD2     C 5498   4.662   3.521  10.533 -0.1211 -0.6597  0.8412
  364MPD2    C1 5499   0.030   3.438  10.495 -0.3844 -0.0381  0.3057
  364MPD2    C2 5500   0.022   3.303  10.528 -0.0928  0.7117  0.6456
  364MPD2    C3 5501   4.669   3.255  10.619  0.7657 -0.2761 -0.9051
  364MPD2    C4 5502   4.576   3.347  10.666 -0.5173 -0.2384  0.3480
  364MPD2    C5 5503   4.574   3.473  10.622  0.2104 -0.2339 -0.2910
  364MPD2     H 5504   0.094   3.234  10.487  1.0797  1.8439  0.7929
  364MPD2    H1 5505   4.520   3.317  10.753  0.1600  0.7764  1.1366
  364MPD2    H2 5506   4.668   3.627  10.512  0.0980 -1.0031 -0.8274
  364MPD2    H3 5507   4.490   3.535  10.652  0.3527 -0.8941  1.4538
  364MPD2     N 5508   4.676   3.131  10.685  0.7137  0.2734  0.0395
  364MPD2    H5 5509   4.640   3.127  10.780 -0.1290  0.6440 -0.2591
  364MPD2    N1 5510   0.132   3.496  10.423 -0.0034  0.1380  0.5950
  364MPD2    H7 5511   0.114   3.576  10.363  1.8151 -0.9989 -1.4844
  365TMC3    C1 5512   0.357   3.505  10.333  0.1557  0.2399  0.8945
  365TMC3    C2 5513   0.447   3.434  10.254  0.1897 -0.1455  0.2440
  365TMC3    C3 5514   0.563   3.495  10.218 -0.5501  0.0072 -0.3566
  365TMC3    C4 5515   0.390   3.629  10.388  0.1791  0.1176  0.5123
  365TMC3    C5 5516   0.507   3.684  10.347 -0.4875 -0.4893  0.5606
  365TMC3    C6 5517   0.589   3.620  10.259  0.5075 -0.4861 -0.6512
  365TMC3     C 5518   0.253   3.433  10.398  0.2003  0.0914 -1.2964
  365TMC3     O 5519   0.281   3.320  10.414 -0.3301 -0.1479  0.5801
  365TMC3     H 5520   0.409   3.346  10.204  0.9738 -0.1348 -0.3728
  365TMC3    H1 5521   0.328   3.680  10.460  0.4389  1.1643  0.0007
  365TMC3    H2 5522   0.667   3.678  10.211  1.8239 -1.1087  0.7539
  365TMC3    C7 5523   0.561   3.804  10.396  0.5911  0.4473 -0.0964
  365TMC3    C8 5524   0.656   3.423  10.131 -0.1207  0.4601 -0.8206
  365TMC3    O1 5525   0.656   3.853  10.341  0.3457 -0.0585 -0.3555
  365TMC3    O2 5526   0.735   3.494  10.067  0.0643 -0.0636  0.5107
  366MPD2     C 5527   3.614   3.969  15.426  0.5900 -0.4518 -0.6793
  366MPD2    C1 5528   3.698   4.022  15.325  0.2652  0.6852  0.5033
  366MPD2    C2 5529   3.790   3.937  15.273  0.2628 -0.0256  0.1790
  366MPD2    C3 5530   3.807   3.807  15.316  0.4993  0.0050 -0.1324
  366MPD2    C4 5531   3.730   3.760  15.419 -0.0509  0.5232  0.2330
  366MPD2    C5 5532   3.630   3.837  15.468 -0.5049 -0.1398  0.1590
  366MPD2     H 5533   3.838   3.977  15.184 -2.2364 -1.9730 -2.0112
  366MPD2    H1 5534   3.746   3.655  15.439  1.3478  0.5479 -0.7897
  366MPD2    H2 5535   3.540   4.035  15.470  2.2807  0.5328  0.7061
  366MPD2    H3 5536   3.570   3.786  15.541 -2.0032  0.4090 -0.6828
  366MPD2     N 5537   3.909   3.718  15.275 -0.2437 -0.2700 -0.0642
  366MPD2    H5 5538   3.896   3.621  15.302 -2.2102  0.7130  2.4813
  366MPD2    N1 5539   3.687   4.146  15.271  0.6711 -0.0394  0.5921
  366MPD2    H7 5540   3.758   4.181  15.209 -0.9386  1.7010 -0.2780
  367TMC3    C1 5541   3.630   4.362  15.251 -0.3873  0.5365  0.1774
  367TMC3    C2 5542   3.754   4.405  15.291  0.5424  0.1304  0.0747
  367TMC3    C3 5543   3.775   4.537  15.325 -0.1175 -0.1058  0.0512
  367TMC3    C4 5544   3.533   4.454  15.239  0.3646 -0.2776  0.3156
  367TMC3    C5 5545   3.560   4.583  15.270  0.4892  0.2970 -0.4014
  367TMC3    C6 5546   3.681   4.632  15.311  0.2845  0.1285 -0.7812
  367TMC3     C 5547   3.586   4.235  15.299 -1.1326  0.1234 -0.0605
  367TMC3     O 5548   3.480   4.222  15.366  0.3805  0.1974  0.1539
  367TMC3     H 5549   3.826   4.337  15.335 -1.2796 -1.4871  0.5933
  367TMC3    H1 5550   3.431   4.419  15.229  0.0945  0.6964 -0.4289
  367TMC3    H2 5551   3.703   4.733  15.344 -0.6725  0.1286 -0.1611
  367TMC3    C7 5552   3.478   4.683  15.200 -0.4009  0.1555 -0.2866
  367TMC3    C8 5553   3.886   4.564  15.413  0.5165  0.1698 -0.0019
  367TMC3    O1 5554   3.544   0.053  15.168  0.6504 -0.1796 -0.0895
  367TMC3    O2 5555   3.986   4.497  15.394  0.0632  0.4737 -0.4941
  368MPD2     C 5556   4.469   1.711  13.632  0.0250  0.3942 -0.0007
  368MPD2    C1 5557   4.508   1.842  13.608  0.5124  0.7380  0.7226
  368MPD2    C2 5558   4.640   1.876  13.597  0.1532  0.3883 -0.0694
  368MPD2    C3 5559   0.003   1.781  13.598 -0.3173  0.0676 -0.3434
  368MPD2    C4 5560   4.706   1.645  13.614  0.2508  0.0022  0.2292
  368MPD2    C5 5561   4.570   1.613  13.632  0.3888 -0.1275 -0.6987
  368MPD2     H 5562   4.670   1.980  13.590  1.9030 -0.2226 -1.7240
  368MPD2    H1 5563   0.044   1.564  13.620 -1.8544 -1.7491  1.3695
  368MPD2    H2 5564   4.368   1.670  13.632  0.3986 -0.5303 -0.3594
  368MPD2    H3 5565   4.541   1.509  13.647  1.0775 -0.1516  0.4588
  368MPD2     N 5566   0.142   1.808  13.590  0.1168 -0.3008  0.3512
  368MPD2    H5 5567   0.213   1.735  13.591  0.8020  0.4089  3.0686
  368MPD2    N1 5568   4.400   1.931  13.576 -0.3128  0.2166 -1.2216
  368MPD2    H7 5569   4.306   1.898  13.595  0.5169 -1.4273  0.0235
  369TMC3    C1 5570   4.284   2.097  13.460  0.4036  0.2657 -0.2714
  369TMC3    C2 5571   4.288   2.184  13.350 -0.0829  0.1670  0.0307
  369TMC3    C3 5572   4.171   2.208  13.280 -0.8006  0.8233 -0.2331
  369TMC3    C4 5573   4.163   2.045  13.499  0.0374  0.0627 -0.4392
  369TMC3    C5 5574   4.051   2.063  13.420 -0.3135 -0.4262 -0.0793
  369TMC3    C6 5575   4.051   2.149  13.315  0.0489 -0.2611  0.0760
  369TMC3     C 5576   4.410   2.046  13.503  0.0970  0.0322 -0.9159
  369TMC3     O 5577   4.520   2.091  13.469  0.9152 -0.1011 -0.4447
  369TMC3     H 5578   4.386   2.221  13.320 -0.5389  0.7144 -0.7822
  369TMC3    H1 5579   4.153   1.974  13.581 -1.8258  3.4544  2.2853
  369TMC3    H2 5580   3.972   2.158  13.241  1.0769  2.8470 -0.6547
  369TMC3    C7 5581   3.949   1.966  13.448 -0.1600 -0.9537 -0.4108
  369TMC3    C8 5582   4.168   2.312  13.176 -0.3601  0.1494 -0.3479
  369TMC3    O1 5583   3.915   1.947  13.564 -0.5173  0.1617 -0.2539
  369TMC3    O2 5584   4.075   2.306  13.094 -0.0240  0.0830  0.2975
  370TMC3    C1 5585   4.168   2.088  16.153  1.1891 -0.5673 -0.4594
  370TMC3    C2 5586   4.077   2.004  16.212 -0.6191  0.2002 -0.3544
  370TMC3    C3 5587   4.052   1.875  16.170  0.2014 -0.6080 -0.0677
  370TMC3    C4 5588   4.227   2.033  16.038  0.1510 -0.4190 -0.9226
  370TMC3    C5 5589   4.197   1.908  15.990  0.3646 -0.2676  0.3053
  370TMC3    C6 5590   4.114   1.822  16.055  0.2826 -0.1183  0.1596
  370TMC3     C 5591   4.252   2.160  16.249  0.4813  0.0816 -0.5194
  370TMC3     O 5592   4.256   2.110  16.362 -0.4530  0.1122 -0.0591
  370TMC3     H 5593   4.041   2.036  16.310 -0.5993  0.4233 -0.4195
  370TMC3    H1 5594   4.300   2.096  15.989 -0.9393 -0.4179 -2.5123
  370TMC3    H2 5595   4.075   1.730  16.014 -0.0818 -0.5927  1.5937
  370TMC3    C7 5596   4.290   1.856  15.892 -0.3815 -0.6633  0.1564
  370TMC3    C8 5597   4.003   1.782  16.265  0.7139 -0.4616  0.1408
  370TMC3    O1 5598   4.344   1.938  15.820 -0.3151  0.9781 -0.3195
  370TMC3    O2 5599   4.029   1.660  16.248 -0.1441 -0.0169  0.1523
  371TMC3    C1 5600   0.927   0.174  15.660  0.0330  0.9074  0.2313
  371TMC3    C2 5601   0.806   0.189  15.722 -1.3293 -0.2437  0.6664
  371TMC3    C3 5602   0.764   0.316  15.755 -0.0484  0.8015 -0.0423
  371TMC3    C4 5603   0.995   0.288  15.621 -0.5297 -0.9976 -0.7781
  371TMC3    C5 5604   0.946   0.413  15.656 -0.0856  0.5452 -0.3192
  371TMC3    C6 5605   0.831   0.434  15.723 -0.1377 -0.4380  0.3538
  371TMC3     C 5606   0.999   0.048  15.669  0.1107  0.4725  0.1205
  371TMC3     O 5607   1.105   0.056  15.612  0.4191  0.1921  0.0785
  371TMC3     H 5608   0.747   0.099  15.737 -0.7690 -0.4475  1.6450
  371TMC3    H1 5609   1.073   0.275  15.547  0.8290 -1.3814  0.7257
  371TMC3    H2 5610   0.796   0.533  15.748  0.7969 -0.6311  2.3988
  371TMC3    C7 5611   0.995   0.534  15.579 -0.0067 -0.1141 -0.1414
  371TMC3    C8 5612   0.627   0.316  15.817  0.2266 -0.1976 -0.0994
  371TMC3    O1 5613   0.911   0.619  15.553  0.3474 -0.3641 -0.0856
  371TMC3    O2 5614   0.571   0.205  15.822 -0.0471 -0.3385 -0.1700
  372MPD2     C 5615   0.383   1.915  13.891 -0.0159  0.0804 -0.1613
  372MPD2    C1 5616   0.482   1.828  13.847 -0.4396  0.1013 -0.7919
  372MPD2    C2 5617   0.457   1.694  13.859  0.8628 -0.0258 -0.5813
  372MPD2    C3 5618   0.349   1.647  13.916  0.2705  0.2701 -0.1003
  372MPD2    C4 5619   0.247   1.731  13.950  0.2236  0.8661 -0.4079
  372MPD2    C5 5620   0.263   1.867  13.929  1.1872  0.2869 -0.3917
  372MPD2     H 5621   0.535   1.624  13.830 -0.8526 -2.6210  1.0256
  372MPD2    H1 5622   0.153   1.701  13.996  0.8319 -0.1616  0.1699
  372MPD2    H2 5623   0.388   2.023  13.878 -3.0553  0.3356  0.6810
  372MPD2    H3 5624   0.190   1.936  13.970  0.9065  0.2845 -0.8945
  372MPD2     N 5625   0.350   1.509  13.940  0.4508  0.6121 -0.4619
  372MPD2    H5 5626   0.433   1.455  13.916  1.6728  2.6412 -0.7452
  372MPD2    N1 5627   0.605   1.869  13.790 -0.2971  0.1188 -0.1468
  372MPD2    H7 5628   0.664   1.799  13.747  1.4180  1.0187  0.7361
  373TMC3    C1 5629   0.258   1.292  14.003  0.6758 -0.8082  0.5946
  373TMC3    C2 5630   0.160   1.222  14.069 -0.0289 -0.2021  0.1360
  373TMC3    C3 5631   0.153   1.085  14.065  0.3201  0.0385  0.3858
  373TMC3    C4 5632   0.346   1.220  13.928 -0.1936 -0.3540 -0.2287
  373TMC3    C5 5633   0.327   1.089  13.903  0.3567  0.1703  0.3742
  373TMC3    C6 5634   0.237   1.016  13.981  0.0106 -0.2176  0.4499
  373TMC3     C 5635   0.250   1.435  14.008  0.0625 -0.1858  0.4598
  373TMC3     O 5636   0.171   1.483  14.085 -0.2582 -0.3526  0.5411
  373TMC3     H 5637   0.097   1.279  14.136  0.1655  2.5806 -2.0199
  373TMC3    H1 5638   0.413   1.273  13.861 -1.7156  0.2167 -1.2942
  373TMC3    H2 5639   0.243   0.908  13.991 -3.3303 -0.3304  1.2211
  373TMC3    C7 5640   0.444   1.016  13.855  0.5588 -0.3986  0.1542
  373TMC3    C8 5641   0.071   1.029  14.170  0.7849  0.5100 -0.2077
  373TMC3    O1 5642   0.545   1.084  13.833  0.4272  0.4339 -0.1520
  373TMC3    O2 5643   4.703   1.089  14.200  0.6878 -0.0135 -0.2695
  374TMC3    C1 5644   0.374   1.727   9.532 -0.0648  0.3374  0.3414
  374TMC3    C2 5645   0.424   1.841   9.592 -0.1759 -0.2719 -0.0347
  374TMC3    C3 5646   0.490   1.925   9.512 -0.5985 -0.0503  0.2927
  374TMC3    C4 5647   0.373   1.700   9.395 -0.0590  0.2396  0.1042
  374TMC3    C5 5648   0.430   1.803   9.318 -0.0188 -0.2030  0.6803
  374TMC3    C6 5649   0.484   1.918   9.375  0.5702  0.0796 -0.2287
  374TMC3     C 5650   0.316   1.620   9.610 -0.0475  0.7048  0.0080
  374TMC3     O 5651   0.244   1.538   9.557  0.2317 -0.8487  0.2444
  374TMC3     H 5652   0.410   1.866   9.697  1.4113  2.9975 -0.6128
  374TMC3    H1 5653   0.340   1.607   9.350  0.1069  0.6967 -0.9481
  374TMC3    H2 5654   0.535   1.988   9.310 -1.1080  0.0764 -1.5316
  374TMC3    C7 5655   0.445   1.782   9.175 -0.0487  0.3749  0.5143
  374TMC3    C8 5656   0.553   2.039   9.573 -0.3919  0.1719  0.3209
  374TMC3    O1 5657   0.511   1.864   9.111  0.0791 -0.8824 -0.3256
  374TMC3    O2 5658   0.546   2.137   9.500  0.3127  0.8021 -0.0275
  375MPD2     C 5659   0.928   2.206  17.382 -0.7346  0.2216 -0.0594
  375MPD2    C1 5660   0.850   2.266  17.292  0.9510 -0.6055  0.1289
  375MPD2    C2 5661   0.892   2.278  17.160 -0.0498 -0.8492  0.2284
  375MPD2    C3 5662   1.013   2.213  17.122  0.4443  0.3008 -0.9459
  375MPD2    C4 5663   1.081   2.141  17.216  0.1488 -0.5350 -0.1437
  375MPD2    C5 5664   1.039   2.139  17.345 -0.9343  0.2740  0.7007
  375MPD2     H 5665   0.851   2.354  17.095  0.8799  0.5182  1.2336
  375MPD2    H1 5666   1.174   2.090  17.194  0.0279 -0.8333  0.0350
  375MPD2    H2 5667   0.910   2.217  17.488  1.5446 -0.7085  0.4218
  375MPD2    H3 5668   1.083   2.078  17.423 -0.0115  0.7520  0.5609
  375MPD2     N 5669   1.068   2.230  16.994  0.2259  1.0413  0.1138
  375MPD2    H5 5670   1.163   2.198  16.976 -0.1884  0.1683 -0.5185
  375MPD2    N1 5671   0.721   2.317  17.313  0.1606  0.4137 -0.2921
  375MPD2    H7 5672   0.673   2.360  17.234 -1.0682  0.6643  0.5845
  376TMC3    C1 5673   1.065   2.290  16.766 -1.0604 -0.1671 -0.6575
  376TMC3    C2 5674   1.196   2.333  16.769 -0.3662 -0.5804  0.0924
  376TMC3    C3 5675   1.238   2.404  16.666  0.2567 -0.3713 -0.1051
  376TMC3    C4 5676   0.985   2.313  16.653  0.1828 -0.4800  0.4340
  376TMC3    C5 5677   1.041   2.376  16.546  0.5414  0.1067  0.2035
  376TMC3    C6 5678   1.165   2.434  16.557 -0.5258  0.1304  0.3447
  376TMC3     C 5679   0.987   2.272  16.894 -0.4841 -0.8031 -0.4089
  376TMC3     O 5680   0.862   2.266  16.878 -0.3916  0.2239  0.5634
  376TMC3     H 5681   1.258   2.321  16.857 -0.9982 -1.2217  0.4444
  376TMC3    H1 5682   0.890   2.263  16.636 -1.0556  2.4413 -1.0563
  376TMC3    H2 5683   1.220   2.474  16.472 -0.5320 -0.8140 -0.1034
  376TMC3    C7 5684   0.961   2.407  16.426 -0.4962 -0.1182  0.5298
  376TMC3    C8 5685   1.369   2.429  16.650 -0.8882 -0.0139 -0.0032
  376TMC3    O1 5686   0.996   2.500  16.358 -0.1214 -0.7316  0.2282
  376TMC3    O2 5687   1.409   2.531  16.590 -0.1169 -0.6126 -0.0240
  377MPD2     C 5688   3.195   1.736  12.861 -0.5453 -0.3891 -0.3459
  377MPD2    C1 5689   3.269   1.827  12.932  0.5034  0.0426  0.0564
  377MPD2    C2 5690   3.308   1.790  13.065  0.1602  0.0644 -0.0791
  377MPD2    C3 5691   3.256   1.679  13.122 -0.0350 -0.7338  0.2013
  377MPD2    C4 5692   3.173   1.594  13.052  0.0517 -0.6641 -0.2113
  377MPD2    C5 5693   3.144   1.620  12.916 -0.3676 -0.5513 -0.2470
  377MPD2     H 5694   3.374   1.847  13.129  0.9821 -1.1026  0.1171
  377MPD2    H1 5695   3.117   1.510  13.093  0.0762  0.0309  1.2446
  377MPD2    H2 5696   3.170   1.763  12.759 -1.0172  3.2345  0.7413
  377MPD2    H3 5697   3.062   1.566  12.871 -0.4249  0.3584 -1.2292
  377MPD2     N 5698   3.284   1.642  13.255  0.3342  0.5074 -0.1712
  377MPD2    H5 5699   3.247   1.550  13.277  0.6196  0.3805 -0.2096
  377MPD2    N1 5700   3.331   1.931  12.863 -0.5250 -0.1565 -0.5579
  377MPD2    H7 5701   3.293   1.953  12.772 -1.8483  1.1823  0.3011
  378TMC3    C1 5702   3.524   2.118  12.573 -0.3953 -0.4999  0.5099
  378TMC3    C2 5703   3.445   2.091  12.678  0.2690  0.4224 -0.1965
  378TMC3    C3 5704   3.494   2.097  12.807 -0.0108  0.5328 -0.0168
  378TMC3    C4 5705   3.657   2.156  12.592  0.2756 -0.6095 -0.1858
  378TMC3    C5 5706   3.706   2.157  12.716  0.3935  0.0640  0.0007
  378TMC3    C6 5707   3.624   2.131  12.829  0.7154  0.3802 -0.4473
  378TMC3     C 5708   3.475   2.108  12.432 -0.2424 -0.2902 -0.6245
  378TMC3     O 5709   3.365   2.054  12.426  0.1888 -0.1047  0.1988
  378TMC3     H 5710   3.339   2.073  12.659  0.7190 -1.4890 -0.9614
  378TMC3    H1 5711   3.713   2.190  12.505 -1.2578  2.1733 -0.0995
  378TMC3    H2 5712   3.671   2.118  12.927 -0.0757 -0.9731 -0.2559
  378TMC3    C7 5713   3.851   2.159  12.738 -0.2144 -0.3862 -0.2656
  378TMC3    C8 5714   3.431   2.017  12.914  0.2957 -1.2990 -0.2521
  378TMC3    O1 5715   3.891   2.154  12.855 -0.4494 -0.0065 -0.1478
  378TMC3    O2 5716   3.486   2.024  13.023 -0.0791 -0.1182 -0.3314
  379MPD2     C 5717   0.284   4.476  16.295 -0.3594 -0.1476  0.5192
  379MPD2    C1 5718   0.161   4.417  16.288 -0.1590  0.3971 -0.1778
  379MPD2    C2 5719   0.138   4.304  16.368  0.2565  0.3420 -0.4873
  379MPD2    C3 5720   0.238   4.247  16.449 -0.5665  0.1414  0.5756
  379MPD2    C4 5721   0.362   4.308  16.455  0.0308  0.3937 -0.4637
  379MPD2    C5 5722   0.386   4.421  16.375 -0.3707  0.6635  0.4527
  379MPD2     H 5723   0.038   4.260  16.370  0.3966 -0.0421 -2.0681
  379MPD2    H1 5724   0.445   4.270  16.514 -1.5626 -0.4421  1.2137
  379MPD2    H2 5725   0.311   4.559  16.230  1.5225 -1.0067  0.2070
  379MPD2    H3 5726   0.485   4.463  16.366  0.1614 -0.5968  0.3675
  379MPD2     N 5727   0.221   4.145  16.538 -0.1441  0.1832  0.7813
  379MPD2    H5 5728   0.295   4.120  16.603 -0.7223  0.0064  1.3786
  379MPD2    N1 5729   0.073   4.460  16.186  0.1542 -0.4570  0.1058
  379MPD2    H7 5730   0.097   4.543  16.132 -2.0956  0.7803  0.9665
  380TMC3    C1 5731   4.617   4.495  16.055 -0.0441  0.6323 -0.5014
  380TMC3    C2 5732   4.697   4.494  15.941  0.1749 -0.2647 -0.4799
  380TMC3    C3 5733   4.633   4.519  15.818  1.0185 -0.0594  0.1587
  380TMC3    C4 5734   4.480   4.517  16.052  0.0985 -0.4128 -0.5470
  380TMC3    C5 5735   4.432   4.557  15.930 -1.0608  0.2358 -0.6233
  380TMC3    C6 5736   4.503   4.558  15.807 -0.0756  0.3339 -0.2434
  380TMC3     C 5737   4.672   4.433  16.178  0.8117 -0.5213  0.2007
  380TMC3     O 5738   4.607   4.366  16.256  0.2744 -0.9297 -0.3380
  380TMC3     H 5739   0.064   4.454  15.938  1.8468  3.7884  0.2985
  380TMC3    H1 5740   4.406   4.511  16.131 -2.0714 -2.0861 -2.6977
  380TMC3    H2 5741   4.467   4.611  15.720  0.9640  2.5174  0.6509
  380TMC3    C7 5742   4.299   4.605  15.928 -0.0388 -0.1644  0.2662
  380TMC3    C8 5743   4.713   4.512  15.698  0.4586  0.1293  0.7616
  380TMC3    O1 5744   4.260   4.642  16.038 -0.4983 -0.0966  0.5462
  380TMC3    O2 5745   0.103   4.526  15.699 -0.9138 -0.1262  0.6427
  381TMC3    C1 5746   4.191   0.998  16.101 -0.3814 -0.0430 -0.9728
  381TMC3    C2 5747   4.265   1.117  16.082  0.9289 -0.2241 -0.1829
  381TMC3    C3 5748   4.240   1.222  16.175 -0.1677  0.5696  0.3688
  381TMC3    C4 5749   4.102   0.985  16.205  0.6579 -0.1826 -0.7251
  381TMC3    C5 5750   4.084   1.091  16.293 -0.1620 -0.6828 -0.6865
  381TMC3    C6 5751   4.147   1.209  16.278  0.0561 -0.2594  0.0091
  381TMC3     C 5752   4.204   0.890  15.999  0.2540 -0.2611 -0.0063
  381TMC3     O 5753   4.252   0.920  15.890 -0.2927 -0.2245  0.3003
  381TMC3     H 5754   4.340   1.129  16.004  2.2419 -2.5263  0.7278
  381TMC3    H1 5755   4.041   0.897  16.218  0.0125  0.2808 -0.6380
  381TMC3    H2 5756   4.123   1.296  16.338 -0.2420 -0.8268  0.7093
  381TMC3    C7 5757   4.032   1.045  16.417  0.1020 -0.3146  0.0580
  381TMC3    C8 5758   4.335   1.328  16.174  0.2924  0.2099 -0.2378
  381TMC3    O1 5759   4.055   0.928  16.445  0.1858 -0.2466 -0.3871
  381TMC3    O2 5760   4.430   1.304  16.101 -0.1025 -0.6328 -0.2973
  382MPD2     C 5761   4.014   3.340  17.146  0.1777 -0.2717  0.1023
  382MPD2    C1 5762   3.947   3.406  17.245  0.1282  0.2145  0.9142
  382MPD2    C2 5763   3.830   3.353  17.292 -0.0292  0.3327  0.7484
  382MPD2    C3 5764   3.774   3.238  17.237  0.6975  0.1362 -0.1987
  382MPD2    C4 5765   3.830   3.185  17.129 -0.2522 -0.0823 -0.4346
  382MPD2    C5 5766   3.950   3.229  17.086  0.6940 -0.2303 -0.3014
  382MPD2     H 5767   3.778   3.404  17.372  3.4759  1.5608  2.2347
  382MPD2    H1 5768   3.789   3.100  17.076 -0.5670 -1.1157  1.4598
  382MPD2    H2 5769   4.113   3.368  17.112  0.1785 -0.7281 -0.2577
  382MPD2    H3 5770   3.999   3.170  17.009  2.1489 -0.5484  0.8685
  382MPD2     N 5771   3.655   3.179  17.281  0.3549 -0.0760 -0.5972
  382MPD2    H5 5772   3.614   3.106  17.224 -0.0716 -0.0772 -0.2873
  382MPD2    N1 5773   3.994   3.531  17.295 -0.3138 -0.2197  1.3349
  382MPD2    H7 5774   3.949   3.564  17.380 -2.7753 -1.6388  0.5606
  383TMC3    C1 5775   3.475   3.114  17.418 -0.3752  0.4086 -0.4913
  383TMC3    C2 5776   3.413   3.064  17.311  0.2141 -0.0636 -0.1023
  383TMC3    C3 5777   3.328   2.963  17.338 -0.3553  0.2380 -0.6574
  383TMC3    C4 5778   3.457   3.061  17.549  0.2447  0.4590 -0.6594
  383TMC3    C5 5779   3.374   2.965  17.564 -0.2419 -0.0883 -0.6924
  383TMC3    C6 5780   3.303   2.907  17.465  0.1531  0.1394 -0.8513
  383TMC3     C 5781   3.585   3.214  17.401  0.7842  0.2390  0.0238
  383TMC3     O 5782   3.615   3.283  17.501  0.1114  0.5313 -0.4520
  383TMC3     H 5783   3.424   3.119  17.218 -0.1492  3.1550  1.7710
  383TMC3    H1 5784   3.520   3.097  17.630  0.9711 -2.0478 -0.1163
  383TMC3    H2 5785   3.243   2.820  17.491  0.3362  0.2594 -0.0165
  383TMC3    C7 5786   3.332   2.934  17.699  0.6798  0.3084 -0.2742
  383TMC3    C8 5787   3.214   2.969  17.253 -0.5466 -0.6261  0.7768
  383TMC3    O1 5788   3.293   2.822  17.716 -0.0617  0.0602  0.3399
  383TMC3    O2 5789   3.174   3.080  17.220 -0.1404 -0.1364  0.3417
  384MPD2     C 5790   0.143   0.189  11.633  0.1448  0.2455 -0.5711
  384MPD2    C1 5791   0.198   0.206  11.754  0.2642 -0.2653  0.2201
  384MPD2    C2 5792   0.330   0.251  11.759  0.1921 -0.5561  0.1676
  384MPD2    C3 5793   0.414   0.253  11.651  0.4869 -0.6066 -0.0712
  384MPD2    C4 5794   0.355   0.231  11.527 -0.0977 -0.4034  0.4232
  384MPD2    C5 5795   0.216   0.206  11.520  0.4348  0.2622 -0.5139
  384MPD2     H 5796   0.378   0.260  11.856  0.1912 -0.3185  0.1467
  384MPD2    H1 5797   0.413   0.239  11.436 -1.0008 -3.0548 -0.3896
  384MPD2    H2 5798   0.040   0.158  11.626  0.3166 -0.3049 -0.6711
  384MPD2    H3 5799   0.178   0.179  11.422 -1.7751  1.3328  0.0411
  384MPD2     N 5800   0.549   0.279  11.673 -0.5395  0.5128 -0.3886
  384MPD2    H5 5801   0.565   0.289  11.772 -0.6976 -0.8016 -0.2382
  384MPD2    N1 5802   0.113   0.171  11.861  0.7325 -0.4982 -0.2188
  384MPD2    H7 5803   0.018   0.143  11.842  0.4171  0.7007 -0.3955
  385TMC3    C1 5804   0.780   0.273  11.655  0.2312  0.0624 -0.8531
  385TMC3    C2 5805   0.837   0.149  11.660 -0.3246 -0.4616  0.2218
  385TMC3    C3 5806   0.902   0.098  11.769  0.4460  0.1908 -0.2403
  385TMC3    C4 5807   0.777   0.348  11.767  1.3009  0.6774 -0.9988
  385TMC3    C5 5808   0.836   0.302  11.884 -0.1102 -0.4708 -0.1363
  385TMC3    C6 5809   0.903   0.179  11.881 -0.4129 -0.4325  0.6027
  385TMC3     C 5810   0.657   0.265  11.585  0.2539  0.0856 -0.4554
  385TMC3     O 5811   0.657   0.201  11.483 -0.1921  0.3407  0.0305
  385TMC3     H 5812   0.839   0.096  11.566  0.0789 -1.0558  0.5658
  385TMC3    H1 5813   0.722   0.440  11.755 -0.3550 -0.3696 -1.3222
  385TMC3    H2 5814   0.958   0.137  11.963 -0.7282  1.3444  1.7184
  385TMC3    C7 5815   0.743   0.322  11.992  0.0375  0.3380  0.0430
  385TMC3    C8 5816   0.894   4.688  11.794 -0.1423  0.4809  0.7462
  385TMC3    O1 5817   0.632   0.361  11.961  0.3719 -0.2113 -0.1935
  385TMC3    O2 5818   0.923   4.648  11.908  0.6687 -0.2044  0.7740
  386TMC3    C1 5819   0.294   2.163  12.174 -0.5663  0.2251  0.4144
  386TMC3    C2 5820   0.319   2.089  12.061 -0.2628  0.4372  0.0953
  386TMC3    C3 5821   0.273   2.144  11.945  0.6007  0.4786  0.3163
  386TMC3    C4 5822   0.234   2.284  12.176 -0.3861 -0.3458  0.0005
  386TMC3    C5 5823   0.178   2.324  12.059 -0.2691  0.5697 -0.1918
  386TMC3    C6 5824   0.196   2.260  11.944  0.5537  0.4913 -0.0931
  386TMC3     C 5825   0.369   2.123  12.289  0.3493  0.1282 -0.3280
  386TMC3     O 5826   0.428   2.212  12.350  0.0293  0.5408 -0.9629
  386TMC3     H 5827   0.376   1.997  12.063  0.5919  1.0319  3.6314
  386TMC3    H1 5828   0.215   2.330  12.272  1.0562  0.5423 -0.1492
  386TMC3    H2 5829   0.141   2.284  11.853  0.0103  1.2250  0.4259
  386TMC3    C7 5830   0.049   2.385  12.076  0.7129  0.3815  0.2441
  386TMC3    C8 5831   0.304   2.083  11.820 -0.7903 -0.9003 -0.3075
  386TMC3    O1 5832   4.730   2.350  12.179  0.4921 -0.7020  0.0421
  386TMC3    O2 5833   0.244   2.125  11.725 -0.4922 -0.2861 -0.0376
  387MPD2     C 5834   2.390   2.413  10.225  0.3144  0.7740  0.0589
  387MPD2    C1 5835   2.459   2.383  10.343  0.4503 -0.1597  0.4399
  387MPD2    C2 5836   2.526   2.260  10.351  0.0827  0.1905 -0.3669
  387MPD2    C3 5837   2.532   2.178  10.238 -0.5659  0.3224 -0.8688
  387MPD2    C4 5838   2.449   2.204  10.131 -0.3921  0.0080  0.5540
  387MPD2    C5 5839   2.385   2.319  10.130 -0.4325 -0.1633  0.1877
  387MPD2     H 5840   2.588   2.244  10.438  1.4894  3.4590 -0.7426
  387MPD2    H1 5841   2.442   2.137  10.046  2.6442 -0.0709  0.3790
  387MPD2    H2 5842   2.351   2.513  10.209 -1.3265 -0.1669 -1.7786
  387MPD2    H3 5843   2.343   2.338  10.032  1.9817  1.8373 -0.4302
  387MPD2     N 5844   2.617   2.070  10.243 -0.0883 -0.3303  0.0510
  387MPD2    H5 5845   2.664   2.055  10.332 -2.6970 -1.1659  1.2878
  387MPD2    N1 5846   2.482   2.476  10.442  0.3974 -0.4832 -0.4624
  387MPD2    H7 5847   2.543   2.443  10.516  0.5288  0.1203 -0.3004
  388TMC3    C1 5848   2.559   2.672  10.525 -0.2807  0.0136  0.4066
  388TMC3    C2 5849   2.521   2.794  10.572 -0.4560 -0.3833 -0.1408
  388TMC3    C3 5850   2.625   2.863  10.632  0.7543  0.6129 -0.3423
  388TMC3    C4 5851   2.688   2.626  10.528  0.6157 -1.0690  0.2764
  388TMC3    C5 5852   2.785   2.701  10.583 -0.2998 -0.1040  0.4717
  388TMC3    C6 5853   2.755   2.820  10.632  0.4972  0.8983  0.5671
  388TMC3     C 5854   2.462   2.609  10.438  0.1206  0.6127 -0.3237
  388TMC3     O 5855   2.391   2.676  10.365 -0.1910  0.1797  0.1281
  388TMC3     H 5856   2.425   2.843  10.563  0.8854  2.3814  0.6479
  388TMC3    H1 5857   2.714   2.540  10.468  0.7223  0.0336 -1.2869
  388TMC3    H2 5858   2.838   2.884  10.661  1.9194 -0.3895 -0.6874
  388TMC3    C7 5859   2.925   2.649  10.593  0.4051  0.1176 -0.4281
  388TMC3    C8 5860   2.595   2.974  10.722  0.6894  0.0514 -0.1453
  388TMC3    O1 5861   3.016   2.722  10.627  0.3414 -0.2892  0.5438
  388TMC3    O2 5862   2.693   3.036  10.756 -0.0774  0.6304  0.5185
  389MPD2     C 5863   2.545   0.374  10.809 -0.2318  0.0397  0.4105
  389MPD2    C1 5864   2.508   0.292  10.711 -0.2113 -0.3183  0.5547
  389MPD2    C2 5865   2.451   0.166  10.744 -0.4635  0.0116  0.1817
  389MPD2    C3 5866   2.433   0.131  10.874  0.3446  0.1560  0.2534
  389MPD2    C4 5867   2.466   0.218  10.975  0.0600 -0.0329  0.2084
  389MPD2    C5 5868   2.519   0.340  10.941 -0.8035 -0.5074  0.6890
  389MPD2     H 5869   2.425   0.098  10.664 -0.9615 -1.0187  1.2158
  389MPD2    H1 5870   2.442   0.199  11.078 -0.9007  0.8717  0.1446
  389MPD2    H2 5871   2.604   0.465  10.797  0.1436 -0.4832 -1.6584
  389MPD2    H3 5872   2.541   0.401  11.028 -2.3432 -1.7700  1.9739
  389MPD2     N 5873   2.350   0.027  10.909 -0.2670 -0.2404  0.1385
  389MPD2    H5 5874   2.325   0.021  11.007 -0.4481 -1.7593  0.0043
  389MPD2    N1 5875   2.526   0.342  10.576  0.0858  0.7277  0.4580
  389MPD2    H7 5876   2.580   0.428  10.571  0.7028  0.3168  0.1173
  390TMC3    C1 5877   2.230   4.562  10.888 -0.0019  0.5243  0.3762
  390TMC3    C2 5878   2.315   4.502  10.984 -0.1320  0.0702 -0.3277
  390TMC3    C3 5879   2.307   4.368  11.001  0.3723  0.4396  0.1464
  390TMC3    C4 5880   2.141   4.484  10.816 -0.9721 -0.3689  0.1973
  390TMC3    C5 5881   2.153   4.353  10.823  0.2411 -0.7702  0.5751
  390TMC3    C6 5882   2.245   4.297  10.905  0.1572  0.0124  0.0928
  390TMC3     C 5883   2.281   4.676  10.822 -0.0834  0.7727 -0.5292
  390TMC3     O 5884   2.266   4.686  10.701  0.2189  0.0436  0.3022
  390TMC3     H 5885   2.371   4.562  11.055 -0.6563  1.2549 -0.9177
  390TMC3    H1 5886   2.070   4.525  10.745 -0.6569 -0.0024  0.0948
  390TMC3    H2 5887   2.255   4.189  10.900 -0.8853 -0.1191  1.1352
  390TMC3    C7 5888   2.035   4.273  10.821  0.0834  0.2660 -0.1335
  390TMC3    C8 5889   2.262   4.323  11.132 -0.1669 -0.6201  0.4685
  390TMC3    O1 5890   2.037   4.158  10.776 -0.0862  0.2985 -0.1857
  390TMC3    O2 5891   2.255   4.203  11.145 -0.4466 -0.0193  0.3107
  391MPD2     C 5892   1.110   1.335  10.841  0.3191  0.3510  0.0176
  391MPD2    C1 5893   1.148   1.462  10.894 -0.4780 -0.3747  0.8650
  391MPD2    C2 5894   1.159   1.568  10.805 -0.0557  0.1078  0.4018
  391MPD2    C3 5895   1.120   1.553  10.673  0.1552  0.2705 -0.7525
  391MPD2    C4 5896   1.083   1.428  10.631 -0.4973 -0.5189 -0.2073
  391MPD2    C5 5897   1.070   1.322  10.713 -0.0660 -0.9266  0.2293
  391MPD2     H 5898   1.188   1.665  10.842  1.4207  0.1178 -0.7916
  391MPD2    H1 5899   1.060   1.414  10.526  2.7412 -0.9439 -0.8505
  391MPD2    H2 5900   1.106   1.251  10.910  1.5810  0.3325  0.0660
  391MPD2    H3 5901   1.032   1.227  10.675 -3.0842  0.5635 -0.4919
  391MPD2     N 5902   1.127   1.667  10.584 -0.4058  0.0843  0.0500
  391MPD2    H5 5903   1.173   1.753  10.612  2.8112 -0.3391 -3.9384
  391MPD2    N1 5904   1.166   1.471  11.033  0.4410 -0.6468 -0.1960
  391MPD2    H7 5905   1.155   1.390  11.092  0.0760  0.2001  0.9163
  392TMC3    C1 5906   1.071   1.812  10.396  0.4185  0.0733  0.0868
  392TMC3    C2 5907   1.001   1.830  10.276 -0.4093 -0.2170  0.3744
  392TMC3    C3 5908   1.013   1.950  10.218 -0.0746  0.1582 -0.7481
  392TMC3    C4 5909   1.167   1.897  10.433  0.0547 -0.8730  0.6531
  392TMC3    C5 5910   1.184   2.023  10.369  0.1874 -0.4417  0.0671
  392TMC3    C6 5911   1.101   2.050  10.259  0.4501 -0.5062 -0.3805
  392TMC3     C 5912   1.061   1.680  10.470  0.4490  0.3928  0.6638
  392TMC3     O 5913   0.977   1.608  10.422  0.1233  0.0614 -0.1955
  392TMC3     H 5914   0.929   1.756  10.245 -0.8588 -0.0889  1.1086
  392TMC3    H1 5915   1.230   1.875  10.519  0.1993  1.0683  1.0466
  392TMC3    H2 5916   1.131   2.128  10.190  1.8551 -0.0748  0.7244
  392TMC3    C7 5917   1.270   2.121  10.425 -0.0075  0.3269  0.5774
  392TMC3    C8 5918   0.951   1.965  10.092 -0.4782 -0.0216 -0.4615
  392TMC3    O1 5919   1.311   2.097  10.536  0.4461  0.9453  0.0795
  392TMC3    O2 5920   0.939   1.862  10.031  0.7522  0.9199 -0.2992
  393TMC3    C1 5921   1.447   4.580  10.016  0.0242 -0.1266 -0.4720
  393TMC3    C2 5922   1.411   4.598  10.143  0.4871  0.0214 -0.3426
  393TMC3    C3 5923   1.468   4.505  10.234  0.1341 -0.1743 -0.9114
  393TMC3    C4 5924   1.531   4.486   9.964 -0.5811 -0.2240 -0.1887
  393TMC3    C5 5925   1.592   4.403  10.058 -0.0556 -0.1396 -0.1735
  393TMC3    C6 5926   1.559   4.414  10.193  0.2236  0.5051 -0.5092
  393TMC3     C 5927   1.354   4.643   9.914 -0.6079  0.1352  0.9725
  393TMC3     O 5928   1.393   4.649   9.798  0.0060 -0.3512 -0.2795
  393TMC3     H 5929   1.344   4.680  10.168  1.0440  0.9056 -1.7571
  393TMC3    H1 5930   1.533   4.473   9.857 -2.3950  0.7844 -0.3465
  393TMC3    H2 5931   1.611   4.350  10.264  0.0699  1.7341  0.7074
  393TMC3    C7 5932   1.731   4.361  10.033  0.5082 -0.0998 -0.2510
  393TMC3    C8 5933   1.441   4.533  10.377  0.5654  1.0825 -0.1838
  393TMC3    O1 5934   1.804   4.358  10.128  0.0972 -0.5376 -0.6906
  393TMC3    O2 5935   1.430   4.440  10.453  0.4583  0.4079  0.1915
  394TMC3    C1 5936   2.554   0.309  10.338  0.5845 -0.3814  0.3376
  394TMC3    C2 5937   2.565   0.207  10.245  0.4610  0.6542  0.1026
  394TMC3    C3 5938   2.637   0.230  10.137 -0.3092 -0.2469  0.1354
  394TMC3    C4 5939   2.613   0.432  10.326 -0.0079 -0.2397  0.1618
  394TMC3    C5 5940   2.679   0.454  10.210 -0.2094 -0.0949  0.4598
  394TMC3    C6 5941   2.699   0.352  10.119  0.3989  0.8461 -0.3782
  394TMC3     C 5942   2.493   0.267  10.461 -0.4151 -0.3946  0.3969
  394TMC3     O 5943   2.416   0.169  10.459 -0.6066  0.5311  0.9633
  394TMC3     H 5944   2.522   0.110  10.270  3.3208 -0.9327 -1.0965
  394TMC3    H1 5945   2.602   0.504  10.406 -0.5023 -0.2305  0.0849
  394TMC3    H2 5946   2.751   0.368  10.026 -1.1172 -0.7690 -1.5083
  394TMC3    C7 5947   2.704   0.593  10.184 -0.3158  0.3760 -0.4775
  394TMC3    C8 5948   2.662   0.128  10.037 -0.1388 -0.1351  0.7757
  394TMC3    O1 5949   2.651   0.669  10.260  0.0156  0.1728  0.4566
  394TMC3    O2 5950   2.758   0.153   9.964 -0.5217  0.2682  0.2272
  395TMC3    C1 5951   2.146   2.194  14.789 -0.4150 -0.3372 -0.0178
  395TMC3    C2 5952   2.021   2.236  14.822  0.1956 -0.2363 -0.6367
  395TMC3    C3 5953   2.001   2.376  14.822  0.2714  0.8491  0.0290
  395TMC3    C4 5954   2.253   2.284  14.764 -0.1767  0.3556 -0.5472
  395TMC3    C5 5955   2.229   2.422  14.777 -0.6996  0.1684 -0.1924
  395TMC3    C6 5956   2.105   2.467  14.808  0.5505 -0.0274  0.3459
  395TMC3     C 5957   2.192   2.077  14.859 -0.1373 -0.0721  0.9350
  395TMC3     O 5958   2.275   2.009  14.798 -0.3321 -0.4293  0.5148
  395TMC3     H 5959   1.945   2.162  14.843  1.5289 -1.1404  0.9909
  395TMC3    H1 5960   2.355   2.250  14.755 -1.0764 -2.3519 -0.5096
  395TMC3    H2 5961   2.081   2.572  14.826 -0.8747 -0.1164 -1.0417
  395TMC3    C7 5962   2.329   2.517  14.737 -0.3661 -0.3646 -0.1863
  395TMC3    C8 5963   1.873   2.425  14.869 -0.1083 -0.5449  0.0246
  395TMC3    O1 5964   2.305   2.636  14.774  0.5325 -0.1588  0.1885
  395TMC3    O2 5965   1.868   2.538  14.912  0.4167 -0.7865  0.8290
  396MPD2     C 5966   1.737   3.263  17.307  0.5629 -0.2737 -0.3767
  396MPD2    C1 5967   1.864   3.274  17.346 -0.0658 -0.1565 -0.1871
  396MPD2    C2 5968   1.935   3.373  17.273  0.0232 -0.5614 -0.5738
  396MPD2    C3 5969   1.876   3.450  17.179  0.0230  0.0130 -0.4135
  396MPD2    C4 5970   1.740   3.444  17.163 -0.3333  0.5968  0.1610
  396MPD2    C5 5971   1.674   3.353  17.233 -0.2778 -0.2421 -0.4458
  396MPD2     H 5972   2.039   3.386  17.300 -0.0870 -0.6952 -0.0849
  396MPD2    H1 5973   1.684   3.504  17.091  2.0255 -0.2349 -2.3622
  396MPD2    H2 5974   1.675   3.185  17.350 -1.1805  0.7585 -1.0554
  396MPD2    H3 5975   1.567   3.339  17.225  0.0679 -2.0724 -1.8850
  396MPD2     N 5976   1.958   3.543  17.108 -0.2107 -0.0257  0.3074
  396MPD2    H5 5977   2.051   3.557  17.146 -1.2179  0.1043  2.6852
  396MPD2    N1 5978   1.919   3.177  17.443 -0.2032  0.8906  0.0457
  396MPD2    H7 5979   1.868   3.090  17.447  0.2503  0.7454  2.9721
  397TMC3    C1 5980   2.130   3.064  17.483 -0.2866  0.0383  0.1785
  397TMC3    C2 5981   2.216   3.086  17.381 -0.2228 -0.6607  0.0761
  397TMC3    C3 5982   2.208   3.021  17.258  0.0803 -0.9342 -0.0269
  397TMC3    C4 5983   2.037   2.970  17.460  0.5000  0.4645 -0.3066
  397TMC3    C5 5984   2.033   2.890  17.347  0.2181 -0.2340 -0.7619
  397TMC3    C6 5985   2.112   2.921  17.237  0.6786  0.3328 -0.8584
  397TMC3     C 5986   2.049   3.187  17.491 -1.2826 -0.3749 -0.0172
  397TMC3     O 5987   2.116   3.289  17.507 -0.6428 -0.3504 -0.1900
  397TMC3     H 5988   2.275   3.177  17.392  0.5409 -1.1223 -0.1673
  397TMC3    H1 5989   1.974   2.953  17.547  0.3280 -3.2596 -1.1412
  397TMC3    H2 5990   2.094   2.873  17.141 -0.4514 -1.1539  0.1113
  397TMC3    C7 5991   1.925   2.794  17.321 -0.2843  0.1466 -0.5426
  397TMC3    C8 5992   2.221   3.112  17.144  0.2392  0.0498  0.2599
  397TMC3    O1 5993   1.894   2.766  17.204  0.5962 -0.4762  0.1058
  397TMC3    O2 5994   2.132   3.103  17.066  0.7128 -0.4905 -0.6203
  398MPD2     C 5995   4.471   4.475  17.730  0.0714 -0.2181  1.1141
  398MPD2    C1 5996   4.580   4.407   0.034  0.1845  0.9754  0.1454
  398MPD2    C2 5997   4.678   4.464   0.111 -0.5367 -1.3479 -0.1315
  398MPD2    C3 5998   4.668   4.594   0.145  0.2023 -0.0954 -0.2785
  398MPD2    C4 5999   4.552   4.660   0.115  0.1935 -0.2813 -0.1244
  398MPD2    C5 6000   4.454   4.598   0.049  0.4132  0.5985 -0.1203
  398MPD2     H 6001   0.028   4.405   0.148 -0.6052 -1.8540 -0.7959
  398MPD2    H1 6002   4.556   0.034   0.131  0.0349 -0.1470 -0.9737
  398MPD2    H2 6003   4.390   4.427  17.678  0.8579  1.1236 -1.3619
  398MPD2    H3 6004   4.364   4.652   0.022 -2.5578 -4.2796  0.0961
  398MPD2     N 6005   0.049   4.648   0.210 -0.5458  0.2976  0.1593
  398MPD2    H5 6006   0.127   4.583   0.221  1.1083  2.4292  1.0415
  398MPD2    N1 6007   4.605   4.281  17.721  0.6153 -0.5169  0.0164
  398MPD2    H7 6008   4.698   4.245   0.011  1.0086 -0.3740 -1.4079
  399TMC3    C1 6009   4.601   4.105  17.567 -0.4239 -1.0412 -0.7639
  399TMC3    C2 6010   4.714   4.146  17.506  0.2744 -0.6953 -0.7392
  399TMC3    C3 6011   0.051   4.051  17.444 -0.1631 -0.3112  0.2478
  399TMC3    C4 6012   4.572   3.970  17.585  0.3032 -0.4580 -0.5589
  399TMC3    C5 6013   4.657   3.882  17.523  0.0070  0.0087  0.0331
  399TMC3    C6 6014   0.029   3.919  17.450  0.0778 -0.6536  0.2977
  399TMC3     C 6015   4.527   4.200  17.642 -0.4146 -0.5755 -0.2644
  399TMC3     O 6016   4.410   4.216  17.609 -0.0220  0.2917  0.0755
  399TMC3     H 6017   0.013   4.249  17.509 -0.7831 -0.4380  1.8163
  399TMC3    H1 6018   4.486   3.945  17.647  0.4075 -0.7313 -0.5233
  399TMC3    H2 6019   0.087   3.864  17.377 -1.4628 -2.5428  0.4992
  399TMC3    C7 6020   4.598   3.749  17.514 -0.5020 -0.4145 -0.0995
  399TMC3    C8 6021   0.112   4.089  17.316  0.4667  0.6810 -0.0910
  399TMC3    O1 6022   4.508   3.716  17.591  0.0335 -0.3789  0.1576
  399TMC3    O2 6023   0.210   4.030  17.273  0.1591 -0.6640 -0.4612
  400TMC3    C1 6024   3.407   2.751  16.858 -0.2498 -0.2299 -0.3735
  400TMC3    C2 6025   3.283   2.756  16.801  0.3775 -0.3737 -0.3640
  400TMC3    C3 6026   3.226   2.879  16.767  0.1008  0.7924 -0.3069
  400TMC3    C4 6027   3.474   2.870  16.884  0.1157 -0.2361 -0.6331
  400TMC3    C5 6028   3.415   2.987  16.853  0.0746 -0.0011 -0.0286
  400TMC3    C6 6029   3.288   2.993  16.796 -0.3933  0.7505  0.4391
  400TMC3     C 6030   3.401   2.663  16.976 -0.5557 -0.0654 -1.4871
  400TMC3     O 6031   3.318   2.576  16.985  0.1005  0.0235 -0.2075
  400TMC3     H 6032   3.235   2.661  16.780  2.4779 -1.5600  0.2042
  400TMC3    H1 6033   3.581   2.857  16.897 -0.1434  0.0184  1.7186
  400TMC3    H2 6034   3.247   3.088  16.764 -0.7491  0.3272 -0.3801
  400TMC3    C7 6035   3.459   3.095  16.936  0.3680 -0.1209 -0.1053
  400TMC3    C8 6036   3.080   2.885  16.733  0.2383  0.4350  0.3360
  400TMC3    O1 6037   3.560   3.087  17.003  0.4176  0.6544 -0.2273
  400TMC3    O2 6038   3.025   2.990  16.755  0.6499  0.1105  0.4888
  401MPD2     C 6039   1.712   1.253  17.720  0.2560  0.3100  0.4518
  401MPD2    C1 6040   1.690   1.239   0.116 -0.7072  0.3880 -0.1427
  401MPD2    C2 6041   1.665   1.109   0.169  0.3487  0.0953  0.5165
  401MPD2    C3 6042   1.647   0.998   0.086  0.2927  0.4777  0.0041
  401MPD2    C4 6043   1.642   1.028  17.687  0.2358 -0.3092 -0.3598
  401MPD2    C5 6044   1.687   1.145  17.637 -0.2643 -1.0179  0.4423
  401MPD2     H 6045   1.648   1.106   0.276  4.2656 -1.3220  1.1216
  401MPD2    H1 6046   1.630   0.945  17.618 -2.0872 -0.6493  0.4522
  401MPD2    H2 6047   1.761   1.341  17.678  2.9911 -0.6003  1.7068
  401MPD2    H3 6048   1.696   1.164  17.530 -0.8379  1.2167  0.8025
  401MPD2     N 6049   1.612   0.870   0.146  0.3724 -0.1980 -0.1459
  401MPD2    H5 6050   1.620   0.862   0.247 -0.6269 -1.2313 -0.1508
  401MPD2    N1 6051   1.691   1.348   0.207 -0.1762  0.1318  0.6705
  401MPD2    H7 6052   1.661   1.331   0.303  0.0857 -1.8361  0.3982
  402TMC3    C1 6053   1.507   0.663   0.163  0.6017  0.1631 -0.2595
  402TMC3    C2 6054   1.462   0.702   0.282 -0.2266 -0.0337  0.0995
  402TMC3    C3 6055   1.450   0.606   0.379 -0.0524  0.0837  0.4156
  402TMC3    C4 6056   1.532   0.530   0.133 -0.1511  0.7118 -0.0529
  402TMC3    C5 6057   1.518   0.435   0.232  0.0859 -0.1816 -0.3020
  402TMC3    C6 6058   1.477   0.470   0.358  0.2753  0.4825 -0.1626
  402TMC3     C 6059   1.573   0.754   0.079  0.4772 -0.3936 -0.1534
  402TMC3     O 6060   1.576   0.725  17.693  0.4009 -0.2067  0.2074
  402TMC3     H 6061   1.448   0.806   0.310 -0.9530 -0.0696 -0.1415
  402TMC3    H1 6062   1.561   0.500   0.033  0.9526 -0.2194  0.5433
  402TMC3    H2 6063   1.441   0.397   0.430 -0.3883 -0.9517 -1.9759
  402TMC3    C7 6064   1.576   0.303   0.208 -0.5536 -0.0497  0.4414
  402TMC3    C8 6065   1.419   0.643   0.519  0.5469 -0.3788 -0.2483
  402TMC3    O1 6066   1.580   0.248   0.099 -0.6373  0.1600  0.2679
  402TMC3    O2 6067   1.442   0.554   0.601 -0.0351 -0.9250  0.7266
  403MPD2     C 6068   0.497   0.140  13.392 -0.5103  0.6910 -0.5845
  403MPD2    C1 6069   0.516   0.012  13.438 -0.5354 -0.0370 -0.3905
  403MPD2    C2 6070   0.637   4.716  13.494 -0.2470  0.8269  0.3108
  403MPD2    C3 6071   0.739   0.072  13.484  0.1300  0.0045 -0.3542
  403MPD2    C4 6072   0.724   0.200  13.428 -0.1545  0.5818  0.0734
  403MPD2    C5 6073   0.600   0.234  13.395 -0.0458  0.2028 -0.0724
  403MPD2     H 6074   0.657   4.620  13.540 -1.5294  0.4666  0.1025
  403MPD2    H1 6075   0.798   0.278  13.446 -0.4800  0.8698  0.1603
  403MPD2    H2 6076   0.401   0.172  13.354 -2.5360 -2.6761  1.7572
  403MPD2    H3 6077   0.577   0.333  13.359 -0.9130 -1.3324 -3.7961
  403MPD2     N 6078   0.857   0.046  13.564 -0.4895 -0.1569  0.0231
  403MPD2    H5 6079   0.845   4.705  13.632 -0.0211 -0.1343  0.1358
  403MPD2    N1 6080   0.411   4.650  13.437 -0.0796 -0.0868  0.2475
  403MPD2    H7 6081   0.320   4.688  13.414 -0.2753 -0.6923  0.0250
  404TMC3    C1 6082   0.293   4.448  13.441 -0.6922 -1.1575 -0.2553
  404TMC3    C2 6083   0.245   4.346  13.519  0.6000  0.1204  0.2572
  404TMC3    C3 6084   0.160   4.261  13.459  0.1047 -0.5997 -0.0570
  404TMC3    C4 6085   0.253   4.471  13.312 -0.8689 -0.3412 -0.1584
  404TMC3    C5 6086   0.164   4.377  13.260  0.2916  0.2636  0.4061
  404TMC3    C6 6087   0.120   4.267  13.328  0.5672  0.1432  0.0948
  404TMC3     C 6088   0.418   4.518  13.474 -0.0774  0.0320  0.0683
  404TMC3     O 6089   0.503   4.439  13.519 -0.5565  0.0511  0.0620
  404TMC3     H 6090   0.293   4.326  13.614 -2.4914 -0.3034  1.7391
  404TMC3    H1 6091   0.303   4.544  13.250 -2.2592 -0.0760 -0.9624
  404TMC3    H2 6092   0.058   4.185  13.295 -1.4903  1.1255  1.4757
  404TMC3    C7 6093   0.118   4.407  13.125 -0.6158 -0.6352  0.5424
  404TMC3    C8 6094   0.156   4.133  13.526  0.2519  0.1262 -0.7948
  404TMC3    O1 6095   0.125   4.524  13.087  0.4502  0.4651  0.0197
  404TMC3    O2 6096   0.212   4.043  13.464  0.5866 -0.1998 -0.3323
  405MPD2     C 6097   0.722   0.298  14.140 -0.2832 -0.3700 -0.0998
  405MPD2    C1 6098   0.671   0.167  14.137  0.3012 -0.8914  0.6212
  405MPD2    C2 6099   0.536   0.155  14.096  0.1088 -0.0891  0.0904
  405MPD2    C3 6100   0.457   0.264  14.053  0.3572  0.0623 -0.6406
  405MPD2    C4 6101   0.516   0.396  14.061 -0.1636 -0.5880  0.6555
  405MPD2    C5 6102   0.640   0.403  14.114  0.3663 -0.5546  0.1787
  405MPD2     H 6103   0.502   0.054  14.078 -0.6059 -0.1868  1.9386
  405MPD2    H1 6104   0.471   0.492  14.041 -0.5152 -0.2028  3.3784
  405MPD2    H2 6105   0.820   0.316  14.183  0.1027 -0.6799 -0.8389
  405MPD2    H3 6106   0.690   0.499  14.115 -2.0682  0.7088  0.5688
  405MPD2     N 6107   0.324   0.238  14.015  0.0450 -0.5509 -0.1993
  405MPD2    H5 6108   0.289   0.143  14.016 -1.1185 -0.1295 -1.7709
  405MPD2    N1 6109   0.755   0.060  14.179  0.2050  0.1571  0.3361
  405MPD2    H7 6110   0.843   0.084  14.223 -0.1211  1.1298  0.4630
  406TMC3    C1 6111   4.636   0.311  14.156 -0.5161 -0.3595  1.1369
  406TMC3    C2 6112   4.627   0.179  14.194  0.2350  0.5332 -0.2701
  406TMC3    C3 6113   4.721   0.097  14.141 -0.5233  0.9968 -0.5644
  406TMC3    C4 6114   0.009   0.352  14.080  0.5125  0.2204  0.4716
  406TMC3    C5 6115   0.101   0.272  14.021 -0.1006  0.0625 -0.7150
  406TMC3    C6 6116   0.097   0.142  14.063  0.0657  0.5733  0.4713
  406TMC3     C 6117   4.521   0.400  14.171 -0.7493  0.9001 -0.7839
  406TMC3     O 6118   4.514   0.496  14.091 -0.1023  0.2222  0.0112
  406TMC3     H 6119   4.540   0.140  14.246 -0.4067 -0.9904 -2.4883
  406TMC3    H1 6120   0.016   0.460  14.079  1.1658  0.1619 -1.2498
  406TMC3    H2 6121   0.168   0.069  14.027 -1.2745 -0.4442 -0.1333
  406TMC3    C7 6122   0.228   0.333  14.000  0.2633 -0.7706 -0.4169
  406TMC3    C8 6123   4.726   4.701  14.212 -0.5966 -0.3028 -0.1297
  406TMC3    O1 6124   0.238   0.454  14.015 -0.4308  0.2433  0.0495
  406TMC3    O2 6125   4.620   4.662  14.257  0.2441  0.2435 -0.2218
  407MPD2     C 6126   2.363   1.957   9.597 -0.0689 -0.4361  0.6386
  407MPD2    C1 6127   2.409   1.930   9.720 -1.1041 -0.0464 -0.1984
  407MPD2    C2 6128   2.335   1.979   9.830 -0.0986  0.7735  0.4096
  407MPD2    C3 6129   2.209   2.044   9.810  0.5176 -0.3572 -0.1533
  407MPD2    C4 6130   2.166   2.071   9.674  0.4533  0.5389 -0.3732
  407MPD2    C5 6131   2.244   2.022   9.577 -0.1356 -0.5671 -1.6080
  407MPD2     H 6132   2.379   1.962   9.928 -0.6816 -1.2178  0.3180
  407MPD2    H1 6133   2.069   2.114   9.652 -0.2285 -1.7307 -1.7803
  407MPD2    H2 6134   2.416   1.928   9.507 -1.2809  2.8539 -1.0933
  407MPD2    H3 6135   2.210   2.041   9.476 -1.1126 -0.9936 -1.3629
  407MPD2     N 6136   2.132   2.103   9.912  0.4240  0.2507 -0.0389
  407MPD2    H5 6137   2.056   2.158   9.873  0.5857 -0.7690 -1.7897
  407MPD2    N1 6138   2.547   1.910   9.748 -0.1223 -0.7220 -0.0496
  407MPD2    H7 6139   2.585   1.935   9.839 -1.8256 -0.3501  0.5497
  408TMC3    C1 6140   2.768   1.893   9.723  0.0291 -0.1459  0.0742
  408TMC3    C2 6141   2.867   1.817   9.674  0.6464  0.7855 -0.2132
  408TMC3    C3 6142   2.994   1.859   9.703  0.5461 -0.5011  0.0298
  408TMC3    C4 6143   2.784   2.004   9.798 -0.3026  0.8881  0.4851
  408TMC3    C5 6144   2.913   2.029   9.832  0.0494 -0.1380  0.2574
  408TMC3    C6 6145   3.024   1.960   9.789  0.0679 -0.4455 -0.4650
  408TMC3     C 6146   2.641   1.880   9.656 -0.1169  0.6628 -0.1410
  408TMC3     O 6147   2.636   1.826   9.545  0.3184  0.8754 -0.0914
  408TMC3     H 6148   2.843   1.735   9.608 -1.4160  1.2551 -0.0226
  408TMC3    H1 6149   2.710   2.083   9.812  0.3723  1.4204  1.0667
  408TMC3    H2 6150   3.127   1.991   9.798 -0.2785  0.7502 -0.6396
  408TMC3    C7 6151   2.946   2.147   9.910  0.4794 -0.1296 -0.5949
  408TMC3    C8 6152   3.101   1.762   9.673  0.4337 -0.0441  0.6814
  408TMC3    O1 6153   3.068   2.158   9.924 -0.0006  0.2015 -0.2901
  408TMC3    O2 6154   3.099   1.689   9.573  0.1273  0.0011  0.2478
  409MPD2     C 6155   2.014   2.532  16.798 -0.0725 -0.0345  0.2451
  409MPD2    C1 6156   2.153   2.528  16.800 -0.0218  0.6557  0.1361
  409MPD2    C2 6157   2.234   2.637  16.812  0.4169  0.8700  0.0033
  409MPD2    C3 6158   2.169   2.759  16.806 -0.5744  0.5028 -0.4149
  409MPD2    C4 6159   2.035   2.767  16.793  0.0847  0.4840  0.4993
  409MPD2    C5 6160   1.953   2.657  16.798  0.1486  0.0419 -0.6472
  409MPD2     H 6161   2.340   2.619  16.826  0.6943  2.5005 -0.0216
  409MPD2    H1 6162   1.983   2.862  16.794 -0.5529  0.1495 -0.9206
  409MPD2    H2 6163   1.952   2.444  16.787  1.8533 -1.3876  0.4895
  409MPD2    H3 6164   1.846   2.664  16.811  0.2696 -2.7600  1.6736
  409MPD2     N 6165   2.239   2.882  16.807 -0.6407 -0.5415  0.4118
  409MPD2    H5 6166   2.185   2.964  16.783 -0.9570 -1.1777 -1.0593
  409MPD2    N1 6167   2.222   2.407  16.800  0.6068  0.0240 -0.3326
  409MPD2    H7 6168   2.323   2.405  16.800  0.5747 -1.5387 -0.1155
  410TMC3    C1 6169   2.416   3.028  16.863 -0.4979 -0.4830 -0.5003
  410TMC3    C2 6170   2.515   3.036  16.953  0.0804  0.2647  0.3099
  410TMC3    C3 6171   2.618   3.125  16.926 -0.1874  0.6600 -0.2316
  410TMC3    C4 6172   2.405   3.114  16.759 -0.4792  0.0793 -0.3319
  410TMC3    C5 6173   2.507   3.198  16.730  0.0563 -0.3702  0.1886
  410TMC3    C6 6174   2.616   3.203  16.814 -0.0279 -0.6931  0.0348
  410TMC3     C 6175   2.374   2.896  16.834 -0.3117 -0.2336  0.3656
  410TMC3     O 6176   2.466   2.819  16.860 -0.5744 -0.1532 -0.2846
  410TMC3     H 6177   2.511   2.969  17.038 -0.5117 -0.0455  0.0374
  410TMC3    H1 6178   2.322   3.112  16.689 -0.3626 -0.5748 -0.4589
  410TMC3    H2 6179   2.706   3.255  16.782  0.3174 -1.7707 -0.7416
  410TMC3    C7 6180   2.502   3.273  16.602  0.1994 -0.8609  0.5386
  410TMC3    C8 6181   2.750   3.080  16.976 -0.7830  0.3723  0.2026
  410TMC3    O1 6182   2.432   3.222  16.518  0.1938 -0.3033  0.1428
  410TMC3    O2 6183   2.843   3.159  16.976 -0.0659 -0.6520  1.3197
  411MPD2     C 6184   2.529   3.089  14.374 -0.0802  0.2342 -0.6149
  411MPD2    C1 6185   2.445   3.102  14.482  1.1512 -0.4426  0.0333
  411MPD2    C2 6186   2.361   2.996  14.509 -0.5887 -0.5153  0.2246
  411MPD2    C3 6187   2.355   2.883  14.427 -0.4177  0.3525 -0.6261
  411MPD2    C4 6188   2.455   2.868  14.328 -0.3126 -0.2535 -0.0729
  411MPD2    C5 6189   2.528   2.980  14.290 -0.4970  0.3666 -0.2043
  411MPD2     H 6190   2.298   2.997  14.597  0.7465  0.0087  1.1616
  411MPD2    H1 6191   2.455   2.786  14.257  2.9649 -0.2073 -0.1421
  411MPD2    H2 6192   2.594   3.174  14.352 -0.6438  0.7197 -0.3967
  411MPD2    H3 6193   2.573   2.991  14.192  1.3956 -2.4859  0.3777
  411MPD2     N 6194   2.268   2.773  14.448 -0.4577 -0.1193  0.4906
  411MPD2    H5 6195   2.288   2.687  14.398  0.0842 -0.1566  0.7620
  411MPD2    N1 6196   2.461   3.214  14.566 -0.1355 -0.0241  0.1336
  411MPD2    H7 6197   2.529   3.282  14.533 -0.5410 -0.0869 -0.8367
  412TMC3    C1 6198   2.067   2.678  14.498  0.9952 -0.2769 -0.7371
  412TMC3    C2 6199   1.947   2.694  14.558  0.5794  0.4851  1.4288
  412TMC3    C3 6200   1.842   2.634  14.502 -0.1020 -1.0340 -0.6469
  412TMC3    C4 6201   2.089   2.604  14.386 -0.1690  0.2428  0.1443
  412TMC3    C5 6202   1.978   2.549  14.325  0.0855  0.1443 -0.1373
  412TMC3    C6 6203   1.858   2.551  14.395  0.1003 -0.6895 -0.2884
  412TMC3     C 6204   2.149   2.790  14.513 -0.0071  0.2072  0.2633
  412TMC3     O 6205   2.097   2.887  14.571 -0.3649 -0.3786  0.1167
  412TMC3     H 6206   1.915   2.770  14.629 -0.0099  0.7559  0.8793
  412TMC3    H1 6207   2.181   2.570  14.339 -1.3681 -2.2468 -0.3976
  412TMC3    H2 6208   1.778   2.499  14.343  1.0327 -2.3969 -0.0159
  412TMC3    C7 6209   1.963   2.591  14.187 -0.6678  0.8214  0.1473
  412TMC3    C8 6210   1.714   2.696  14.508 -0.1654  0.6915  0.5210
  412TMC3    O1 6211   1.847   2.617  14.158  0.3763 -0.0080  0.8207
  412TMC3    O2 6212   1.660   2.737  14.607 -0.1630  0.2334  0.3121
  413MPD2     C 6213   4.576   1.651  15.231  0.1289  0.1037 -0.1085
  413MPD2    C1 6214   4.465   1.571  15.242  0.2749 -0.0315  0.3559
  413MPD2    C2 6215   4.481   1.438  15.273 -0.1585  0.5390 -0.6053
  413MPD2    C3 6216   4.609   1.386  15.271 -0.4809  0.4414 -0.1726
  413MPD2    C4 6217   4.722   1.468  15.263 -0.1117  0.0415 -0.4648
  413MPD2    C5 6218   4.705   1.606  15.240 -0.2645 -0.5055  1.1539
  413MPD2     H 6219   4.394   1.379  15.303 -0.0729  2.3329  3.1615
  413MPD2    H1 6220   0.090   1.433  15.271  0.3614  1.4519 -0.2221
  413MPD2    H2 6221   4.563   1.757  15.216 -2.7414 -0.3031 -0.4753
  413MPD2    H3 6222   0.053   1.677  15.248 -1.9155  1.1958  2.8596
  413MPD2     N 6223   4.620   1.244  15.285 -0.0497 -0.2075  0.5410
  413MPD2    H5 6224   4.532   1.197  15.304 -1.3683  1.1898 -1.9849
  413MPD2    N1 6225   4.344   1.640  15.243 -0.2220 -0.1395 -0.1028
  413MPD2    H7 6226   4.356   1.736  15.212  2.2643 -0.2654  0.4240
  414TMC3    C1 6227   4.704   1.030  15.318  0.4246 -0.1048 -0.1706
  414TMC3    C2 6228   0.035   0.960  15.415  0.3017  0.0440  0.3874
  414TMC3    C3 6229   4.709   0.850  15.465 -0.3451  0.1834  0.4543
  414TMC3    C4 6230   4.594   0.982  15.251 -0.6704  0.4703 -0.6342
  414TMC3    C5 6231   4.536   0.868  15.300  0.3922  0.0934  0.3721
  414TMC3    C6 6232   4.592   0.803  15.404  0.7408  0.2378  0.1800
  414TMC3     C 6233   0.002   1.169  15.296 -0.0092 -0.3471 -0.5124
  414TMC3     O 6234   0.116   1.201  15.321 -0.4933  0.0480 -0.5509
  414TMC3     H 6235   0.119   1.015  15.455  0.2519  0.2502  0.2129
  414TMC3    H1 6236   4.557   1.044  15.170  0.1043 -0.8589 -2.0067
  414TMC3    H2 6237   4.555   0.703  15.426  2.5450 -0.3268  0.6852
  414TMC3    C7 6238   4.439   0.795  15.215 -0.6276  0.1525 -0.5893
  414TMC3    C8 6239   0.054   0.742  15.516 -0.9348 -0.2427  0.2559
  414TMC3    O1 6240   4.345   0.749  15.281  0.2865  0.3244  0.4568
  414TMC3    O2 6241   0.003   0.628  15.504 -0.4971  0.8750  0.1215
  415TMC3    C1 6242   0.110   3.817  10.080  0.5322  0.1717  0.3016
  415TMC3    C2 6243   0.109   3.938  10.015 -0.6822  0.3476 -0.7144
  415TMC3    C3 6244   0.016   3.955   9.920  0.0213  0.2603 -0.6546
  415TMC3    C4 6245   0.012   3.725  10.064  0.5469  0.1883  0.3001
  415TMC3    C5 6246   4.654   3.743   9.964 -0.4562 -0.4840 -0.5017
  415TMC3    C6 6247   4.650   3.864   9.894  0.1104  0.1856 -0.3748
  415TMC3     C 6248   0.130   3.831  10.227  0.4642 -0.5931  0.2897
  415TMC3     O 6249   0.098   3.736  10.297  0.3695  0.3626  0.1747
  415TMC3     H 6250   0.184   4.015  10.028  0.2801 -0.8191  0.6032
  415TMC3    H1 6251   0.007   3.639  10.130 -2.2711 -0.2217 -0.4277
  415TMC3    H2 6252   4.577   3.875   9.814  0.9130 -1.2081 -1.2992
  415TMC3    C7 6253   4.541   3.647   9.964  0.4637 -0.3370 -0.5743
  415TMC3    C8 6254   0.002   4.081   9.849  0.6081 -0.2267  0.0193
  415TMC3    O1 6255   4.561   3.526   9.979 -0.5445 -0.0213  0.7016
  415TMC3    O2 6256   4.626   4.118   9.808  0.2373  0.1353 -0.2050
  416MPD2     C 6257   1.249   3.079  11.518  0.0681 -0.1654  0.2914
  416MPD2    C1 6258   1.122   3.039  11.550 -0.7797 -0.6882 -0.0645
  416MPD2    C2 6259   1.072   2.917  11.491  0.2731  0.6770  0.1625
  416MPD2    C3 6260   1.156   2.839  11.412  0.5562  0.3770  0.6182
  416MPD2    C4 6261   1.280   2.895  11.377 -0.1113 -0.1927  0.8063
  416MPD2    C5 6262   1.328   3.004  11.436  0.0329 -0.3199 -0.3500
  416MPD2     H 6263   0.971   2.883  11.510  0.8827 -1.3282 -0.1909
  416MPD2    H1 6264   1.347   2.830  11.322  0.0744  0.1358  0.6440
  416MPD2    H2 6265   1.293   3.174  11.544 -0.5303  0.3104 -0.4510
  416MPD2    H3 6266   1.422   3.053  11.413 -1.1334  1.9169 -0.3569
  416MPD2     N 6267   1.107   2.718  11.350  0.8660 -0.0159  0.4460
  416MPD2    H5 6268   1.014   2.686  11.378  1.2979 -0.8291  0.9541
  416MPD2    N1 6269   1.039   3.121  11.631  0.2638 -0.1989 -0.1631
  416MPD2    H7 6270   1.081   3.194  11.687  1.9952  0.6685 -2.6117
  417TMC3    C1 6271   0.843   3.215  11.727 -0.1930  0.2326  0.1579
  417TMC3    C2 6272   0.885   3.221  11.859 -0.1610  0.2506  0.1392
  417TMC3    C3 6273   0.796   3.271  11.945  0.3950 -0.0113 -0.8008
  417TMC3    C4 6274   0.723   3.277  11.689 -0.1652 -0.3735 -0.7730
  417TMC3    C5 6275   0.641   3.336  11.781  0.0728 -0.2509 -0.2303
  417TMC3    C6 6276   0.672   3.330  11.914  0.5544  0.1562  0.4295
  417TMC3     C 6277   0.899   3.112  11.642  0.4262 -0.0659  0.3812
  417TMC3     O 6278   0.817   3.039  11.581  0.3112 -0.1680 -0.2226
  417TMC3     H 6279   0.972   3.164  11.891 -0.7128  0.3853  1.8644
  417TMC3    H1 6280   0.679   3.258  11.592 -0.2679  0.3555 -0.8665
  417TMC3    H2 6281   0.609   3.377  11.988  0.2281 -1.3518  1.1154
  417TMC3    C7 6282   0.577   3.462  11.752 -0.2018  0.2317  0.1631
  417TMC3    C8 6283   0.846   3.311  12.083  0.5242 -0.2744 -0.4303
  417TMC3    O1 6284   0.520   3.533  11.830  1.0602 -0.3017 -0.2946
  417TMC3    O2 6285   0.756   3.328  12.165 -0.3710  0.5189 -0.6644
  418TMC3    C1 6286   0.414   0.098   0.297 -0.3525 -0.2378 -0.3195
  418TMC3    C2 6287   0.284   0.127   0.255  0.4613 -0.5514 -0.0415
  418TMC3    C3 6288   0.191   0.060   0.328  0.0327 -0.3991 -0.4538
  418TMC3    C4 6289   0.447   4.727   0.384 -0.2371 -0.0235  0.1110
  418TMC3    C5 6290   0.338   4.675   0.455  0.7887  0.3396  0.0165
  418TMC3    C6 6291   0.211   4.714   0.432  0.1496  0.4607 -0.1562
  418TMC3     C 6292   0.517   0.158   0.215 -0.6873  0.5949 -0.7182
  418TMC3     O 6293   0.491   0.254   0.140  0.2189  0.2745  0.0431
  418TMC3     H 6294   0.260   0.182   0.165 -1.9986  0.1531  1.0310
  418TMC3    H1 6295   0.547   4.692   0.404 -0.5329  1.1497  3.5925
  418TMC3    H2 6296   0.129   4.665   0.482  1.1411 -0.8323  0.2101
  418TMC3    C7 6297   0.374   4.574   0.549 -0.4404 -0.5556  0.3352
  418TMC3    C8 6298   0.067   0.039   0.251  0.4269 -0.0827 -0.5351
  418TMC3    O1 6299   0.478   4.515   0.524  0.3544 -0.3787 -0.0511
  418TMC3    O2 6300   4.727   0.133   0.224 -0.0424  0.5744 -0.0741
  419MPD2     C 6301   3.162   2.952  12.690  0.1787 -0.1584  0.4181
  419MPD2    C1 6302   3.261   2.993  12.778 -0.5023 -0.2887  0.0880
  419MPD2    C2 6303   3.229   3.079  12.876  0.5396  0.6643  0.5471
  419MPD2    C3 6304   3.106   3.114  12.910  0.3509 -0.2468  0.5239
  419MPD2    C4 6305   3.003   3.066  12.834 -0.0010 -0.8866  0.0380
  419MPD2    C5 6306   3.033   2.998  12.716 -0.0200 -0.6053 -0.0436
  419MPD2     H 6307   3.312   3.107  12.940  1.4491 -1.3265  0.2394
  419MPD2    H1 6308   2.899   3.076  12.862  0.0733  0.3192 -0.1066
  419MPD2    H2 6309   3.181   2.885  12.606 -1.7110 -1.1499  0.7840
  419MPD2    H3 6310   2.947   2.953  12.669  0.6326 -0.4313 -1.4035
  419MPD2     N 6311   3.079   3.175  13.035 -0.1761  0.6097 -0.5829
  419MPD2    H5 6312   3.159   3.214  13.084 -0.5851  0.6683  0.0318
  419MPD2    N1 6313   3.403   2.967  12.749  0.3760  0.3698  0.1580
  419MPD2    H7 6314   3.465   3.028  12.803  2.7906 -1.9592 -0.0029
  420TMC3    C1 6315   2.978   3.323  13.190  0.4121  0.2664  0.3124
  420TMC3    C2 6316   2.873   3.404  13.229 -0.6942 -0.5321 -0.7457
  420TMC3    C3 6317   2.902   3.501  13.312  0.1377 -0.0744  0.3747
  420TMC3    C4 6318   3.103   3.343  13.244  0.1204 -0.4043 -0.5802
  420TMC3    C5 6319   3.120   3.440  13.332 -0.4113 -0.4702 -0.3628
  420TMC3    C6 6320   3.022   3.520  13.366  0.4325 -0.1391  0.1453
  420TMC3     C 6321   2.964   3.236  13.073  0.0373 -0.0052 -0.4584
  420TMC3     O 6322   2.857   3.256  13.015  0.1398  0.4577 -0.6211
  420TMC3     H 6323   2.774   3.384  13.192 -1.2195 -1.9045  1.4136
  420TMC3    H1 6324   3.180   3.266  13.244  1.0382  0.5181  0.1171
  420TMC3    H2 6325   3.042   3.611  13.421  2.3132  0.2894 -1.2502
  420TMC3    C7 6326   3.221   3.408  13.431  0.5525 -0.0283  0.4006
  420TMC3    C8 6327   2.790   3.589  13.340  0.1627  0.4645  0.1293
  420TMC3    O1 6328   3.312   3.342  13.386 -0.1001 -0.0687  0.0379
  420TMC3    O2 6329   2.820   3.707  13.374 -0.4617  0.0013 -0.5090
  421TMC3    C1 6330   1.051   0.091  13.691  0.0830  0.0615 -0.1678
  421TMC3    C2 6331   1.079   0.198  13.768  0.6969  0.3347  0.2006
  421TMC3    C3 6332   1.115   0.183  13.900  0.1429 -0.6428  0.3305
  421TMC3    C4 6333   1.037   4.698  13.748 -0.3199 -0.9075 -0.1633
  421TMC3    C5 6334   1.044   4.685  13.887 -0.7522  0.5035 -0.0662
  421TMC3    C6 6335   1.087   0.057  13.963 -0.4495  0.4289  0.4971
  421TMC3     C 6336   0.973   0.123  13.569  0.3587 -0.2983  0.2086
  421TMC3     O 6337   0.998   0.229  13.511 -0.0106  0.2876 -0.0385
  421TMC3     H 6338   1.076   0.295  13.720 -2.1302  0.1554  0.0081
  421TMC3    H1 6339   1.016   4.612  13.685  0.6704 -0.2955 -1.3115
  421TMC3    H2 6340   1.070   0.061  14.069 -0.3988 -1.5531  0.5830
  421TMC3    C7 6341   1.074   4.557  13.946 -0.0708  0.1225  0.6583
  421TMC3    C8 6342   1.127   0.298  13.988  0.2911 -0.6213  0.3908
  421TMC3    O1 6343   1.116   4.558  14.061  0.3630 -0.7184  0.2024
  421TMC3    O2 6344   1.158   0.269  14.104 -0.4351  0.2529 -0.0969
  422TMC3    C1 6345   2.413   1.352  12.984  0.2443  0.1769 -0.0832
  422TMC3    C2 6346   2.366   1.476  12.965  0.2205 -0.0635 -0.7043
  422TMC3    C3 6347   2.252   1.525  13.029 -0.5614 -0.8536  0.3646
  422TMC3    C4 6348   2.345   1.263  13.067  0.4127  0.7068  0.2966
  422TMC3    C5 6349   2.224   1.303  13.115 -0.0810 -0.1017  0.1548
  422TMC3    C6 6350   2.179   1.435  13.105  0.4454 -0.8197 -0.4725
  422TMC3     C 6351   2.501   1.310  12.877  0.1661  0.0499 -0.2424
  422TMC3     O 6352   2.567   1.401  12.832  0.2499  0.2621  0.0735
  422TMC3     H 6353   2.420   1.547  12.903  0.7199 -1.0652 -1.3982
  422TMC3    H1 6354   2.379   1.162  13.085  0.9844  0.6023 -1.3532
  422TMC3    H2 6355   2.091   1.458  13.164  0.5476 -1.8599  0.0856
  422TMC3    C7 6356   2.142   1.201  13.172 -0.0224  0.0723 -0.3872
  422TMC3    C8 6357   2.236   1.666  13.047 -0.0353 -0.3527 -0.8806
  422TMC3    O1 6358   2.188   1.090  13.208 -0.1212  0.2252 -0.5183
  422TMC3    O2 6359   2.338   1.731  13.042 -0.2571  0.6308 -0.2046
  423MPD2     C 6360   3.499   1.680   0.464 -0.1169 -0.4051 -0.0648
  423MPD2    C1 6361   3.593   1.745   0.383 -0.5335  0.1890 -0.8301
  423MPD2    C2 6362   3.626   1.694   0.259  0.2697  0.0250  0.0264
  423MPD2    C3 6363   3.548   1.595   0.202  0.5357  0.0651 -0.0074
  423MPD2    C4 6364   3.449   1.541   0.281 -0.6160 -0.3420 -0.7398
  423MPD2    C5 6365   3.437   1.567   0.411 -0.2513 -0.6184 -0.5510
  423MPD2     H 6366   3.712   1.736   0.208  0.5344 -0.1127  0.3494
  423MPD2    H1 6367   3.397   1.456   0.238  2.1180 -2.4234  0.0354
  423MPD2    H2 6368   3.463   1.719   0.559  0.7563 -1.3435  0.6520
  423MPD2    H3 6369   3.366   1.519   0.478  2.1699 -1.7204  1.2302
  423MPD2     N 6370   3.553   1.557   0.071  0.2493 -0.2759  0.0120
  423MPD2    H5 6371   3.485   1.486   0.046  1.0729 -1.5439  1.3785
  423MPD2    N1 6372   3.676   1.848   0.435  0.1186  0.0478  0.2609
  423MPD2    H7 6373   3.762   1.875   0.387  0.0426 -1.8500 -0.9397
  424TMC3    C1 6374   3.757   1.996   0.601  0.1909 -0.6444 -0.7418
  424TMC3    C2 6375   3.879   1.956   0.555 -0.2484  0.3772 -0.7051
  424TMC3    C3 6376   3.984   2.044   0.580 -0.8875 -0.4560 -0.6243
  424TMC3    C4 6377   3.735   2.120   0.660 -0.1748 -0.5063  0.0965
  424TMC3    C5 6378   3.842   2.211   0.673  0.3140  0.3157  0.2483
  424TMC3    C6 6379   3.972   2.171   0.631  0.9083 -0.2751 -0.1991
  424TMC3     C 6380   3.647   1.917   0.556  0.2578 -0.2420  0.2827
  424TMC3     O 6381   3.537   1.938   0.605  0.5866  0.3543 -0.7154
  424TMC3     H 6382   3.899   1.855   0.521 -1.7692 -1.0895  2.7838
  424TMC3    H1 6383   3.636   2.135   0.701 -0.5651 -4.2574  0.5048
  424TMC3    H2 6384   4.050   2.245   0.644  1.8621 -0.9406 -2.1133
  424TMC3    C7 6385   3.826   2.321   0.762 -0.1347 -0.5948 -0.1554
  424TMC3    C8 6386   4.112   1.991   0.560  0.3334 -0.7221  0.5187
  424TMC3    O1 6387   3.919   2.336   0.841 -0.0059  0.0293  0.1468
  424TMC3    O2 6388   4.129   1.908   0.472 -0.0188 -0.1446  0.5215
  425MPD2     C 6389   3.208   1.292  16.906 -0.4693  0.1851  0.7199
  425MPD2    C1 6390   3.169   1.214  17.013  0.5254  0.7703 -0.6511
  425MPD2    C2 6391   3.073   1.259  17.101 -0.5106  0.1571  0.0659
  425MPD2    C3 6392   3.016   1.386  17.084  0.0341  0.3447  0.2601
  425MPD2    C4 6393   3.066   1.463  16.981 -0.0010 -0.1593  0.4307
  425MPD2    C5 6394   3.158   1.420  16.892 -0.2219 -0.3322 -0.1519
  425MPD2     H 6395   3.030   1.189  17.171 -2.6050  1.0471 -0.2965
  425MPD2    H1 6396   3.022   1.562  16.979 -0.4602 -0.3594  0.7377
  425MPD2    H2 6397   3.280   1.251  16.835 -1.5556 -1.7608  0.7383
  425MPD2    H3 6398   3.184   1.490  16.812  1.0841  1.9582  2.2705
  425MPD2     N 6399   2.915   1.431  17.182  0.6284 -0.8169 -0.0341
  425MPD2    H5 6400   2.896   1.359  17.251 -1.7937  0.3035  0.4633
  425MPD2    N1 6401   3.216   1.078  17.035 -0.1286  0.2143 -0.0563
  425MPD2    H7 6402   3.182   1.028  17.116  1.5330 -0.6630  0.1004
  426TMC3    C1 6403   3.314   0.874  17.001 -0.7101  0.0599 -0.1774
  426TMC3    C2 6404   3.325   0.793  16.887 -0.3065 -0.0671 -0.9367
  426TMC3    C3 6405   3.322   0.657  16.911  0.0119 -0.3587  0.4872
  426TMC3    C4 6406   3.268   0.835  17.121  0.7709  0.5078  0.1997
  426TMC3    C5 6407   3.260   0.697  17.134 -0.0627 -0.4441  1.0781
  426TMC3    C6 6408   3.294   0.607  17.033 -0.2326  0.7089  0.3630
  426TMC3     C 6409   3.320   1.019  16.965  0.4006  0.6137  0.1079
  426TMC3     O 6410   3.380   1.056  16.866 -0.2712  0.5216  0.2066
  426TMC3     H 6411   3.363   0.840  16.796 -0.9230 -0.9377 -1.6452
  426TMC3    H1 6412   3.273   0.903  17.206 -0.3535  2.3042 -1.1811
  426TMC3    H2 6413   3.295   0.500  17.051  0.2735  0.4187 -1.4008
  426TMC3    C7 6414   3.250   0.629  17.266  0.0751  0.1215  0.2441
  426TMC3    C8 6415   3.288   0.583  16.800 -0.5068 -0.6678 -0.4399
  426TMC3    O1 6416   3.328   0.537  17.285 -0.4904 -0.4895 -0.0530
  426TMC3    O2 6417   3.264   0.655  16.703 -0.5539  0.3063 -0.1598
  427MPD2     C 6418   1.672   3.062  15.035 -0.5434 -0.7530 -0.1661
  427MPD2    C1 6419   1.655   3.108  15.170  0.3606  1.1993 -0.4025
  427MPD2    C2 6420   1.549   3.192  15.203  0.1156  0.3431 -0.5858
  427MPD2    C3 6421   1.443   3.199  15.116  0.2437 -0.0239  0.0874
  427MPD2    C4 6422   1.459   3.147  14.992 -0.0442 -0.4856 -0.1699
  427MPD2    C5 6423   1.571   3.084  14.947 -0.4120 -0.0190 -0.6213
  427MPD2     H 6424   1.546   3.237  15.301 -0.3581 -0.5640 -0.1815
  427MPD2    H1 6425   1.380   3.150  14.918 -0.3340 -2.1201  0.0764
  427MPD2    H2 6426   1.761   3.009  15.004 -0.2233 -1.9296  2.7534
  427MPD2    H3 6427   1.590   3.046  14.848  0.4015 -2.7308  0.5700
  427MPD2     N 6428   1.323   3.265  15.142 -0.0029 -0.1489  0.1545
  427MPD2    H5 6429   1.260   3.274  15.063 -1.1531  0.2596  1.1174
  427MPD2    N1 6430   1.757   3.089  15.267 -0.0883  0.2609 -0.2555
  427MPD2    H7 6431   1.768   3.147  15.349 -1.9246  0.9757 -0.5114
  428TMC3    C1 6432   1.920   2.979  15.390  0.7229 -0.2212 -0.3698
  428TMC3    C2 6433   1.909   2.872  15.469  0.5775 -0.3650 -0.3099
  428TMC3    C3 6434   1.982   2.875  15.585  0.1625  0.1045 -0.0805
  428TMC3    C4 6435   2.004   3.087  15.421 -0.7234  0.2635 -0.5044
  428TMC3    C5 6436   2.080   3.078  15.535  0.0430 -0.0877 -0.2053
  428TMC3    C6 6437   2.077   2.970  15.616  0.3295 -0.2481  0.6615
  428TMC3     C 6438   1.838   2.976  15.270 -0.0400  0.1764 -0.0941
  428TMC3     O 6439   1.818   2.866  15.215  0.0950 -0.1328 -0.7633
  428TMC3     H 6440   1.830   2.802  15.444  1.5094 -1.0278 -1.4370
  428TMC3    H1 6441   2.006   3.172  15.354  0.8855 -0.7127 -1.6894
  428TMC3    H2 6442   2.132   2.964  15.709 -0.0731  0.5264  0.9447
  428TMC3    C7 6443   2.181   3.171  15.565 -0.3716  0.1849 -0.3801
  428TMC3    C8 6444   1.981   2.752  15.662 -0.8684  0.0257  0.0439
  428TMC3    O1 6445   2.207   3.202  15.680  0.7682  0.1704  0.0757
  428TMC3    O2 6446   1.931   2.649  15.609  0.3283  0.0666 -0.1604
  429MPD2     C 6447   2.537   3.336   0.154 -0.7201 -0.1278 -0.4500
  429MPD2    C1 6448   2.581   3.265   0.045  0.1223  0.1016 -0.0545
  429MPD2    C2 6449   2.633   3.337  17.664  0.6211 -0.1722 -0.3735
  429MPD2    C3 6450   2.647   3.469  17.671  0.6268 -0.2016 -0.3626
  429MPD2    C4 6451   2.607   3.536   0.046  0.1437 -0.3576  0.5264
  429MPD2    C5 6452   2.549   3.471   0.155 -0.3112 -0.7336  0.3584
  429MPD2     H 6453   2.642   3.289  17.568  1.3034 -0.7246 -0.0281
  429MPD2    H1 6454   2.599   3.644   0.058 -0.4688 -0.4444  0.9077
  429MPD2    H2 6455   2.487   3.292   0.239  3.8766 -1.6897  1.4761
  429MPD2    H3 6456   2.506   3.521   0.240 -2.8217 -0.3045 -1.1526
  429MPD2     N 6457   2.700   3.538  17.555 -0.0170  0.1482  0.2359
  429MPD2    H5 6458   2.732   3.480  17.478  0.6018  0.2593  0.4077
  429MPD2    N1 6459   2.581   3.124   0.057 -0.0714  0.0959 -0.3487
  429MPD2    H7 6460   2.562   3.085   0.149  0.6651 -2.2935 -1.2271
  430TMC3    C1 6461   2.813   3.696  17.419  0.0398 -0.2148 -0.4853
  430TMC3    C2 6462   2.812   3.826  17.372 -0.3714  0.0614  0.5522
  430TMC3    C3 6463   2.918   3.861  17.298 -0.3572 -0.0715  0.0168
  430TMC3    C4 6464   2.906   3.603  17.395 -0.5385 -0.2725 -0.0904
  430TMC3    C5 6465   3.009   3.644  17.321  0.4093  0.4468 -0.3719
  430TMC3    C6 6466   3.023   3.769  17.272 -0.4800 -0.1192  0.1989
  430TMC3     C 6467   2.713   3.668  17.518 -0.5658 -0.7126 -0.2336
  430TMC3     O 6468   2.640   3.761  17.559 -0.1895 -0.2307 -0.4076
  430TMC3     H 6469   2.722   3.883  17.389  0.0366  0.8115  0.2112
  430TMC3    H1 6470   2.911   3.505  17.441  0.9656  0.3340  1.0281
  430TMC3    H2 6471   3.099   3.788  17.197 -0.8496 -0.1105 -0.1715
  430TMC3    C7 6472   3.089   3.540  17.252  0.3679  0.9714 -0.6950
  430TMC3    C8 6473   2.925   3.979  17.208 -0.2869 -0.5622 -0.2858
  430TMC3    O1 6474   3.031   3.429  17.249  0.4995 -0.0111  0.0697
  430TMC3    O2 6475   3.023   4.000  17.147 -0.0182 -0.0215 -0.0294
  431MPD2     C 6476   3.988   3.402  13.141  0.6802  0.0177  0.0102
  431MPD2    C1 6477   4.031   3.392  13.011 -0.1390 -0.2305  0.0590
  431MPD2    C2 6478   3.983   3.287  12.936 -0.0558 -0.2349 -0.1040
  431MPD2    C3 6479   3.901   3.189  12.991  0.3881  0.0673  0.2653
  431MPD2    C4 6480   3.861   3.200  13.122 -0.2797 -1.2223  0.2601
  431MPD2    C5 6481   3.903   3.305  13.192  0.0659  0.0395 -0.3735
  431MPD2     H 6482   4.005   3.288  12.830 -2.2861 -0.5904 -0.5848
  431MPD2    H1 6483   3.789   3.127  13.157 -0.3359 -2.0685 -1.5774
  431MPD2    H2 6484   4.017   3.479  13.211  1.0656 -0.7531  0.6990
  431MPD2    H3 6485   3.851   3.325  13.285 -0.2488 -0.1178 -0.5163
  431MPD2     N 6486   3.846   3.078  12.916  0.4123 -0.1087  0.1659
  431MPD2    H5 6487   3.776   3.015  12.955  0.4028  0.5223  1.1525
  431MPD2    N1 6488   4.106   3.492  12.946  0.2248 -0.1797  0.2545
  431MPD2    H7 6489   4.123   3.475  12.848 -3.4860  0.5369 -0.5202
  432TMC3    C1 6490   3.811   2.930  12.734 -0.5079 -0.1078 -0.1041
  432TMC3    C2 6491   3.863   2.889  12.610 -0.8202  0.0377  0.0812
  432TMC3    C3 6492   3.773   2.857  12.511  0.2100  0.7167 -0.1039
  432TMC3    C4 6493   3.678   2.933  12.750 -0.5974 -0.6069  0.7974
  432TMC3    C5 6494   3.597   2.870  12.656  0.5036  0.4442  0.2340
  432TMC3    C6 6495   3.646   2.828  12.538 -0.0413  0.0058  0.6485
  432TMC3     C 6496   3.884   3.042  12.786 -0.0786  0.2731 -0.0706
  432TMC3     O 6497   3.969   3.092  12.710  0.2796  0.6834  0.0268
  432TMC3     H 6498   3.962   2.918  12.578 -0.5553  0.5508  1.3632
  432TMC3    H1 6499   3.630   2.960  12.843  0.4619 -2.8262  1.9879
  432TMC3    H2 6500   3.579   2.800  12.457  0.3615  2.1496 -0.4162
  432TMC3    C7 6501   3.453   2.873  12.664  0.6346  0.0323  0.7916
  432TMC3    C8 6502   3.803   2.898  12.376 -0.6237 -0.1086 -0.4248
  432TMC3    O1 6503   3.385   2.803  12.592 -0.1792  0.1251 -0.3369
  432TMC3    O2 6504   3.723   2.859  12.294 -0.1964  0.2319 -0.5165
  433MPD2     C 6505   1.879   2.191  10.757  0.1423  0.0492 -0.6065
  433MPD2    C1 6506   1.939   2.100  10.846 -0.3084 -0.2421  0.5055
  433MPD2    C2 6507   1.943   2.123  10.980  0.0316  0.0519 -0.9845
  433MPD2    C3 6508   1.899   2.246  11.026 -0.7268 -0.1293  0.7131
  433MPD2    C4 6509   1.848   2.341  10.940  0.3465 -0.2559 -0.2275
  433MPD2    C5 6510   1.830   2.312  10.809  0.1510 -0.2074 -0.5453
  433MPD2     H 6511   1.990   2.055  11.050  0.7592 -0.2163 -1.7409
  433MPD2    H1 6512   1.801   2.430  10.979  1.1666 -0.1379  0.4951
  433MPD2    H2 6513   1.860   2.173  10.652  0.2572  0.5675 -0.7199
  433MPD2    H3 6514   1.788   2.391  10.748 -2.4604 -1.7273 -0.7415
  433MPD2     N 6515   1.895   2.267  11.168  0.0967 -0.6194  0.1257
  433MPD2    H5 6516   1.925   2.187  11.223  0.0445 -1.0377 -0.4578
  433MPD2    N1 6517   2.001   1.979  10.803  0.6070 -0.2255 -0.2727
  433MPD2    H7 6518   2.047   1.927  10.878  0.8128  1.0372  0.4856
  434TMC3    C1 6519   2.105   1.807  10.672 -0.7570 -0.1750 -0.6373
  434TMC3    C2 6520   2.169   1.767  10.788  0.1062 -0.4168  0.4572
  434TMC3    C3 6521   2.242   1.644  10.785  0.3887 -0.2323 -0.1079
  434TMC3    C4 6522   2.133   1.745  10.550  0.1373  0.5250  0.3723
  434TMC3    C5 6523   2.210   1.630  10.551  0.1173  0.1553  0.9244
  434TMC3    C6 6524   2.264   1.567  10.666  0.4598  0.3812 -0.3355
  434TMC3     C 6525   2.020   1.927  10.674  0.0681  0.0530 -0.2331
  434TMC3     O 6526   1.993   1.981  10.565  0.1129 -0.0271 -0.5955
  434TMC3     H 6527   2.161   1.814  10.886  0.0466  0.6289 -0.0538
  434TMC3    H1 6528   2.116   1.799  10.457 -0.9778 -1.0730 -0.3373
  434TMC3    H2 6529   2.317   1.473  10.672 -2.1161 -1.1882 -1.8666
  434TMC3    C7 6530   2.237   1.578  10.414 -0.1849 -0.1249  0.2912
  434TMC3    C8 6531   2.289   1.596  10.913  0.2022  0.4148  0.4713
  434TMC3    O1 6532   2.193   1.642  10.323 -0.0287 -0.2204  0.3245
  434TMC3    O2 6533   2.288   1.669  11.012  0.1245  0.0384  0.0586
  435MPD2     C 6534   4.533   2.087  15.384 -0.3364 -0.5201 -0.2018
  435MPD2    C1 6535   4.489   2.055  15.509 -0.0918 -0.9650  0.1314
  435MPD2    C2 6536   4.562   1.958  15.584 -0.5923  0.0787 -0.8544
  435MPD2    C3 6537   4.674   1.901  15.529  0.0049 -0.8573 -0.0024
  435MPD2    C4 6538   4.728   1.937  15.407 -0.3252 -0.6372 -0.4348
  435MPD2    C5 6539   4.658   2.034  15.337  0.0680 -0.4231  0.5814
  435MPD2     H 6540   4.535   1.943  15.688 -3.1720  1.0490 -1.4008
  435MPD2    H1 6541   0.084   1.895  15.362  0.0356 -0.2742 -0.0552
  435MPD2    H2 6542   4.481   2.151  15.314 -1.6630 -1.2220  0.1646
  435MPD2    H3 6543   4.689   2.061  15.237 -0.9589  0.7886  0.5902
  435MPD2     N 6544   0.008   1.824  15.622 -0.5834 -0.2191  0.1624
  435MPD2    H5 6545   4.690   1.804  15.708  0.0368  1.2598  0.8795
  435MPD2    N1 6546   4.368   2.101  15.563  0.3218 -0.1280  0.0911
  435MPD2    H7 6547   4.336   2.057  15.648 -3.0309  2.4685  0.1975
  436TMC3    C1 6548   3.992   2.116  15.703  0.1087 -0.2160 -0.1753
  436TMC3    C2 6549   4.112   2.094  15.647 -0.4620 -0.3999 -0.0866
  436TMC3    C3 6550   4.163   2.203  15.578  0.4526  0.8059  0.1396
  436TMC3    C4 6551   3.921   2.232  15.686  0.4089  0.3376 -0.6531
  436TMC3    C5 6552   3.977   2.336  15.615 -0.2557 -0.2191 -0.4561
  436TMC3    C6 6553   4.098   2.320  15.561  0.2421  0.0426 -0.0582
  436TMC3     C 6554   3.934   2.005  15.773 -0.5885 -0.0989  0.4095
  436TMC3     O 6555   3.991   1.898  15.768  0.2741 -0.1059 -0.1629
  436TMC3     H 6556   4.162   1.998  15.642  0.2238 -0.0028 -0.7890
  436TMC3    H1 6557   3.818   2.241  15.718  0.4808  1.8779 -0.8462
  436TMC3    H2 6558   4.152   2.396  15.506  0.7128  0.3114  0.7837
  436TMC3    C7 6559   3.910   2.464  15.623 -0.3621  0.2339  0.3274
  436TMC3    C8 6560   4.287   2.197  15.511 -0.7995  0.6431 -0.1131
  436TMC3    O1 6561   3.797   2.475  15.667  0.3158 -0.0253  0.2122
  436TMC3    O2 6562   4.318   2.273  15.417 -0.2619  0.3677 -0.6623
  437TMC3    C1 6563   3.197   3.988  12.989  0.2885  0.2945  0.4462
  437TMC3    C2 6564   3.128   4.067  13.079  0.8019 -0.1307  0.4970
  437TMC3    C3 6565   3.072   4.181  13.030  0.0593  0.1792 -0.3146
  437TMC3    C4 6566   3.219   4.026  12.859 -0.3945 -0.2677 -0.0589
  437TMC3    C5 6567   3.176   4.149  12.818 -0.0314 -0.0774 -0.4388
  437TMC3    C6 6568   3.102   4.223  12.899  0.1369  0.3978  0.7507
  437TMC3     C 6569   3.250   3.871  13.052 -0.3283  0.3605  0.2817
  437TMC3     O 6570   3.198   3.824  13.150  0.1830 -0.1124  0.5301
  437TMC3     H 6571   3.140   4.049  13.185 -0.5072  0.1126  0.6816
  437TMC3    H1 6572   3.273   3.963  12.788  0.9840 -1.3806  1.9779
  437TMC3    H2 6573   3.069   4.324  12.878  0.6909  0.7248  1.4348
  437TMC3    C7 6574   3.208   4.211  12.693 -0.3894  1.0621 -0.4647
  437TMC3    C8 6575   3.053   4.285  13.133 -0.1436  0.5156  0.8287
  437TMC3    O1 6576   3.123   4.288  12.644 -0.2142 -0.1784  0.0061
  437TMC3    O2 6577   3.073   4.405  13.105  0.3750 -0.1243 -0.2242
  438MPD2     C 6578   1.116   0.233  17.093  0.4511  0.2945 -0.4644
  438MPD2    C1 6579   1.159   0.100  17.120  0.4233  0.3851 -0.4598
  438MPD2    C2 6580   1.083   0.029  17.206 -0.0887 -0.1887  0.0285
  438MPD2    C3 6581   0.969   0.083  17.268 -0.4665  0.1765 -0.3185
  438MPD2    C4 6582   0.924   0.212  17.227  0.1236 -0.3038 -0.4379
  438MPD2    C5 6583   1.003   0.282  17.141 -0.1134  0.2125  0.4108
  438MPD2     H 6584   1.111   4.661  17.234 -0.0596 -0.9246 -2.6399
  438MPD2    H1 6585   0.837   0.264  17.263  0.3886 -0.6677  0.7093
  438MPD2    H2 6586   1.168   0.293  17.018  0.7752 -0.6802 -1.0183
  438MPD2    H3 6587   0.970   0.381  17.111  1.0983  0.6065  0.3811
  438MPD2     N 6588   0.883   0.005  17.346  0.1219  0.2044  0.0572
  438MPD2    H5 6589   0.800   0.057  17.373 -1.0766 -0.8988 -1.4652
  438MPD2    N1 6590   1.266   0.035  17.056  0.3386  0.1235 -0.5351
  438MPD2    H7 6591   1.282   4.672  17.083  1.8458  0.2908 -0.8352
  439TMC3    C1 6592   1.395   4.697  16.874  0.2115  0.1852  0.4828
  439TMC3    C2 6593   1.357   4.681  16.742  0.6394  0.7478 -0.2188
  439TMC3    C3 6594   1.383   4.566  16.684  0.2337  0.2020 -0.2404
  439TMC3    C4 6595   1.464   4.607  16.953 -0.0679  0.3319  0.3579
  439TMC3    C5 6596   1.494   4.493  16.883 -0.6668  0.7826  0.2303
  439TMC3    C6 6597   1.464   4.470  16.750 -0.1556 -0.0579  0.2139
  439TMC3     C 6598   1.327   0.075  16.939 -0.0641  0.0017 -0.5979
  439TMC3     O 6599   1.295   0.173  16.872  0.2478  0.1834 -0.0861
  439TMC3     H 6600   1.298   0.027  16.696 -3.3511 -0.9301  2.0328
  439TMC3    H1 6601   1.499   4.621  17.055  1.7654  1.2531 -0.3797
  439TMC3    H2 6602   1.522   4.398  16.692  1.3856  1.2819  0.0834
  439TMC3    C7 6603   1.545   4.388  16.963 -0.1236  0.0340  0.2931
  439TMC3    C8 6604   1.339   4.529  16.549  0.0549  0.1337 -0.8260
  439TMC3    O1 6605   1.549   4.398  17.086 -0.3062 -0.0896 -0.1022
  439TMC3    O2 6606   1.389   4.427  16.503  0.1381 -0.4327 -0.4864
  440MPD2     C 6607   0.043   0.585  14.612  0.1887  0.4418 -0.6119
  440MPD2    C1 6608   4.708   0.522  14.718 -0.1095  0.4042 -0.5468
  440MPD2    C2 6609   0.051   0.471  14.822  0.6829 -0.1835  0.1067
  440MPD2    C3 6610   0.190   0.463  14.822  0.6090  0.1051 -0.6114
  440MPD2    C4 6611   0.249   0.531  14.719 -1.1658 -0.3189 -0.4994
  440MPD2    C5 6612   0.178   0.591  14.620  0.2527  0.1832 -0.4514
  440MPD2     H 6613   0.005   0.439  14.915  1.9503 -2.0747  0.0863
  440MPD2    H1 6614   0.356   0.547  14.718 -0.8966 -2.0747 -0.4546
  440MPD2    H2 6615   4.725   0.626  14.525 -0.0890  0.2650 -0.5334
  440MPD2    H3 6616   0.233   0.647  14.544  0.3842  0.9794  0.2268
  440MPD2     N 6617   0.270   0.389  14.905  0.5029  0.0838  0.2952
  440MPD2    H5 6618   0.370   0.389  14.887  0.7929 -0.2226  1.8793
  440MPD2    N1 6619   4.571   0.521  14.725  0.1608 -0.5865  1.2833
  440MPD2    H7 6620   4.525   0.478  14.805 -0.7831  0.1468  1.1333
  441TMC3    C1 6621   0.335   0.213  15.056  0.6236  0.1559 -0.3134
  441TMC3    C2 6622   0.435   0.298  15.118 -0.9491 -0.1507  0.3451
  441TMC3    C3 6623   0.487   0.263  15.238 -0.7588 -0.0462  0.2199
  441TMC3    C4 6624   0.304   0.091  15.111 -0.0330  0.2075  0.3007
  441TMC3    C5 6625   0.360   0.067  15.231 -0.1676 -0.3312 -0.5393
  441TMC3    C6 6626   0.454   0.148  15.296 -0.7862 -0.1798 -0.7477
  441TMC3     C 6627   0.230   0.292  14.996  0.0313 -0.2272 -0.2288
  441TMC3     O 6628   0.112   0.266  15.018  0.4921 -0.4888 -0.0150
  441TMC3     H 6629   0.457   0.399  15.087  0.8265 -0.7217 -0.2245
  441TMC3    H1 6630   0.220   0.043  15.064  0.8679 -1.8345  0.7943
  441TMC3    H2 6631   0.506   0.115  15.385 -0.0678  1.7016 -0.4610
  441TMC3    C7 6632   0.313   4.690  15.300  0.5268 -0.3335  0.0120
  441TMC3    C8 6633   0.530   0.372  15.320 -0.0276 -0.3317  0.0233
  441TMC3    O1 6634   0.354   4.680  15.416  0.4448  0.1672  0.2705
  441TMC3    O2 6635   0.634   0.432  15.285  0.1024 -0.1473  0.0649
  442MPD2     C 6636   2.945   0.780  16.076 -0.0635 -0.3378  0.4601
  442MPD2    C1 6637   2.870   0.700  16.160 -0.4321  0.1061 -0.0067
  442MPD2    C2 6638   2.836   0.571  16.112 -0.2250 -0.0165 -0.5827
  442MPD2    C3 6639   2.862   0.535  15.979  0.0494  0.2667 -0.2769
  442MPD2    C4 6640   2.933   0.620  15.908  0.1511 -0.1546  0.5203
  442MPD2    C5 6641   2.982   0.737  15.952  1.2302  0.3911  0.0619
  442MPD2     H 6642   2.772   0.514  16.178 -0.9053 -0.0821 -1.3023
  442MPD2    H1 6643   2.940   0.593  15.803 -1.5528 -0.7528  0.5628
  442MPD2    H2 6644   2.973   0.881  16.102  0.1006  0.1475 -1.5782
  442MPD2    H3 6645   3.037   0.799  15.882  2.1176  1.2486  1.5231
  442MPD2     N 6646   2.825   0.421  15.910 -0.0806 -0.1853  0.2447
  442MPD2    H5 6647   2.859   0.408  15.815 -1.6135  2.0770 -0.6316
  442MPD2    N1 6648   2.826   0.746  16.288  0.1625  0.2947 -0.1347
  442MPD2    H7 6649   2.766   0.677  16.331  0.3380 -0.9986 -2.0029
  443TMC3    C1 6650   2.776   0.875  16.472  0.6458 -0.2753 -0.3337
  443TMC3    C2 6651   2.734   0.999  16.510  0.3115 -0.5058  0.0609
  443TMC3    C3 6652   2.655   1.010  16.624  0.7764  0.3009 -0.8258
  443TMC3    C4 6653   2.752   0.759  16.541  0.3636  0.6355  0.1991
  443TMC3    C5 6654   2.701   0.776  16.665 -0.4552  0.2328  0.3915
  443TMC3    C6 6655   2.632   0.892  16.696 -0.5536  1.0113  0.3898
  443TMC3     C 6656   2.852   0.864  16.353  0.0347 -0.1856  0.6412
  443TMC3     O 6657   2.881   0.973  16.297  0.2254 -0.6912  0.0338
  443TMC3     H 6658   2.772   1.092  16.467  1.5710 -2.1301 -2.3266
  443TMC3    H1 6659   2.783   0.659  16.514 -0.1891  0.1056  1.5774
  443TMC3    H2 6660   2.573   0.895  16.787 -0.1207  0.2760  0.6943
  443TMC3    C7 6661   2.691   0.667  16.765 -0.6841  0.9423  0.3883
  443TMC3    C8 6662   2.614   1.137  16.683 -0.0874  0.6904 -0.4770
  443TMC3    O1 6663   2.592   0.663  16.834  0.1609  0.5733  0.3699
  443TMC3    O2 6664   2.620   1.139  16.805  0.2180  0.3721  0.7693
  444MPD2     C 6665   2.959   0.416  17.227  0.2027  0.1416 -0.1255
  444MPD2    C1 6666   2.857   0.337  17.274  0.7455  0.4511  0.0777
  444MPD2    C2 6667   2.867   0.201  17.239 -0.1762 -0.2643 -0.4675
  444MPD2    C3 6668   2.985   0.149  17.184  0.1469 -0.0499  0.3136
  444MPD2    C4 6669   3.090   0.228  17.150 -0.2159  0.3872  0.3605
  444MPD2    C5 6670   3.073   0.358  17.175  0.8232  0.1086  0.6565
  444MPD2     H 6671   2.791   0.126  17.257  0.0038 -1.0108 -2.8015
  444MPD2    H1 6672   3.178   0.201  17.093  1.6605  4.6603  1.2131
  444MPD2    H2 6673   2.972   0.522  17.248  0.5144  0.6767 -3.0293
  444MPD2    H3 6674   3.153   0.430  17.165  0.5814  0.4169  0.9422
  444MPD2     N 6675   2.993   0.012  17.155  0.0034  0.3490 -0.2955
  444MPD2    H5 6676   2.908   4.691  17.155  0.4257 -0.3346  0.8722
  444MPD2    N1 6677   2.744   0.380  17.346  0.3201 -0.2522  0.4674
  444MPD2    H7 6678   2.684   0.301  17.370  0.6872 -0.6291  0.1526
  445TMC3    C1 6679   3.064   4.567  17.023  0.4659 -0.5363 -0.2504
  445TMC3    C2 6680   2.959   4.581  16.943  0.7999 -0.2468  0.3922
  445TMC3    C3 6681   2.965   4.520  16.818  0.5466 -0.4203  0.1322
  445TMC3    C4 6682   3.172   4.488  16.985 -0.1739 -0.5583 -0.2912
  445TMC3    C5 6683   3.164   4.411  16.872 -0.1027 -0.6097 -0.7260
  445TMC3    C6 6684   3.056   4.432  16.786 -0.0115 -0.2100 -0.2302
  445TMC3     C 6685   3.107   4.681  17.103 -0.0610 -0.1873 -0.5862
  445TMC3     O 6686   3.223   4.710  17.113  0.8150  0.5166 -0.0407
  445TMC3     H 6687   2.878   4.651  16.962  0.4565  0.1557 -2.4331
  445TMC3    H1 6688   3.260   4.491  17.048  0.2419 -1.3940 -0.8183
  445TMC3    H2 6689   3.061   4.381  16.691  0.5811  2.4175 -1.6080
  445TMC3    C7 6690   3.283   4.387  16.799 -0.0836 -0.4165 -0.2818
  445TMC3    C8 6691   2.860   4.557  16.725 -0.3452 -0.0012  0.0454
  445TMC3    O1 6692   3.308   4.465  16.706  0.2134  0.3304  0.1168
  445TMC3    O2 6693   2.757   4.600  16.779  0.2518 -0.0603 -0.6192
  446MPD2     C 6694   1.964   1.337  11.378 -0.3864  0.6515 -0.1268
  446MPD2    C1 6695   1.983   1.378  11.246  0.4236  0.3825 -0.2711
  446MPD2    C2 6696   2.056   1.491  11.214 -0.4343  0.8699  0.0462
  446MPD2    C3 6697   2.118   1.563  11.319  0.2718  0.2406  0.7774
  446MPD2    C4 6698   2.101   1.522  11.448  0.5686 -0.1580  0.1534
  446MPD2    C5 6699   2.028   1.407  11.477 -0.5723  0.6007 -0.8628
  446MPD2     H 6700   2.065   1.516  11.109  1.7817 -1.9548 -0.4648
  446MPD2    H1 6701   2.150   1.566  11.534  1.3729  1.1655 -0.9874
  446MPD2    H2 6702   1.908   1.250  11.411  2.2073 -0.8486  0.3183
  446MPD2    H3 6703   2.010   1.388  11.582  3.1574  0.4934 -0.2431
  446MPD2     N 6704   2.186   1.682  11.288 -0.5187  0.2382  0.5827
  446MPD2    H5 6705   2.193   1.702  11.189 -2.0309 -0.8410  0.2599
  446MPD2    N1 6706   1.933   1.305  11.137 -0.0705 -0.1491 -0.0167
  446MPD2    H7 6707   1.929   1.353  11.048  0.5488 -1.9767 -1.0300
  447TMC3    C1 6708   2.333   1.857  11.319 -0.3798  0.1648  0.2346
  447TMC3    C2 6709   2.299   1.897  11.193  0.8197 -0.4670 -0.6661
  447TMC3    C3 6710   2.378   1.982  11.123 -0.4419 -0.5074 -0.8077
  447TMC3    C4 6711   2.452   1.896  11.374 -0.5446 -0.8242  0.5181
  447TMC3    C5 6712   2.541   1.970  11.294 -0.3148 -0.4742 -0.7039
  447TMC3    C6 6713   2.504   2.005  11.168 -0.1150 -0.1323 -0.0524
  447TMC3     C 6714   2.259   1.753  11.385  0.7609 -0.2772  0.2598
  447TMC3     O 6715   2.295   1.732  11.497  0.2078 -0.4299 -0.0246
  447TMC3     H 6716   2.201   1.884  11.149  0.4011  1.8935 -0.4335
  447TMC3    H1 6717   2.480   1.870  11.476  0.1714 -0.5700  0.3864
  447TMC3    H2 6718   2.569   2.064  11.105  1.1646 -2.0864 -0.5803
  447TMC3    C7 6719   2.682   1.951  11.308 -0.6182 -0.3900 -0.5037
  447TMC3    C8 6720   2.325   2.046  11.004 -0.1294 -0.4495 -0.0989
  447TMC3    O1 6721   2.755   2.023  11.239 -0.0723 -0.1651  0.7383
  447TMC3    O2 6722   2.214   2.000  10.968 -0.1466  0.1524 -0.1314
  448TMC3    C1 6723   1.488   1.488  17.559  0.1092  0.0014  0.3658
  448TMC3    C2 6724   1.477   1.400  17.451 -0.0162  0.2847  0.0985
  448TMC3    C3 6725   1.403   1.291  17.470 -0.6094  0.3566 -0.1349
  448TMC3    C4 6726   1.439   1.458  17.685  0.6158 -0.0537  0.4573
  448TMC3    C5 6727   1.356   1.350  17.691  0.1722 -0.0078 -0.2519
  448TMC3    C6 6728   1.338   1.265  17.587 -0.5772 -0.5148  0.5167
  448TMC3     C 6729   1.530   1.627  17.521 -0.4338 -0.3146  1.1064
  448TMC3     O 6730   1.602   1.632  17.421  0.2615 -0.1195 -0.2508
  448TMC3     H 6731   1.497   1.437  17.350 -0.5703  1.2552  0.3392
  448TMC3    H1 6732   1.448   1.526   0.036  1.3606 -1.1777  1.2923
  448TMC3    H2 6733   1.300   1.165  17.602 -0.2658 -0.8206 -0.6855
  448TMC3    C7 6734   1.295   1.322   0.092 -0.5436 -0.2885  0.0429
  448TMC3    C8 6735   1.379   1.195  17.359 -0.5810 -0.4062 -0.2882
  448TMC3    O1 6736   1.340   1.364   0.199  0.0291  0.5597  0.2818
  448TMC3    O2 6737   1.276   1.129  17.358  0.0507 -0.5708 -0.2772
  449MPD2     C 6738   2.489   4.617  14.084 -0.1500  0.3946  0.2958
  449MPD2    C1 6739   2.397   4.700  14.146 -0.4620 -0.2854  0.0209
  449MPD2    C2 6740   2.262   4.665  14.144  0.2408 -0.4192 -0.2428
  449MPD2    C3 6741   2.222   4.536  14.105  0.1875 -0.5460 -0.3890
  449MPD2    C4 6742   2.325   4.451  14.058  0.7741  0.1764  0.1090
  449MPD2    C5 6743   2.456   4.490  14.049 -0.6450 -0.3784 -0.3383
  449MPD2     H 6744   2.199   0.011  14.183 -0.1640 -0.4848 -0.7748
  449MPD2    H1 6745   2.297   4.349  14.037 -1.0433  0.6976  0.0406
  449MPD2    H2 6746   2.585   4.656  14.053 -0.3558 -1.2885 -2.5343
  449MPD2    H3 6747   2.529   4.440  13.987 -1.9397 -1.6692 -0.8480
  449MPD2     N 6748   2.085   4.500  14.107 -0.1090 -0.2781  0.0250
  449MPD2    H5 6749   2.026   4.576  14.140  2.0926  1.0735  0.8525
  449MPD2    N1 6750   2.423   0.101  14.185  0.0512 -0.0995 -0.2800
  449MPD2    H7 6751   2.344   0.155  14.220  0.1702  1.5290 -2.5239
  450TMC3    C1 6752   2.522   0.312  14.200 -0.3970 -0.4305 -0.5347
  450TMC3    C2 6753   2.540   0.375  14.085 -0.3353 -0.2725  0.4950
  450TMC3    C3 6754   2.443   0.456  14.038  0.1377  0.2545  0.3392
  450TMC3    C4 6755   2.411   0.339  14.276  0.4224 -0.2978  0.6618
  450TMC3    C5 6756   2.315   0.431  14.233 -0.2492  0.2450  0.4191
  450TMC3    C6 6757   2.338   0.494  14.118 -0.7646 -0.4229  0.6658
  450TMC3     C 6758   2.539   0.168  14.173  0.2973  0.6620 -0.5449
  450TMC3     O 6759   2.643   0.133  14.118  0.4598 -0.1713 -0.0442
  450TMC3     H 6760   2.617   0.337  14.019  0.3149  0.6810  0.6895
  450TMC3    H1 6761   2.399   0.279  14.365  1.3355 -1.2048  0.1696
  450TMC3    H2 6762   2.258   0.547  14.068 -0.3557  1.0319  1.5600
  450TMC3    C7 6763   2.187   0.375  14.239 -0.0304  0.5379  0.1650
  450TMC3    C8 6764   2.410   0.424  13.903  0.2187 -0.4341  0.4124
  450TMC3    O1 6765   2.193   0.256  14.238 -0.3412  0.2539 -0.3073
  450TMC3    O2 6766   2.290   0.399  13.896 -0.2554 -0.3517  0.0557
  451MPD2     C 6767   2.929   3.046   1.143  0.8299  0.2724 -0.9398
  451MPD2    C1 6768   3.017   3.147   1.110 -0.0970  0.5779 -0.6384
  451MPD2    C2 6769   3.112   3.113   1.012  0.5491  0.1368 -1.1593
  451MPD2    C3 6770   3.118   2.989   0.957 -0.2936  0.4175 -0.4567
  451MPD2    C4 6771   3.027   2.894   0.997 -0.1173  0.4500 -0.2226
  451MPD2    C5 6772   2.919   2.933   1.071 -0.5827  0.1610 -0.7594
  451MPD2     H 6773   3.184   3.187   0.980  2.3334 -1.6704 -1.3033
  451MPD2    H1 6774   3.025   2.793   0.959 -1.5873  1.3558 -2.5680
  451MPD2    H2 6775   2.837   3.070   1.195  2.0666 -0.2490  1.4917
  451MPD2    H3 6776   2.841   2.862   1.096  1.1520 -1.2344  0.6877
  451MPD2     N 6777   3.222   2.965   0.867  0.4462  0.6367  0.6346
  451MPD2    H5 6778   3.297   3.031   0.852 -0.7141  1.8665  0.1910
  451MPD2    N1 6779   2.998   3.279   1.152  0.5166 -0.3459 -0.1994
  451MPD2    H7 6780   2.934   3.292   1.230  0.4067 -0.7470 -0.2237
  452TMC3    C1 6781   3.354   2.863   0.704  0.2377  0.1110 -0.4610
  452TMC3    C2 6782   3.372   2.751   0.629  0.3075  0.0823  0.5113
  452TMC3    C3 6783   3.459   2.748   0.534 -0.0679  1.1951  0.2370
  452TMC3    C4 6784   3.420   2.975   0.675 -0.1153  0.0837 -0.4386
  452TMC3    C5 6785   3.511   2.970   0.569  0.3983  0.4788 -0.5463
  452TMC3    C6 6786   3.541   2.853   0.498  0.3811 -0.4405 -0.3687
  452TMC3     C 6787   3.238   2.856   0.790 -0.0896  0.0602  0.0537
  452TMC3     O 6788   3.165   2.755   0.789 -0.3361  0.0237  0.2035
  452TMC3     H 6789   3.313   2.665   0.660 -2.7695  2.0159  0.0382
  452TMC3    H1 6790   3.409   3.066   0.733 -1.0729 -0.1578 -0.2391
  452TMC3    H2 6791   3.609   2.854   0.414 -0.3409 -3.2842 -0.9887
  452TMC3    C7 6792   3.559   3.098   0.522 -0.4487 -0.1797 -0.1303
  452TMC3    C8 6793   3.487   2.613   0.484 -0.8597  0.0942 -0.2843
  452TMC3    O1 6794   3.538   3.188   0.598 -0.5042  0.6158  0.4223
  452TMC3    O2 6795   3.394   2.532   0.474 -1.0309 -0.3447 -0.3257
  453TMC3    C1 6796   4.551   0.749  11.739 -0.2567  0.6490  0.5334
  453TMC3    C2 6797   4.500   0.628  11.706  0.5750  0.2927 -0.7351
  453TMC3    C3 6798   4.366   0.615  11.718 -0.3983 -0.0178  0.0851
  453TMC3    C4 6799   4.470   0.847  11.769  0.6302 -0.5653  0.3376
  453TMC3    C5 6800   4.337   0.846  11.740  0.2930 -0.1795  0.3661
  453TMC3    C6 6801   4.282   0.719  11.722  0.0097 -0.0992 -0.1243
  453TMC3     C 6802   4.691   0.773  11.756  0.1378  0.3516  0.0783
  453TMC3     O 6803   4.718   0.858  11.833 -0.6278  0.0722  0.4783
  453TMC3     H 6804   4.571   0.546  11.702 -0.3996 -0.5155 -1.5621
  453TMC3    H1 6805   4.511   0.944  11.794 -0.9407  0.2835 -0.3636
  453TMC3    H2 6806   4.176   0.707  11.707 -0.0168  1.6969 -1.3541
  453TMC3    C7 6807   4.261   0.964  11.743  0.0728  0.0194 -0.5277
  453TMC3    C8 6808   4.294   0.491  11.738  1.2670 -0.7931 -1.0052
  453TMC3    O1 6809   4.318   1.064  11.784 -0.0592 -0.2117 -0.4792
  453TMC3    O2 6810   4.185   0.490  11.791 -0.0723  0.5895 -0.2175
  454MPD2     C 6811   3.473   4.645  16.216 -0.2643  0.1275  0.0914
  454MPD2    C1 6812   3.465   4.661  16.082 -0.1275  0.6896 -0.2330
  454MPD2    C2 6813   3.447   0.058  16.031 -0.2697  0.2162 -0.3148
  454MPD2    C3 6814   3.450   0.171  16.113  0.4744 -0.2191 -0.3470
  454MPD2    C4 6815   3.468   0.148  16.245 -0.0224  0.1166 -0.0424
  454MPD2    C5 6816   3.477   0.021  16.301 -0.5458  0.0370  0.3407
  454MPD2     H 6817   3.430   0.068  15.924 -0.7949 -0.3662 -0.2868
  454MPD2    H1 6818   3.459   0.230  16.315 -1.2180  2.1191 -2.5364
  454MPD2    H2 6819   3.465   4.544  16.254 -0.7799  0.7109  1.5234
  454MPD2    H3 6820   3.488   0.000  16.407  0.8399  0.9915  0.3918
  454MPD2     N 6821   3.424   0.303  16.066  0.1229 -0.8487 -0.1991
  454MPD2    H5 6822   3.430   0.385  16.126  0.3624 -1.8215  1.0814
  454MPD2    N1 6823   3.478   4.555  15.992  0.4737 -0.0547  0.2636
  454MPD2    H7 6824   3.458   4.574  15.894  0.9689  0.8927  0.3527
  455TMC3    C1 6825   3.223   0.357  15.966  0.0867  0.1691  0.5412
  455TMC3    C2 6826   3.203   0.429  16.077 -0.0643 -0.5116 -0.3736
  455TMC3    C3 6827   3.097   0.399  16.161  0.9263 -0.3923  0.4111
  455TMC3    C4 6828   3.155   0.240  15.952 -0.0293  0.0500  0.4144
  455TMC3    C5 6829   3.059   0.196  16.040 -0.1207 -0.6592  0.0684
  455TMC3    C6 6830   3.023   0.285  16.146 -0.4381 -0.5618  0.3893
  455TMC3     C 6831   3.371   0.331  15.943 -0.0801  0.3210 -0.0459
  455TMC3     O 6832   3.392   0.281  15.834  0.5457  0.4128 -0.5216
  455TMC3     H 6833   3.270   0.510  16.101 -1.4206  0.0587  1.4814
  455TMC3    H1 6834   3.184   0.175  15.871  3.0448  1.6531  0.2185
  455TMC3    H2 6835   2.955   0.256  16.225  0.4896  0.6756  1.6356
  455TMC3    C7 6836   3.085   0.068  16.092 -0.0824 -0.9399 -0.0472
  455TMC3    C8 6837   3.142   0.414  16.301  0.2133 -0.3004 -0.0885
  455TMC3    O1 6838   3.100   0.069  16.216  0.2344 -0.5087  0.4019
  455TMC3    O2 6839   3.188   0.523  16.332  0.3758  0.0131 -0.2771
  456MPD2     C 6840   1.841   4.600  17.001 -0.1801 -0.0209  0.2391
  456MPD2    C1 6841   1.788   4.686  16.912 -0.6808  0.1664  0.2317
  456MPD2    C2 6842   1.723   0.068  16.953 -0.1363 -0.1697 -0.0540
  456MPD2    C3 6843   1.701   0.088  17.087 -0.6013  0.0896  0.2410
  456MPD2    C4 6844   1.744   4.732  17.175  0.1863  0.1209 -0.2093
  456MPD2    C5 6845   1.834   4.632  17.136 -0.4912 -0.6918  0.1942
  456MPD2     H 6846   1.677   0.135  16.881 -1.1889 -0.1937  0.6007
  456MPD2    H1 6847   1.725   0.007  17.282  1.1581  3.3793 -0.3100
  456MPD2    H2 6848   1.880   4.501  16.979  0.6873  0.2152  0.7270
  456MPD2    H3 6849   1.875   4.565  17.210 -0.2009  0.0677  0.7186
  456MPD2     N 6850   1.631   0.199  17.137  0.2035 -0.4711 -0.0766
  456MPD2    H5 6851   1.603   0.202  17.234  3.8992 -0.5395  0.9762
  456MPD2    N1 6852   1.786   4.642  16.775  0.0282  0.2932 -0.0287
  456MPD2    H7 6853   1.834   4.554  16.756 -0.8464  0.0059 -0.9123
  457TMC3    C1 6854   1.489   0.381  17.131  0.5471 -0.6497  0.0970
  457TMC3    C2 6855   1.442   0.500  17.071  0.3543 -0.4960 -0.2000
  457TMC3    C3 6856   1.340   0.579  17.133 -0.4754 -0.2265  0.4708
  457TMC3    C4 6857   1.426   0.336  17.248 -0.4383 -0.9677  0.4645
  457TMC3    C5 6858   1.323   0.403  17.295 -0.3493  0.3247  0.4745
  457TMC3    C6 6859   1.280   0.522  17.241 -0.1775  0.1330  0.4129
  457TMC3     C 6860   1.588   0.303  17.057  0.2559 -0.1128 -0.1642
  457TMC3     O 6861   1.621   0.341  16.947  0.2122 -0.2910 -0.3927
  457TMC3     H 6862   1.465   0.526  16.969 -2.2861  2.4958 -0.0328
  457TMC3    H1 6863   1.458   0.248  17.303  0.8033  0.0524  1.3814
  457TMC3    H2 6864   1.200   0.568  17.297  0.2016 -0.1848  1.2216
  457TMC3    C7 6865   1.268   0.356  17.425 -0.4097 -0.0175  0.3889
  457TMC3    C8 6866   1.327   0.721  17.117  0.5936  0.0691  0.1981
  457TMC3    O1 6867   1.278   0.236  17.450  0.1714  0.0415  0.3455
  457TMC3    O2 6868   1.239   0.773  17.184 -0.3315 -0.0285 -0.0984
  458MPD2     C 6869   3.572   4.333  12.357 -0.1819  0.4671 -0.0739
  458MPD2    C1 6870   3.617   4.233  12.427 -0.3163  0.1757 -0.4267
  458MPD2    C2 6871   3.530   4.173  12.517 -0.3171 -0.4885  0.3758
  458MPD2    C3 6872   3.398   4.216  12.535  0.7998  0.5765 -0.3089
  458MPD2    C4 6873   3.353   4.315  12.457  0.2764  0.7825 -1.0768
  458MPD2    C5 6874   3.440   4.376  12.372 -0.2755 -0.3285 -0.3681
  458MPD2     H 6875   3.560   4.089  12.579 -1.2110 -0.4687  0.8360
  458MPD2    H1 6876   3.250   4.349  12.466  0.6212  1.7811 -0.9554
  458MPD2    H2 6877   3.633   4.382  12.282 -1.9129 -0.9004 -2.3857
  458MPD2    H3 6878   3.410   4.460  12.311  2.1803  0.8113 -0.0051
  458MPD2     N 6879   3.334   4.176  12.652  0.1376 -0.3524  0.3310
  458MPD2    H5 6880   3.390   4.118  12.714  0.3440  1.3282  1.6931
  458MPD2    N1 6881   3.760   4.199  12.428  0.0467 -0.1366 -0.0985
  458MPD2    H7 6882   3.825   4.249  12.369 -2.5360  0.2984 -2.5690
  459TMC3    C1 6883   3.947   4.174  12.561  0.2614 -0.6862 -0.4562
  459TMC3    C2 6884   4.034   4.211  12.465  0.0548  0.2284 -0.4511
  459TMC3    C3 6885   4.161   4.247  12.514  1.0674 -0.0510  0.5039
  459TMC3    C4 6886   3.981   4.160  12.694  0.0241 -0.5784  0.0313
  459TMC3    C5 6887   4.112   4.190  12.727  0.0170  0.2149  0.4100
  459TMC3    C6 6888   4.206   4.236  12.646  0.1151  1.2016 -0.3009
  459TMC3     C 6889   3.814   4.118  12.525  0.1798 -0.9256 -0.8771
  459TMC3     O 6890   3.761   4.047  12.607  0.8415  0.0761 -0.1055
  459TMC3     H 6891   3.999   4.216  12.362 -1.2727 -1.3867 -0.0806
  459TMC3    H1 6892   3.905   4.149  12.771  1.1632 -0.7068  1.1191
  459TMC3    H2 6893   4.304   4.277  12.669  0.7843  0.2555 -1.4849
  459TMC3    C7 6894   4.134   4.180  12.875  0.6563 -0.4390 -0.5868
  459TMC3    C8 6895   4.258   4.303  12.416  0.2717 -1.1113 -0.6435
  459TMC3    O1 6896   4.066   4.105  12.942 -0.4846  0.0248 -0.2359
  459TMC3    O2 6897   4.379   4.306  12.447  0.6033 -0.5824  0.0627
  460MPD2     C 6898   2.371   2.382  10.863 -0.1376  0.2272  0.3297
  460MPD2    C1 6899   2.342   2.248  10.857  0.4238  0.2968  0.1287
  460MPD2    C2 6900   2.259   2.195  10.757  0.0252 -0.1563  0.6089
  460MPD2    C3 6901   2.215   2.278  10.655  1.0096  0.1894 -0.6303
  460MPD2    C4 6902   2.254   2.413  10.663  1.0988 -0.2654 -0.4784
  460MPD2    C5 6903   2.334   2.456  10.757 -0.7518 -0.1479 -0.7368
  460MPD2     H 6904   2.235   2.089  10.751 -0.3496  0.0892 -2.2840
  460MPD2    H1 6905   2.218   2.493  10.599  0.6547 -0.8474 -0.9594
  460MPD2    H2 6906   2.427   2.415  10.949  0.7987  0.4296 -0.3639
  460MPD2    H3 6907   2.358   2.562  10.758  0.7123 -0.4815 -0.4704
  460MPD2     N 6908   2.143   2.230  10.542 -0.0399 -0.3890  0.2844
  460MPD2    H5 6909   2.109   2.136  10.560 -0.9716 -0.0611  0.2040
  460MPD2    N1 6910   2.379   2.170  10.967  0.4884 -0.0667  0.2257
  460MPD2    H7 6911   2.455   2.206  11.025 -0.0505 -2.5126  2.4458
  461TMC3    C1 6912   1.997   2.252  10.343 -0.1831  0.7347  0.5359
  461TMC3    C2 6913   2.059   2.159  10.271  0.8065  0.1022 -0.2973
  461TMC3    C3 6914   2.069   2.182  10.131 -0.3575 -0.1468  0.4985
  461TMC3    C4 6915   1.938   2.360  10.282 -0.1155 -0.1347  0.4365
  461TMC3    C5 6916   1.964   2.386  10.154  0.4776 -0.4290 -0.2465
  461TMC3    C6 6917   2.024   2.296  10.071  0.1143  0.1445 -0.4412
  461TMC3     C 6918   2.087   2.309  10.442 -0.1141  0.4364 -0.1513
  461TMC3     O 6919   2.095   2.431  10.420 -0.0793  0.3790 -0.4091
  461TMC3     H 6920   2.102   2.070  10.315 -0.3754 -1.0366 -1.4441
  461TMC3    H1 6921   1.886   2.433  10.342  0.7720  1.2596 -0.4864
  461TMC3    H2 6922   2.043   2.329   9.969  0.5436 -1.3662 -0.8475
  461TMC3    C7 6923   1.980   2.534  10.118 -0.0789 -0.4535 -0.1068
  461TMC3    C8 6924   2.152   2.089  10.051 -0.0992  0.2599  0.1035
  461TMC3    O1 6925   1.951   2.578  10.006  1.0490 -0.0079  0.0929
  461TMC3    O2 6926   2.212   2.003  10.113 -0.0160  0.4080 -0.2403
  462TMC3    C1 6927   2.788   3.413   0.415  0.0138 -0.3746 -0.1303
  462TMC3    C2 6928   2.870   3.397   0.307 -0.0811 -0.0230 -0.6738
  462TMC3    C3 6929   2.912   3.272   0.275 -0.3899  0.0826  0.4195
  462TMC3    C4 6930   2.720   3.311   0.470 -0.7846  0.4308  1.2707
  462TMC3    C5 6931   2.759   3.189   0.440  0.1954 -0.2460 -0.6514
  462TMC3    C6 6932   2.856   3.167   0.344  0.5931 -0.1424  0.2245
  462TMC3     C 6933   2.758   3.545   0.463  0.0547  0.2924  0.0835
  462TMC3     O 6934   2.663   3.554   0.533  0.0384  0.0081 -0.0039
  462TMC3     H 6935   2.920   3.479   0.257 -0.1102  0.2872 -0.1941
  462TMC3    H1 6936   2.637   3.326   0.539 -1.3797  2.0971  0.1866
  462TMC3    H2 6937   2.906   3.072   0.334 -0.7270 -0.8808  0.6731
  462TMC3    C7 6938   2.659   3.086   0.452 -0.6496 -0.1218  0.3058
  462TMC3    C8 6939   2.944   3.254   0.134 -0.2313 -0.2156  0.5117
  462TMC3    O1 6940   2.702   2.972   0.431 -0.6217 -0.0688  0.0756
  462TMC3    O2 6941   2.936   3.347   0.053 -0.5207 -0.3583  0.1035
  463MPD2     C 6942   2.985   2.036   1.042  0.2321  0.3541 -0.1482
  463MPD2    C1 6943   2.942   2.124   1.140 -0.5070  0.0861  0.1774
  463MPD2    C2 6944   3.032   2.199   1.213  0.6652  0.5083  0.8753
  463MPD2    C3 6945   3.167   2.181   1.193 -0.3391 -0.4156  0.6607
  463MPD2    C4 6946   3.209   2.097   1.092 -0.1353 -0.5672  0.3304
  463MPD2    C5 6947   3.119   2.033   1.015 -0.2573  0.3061  0.1944
  463MPD2     H 6948   2.998   2.261   1.296 -0.7991 -1.4790  1.7649
  463MPD2    H1 6949   3.313   2.084   1.065 -0.0266  1.1354 -0.0898
  463MPD2    H2 6950   2.923   1.976   0.976  0.7484 -1.0723  0.6599
  463MPD2    H3 6951   3.139   1.957   0.940 -0.4082 -0.0034  0.4671
  463MPD2     N 6952   3.267   2.228   1.285  0.6153  0.2791  0.5814
  463MPD2    H5 6953   3.360   2.202   1.253  0.5703 -0.6643  1.2316
  463MPD2    N1 6954   2.805   2.153   1.164 -0.4774 -0.2906 -0.1022
  463MPD2    H7 6955   2.777   2.214   1.240 -0.3934  0.1209 -0.4003
  464TMC3    C1 6956   2.568   2.109   1.134  0.2375 -0.1939 -0.0561
  464TMC3    C2 6957   2.474   2.088   1.045 -0.6803  0.1681 -0.7861
  464TMC3    C3 6958   2.346   2.064   1.077 -0.0551 -1.3215  0.1902
  464TMC3    C4 6959   2.540   2.114   1.269  0.7055  0.0349  0.0227
  464TMC3    C5 6960   2.418   2.062   1.305 -0.4645 -0.0611 -0.1313
  464TMC3    C6 6961   2.323   2.039   1.213 -0.1582  0.1906  0.2554
  464TMC3     C 6962   2.706   2.103   1.082 -0.4142 -0.7370 -0.2777
  464TMC3     O 6963   2.709   2.037   0.979 -0.1773 -0.0131 -0.0627
  464TMC3     H 6964   2.502   2.099   0.941  0.1705 -1.6640 -0.7459
  464TMC3    H1 6965   2.615   2.111   1.348  1.5536  3.7303 -0.6383
  464TMC3    H2 6966   2.233   1.994   1.253  0.1827 -0.8805 -0.2060
  464TMC3    C7 6967   2.400   1.985   1.420 -0.1471 -0.0589 -0.2634
  464TMC3    C8 6968   2.257   2.004   0.970  0.0813  0.0850 -0.8153
  464TMC3    O1 6969   2.383   2.037   1.531  0.0510  0.1968 -0.1349
  464TMC3    O2 6970   2.319   1.960   0.874 -0.4804  0.0864 -0.4441
  465MPD2     C 6971   0.122   4.582  16.775 -0.2670  0.4790 -0.7815
  465MPD2    C1 6972   0.031   4.656  16.845 -0.0677  0.1435 -0.0814
  465MPD2    C2 6973   4.657   4.712  16.772  0.2049 -0.0799  0.0811
  465MPD2    C3 6974   4.657   4.720  16.631  0.3594  0.2562 -0.2452
  465MPD2    C4 6975   0.023   4.645  16.565 -0.4583  0.6389 -0.0732
  465MPD2    C5 6976   0.115   4.570  16.639  0.7966 -0.1209 -0.0183
  465MPD2     H 6977   4.576   0.029  16.824 -1.6601 -1.5961 -1.3673
  465MPD2    H1 6978   0.029   4.645  16.457 -0.0739  0.6000 -0.0515
  465MPD2    H2 6979   0.196   4.525  16.829 -0.8818  1.5526  1.2234
  465MPD2    H3 6980   0.187   4.506  16.590  1.0599  1.0974 -1.2081
  465MPD2     N 6981   4.555   0.056  16.561  0.3830 -0.0656 -0.3640
  465MPD2    H5 6982   4.492   0.106  16.624  0.6670  0.6989 -0.6849
  465MPD2    N1 6983   0.026   4.652  16.985  0.1048  0.4790  1.1119
  465MPD2    H7 6984   4.667   4.662  17.026 -1.2275 -1.6395 -1.4085
  466TMC3    C1 6985   4.256   0.264  16.471 -0.2211 -0.5809 -0.7972
  466TMC3    C2 6986   4.278   0.363  16.386  0.0678  0.0444 -0.4774
  466TMC3    C3 6987   4.369   0.348  16.285 -0.4516  0.1717  0.4268
  466TMC3    C4 6988   4.329   0.147  16.471 -0.5940 -0.6436  0.2796
  466TMC3    C5 6989   4.422   0.132  16.370  0.1294 -0.3690  0.6088
  466TMC3    C6 6990   4.441   0.229  16.275  0.2368  0.0564 -1.1349
  466TMC3     C 6991   4.209   0.301  16.603  1.0441 -0.7119  0.3362
  466TMC3     O 6992   4.203   0.202  16.677 -0.2988  0.0496  0.1136
  466TMC3     H 6993   4.209   0.446  16.380  1.4765  1.3148  0.9420
  466TMC3    H1 6994   4.313   0.069  16.544  1.4204 -0.6814  0.6838
  466TMC3    H2 6995   4.523   0.221  16.206 -0.0668  1.2453 -1.6318
  466TMC3    C7 6996   4.555   0.086  16.425  0.0246  0.3197 -0.2929
  466TMC3    C8 6997   4.437   0.464  16.223 -0.1043  0.3035 -0.8126
  466TMC3    O1 6998   4.650   0.098  16.350 -0.7531 -0.5071  0.0373
  466TMC3    O2 6999   4.490   0.452  16.112 -0.1139 -0.1873 -0.4992
  467TMC3    C1 7000   1.072   3.682  13.866  0.2263  0.2447  1.1034
  467TMC3    C2 7001   1.050   3.805  13.811  0.8035  0.6519 -0.6046
  467TMC3    C3 7002   0.970   3.822  13.705 -0.8469  0.2456 -0.0066
  467TMC3    C4 7003   1.001   3.574  13.823 -0.4941 -0.2732 -0.2837
  467TMC3    C5 7004   0.918   3.599  13.722 -0.1962  0.4108  0.1301
  467TMC3    C6 7005   0.898   3.717  13.653 -0.5299  0.3625  0.5345
  467TMC3     C 7006   1.197   3.651  13.931  0.0950  0.4360  0.1224
  467TMC3     O 7007   1.249   3.747  13.987 -0.3207 -0.5949  0.0325
  467TMC3     H 7008   1.118   3.885  13.836  1.4972  0.1157 -0.7807
  467TMC3    H1 7009   1.010   3.477  13.871 -1.3412  0.2802  0.9938
  467TMC3    H2 7010   0.826   3.713  13.572 -0.7578  0.8607  0.7148
  467TMC3    C7 7011   0.812   3.514  13.714 -0.1929  0.3426  0.2389
  467TMC3    C8 7012   0.947   3.949  13.631 -0.9009 -0.2321  0.5147
  467TMC3    O1 7013   0.770   3.468  13.608  0.1036 -0.2569  0.0811
  467TMC3    O2 7014   0.996   4.050  13.687  0.4917  0.2761 -0.0484
  468MPD2     C 7015   0.332   1.549  10.591 -0.1162 -0.6700  1.0552
  468MPD2    C1 7016   0.309   1.539  10.727  0.5552 -0.3894 -0.5890
  468MPD2    C2 7017   0.244   1.425  10.769  0.2975  0.1824 -0.6534
  468MPD2    C3 7018   0.215   1.326  10.681  1.6028  0.7618  0.5257
  468MPD2    C4 7019   0.238   1.339  10.546 -0.5359 -0.2720 -0.0116
  468MPD2    C5 7020   0.299   1.449  10.502 -0.6529  0.4919 -0.9029
  468MPD2     H 7021   0.217   1.420  10.874  1.9358 -2.0524 -0.3301
  468MPD2    H1 7022   0.209   1.258  10.480 -0.9808 -0.4505  0.3965
  468MPD2    H2 7023   0.359   1.648  10.556  1.2645 -2.0028 -1.6541
  468MPD2    H3 7024   0.307   1.463  10.395 -2.8175  0.5595 -1.0549
  468MPD2     N 7025   0.170   1.200  10.726  0.3477 -0.3255  0.4654
  468MPD2    H5 7026   0.161   1.117  10.669  0.9362 -0.4195  0.5081
  468MPD2    N1 7027   0.337   1.644  10.822 -0.1731  0.1136  0.3175
  468MPD2    H7 7028   0.310   1.628  10.919 -1.2373 -1.2014 -0.1980
  469TMC3    C1 7029   0.367   1.858  10.904 -0.1329  0.8009 -0.3052
  469TMC3    C2 7030   0.411   1.821  11.019 -0.4650 -0.4266  0.2641
  469TMC3    C3 7031   0.409   1.914  11.119 -0.1816 -0.5707 -0.4536
  469TMC3    C4 7032   0.316   1.975  10.868  0.0768  0.0174 -0.0401
  469TMC3    C5 7033   0.294   2.057  10.983  1.0426 -0.2422 -0.0550
  469TMC3    C6 7034   0.350   2.039  11.106  0.5359  0.1129 -0.8650
  469TMC3     C 7035   0.388   1.765  10.790  0.4986 -0.2442  0.3015
  469TMC3     O 7036   0.423   1.809  10.683 -0.3279 -0.1040 -0.8267
  469TMC3     H 7037   0.456   1.723  11.029 -4.7013 -2.4166 -0.3241
  469TMC3    H1 7038   0.263   1.990  10.775  0.0831  1.1806  0.1487
  469TMC3    H2 7039   0.346   2.113  11.185  1.3001  0.4140 -1.1079
  469TMC3    C7 7040   0.220   2.179  10.970 -0.0267 -0.4216 -0.1481
  469TMC3    C8 7041   0.489   1.882  11.233 -0.6693 -0.1210  0.7412
  469TMC3    O1 7042   0.259   2.270  11.044  0.1147  0.6849 -0.2955
  469TMC3    O2 7043   0.599   1.837  11.212  0.3144  1.1469  0.1916
  470TMC3    C1 7044   1.920   2.554   0.576  0.5047 -0.0439 -0.4097
  470TMC3    C2 7045   1.978   2.664   0.624  0.1814 -0.1716  0.1609
  470TMC3    C3 7046   1.950   2.696   0.755 -1.4383 -0.4420  0.6756
  470TMC3    C4 7047   1.826   2.478   0.644  0.6653 -0.1528 -0.1710
  470TMC3    C5 7048   1.801   2.517   0.775 -0.8982 -0.4156 -0.0068
  470TMC3    C6 7049   1.859   2.624   0.827 -0.1512  0.2993  0.2325
  470TMC3     C 7050   1.941   2.531   0.435  0.7042 -0.1637  0.6162
  470TMC3     O 7051   2.000   2.618   0.367  0.7025  0.1511  0.3992
  470TMC3     H 7052   2.047   2.721   0.565  1.5505 -0.4495  1.4864
  470TMC3    H1 7053   1.781   2.390   0.599  1.7650 -1.8934  2.1120
  470TMC3    H2 7054   1.853   2.635   0.935 -2.1442  2.4597 -0.0757
  470TMC3    C7 7055   1.671   2.463   0.826  0.5346 -0.0363 -0.4609
  470TMC3    C8 7056   2.004   2.810   0.830  0.8591  0.4005 -0.2035
  470TMC3    O1 7057   1.606   2.389   0.753  0.1912  0.0163 -0.0575
  470TMC3    O2 7058   1.947   2.839   0.934 -0.1059 -0.0285  0.1911
  471MPD2     C 7059   2.665   4.284  16.895 -0.6403 -0.0003  0.6208
  471MPD2    C1 7060   2.785   4.222  16.879 -0.3035 -0.5140 -0.5784
  471MPD2    C2 7061   2.833   4.156  16.987 -0.8585  0.2656  0.1684
  471MPD2    C3 7062   2.773   4.151  17.112  0.1300  0.1424  0.4141
  471MPD2    C4 7063   2.659   4.228  17.130  0.0968  0.7810  0.1829
  471MPD2    C5 7064   2.607   4.291  17.020 -0.2082 -0.4559  0.7763
  471MPD2     H 7065   2.927   4.103  16.976  0.4669  2.5568  0.3617
  471MPD2    H1 7066   2.606   4.224  17.224 -3.2009 -1.5224 -1.7843
  471MPD2    H2 7067   2.610   4.325  16.811  2.9678 -2.0609 -2.6907
  471MPD2    H3 7068   2.512   4.342  17.031  0.4985  0.4787  2.5895
  471MPD2     N 7069   2.816   4.065  17.222 -0.0907  0.0715 -0.2690
  471MPD2    H5 7070   2.764   4.071  17.308  1.4128  0.2540  0.6340
  471MPD2    N1 7071   2.848   4.198  16.755 -0.2400 -0.5579 -0.6820
  471MPD2    H7 7072   2.933   4.145  16.741  0.3704 -0.0843  1.2560
  472TMC3    C1 7073   2.866   4.173  16.528  0.3877  0.8046 -0.2281
  472TMC3    C2 7074   2.853   4.225  16.398  0.2483 -0.1970 -0.0613
  472TMC3    C3 7075   2.883   4.131  16.297  0.5418  0.1202  0.3203
  472TMC3    C4 7076   2.904   4.044  16.544  0.3204  0.2449 -0.4327
  472TMC3    C5 7077   2.929   3.959  16.448  0.1079 -1.0080  0.4846
  472TMC3    C6 7078   2.913   4.000  16.317 -0.2162  0.0302  0.0709
  472TMC3     C 7079   2.786   4.227  16.635 -0.5392 -0.1987  0.4568
  472TMC3     O 7080   2.688   4.293  16.606 -0.4851  0.5310 -0.3779
  472TMC3     H 7081   2.821   4.327  16.377  2.0220  0.2096 -0.8139
  472TMC3    H1 7082   2.930   4.002  16.641  0.8209 -0.4361 -0.8656
  472TMC3    H2 7083   2.949   3.939  16.235  2.9802 -0.6096  1.9427
  472TMC3    C7 7084   2.872   3.828  16.473  0.1883 -0.3278  0.2336
  472TMC3    C8 7085   2.787   4.129  16.182  0.1081 -0.4738  0.2379
  472TMC3    O1 7086   2.867   3.790  16.589  0.8565  0.0227  0.2812
  472TMC3    O2 7087   2.842   4.123  16.071 -0.2423 -0.1936 -0.1318
  473MPD2     C 7088   2.522   0.929  14.145  0.0839 -0.3357  0.5382
  473MPD2    C1 7089   2.469   1.029  14.061  0.8291  0.0328  0.2339
  473MPD2    C2 7090   2.530   1.151  14.064  0.4781  0.1540  0.0425
  473MPD2    C3 7091   2.643   1.171  14.138  0.4321 -0.2959 -0.1816
  473MPD2    C4 7092   2.692   1.068  14.219 -0.4656  0.3095  0.4000
  473MPD2    C5 7093   2.624   0.956  14.229  0.0495  0.8274 -0.5975
  473MPD2     H 7094   2.496   1.223  13.990 -0.2348  0.2943  0.5081
  473MPD2    H1 7095   2.773   1.090  14.287  1.7913 -1.1678 -1.8353
  473MPD2    H2 7096   2.484   0.828  14.140 -1.6318  0.4045 -1.5779
  473MPD2    H3 7097   2.644   0.888  14.310  1.7491 -0.0666 -1.7742
  473MPD2     N 7098   2.705   1.298  14.142 -0.5378  0.1638  0.1747
  473MPD2    H5 7099   2.789   1.297  14.199  0.3035 -0.2381 -1.0721
  473MPD2    N1 7100   2.355   1.020  13.979  0.2837 -0.2577  0.1423
  473MPD2    H7 7101   2.327   1.107  13.934  1.2193 -0.8066 -1.4902
  474TMC3    C1 7102   2.756   1.525  14.114 -0.3931  0.3773  0.3795
  474TMC3    C2 7103   2.724   1.642  14.055 -0.2828 -0.4411  0.4371
  474TMC3    C3 7104   2.817   1.745  14.055  0.3985 -0.8488 -0.1663
  474TMC3    C4 7105   2.875   1.505  14.179 -0.2371 -0.4891 -0.3216
  474TMC3    C5 7106   2.960   1.615  14.191  0.5872 -0.3926 -0.0922
  474TMC3    C6 7107   2.934   1.735  14.121 -0.1907 -0.2287  0.7272
  474TMC3     C 7108   2.660   1.416  14.098  0.2258  0.6258  0.5145
  474TMC3     O 7109   2.557   1.452  14.044 -0.1948  0.0079 -0.2395
  474TMC3     H 7110   2.639   1.652  13.989 -1.4953 -0.4361  2.0113
  474TMC3    H1 7111   2.892   1.420  14.244  1.7836  0.4039  0.3260
  474TMC3    H2 7112   3.008   1.813  14.114 -1.8202  1.0916 -2.0582
  474TMC3    C7 7113   3.072   1.618  14.286  0.2838 -0.3976 -0.2235
  474TMC3    C8 7114   2.797   1.838  13.944  0.7374 -0.2210 -0.3630
  474TMC3    O1 7115   3.125   1.515  14.318  0.1768  0.3709 -0.3770
  474TMC3    O2 7116   2.744   1.792  13.842  0.6648 -0.3432  0.1307
  475MPD2     C 7117   2.142   4.282   9.746  0.4881 -0.5394  0.3282
  475MPD2    C1 7118   2.049   4.346   9.667 -0.5569 -0.2844  0.6318
  475MPD2    C2 7119   1.925   4.368   9.727 -0.0091  0.0184 -0.1638
  475MPD2    C3 7120   1.891   4.326   9.852  0.7111 -0.6347  0.9994
  475MPD2    C4 7121   1.995   4.275   9.930 -0.6105  0.5727  0.3056
  475MPD2    C5 7122   2.114   4.246   9.880 -0.0283 -0.4463  0.1412
  475MPD2     H 7123   1.854   4.424   9.667 -0.8133 -1.2136 -0.3636
  475MPD2    H1 7124   1.982   4.260  10.037  1.7863 -1.7353  0.2708
  475MPD2    H2 7125   2.246   4.276   9.716  0.2261  0.3804 -0.7425
  475MPD2    H3 7126   2.200   4.206   9.933 -0.4960 -0.0211  1.2258
  475MPD2     N 7127   1.762   4.364   9.899  0.0183 -0.5456 -0.8083
  475MPD2    H5 7128   1.692   4.383   9.828 -0.4524 -1.1558 -0.5116
  475MPD2    N1 7129   2.096   4.396   9.549 -0.0258 -0.1054 -0.3457
  475MPD2    H7 7130   2.190   4.369   9.524  0.4047  0.2974  0.8398
  476TMC3    C1 7131   2.087   4.512   9.340 -0.3126 -0.1403  0.3123
  476TMC3    C2 7132   1.998   4.550   9.247  0.4594  0.2730 -0.3421
  476TMC3    C3 7133   2.018   4.672   9.188  0.3606 -0.0518 -0.6539
  476TMC3    C4 7134   2.198   4.584   9.359  0.1108 -0.1424 -0.1623
  476TMC3    C5 7135   2.225   4.704   9.292 -0.5323 -0.3123  0.1090
  476TMC3    C6 7136   2.123   0.022   9.215 -0.3659 -0.4653 -0.3992
  476TMC3     C 7137   2.019   4.453   9.454 -0.0676  0.0925  0.1033
  476TMC3     O 7138   1.897   4.468   9.448 -0.0674  0.7207  0.5434
  476TMC3     H 7139   1.919   4.481   9.219  0.2981  0.2812  0.1038
  476TMC3    H1 7140   2.271   4.554   9.433 -1.8226 -0.6609  1.5684
  476TMC3    H2 7141   2.117   0.125   9.180  0.9074  0.7235  2.8959
  476TMC3    C7 7142   2.316   0.063   9.353 -0.2824  0.3170 -0.0183
  476TMC3    C8 7143   1.889   0.006   9.159  0.7744  0.7492  0.2313
  476TMC3    O1 7144   2.356   0.157   9.285  0.4198 -0.0988  0.1440
  476TMC3    O2 7145   1.898   0.109   9.093  0.1994  0.1993  0.2663
  477MPD2     C 7146   3.046   1.464  11.954 -0.0057 -0.5267 -0.3969
  477MPD2    C1 7147   2.950   1.363  11.944 -0.5202  0.4069  0.5523
  477MPD2    C2 7148   2.984   1.232  11.990 -0.0857  0.3029 -0.0967
  477MPD2    C3 7149   3.106   1.208  12.051  0.6819 -0.0227  0.3661
  477MPD2    C4 7150   3.202   1.310  12.056 -0.0456  0.0847 -0.3667
  477MPD2    C5 7151   3.172   1.433  12.001 -0.3655  0.2726  0.6330
  477MPD2     H 7152   2.907   1.155  11.986  0.4728 -0.3251  1.0894
  477MPD2    H1 7153   3.301   1.299  12.099 -0.4909 -1.5346  0.2515
  477MPD2    H2 7154   3.025   1.559  11.907 -4.2979 -1.7949 -1.1284
  477MPD2    H3 7155   3.252   1.507  12.003  0.5066 -0.7412  3.0096
  477MPD2     N 7156   3.132   1.075  12.090  0.6395  0.3860  0.1308
  477MPD2    H5 7157   3.062   1.001  12.088  0.1926  0.8044  0.1079
  477MPD2    N1 7158   2.826   1.400  11.887 -0.6028 -0.8971 -0.0780
  477MPD2    H7 7159   2.816   1.498  11.862  2.3544 -0.8390 -0.9327
  478TMC3    C1 7160   2.616   1.367  11.781  0.5177  0.6940  0.0605
  478TMC3    C2 7161   2.608   1.499  11.799  0.4088 -0.8161  0.1259
  478TMC3    C3 7162   2.500   1.554  11.734 -0.3288  0.0171  0.0808
  478TMC3    C4 7163   2.543   1.291  11.697 -0.5638  0.5418  0.3522
  478TMC3    C5 7164   2.446   1.351  11.626 -0.0884 -0.5026  0.0058
  478TMC3    C6 7165   2.425   1.482  11.650 -0.0187 -0.0483 -0.8149
  478TMC3     C 7166   2.737   1.308  11.839  0.5324 -0.1527 -0.0657
  478TMC3     O 7167   2.754   1.187  11.829 -0.3337  0.2253 -0.1850
  478TMC3     H 7168   2.657   1.558  11.876 -1.7721  1.2713 -0.0728
  478TMC3    H1 7169   2.554   1.183  11.696  1.2174  0.7225 -0.1433
  478TMC3    H2 7170   2.337   1.525  11.602  0.2087 -0.6596 -1.7739
  478TMC3    C7 7171   2.411   1.284  11.506 -0.4025 -0.5378 -0.5199
  478TMC3    C8 7172   2.429   1.644  11.823 -0.1078  0.3865  0.4207
  478TMC3    O1 7173   2.414   1.161  11.514 -0.0598  0.2493  0.0395
  478TMC3    O2 7174   2.438   1.619  11.944 -0.0956 -0.3149 -0.3904
  479MPD2     C 7175   2.419   3.314  15.317  0.1993  0.3946  0.3398
  479MPD2    C1 7176   2.373   3.283  15.443  0.1403  0.8711 -0.2630
  479MPD2    C2 7177   2.435   3.349  15.554  0.2810 -0.7553 -0.5040
  479MPD2    C3 7178   2.542   3.428  15.542 -0.3764 -0.2165  0.3207
  479MPD2    C4 7179   2.589   3.457  15.412  0.6593  0.1776 -0.8735
  479MPD2    C5 7180   2.524   3.401  15.300  0.1558 -0.0621  0.0497
  479MPD2     H 7181   2.393   3.332  15.652 -0.4341 -1.3412 -0.9070
  479MPD2    H1 7182   2.673   3.525  15.403 -0.7006  1.9906 -0.0248
  479MPD2    H2 7183   2.374   3.266  15.231  1.1140  1.1705 -0.5729
  479MPD2    H3 7184   2.565   3.422  15.201 -0.0897 -2.9502 -0.6657
  479MPD2     N 7185   2.615   3.466  15.662 -0.2389 -0.6083  0.6857
  479MPD2    H5 7186   2.712   3.496  15.655 -1.1221  1.6356 -2.0037
  479MPD2    N1 7187   2.254   3.206  15.451  0.3146  0.0552 -0.5432
  479MPD2    H7 7188   2.234   3.153  15.367  1.4736 -1.6415  0.2239
  480TMC3    C1 7189   2.234   3.468  15.955 -0.4737 -0.5261 -0.2435
  480TMC3    C2 7190   2.167   3.561  15.882 -0.4327 -0.0517 -0.8667
  480TMC3    C3 7191   2.219   3.605  15.772  0.1835 -0.4109 -0.0303
  480TMC3    C4 7192   2.369   3.449  15.924  0.4522 -0.5506  0.8310
  480TMC3    C5 7193   2.419   3.502  15.809 -0.4407 -0.1427  0.8303
  480TMC3    C6 7194   2.352   3.589  15.730  0.3346 -0.2328 -0.1501
  480TMC3     C 7195   2.187   3.404  16.081  0.5047  0.1631 -0.4086
  480TMC3     O 7196   2.273   3.341  16.138  0.3962  0.3031 -0.5120
  480TMC3     H 7197   2.062   3.577  15.905 -0.2144 -0.6375  0.5263
  480TMC3    H1 7198   2.433   3.372  15.966  1.2652 -0.3372 -0.0011
  480TMC3    H2 7199   2.404   3.652  15.659  0.2573 -0.0516 -0.0462
  480TMC3    C7 7200   2.564   3.483  15.791  0.1110  0.1302  0.2271
  480TMC3    C8 7201   2.113   3.615  15.667 -0.0966  0.6119  0.0599
  480TMC3    O1 7202   2.629   3.505  15.891  0.1434 -0.2688 -0.0760
  480TMC3    O2 7203   1.997   3.619  15.709 -0.2392 -0.8129  0.0834
  481MPD2     C 7204   4.136   2.934  14.076  0.2538  0.2835 -0.1243
  481MPD2    C1 7205   4.036   2.837  14.087 -0.1691 -0.0197  0.3014
  481MPD2    C2 7206   4.013   2.780  14.212 -0.6704 -0.0790  0.4941
  481MPD2    C3 7207   4.084   2.815  14.325 -0.3143  0.5567  0.3440
  481MPD2    C4 7208   4.186   2.911  14.308  0.2488 -0.0796  0.8089
  481MPD2    C5 7209   4.208   2.971  14.191  0.3041 -0.0110 -0.1085
  481MPD2     H 7210   3.926   2.716  14.221 -0.6153 -0.0898  0.9518
  481MPD2    H1 7211   4.238   2.949  14.395 -2.4954 -0.7706  2.7614
  481MPD2    H2 7212   4.161   2.980  13.981  3.0672 -0.7674  0.1079
  481MPD2    H3 7213   4.288   3.043  14.181 -1.3929  1.9290  0.3306
  481MPD2     N 7214   4.071   2.769  14.459 -0.3321 -0.4549  0.1876
  481MPD2    H5 7215   4.136   2.818  14.520  1.3444 -1.1616 -1.0335
  481MPD2    N1 7216   3.947   2.823  13.975 -0.1374 -0.0295 -0.0091
  481MPD2    H7 7217   3.973   2.878  13.894  1.2765 -0.1005  0.4127
  482TMC3    C1 7218   3.767   2.770  13.856  0.3135  1.2309 -0.4988
  482TMC3    C2 7219   3.676   2.672  13.821  0.0104 -0.2737 -1.0159
  482TMC3    C3 7220   3.560   2.708  13.760 -0.3790 -0.7355 -0.4734
  482TMC3    C4 7221   3.729   2.898  13.848 -0.3101  0.3511 -0.1074
  482TMC3    C5 7222   3.610   2.933  13.796  0.6804 -0.5786  0.4522
  482TMC3    C6 7223   3.529   2.843  13.743 -0.1807 -0.0302 -0.0692
  482TMC3     C 7224   3.848   2.727  13.959  0.8609  0.5349  0.4007
  482TMC3     O 7225   3.812   2.634  14.030  0.1593 -0.5695  0.4327
  482TMC3     H 7226   3.695   2.568  13.846 -3.0125 -0.9763 -1.6026
  482TMC3    H1 7227   3.790   2.979  13.887 -0.5862  0.0364  0.9695
  482TMC3    H2 7228   3.442   2.888  13.697 -1.7205 -2.7059  0.2185
  482TMC3    C7 7229   3.540   3.046  13.855  0.4507 -0.5938 -0.3420
  482TMC3    C8 7230   3.469   2.602  13.720  0.0963  0.7087 -0.2909
  482TMC3    O1 7231   3.557   3.060  13.976  0.1929 -0.8030 -0.1229
  482TMC3    O2 7232   3.511   2.492  13.695 -0.0798  0.3195 -0.1099
  483TMC3    C1 7233   1.653   1.568   0.285  0.2608 -0.8252  0.6147
  483TMC3    C2 7234   1.694   1.694   0.290  0.2712 -0.0343  0.0923
  483TMC3    C3 7235   1.683   1.762   0.406  0.2889  0.0154  0.1660
  483TMC3    C4 7236   1.583   1.509   0.389  0.4778  0.0655 -1.1207
  483TMC3    C5 7237   1.564   1.581   0.507  0.8177 -0.4911  0.8313
  483TMC3    C6 7238   1.610   1.708   0.515 -0.1321 -0.4568 -0.5993
  483TMC3     C 7239   1.710   1.484   0.175 -0.7764 -0.4150  0.0636
  483TMC3     O 7240   1.737   1.539   0.072  0.4695  0.4844  0.5507
  483TMC3     H 7241   1.748   1.740   0.208 -0.0925  0.6792  0.2582
  483TMC3    H1 7242   1.552   1.406   0.382 -1.1909  0.5074  0.0079
  483TMC3    H2 7243   1.597   1.764   0.606 -2.2253 -0.9821 -0.5759
  483TMC3    C7 7244   1.541   1.505   0.629 -0.6970  0.1055 -0.1127
  483TMC3    C8 7245   1.783   1.862   0.430  0.3571 -0.2716  0.3431
  483TMC3    O1 7246   1.578   1.388   0.634 -0.3239  0.5015  0.3907
  483TMC3    O2 7247   1.886   1.847   0.368  0.4488  0.0108  0.1762
  484MPD2     C 7248   4.178   4.423  12.072  0.3613 -0.4296  0.5067
  484MPD2    C1 7249   4.250   4.403  12.181  0.1331 -0.3256 -0.2436
  484MPD2    C2 7250   4.378   4.453  12.188 -0.0499  0.0478 -0.1638
  484MPD2    C3 7251   4.432   4.532  12.088  0.9387  0.1328 -0.9433
  484MPD2    C4 7252   4.354   4.548  11.977  0.0771 -0.0884  0.7823
  484MPD2    C5 7253   4.230   4.481  11.965 -0.1122 -0.4278 -0.0598
  484MPD2     H 7254   4.433   4.447  12.282 -0.2285  0.1563 -0.0524
  484MPD2    H1 7255   4.394   4.608  11.896 -1.8766  1.8875  1.2863
  484MPD2    H2 7256   4.077   4.387  12.054  0.2875  0.2517 -0.4107
  484MPD2    H3 7257   4.172   4.494  11.875 -0.5520 -3.8028 -0.2686
  484MPD2     N 7258   4.553   4.605  12.101  0.3416  0.4169 -0.0577
  484MPD2    H5 7259   4.587   4.666  12.028  0.6124 -0.3701 -0.5898
  484MPD2    N1 7260   4.193   4.341  12.298  0.0839  0.3691  0.0811
  484MPD2    H7 7261   4.096   4.318  12.284 -0.4420  2.7341 -0.1244
  485TMC3    C1 7262   0.026   4.671  12.181  0.2010 -0.3037  1.5129
  485TMC3    C2 7263   0.068   4.718  12.306 -0.9786 -1.0572 -0.2216
  485TMC3    C3 7264   0.103   0.116  12.317  0.1084 -0.0225 -0.0067
  485TMC3    C4 7265   0.031   0.015  12.073 -0.6400  0.5833  0.6553
  485TMC3    C5 7266   0.057   0.146  12.085  0.8073  0.5677  0.2638
  485TMC3    C6 7267   0.102   0.195  12.208  0.5736  0.4645  0.2538
  485TMC3     C 7268   4.647   4.591  12.201  0.7671 -0.4332  0.2776
  485TMC3     O 7269   4.628   4.554  12.316  0.0851  0.0082 -0.6006
  485TMC3     H 7270   0.078   4.649  12.389  0.4778 -2.5160 -1.6459
  485TMC3    H1 7271   0.022   4.710  11.972 -0.2892  0.6640  0.5955
  485TMC3    H2 7272   0.116   0.302  12.217  0.9113  0.3684  0.9129
  485TMC3    C7 7273   0.145   0.198  11.987  0.3167 -0.2216  0.2993
  485TMC3    C8 7274   0.230   0.145  12.390 -0.3360  0.7555 -0.0768
  485TMC3    O1 7275   0.240   0.262  12.034  0.7797 -0.1963 -0.7886
  485TMC3    O2 7276   0.250   0.100  12.502 -0.3210 -0.0357  0.6932
  486MPD2     C 7277   1.363   3.517  13.129 -0.2040 -0.5787  0.2035
  486MPD2    C1 7278   1.294   3.507  13.009  0.4966 -0.0115 -0.3218
  486MPD2    C2 7279   1.291   3.625  12.934 -0.0708 -0.2845 -0.0960
  486MPD2    C3 7280   1.353   3.738  12.978 -0.3386 -0.0469 -0.6692
  486MPD2    C4 7281   1.391   3.752  13.112  0.4200  0.1907  0.1191
  486MPD2    C5 7282   1.400   3.634  13.181  0.4979 -0.6323  0.2645
  486MPD2     H 7283   1.250   3.626  12.833  3.0621 -1.1139 -1.3673
  486MPD2    H1 7284   1.427   3.847  13.150  2.0364 -0.5997  0.5734
  486MPD2    H2 7285   1.377   3.434  13.197 -0.5760 -2.4715 -2.0320
  486MPD2    H3 7286   1.440   3.629  13.282  0.9536 -1.7448  0.0272
  486MPD2     N 7287   1.374   3.847  12.889  0.1346 -0.4276 -0.1320
  486MPD2    H5 7288   1.361   3.829  12.790 -2.8887  0.8486  0.0485
  486MPD2    N1 7289   1.249   3.384  12.963 -0.2730  0.0191 -0.8061
  486MPD2    H7 7290   1.276   3.304  13.020  1.5434  0.8024 -0.5686
  487TMC3    C1 7291   1.164   3.217  12.817  0.1856  1.0080 -0.7231
  487TMC3    C2 7292   1.045   3.184  12.757 -0.0923 -0.1112  0.4452
  487TMC3    C3 7293   1.027   3.048  12.727  0.1566  0.2451  0.9032
  487TMC3    C4 7294   1.269   3.133  12.840  0.0670  0.0944  0.4470
  487TMC3    C5 7295   1.253   3.005  12.802 -0.1019 -0.2734 -0.0558
  487TMC3    C6 7296   1.133   2.966  12.744  0.2067  0.0663  0.3762
  487TMC3     C 7297   1.189   3.362  12.845 -0.4094  0.9395  0.4537
  487TMC3     O 7298   1.135   3.440  12.768 -0.4871  0.5430  0.4668
  487TMC3     H 7299   0.970   3.262  12.759  0.4359  0.3377  2.3910
  487TMC3    H1 7300   1.359   3.181  12.877 -1.0283  0.5850  2.5453
  487TMC3    H2 7301   1.115   2.859  12.741  0.3855  0.0469 -0.0232
  487TMC3    C7 7302   1.312   2.922  12.907 -0.5351  0.3877  0.1540
  487TMC3    C8 7303   0.916   3.004  12.804 -0.2671  0.1341  0.4089
  487TMC3    O1 7304   1.417   2.951  12.961  0.3106  0.3326  0.3863
  487TMC3    O2 7305   0.935   2.900  12.864  0.1523  0.7641  0.5263
  488MPD2     C 7306   2.189   0.238  16.245 -0.0376  0.4177  0.5795
  488MPD2    C1 7307   2.278   0.320  16.314  0.1641 -0.0936  0.2519
  488MPD2    C2 7308   2.278   0.316  16.453 -0.1755 -0.1995 -0.2529
  488MPD2    C3 7309   2.201   0.222  16.520  0.0167 -0.0442 -0.2943
  488MPD2    C4 7310   2.117   0.141  16.448  0.3169 -0.2550  0.0592
  488MPD2    C5 7311   2.108   0.148  16.310  0.9076 -0.4581 -0.1083
  488MPD2     H 7312   2.339   0.381  16.515 -1.0313  0.5706 -0.2142
  488MPD2    H1 7313   2.062   0.062  16.498 -0.1970  0.4906  0.6829
  488MPD2    H2 7314   2.183   0.238  16.137  1.4551 -1.8072  0.4882
  488MPD2    H3 7315   2.034   0.086  16.261  1.8994  0.9656 -3.4511
  488MPD2     N 7316   2.209   0.218  16.665 -0.0834  0.1664 -0.1348
  488MPD2    H5 7317   2.280   0.280  16.703 -0.2745  0.4496 -0.2358
  488MPD2    N1 7318   2.357   0.418  16.251 -0.1382 -0.1338 -0.7468
  488MPD2    H7 7319   2.397   0.487  16.314 -2.0560 -2.1920  2.7483
  489TMC3    C1 7320   2.172   0.179  16.885 -0.2313  0.3555 -0.0433
  489TMC3    C2 7321   2.304   0.161  16.915  0.2479  0.0819 -0.1717
  489TMC3    C3 7322   2.348   0.179  17.044  0.4122 -0.4216 -0.0505
  489TMC3    C4 7323   2.079   0.182  16.979  0.8410 -0.2113  0.4860
  489TMC3    C5 7324   2.122   0.193  17.104  0.4415  0.3291  0.6128
  489TMC3    C6 7325   2.253   0.199  17.139  0.1897  0.5227  0.2363
  489TMC3     C 7326   2.126   0.162  16.755  0.7541  0.5405 -0.7704
  489TMC3     O 7327   2.021   0.104  16.733 -0.3224  0.0410 -0.3780
  489TMC3     H 7328   2.370   0.134  16.833  2.1065 -0.5633  1.5602
  489TMC3    H1 7329   1.974   0.179  16.951  0.7639 -0.7460  0.8313
  489TMC3    H2 7330   2.280   0.217  17.242  2.1036  2.1014 -0.5393
  489TMC3    C7 7331   2.031   0.248  17.195  0.9963 -0.0938 -0.4827
  489TMC3    C8 7332   2.475   0.261  17.043 -0.1594 -0.1004  0.1362
  489TMC3    O1 7333   2.044   0.222  17.313  0.3692  0.0969 -0.6618
  489TMC3    O2 7334   2.463   0.377  17.090 -0.1175 -0.1940 -0.1002
  490MPD2     C 7335   2.708   0.174  17.650 -0.2576 -0.7550  0.1487
  490MPD2    C1 7336   2.750   0.047  17.610 -0.0514 -0.0217 -0.0803
  490MPD2    C2 7337   2.876   0.031  17.568 -0.3757  0.0528  0.2959
  490MPD2    C3 7338   2.955   0.145  17.564 -0.0142  0.7087  0.4740
  490MPD2    C4 7339   2.912   0.272  17.604 -0.4304 -0.4689  0.2486
  490MPD2    C5 7340   2.787   0.287  17.638 -0.2287 -0.8569 -0.4792
  490MPD2     H 7341   2.913   4.670  17.528 -1.2335 -0.9518  1.8570
  490MPD2    H1 7342   2.979   0.355  17.585 -1.4656  0.7170  1.7907
  490MPD2    H2 7343   2.610   0.180  17.695 -0.1206 -2.5130  0.6719
  490MPD2    H3 7344   2.753   0.388  17.657 -0.0933 -0.8213 -0.4222
  490MPD2     N 7345   3.094   0.145  17.539 -0.6642 -0.2858  0.2175
  490MPD2    H5 7346   3.149   0.229  17.547  1.3344 -1.6202  0.4759
  490MPD2    N1 7347   2.666   4.672  17.613 -0.1977 -0.0801  0.0784
  490MPD2    H7 7348   2.703   4.590  17.566 -0.4423  0.8898 -1.7765
  491TMC3    C1 7349   2.481   4.547  17.659 -0.2697  0.3805 -0.4744
  491TMC3    C2 7350   2.438   4.486   0.040 -0.4041  0.4387 -0.6648
  491TMC3    C3 7351   2.429   4.350   0.025 -0.7818  0.1058 -0.0685
  491TMC3    C4 7352   2.499   4.490  17.538 -0.7118  0.4370  0.1328
  491TMC3    C5 7353   2.467   4.356  17.532 -0.5652 -0.5486  0.2728
  491TMC3    C6 7354   2.442   4.282  17.641 -0.1895 -0.1633  0.1599
  491TMC3     C 7355   2.552   4.667  17.683  1.4397 -0.2155  0.2400
  491TMC3     O 7356   2.525   4.717   0.058 -0.4102 -0.4884  0.1996
  491TMC3     H 7357   2.429   4.534   0.137 -1.5771 -1.2165  0.0486
  491TMC3    H1 7358   2.532   4.547  17.452 -1.0771 -2.0301 -1.6462
  491TMC3    H2 7359   2.413   4.179  17.623  1.4210 -0.8690  1.5763
  491TMC3    C7 7360   2.434   4.293  17.404  0.2127 -0.4354 -0.4301
  491TMC3    C8 7361   2.410   4.274   0.145 -0.1790  0.2543 -0.4127
  491TMC3    O1 7362   2.420   4.169  17.402 -0.0012 -0.0261  0.0133
  491TMC3    O2 7363   2.390   4.334   0.250 -0.0636 -0.7407  0.1768
  492MPD2     C 7364   3.201   0.185  11.156  0.8486  0.0836 -0.5919
  492MPD2    C1 7365   3.070   0.137  11.142  0.4720  0.1516 -0.2646
  492MPD2    C2 7366   3.014   0.066  11.251  0.0477  0.3358  0.9314
  492MPD2    C3 7367   3.085   0.051  11.372 -0.4628  0.3785 -0.1174
  492MPD2    C4 7368   3.217   0.103  11.382  0.1696 -0.5966 -0.4757
  492MPD2    C5 7369   3.273   0.159  11.270 -0.8103  1.1344  0.3554
  492MPD2     H 7370   2.919   0.017  11.241 -0.0434  0.6372  0.3511
  492MPD2    H1 7371   3.280   0.093  11.470  0.9931  1.7115 -0.7906
  492MPD2    H2 7372   3.246   0.238  11.073  2.0697  0.2740  0.1927
  492MPD2    H3 7373   3.379   0.184  11.263 -0.9506  1.3688 -0.8458
  492MPD2     N 7374   3.030   4.713  11.485 -0.1082 -0.7302 -0.3590
  492MPD2    H5 7375   3.090   4.718  11.566  0.1915 -2.2274 -0.4884
  492MPD2    N1 7376   3.007   0.147  11.014 -0.4718 -0.8012 -0.1758
  492MPD2    H7 7377   3.064   0.165  10.932 -1.9363  0.5635 -0.8800
  493TMC3    C1 7378   2.817   0.114  10.861 -0.2042 -0.4616 -0.5556
  493TMC3    C2 7379   2.879   0.185  10.761  0.0146 -0.1871  0.2777
  493TMC3    C3 7380   2.840   0.160  10.635  0.3019  0.5418  0.3855
  493TMC3    C4 7381   2.737   0.007  10.845  0.1408  0.2493 -0.9958
  493TMC3    C5 7382   2.696   4.725  10.720 -0.4357  0.2367  0.2781
  493TMC3    C6 7383   2.743   0.064  10.612 -0.5491  0.1451  0.0756
  493TMC3     C 7384   2.865   0.117  10.999 -0.4074 -0.7478 -0.2941
  493TMC3     O 7385   2.775   0.128  11.083 -0.4403  0.3780 -0.4891
  493TMC3     H 7386   2.962   0.253  10.775 -1.5386  2.0004 -1.0695
  493TMC3    H1 7387   2.712   4.685  10.935 -2.1044  0.9440 -1.1896
  493TMC3    H2 7388   2.712   0.038  10.512 -2.7488  0.0110  0.7780
  493TMC3    C7 7389   2.637   4.600  10.682  0.5276 -0.0709 -0.1929
  493TMC3    C8 7390   2.897   0.227  10.508  0.1294  0.4087  0.2869
  493TMC3    O1 7391   2.613   4.581  10.565 -0.8587  0.1937 -0.2711
  493TMC3    O2 7392   2.861   0.190  10.395 -0.6678 -0.1743  0.3709
  494TMC3    C1 7393   3.004   1.360   0.354 -0.0433  0.2789 -0.0232
  494TMC3    C2 7394   3.080   1.265   0.414 -0.7607  0.3053 -0.5033
  494TMC3    C3 7395   3.177   1.206   0.337  0.1003 -0.5945  0.1618
  494TMC3    C4 7396   3.035   1.398   0.227 -0.0046  0.3529 -0.0311
  494TMC3    C5 7397   3.138   1.340   0.152  0.3805 -0.1688  0.5044
  494TMC3    C6 7398   3.212   1.244   0.208  0.6272  0.8325 -0.0365
  494TMC3     C 7399   2.884   1.402   0.415  1.0450 -0.2405 -0.2190
  494TMC3     O 7400   2.798   1.465   0.357 -0.0023  0.3693  0.6442
  494TMC3     H 7401   3.058   1.230   0.514  0.6883 -1.5287 -0.8106
  494TMC3    H1 7402   2.975   1.478   0.185 -0.6674 -1.6917 -3.0294
  494TMC3    H2 7403   3.292   1.196   0.151 -0.1574  0.9538 -1.2460
  494TMC3    C7 7404   3.184   1.407   0.029  0.2359  0.8384  0.3710
  494TMC3    C8 7405   3.272   1.112   0.396 -0.3641 -0.1008 -0.0992
  494TMC3    O1 7406   3.289   1.373  17.711  0.4097  0.2631  0.6656
  494TMC3    O2 7407   3.379   1.093   0.340 -0.3094 -0.3614  0.3955
  495TMC3    C1 7408   2.400   3.375  14.736  0.2196 -0.6690 -0.2196
  495TMC3    C2 7409   2.374   3.471  14.643 -0.6158  0.3163  0.7378
  495TMC3    C3 7410   2.316   3.586  14.676  0.5146 -0.0584 -0.2194
  495TMC3    C4 7411   2.363   3.385  14.864  0.2969 -0.4942 -0.6575
  495TMC3    C5 7412   2.305   3.510  14.897 -0.2038 -0.4252 -0.9437
  495TMC3    C6 7413   2.288   3.612  14.807  0.4365 -0.0554  0.6988
  495TMC3     C 7414   2.403   3.240  14.688 -0.4058  0.1869  0.9213
  495TMC3     O 7415   2.341   3.161  14.756  0.0692 -0.3502  0.3734
  495TMC3     H 7416   2.393   3.438  14.541 -1.2275  2.2000  0.0067
  495TMC3    H1 7417   2.376   3.303  14.932 -1.3591  0.5750  0.9469
  495TMC3    H2 7418   2.225   3.692  14.844  0.9365 -0.5051  2.4990
  495TMC3    C7 7419   2.272   3.546  15.034  0.1429  0.2863 -0.2280
  495TMC3    C8 7420   2.199   3.617  14.585 -0.5047 -0.1281  0.0659
  495TMC3    O1 7421   2.336   3.625  15.094 -0.2116 -0.4366 -0.4787
  495TMC3    O2 7422   2.101   3.665  14.638 -0.1308  0.1659  0.4651
  496MPD2     C 7423   4.361   3.695  15.665 -0.2806 -0.0372  0.0799
  496MPD2    C1 7424   4.344   3.569  15.620  0.4453  0.0341 -0.3051
  496MPD2    C2 7425   4.215   3.513  15.626 -0.3824 -0.7638 -0.1300
  496MPD2    C3 7426   4.108   3.572  15.692 -0.4483 -0.2424 -0.4047
  496MPD2    C4 7427   4.129   3.700  15.741 -0.3648  0.2314  0.6641
  496MPD2    C5 7428   4.256   3.757  15.736  0.2759  0.7799 -0.9794
  496MPD2     H 7429   4.216   3.411  15.590 -2.1315 -0.6569 -0.4829
  496MPD2    H1 7430   4.056   3.764  15.789 -0.2350 -0.0096  1.1860
  496MPD2    H2 7431   4.461   3.737  15.661 -0.1063 -0.2353  2.1168
  496MPD2    H3 7432   4.272   3.857  15.777 -0.4534  0.5510 -0.1528
  496MPD2     N 7433   3.991   3.501  15.713  0.3242  0.9583 -0.3827
  496MPD2    H5 7434   3.979   3.422  15.650 -1.5740  1.7945 -1.0504
  496MPD2    N1 7435   4.464   3.509  15.560  0.3846  1.6084  0.1876
  496MPD2    H7 7436   4.554   3.552  15.579 -0.3147  3.0350  0.2418
  497TMC3    C1 7437   3.778   3.451  15.792 -0.4830 -0.0736 -0.2545
  497TMC3    C2 7438   3.738   3.392  15.676 -0.3322 -0.0551  0.1300
  497TMC3    C3 7439   3.692   3.265  15.677 -0.3144 -0.0407 -0.2039
  497TMC3    C4 7440   3.752   3.390  15.917 -0.1017 -0.1478  1.0349
  497TMC3    C5 7441   3.711   3.262  15.915 -0.0267 -0.6937  0.3838
  497TMC3    C6 7442   3.684   3.199  15.795 -0.1672 -0.0431  0.3768
  497TMC3     C 7443   3.895   3.542  15.801  0.1950  0.1362 -0.3707
  497TMC3     O 7444   3.899   3.617  15.900 -0.1530 -0.1436 -0.6010
  497TMC3     H 7445   3.734   3.451  15.585  0.8685  0.7293  0.5967
  497TMC3    H1 7446   3.759   3.444  16.010  0.7902  1.0025  0.2964
  497TMC3    H2 7447   3.671   3.091  15.803  1.5599 -0.3172 -0.5591
  497TMC3    C7 7448   3.758   3.173  16.019 -0.5329  0.0197  0.1365
  497TMC3    C8 7449   3.692   3.185  15.552  0.3354  0.6419  0.2707
  497TMC3    O1 7450   3.735   3.055  16.021 -0.2112  0.1943 -0.7270
  497TMC3    O2 7451   3.739   3.237  15.452 -0.1280  0.0339 -0.6280
  498MPD2     C 7452   0.193   4.485   9.604 -0.1585 -0.4103 -0.1817
  498MPD2    C1 7453   0.290   4.390   9.608 -0.1237  0.0753  0.1961
  498MPD2    C2 7454   0.268   4.268   9.677  0.0885  0.2089  0.3771
  498MPD2    C3 7455   0.152   4.246   9.749  0.3325 -0.1431 -0.2929
  498MPD2    C4 7456   0.063   4.344   9.750  0.0993 -0.6949 -0.4488
  498MPD2    C5 7457   0.079   4.459   9.675 -0.3698 -0.4845  0.2409
  498MPD2     H 7458   0.336   4.184   9.662 -1.8422 -1.4674  0.9943
  498MPD2    H1 7459   4.709   4.340   9.815  0.2523  0.2330 -0.1793
  498MPD2    H2 7460   0.200   4.585   9.563 -1.0632 -1.2888 -2.4497
  498MPD2    H3 7461   0.004   4.537   9.686 -1.7574 -1.4365 -2.5001
  498MPD2     N 7462   0.126   4.128   9.822 -0.1635 -0.9197  0.3013
  498MPD2    H5 7463   0.198   4.057   9.830 -0.2131 -0.8730  1.2118
  498MPD2    N1 7464   0.417   4.405   9.541  0.5408 -0.3112 -0.4045
  498MPD2    H7 7465   0.493   4.345   9.570  1.0387 -0.0134 -1.0715
  499TMC3    C1 7466   0.589   4.503   9.410  0.5928 -0.0810 -0.3324
  499TMC3    C2 7467   0.674   4.405   9.452 -0.0469 -0.2830  0.1668
  499TMC3    C3 7468   0.807   4.422   9.412  0.2881  0.0811 -0.2233
  499TMC3    C4 7469   0.632   4.619   9.352  0.0658 -0.0732 -0.2409
  499TMC3    C5 7470   0.765   4.639   9.327 -0.5298 -0.8715  0.4339
  499TMC3    C6 7471   0.853   4.540   9.355 -0.7725 -0.3337  0.3064
  499TMC3     C 7472   0.451   4.502   9.450 -0.6317 -0.1889  0.1631
  499TMC3     O 7473   0.384   4.597   9.413  0.0564  0.6744 -0.5734
  499TMC3     H 7474   0.638   4.305   9.471  3.0704 -1.2373  1.0040
  499TMC3    H1 7475   0.563   4.701   9.336  0.2966 -0.2088 -1.9085
  499TMC3    H2 7476   0.962   4.543   9.350 -0.7330 -0.3507  1.2858
  499TMC3    C7 7477   0.798   0.050   9.284  0.2797 -0.1849  0.5280
  499TMC3    C8 7478   0.901   4.313   9.431 -0.0947  0.3263  0.0879
  499TMC3    O1 7479   0.706   0.130   9.296  0.3543  0.2151 -0.0193
  499TMC3    O2 7480   1.008   4.322   9.372 -0.0573  0.0017  0.4555
  500MPD2     C 7481   1.953   1.200  10.400 -0.5647 -0.1909  0.0337
  500MPD2    C1 7482   1.916   1.072  10.373  0.3535  0.0590  0.0654
  500MPD2    C2 7483   1.799   1.045  10.306 -0.6200  0.4146  0.5347
  500MPD2    C3 7484   1.726   1.145  10.248 -0.2983  0.7484  0.4753
  500MPD2    C4 7485   1.763   1.274  10.274  0.7877  0.1778  1.1502
  500MPD2    C5 7486   1.871   1.301  10.351  0.2887  0.1915 -0.0246
  500MPD2     H 7487   1.771   0.941  10.302 -3.6046  1.2628 -0.3114
  500MPD2    H1 7488   1.706   1.361  10.244  2.4515  0.6167 -0.6917
  500MPD2    H2 7489   2.047   1.214  10.451  0.0054  0.7226 -1.2560
  500MPD2    H3 7490   1.881   1.404  10.385 -0.4242  0.6826 -1.2825
  500MPD2     N 7491   1.614   1.120  10.168 -0.6295 -0.4011  0.0322
  500MPD2    H5 7492   1.566   1.206  10.143  0.2316  0.5481  1.6380
  500MPD2    N1 7493   1.999   0.962  10.409  0.4568 -0.2136  0.4584
  500MPD2    H7 7494   1.980   0.871  10.368  1.4979 -0.3352  0.2550
  501TMC3    C1 7495   2.200   0.858  10.496  1.4143 -0.2492  0.2601
  501TMC3    C2 7496   2.280   0.864  10.383  0.0305  0.7452 -0.2159
  501TMC3    C3 7497   2.417   0.860  10.404  0.4639  0.6061 -0.2869
  501TMC3    C4 7498   2.254   0.840  10.624  1.1580  0.1834 -0.0132
  501TMC3    C5 7499   2.391   0.830  10.637  0.2361 -0.1415  0.1936
  501TMC3    C6 7500   2.476   0.833  10.524 -0.1554 -0.1018  0.4959
  501TMC3     C 7501   2.105   0.964  10.499  0.3695  0.2627 -0.8867
  501TMC3     O 7502   2.136   1.056  10.575  0.4078  0.3421  0.3339
  501TMC3     H 7503   2.231   0.888  10.290  1.2738  1.2367 -0.7503
  501TMC3    H1 7504   2.177   0.810  10.693  0.4856  2.1156  0.0744
  501TMC3    H2 7505   2.581   0.845  10.547 -0.4624 -0.0915  1.9132
  501TMC3    C7 7506   2.454   0.799  10.761 -0.0453  0.0530 -0.5842
  501TMC3    C8 7507   2.480   0.973  10.352  0.4153 -0.7805 -0.2641
  501TMC3    O1 7508   2.567   0.751  10.753  0.0702 -0.0028 -0.4878
  501TMC3    O2 7509   2.533   1.049  10.437 -0.2564  0.2895 -0.3638
  502TMC3    C1 7510   1.779   4.226  15.027 -0.1195 -0.5476 -0.3821
  502TMC3    C2 7511   1.851   4.260  14.917 -0.2458 -0.3888 -0.1319
  502TMC3    C3 7512   1.810   4.361  14.829 -0.0072  1.0586 -0.0920
  502TMC3    C4 7513   1.654   4.287  15.052 -0.4325  0.0232  0.3673
  502TMC3    C5 7514   1.611   4.377  14.953  0.1172  0.1689 -0.1947
  502TMC3    C6 7515   1.684   4.414  14.839 -1.0409  0.3611 -0.4981
  502TMC3     C 7516   1.874   4.204  15.135 -0.2115  0.3042 -0.3006
  502TMC3     O 7517   1.994   4.216  15.109 -0.3707  0.1921 -0.0548
  502TMC3     H 7518   1.944   4.208  14.896  0.1208  0.5362 -0.8064
  502TMC3    H1 7519   1.608   4.262  15.147 -1.2147  1.0229  0.2459
  502TMC3    H2 7520   1.664   4.503  14.781  1.1050  0.5167 -1.0179
  502TMC3    C7 7521   1.518   4.479  15.006  0.0356  0.6980 -0.0943
  502TMC3    C8 7522   1.915   4.465  14.823  0.6332 -0.2004  0.0105
  502TMC3    O1 7523   1.552   4.594  14.975 -0.7019 -0.1802  0.4232
  502TMC3    O2 7524   1.893   4.568  14.765  0.6008  0.4196 -0.2218
  503MPD2     C 7525   3.572   0.130  16.635  0.2312 -0.4746  0.6953
  503MPD2    C1 7526   3.648   0.215  16.718  0.5559 -0.9098 -0.2837
  503MPD2    C2 7527   3.754   0.162  16.791 -0.0526  0.0590  0.9819
  503MPD2    C3 7528   3.784   0.028  16.796  0.1898 -0.3260 -0.0751
  503MPD2    C4 7529   3.699   4.673  16.726 -0.4879  0.5968 -0.0586
  503MPD2    C5 7530   3.590   4.728  16.657  0.8319  0.3330 -0.1373
  503MPD2     H 7531   3.811   0.231  16.852 -0.4637  0.0306  1.3982
  503MPD2    H1 7532   3.709   4.565  16.725 -1.1957  0.5400 -0.7893
  503MPD2    H2 7533   3.491   0.161  16.571  1.0214  1.5968  0.6984
  503MPD2    H3 7534   3.530   4.654  16.607 -0.9388  0.8589  1.1787
  503MPD2     N 7535   3.892   4.720  16.884  0.0034 -0.3812  0.1021
  503MPD2    H5 7536   3.935   0.054  16.947  1.8085 -1.6420  0.2074
  503MPD2    N1 7537   3.623   0.358  16.708 -0.0106 -0.0404  0.0037
  503MPD2    H7 7538   3.657   0.416  16.784 -1.8384  0.9182  0.0884
  504TMC3    C1 7539   4.028   4.570  16.984  0.8962  0.1459 -0.5656
  504TMC3    C2 7540   4.010   4.625  17.109 -0.2058 -0.8698 -0.0472
  504TMC3    C3 7541   4.070   4.569  17.220 -0.2200  0.0478 -0.1168
  504TMC3    C4 7542   4.105   4.456  16.970 -0.2732 -0.1576 -0.0137
  504TMC3    C5 7543   4.162   4.402  17.084 -0.2466  0.0434 -0.4534
  504TMC3    C6 7544   4.154   4.456  17.213 -0.9647 -0.3622  0.5155
  504TMC3     C 7545   3.943   4.594  16.879  0.0115 -0.5537  0.2564
  504TMC3     O 7546   3.920   4.512  16.788 -0.1437  0.3486  0.0597
  504TMC3     H 7547   3.940   4.706  17.128 -1.3642 -2.3609  2.0799
  504TMC3    H1 7548   4.116   4.415  16.870  1.5774  2.3628 -0.8456
  504TMC3    H2 7549   4.206   4.417  17.299  1.0233 -2.5052 -1.6680
  504TMC3    C7 7550   4.252   4.292  17.065  0.4437  0.2894  0.1736
  504TMC3    C8 7551   4.020   4.624  17.349 -0.1602  0.2279 -0.3435
  504TMC3    O1 7552   4.287   4.275  16.949  0.0698  0.1763  0.2905
  504TMC3    O2 7553   3.960   4.733  17.352 -0.5321 -0.0234  0.7299
  505MPD2     C 7554   4.129   4.278  10.631  0.7020 -0.0518 -0.2591
  505MPD2    C1 7555   4.108   4.151  10.671 -0.3727  0.1487 -0.0794
  505MPD2    C2 7556   4.181   4.091  10.767  0.1988  0.2371  0.5835
  505MPD2    C3 7557   4.275   4.168  10.831  0.0142 -0.6957 -0.0055
  505MPD2    C4 7558   4.298   4.300  10.779  1.0622 -0.7979 -0.1135
  505MPD2    C5 7559   4.222   4.358  10.690 -0.5241 -0.5089 -0.8319
  505MPD2     H 7560   4.172   3.993  10.811 -1.5694  0.2880  0.3080
  505MPD2    H1 7561   4.372   4.359  10.832  1.0328  0.4157 -1.4398
  505MPD2    H2 7562   4.062   4.330  10.563 -1.6795 -1.3447  1.0911
  505MPD2    H3 7563   4.239   4.463  10.670  3.5176 -0.9817  0.0641
  505MPD2     N 7564   4.363   4.110  10.919 -0.2244 -0.3999  0.0132
  505MPD2    H5 7565   4.357   4.010  10.931 -0.3234 -0.5117 -0.9949
  505MPD2    N1 7566   3.997   4.078  10.611 -0.3835 -0.0883  0.0842
  505MPD2    H7 7567   3.961   4.129  10.531 -1.2125 -1.3654 -0.3613
  506TMC3    C1 7568   3.864   3.902  10.543  0.0811 -0.5014 -0.3912
  506TMC3    C2 7569   3.907   3.918  10.414 -0.4006  0.6285  0.1152
  506TMC3    C3 7570   3.906   3.807  10.333  0.4518  0.1508 -0.2138
  506TMC3    C4 7571   3.844   3.777  10.584 -0.1689 -0.3034 -0.4956
  506TMC3    C5 7572   3.863   3.665  10.497  0.0408 -0.2414  0.2155
  506TMC3    C6 7573   3.882   3.682  10.366 -0.4833 -0.1000 -0.3508
  506TMC3     C 7574   3.948   3.959  10.652  0.7056 -0.2214  0.1562
  506TMC3     O 7575   3.989   3.880  10.734 -0.4405 -0.6597 -0.1310
  506TMC3     H 7576   3.939   4.011  10.368 -0.9171  0.9553  0.4238
  506TMC3    H1 7577   3.821   3.745  10.685 -1.8419 -0.4287 -0.9171
  506TMC3    H2 7578   3.897   3.591  10.310 -1.3501 -0.1061 -0.5637
  506TMC3    C7 7579   3.925   3.553  10.560  0.4406  0.1280 -0.4391
  506TMC3    C8 7580   3.982   3.823  10.208 -0.0095  0.3370  0.0157
  506TMC3    O1 7581   3.918   3.442  10.504 -0.0867 -0.1382  0.1523
  506TMC3    O2 7582   4.066   3.912  10.212  0.2841 -0.3812 -0.2842
  507TMC3    C1 7583   0.820   4.556  14.493 -0.3972  0.2565  0.5832
  507TMC3    C2 7584   0.759   4.433  14.501 -0.1846  0.4163 -0.2004
  507TMC3    C3 7585   0.712   4.374  14.381 -0.0913  0.9765  0.3750
  507TMC3    C4 7586   0.854   4.610  14.372 -0.3857  0.6079  0.1303
  507TMC3    C5 7587   0.799   4.560  14.253  0.0235 -0.1478 -1.1831
  507TMC3    C6 7588   0.730   4.439  14.257 -0.5371 -0.2938  0.3576
  507TMC3     C 7589   0.755   4.660  14.567 -1.1604  0.0690  0.3702
  507TMC3     O 7590   0.798   0.035  14.543  0.2961  0.4104 -0.0829
  507TMC3     H 7591   0.737   4.381  14.593  0.8953 -0.2500 -0.3136
  507TMC3    H1 7592   0.912   4.700  14.378  1.2735 -0.3461 -1.7984
  507TMC3    H2 7593   0.699   4.400  14.161 -1.0011 -0.7129  0.6818
  507TMC3    C7 7594   0.718   4.658  14.174  0.1672  0.2594 -0.0294
  507TMC3    C8 7595   0.580   4.314  14.387 -0.1558  0.3738  0.1215
  507TMC3    O1 7596   0.628   4.614  14.106 -0.2805  0.4714  0.2408
  507TMC3    O2 7597   0.549   4.246  14.479  0.1632 -0.0952 -0.6841
  508MPD2     C 7598   0.639   2.291  16.299  0.8263  0.2947  0.4711
  508MPD2    C1 7599   0.767   2.329  16.292 -0.6337  0.0485  0.0325
  508MPD2    C2 7600   0.817   2.360  16.158  0.0195 -0.4808  0.0596
  508MPD2    C3 7601   0.732   2.364  16.044 -0.5989 -0.5792 -0.3543
  508MPD2    C4 7602   0.597   2.332  16.062 -0.0936 -0.7771  0.2919
  508MPD2    C5 7603   0.554   2.299  16.188  0.4001 -0.0460 -0.7091
  508MPD2     H 7604   0.922   2.386  16.152 -0.2735  1.1558  1.8002
  508MPD2    H1 7605   0.532   2.336  15.975 -0.8845 -3.9930  0.7365
  508MPD2    H2 7606   0.607   2.259  16.398 -3.1427 -2.1038 -1.6157
  508MPD2    H3 7607   0.448   2.280  16.203  0.6058 -0.8816 -0.2998
  508MPD2     N 7608   0.793   2.394  15.925 -0.2605  0.6004  0.3309
  508MPD2    H5 7609   0.890   2.421  15.937 -0.5428  0.3556  3.1612
  508MPD2    N1 7610   0.844   2.336  16.409  0.0025 -0.3141  0.8561
  508MPD2    H7 7611   0.799   2.296  16.491  0.9616  0.3366  1.7036
  509TMC3    C1 7612   0.839   2.650  15.541 -0.2232 -0.7895 -0.3181
  509TMC3    C2 7613   0.974   2.617  15.534  0.4245 -0.4804 -0.0823
  509TMC3    C3 7614   1.023   2.518  15.613 -0.2785 -0.4885 -0.1981
  509TMC3    C4 7615   0.750   2.578  15.623  0.3344  0.1307 -0.5755
  509TMC3    C5 7616   0.808   2.479  15.703 -0.4635  0.1564  0.7983
  509TMC3    C6 7617   0.940   2.443  15.691  0.3506 -0.1703 -0.3828
  509TMC3     C 7618   0.810   2.784  15.501 -0.1555 -0.0278 -0.6863
  509TMC3     O 7619   0.898   2.846  15.445 -0.0561  0.6249 -0.3656
  509TMC3     H 7620   1.044   2.669  15.470  0.4328  0.0878  0.3803
  509TMC3    H1 7621   0.650   2.610  15.650  0.3518  0.4637 -0.8974
  509TMC3    H2 7622   0.973   2.362  15.755 -0.3081  1.2903  1.7909
  509TMC3    C7 7623   0.731   2.413  15.805 -0.1034  0.4260 -0.2202
  509TMC3    C8 7624   1.159   2.519  15.656 -0.0062  0.0439 -0.6069
  509TMC3    O1 7625   0.609   2.413  15.779  0.4595  0.1870 -0.7026
  509TMC3    O2 7626   1.225   2.415  15.650 -0.7061  0.0356  0.1298
  510MPD2     C 7627   3.764   3.862  14.370  0.3043  0.2264 -0.5109
  510MPD2    C1 7628   3.838   3.817  14.479 -0.1666  0.4604 -0.2694
  510MPD2    C2 7629   3.978   3.832  14.477  0.5404 -0.3220 -0.6803
  510MPD2    C3 7630   4.036   3.894  14.367  0.1630  0.0891  0.5653
  510MPD2    C4 7631   3.963   3.923  14.255  0.4254  0.5763 -0.4217
  510MPD2    C5 7632   3.822   3.909  14.257  0.5711  0.0670  0.4329
  510MPD2     H 7633   4.035   3.798  14.563 -0.1621 -0.8605 -0.4239
  510MPD2    H1 7634   4.005   3.958  14.162 -0.7698 -1.9174 -1.8985
  510MPD2    H2 7635   3.658   3.864  14.391  0.8701  0.5172  2.4145
  510MPD2    H3 7636   3.768   3.960  14.178  0.9900  3.4442  2.3119
  510MPD2     N 7637   4.179   3.911  14.376  0.2391 -0.0805 -0.5807
  510MPD2    H5 7638   4.221   3.884  14.464 -1.9208 -1.5429  0.0067
  510MPD2    N1 7639   3.763   3.762  14.591  0.2408 -0.0943 -0.2458
  510MPD2    H7 7640   3.663   3.752  14.581  0.4419 -1.7029 -0.5839
  511TMC3    C1 7641   3.724   3.646  14.771  0.1154  0.2035 -0.7426
  511TMC3    C2 7642   3.721   3.650  14.911  0.5385  0.1637 -0.4191
  511TMC3    C3 7643   3.666   3.547  14.972 -0.6574  0.1225 -0.1386
  511TMC3    C4 7644   3.674   3.540  14.703  0.0849 -0.3019 -0.1571
  511TMC3    C5 7645   3.623   3.433  14.772 -0.6866  0.0730 -0.6994
  511TMC3    C6 7646   3.607   3.442  14.912  0.6558 -0.1143  0.0446
  511TMC3     C 7647   3.819   3.718  14.703  0.2536  0.1571 -0.1208
  511TMC3     O 7648   3.924   3.741  14.757 -0.2293  0.3386  0.6966
  511TMC3     H 7649   3.766   3.735  14.961 -0.8385 -0.1929  1.3960
  511TMC3    H1 7650   3.680   3.528  14.595  0.4974  1.0207 -0.2833
  511TMC3    H2 7651   3.568   3.358  14.969  1.7309 -2.9828 -3.4615
  511TMC3    C7 7652   3.553   3.326  14.692  0.0126 -0.8604 -0.0533
  511TMC3    C8 7653   3.582   3.593  15.086 -0.1380 -0.1794  0.4505
  511TMC3    O1 7654   3.595   3.307  14.581 -0.1928 -0.7175 -0.0306
  511TMC3    O2 7655   3.534   3.706  15.070  0.2368 -0.0791 -0.4039
  512TMC3    C1 7656   1.950   3.442  13.621  0.7767 -0.3667 -0.2045
  512TMC3    C2 7657   2.049   3.435  13.721 -0.7339 -0.5649  0.6265
  512TMC3    C3 7658   2.105   3.310  13.729  0.0445 -0.1081 -0.4160
  512TMC3    C4 7659   1.911   3.339  13.535 -0.3473  0.2177  0.0871
  512TMC3    C5 7660   1.992   3.228  13.542 -0.2159  0.4355  0.0194
  512TMC3    C6 7661   2.083   3.210  13.640 -0.0099  0.2559 -0.6135
  512TMC3     C 7662   1.900   3.576  13.576 -0.3512  0.5681  0.2438
  512TMC3     O 7663   1.832   3.576  13.475 -0.3097 -1.1697 -0.2738
  512TMC3     H 7664   2.087   3.508  13.791 -1.0195  0.6881 -0.5245
  512TMC3    H1 7665   1.840   3.362  13.456  2.0790 -1.6696 -2.6587
  512TMC3    H2 7666   2.149   3.124  13.642  0.6393  0.7906  0.8813
  512TMC3    C7 7667   1.997   3.162  13.410  0.0450  0.0503 -0.1295
  512TMC3    C8 7668   2.240   3.297  13.796  0.4020  0.0909 -0.9738
  512TMC3    O1 7669   1.909   3.197  13.335 -0.6028 -0.0329 -0.9010
  512TMC3    O2 7670   2.279   3.187  13.823 -0.5326 -0.2003  0.7091
  513MPD2     C 7671   4.167   3.633  13.514  0.0027  0.1311  0.3170
  513MPD2    C1 7672   4.246   3.529  13.484 -0.2772 -0.9511  0.4453
  513MPD2    C2 7673   4.324   3.478  13.582  0.4814  0.0288 -0.2266
  513MPD2    C3 7674   4.316   3.509  13.716 -0.9194 -0.0981  0.3420
  513MPD2    C4 7675   4.220   3.600  13.751 -0.1455 -0.0111  0.4643
  513MPD2    C5 7676   4.159   3.672  13.645  0.0322  0.0172 -0.3611
  513MPD2     H 7677   4.401   3.403  13.565  1.2686  0.2960  2.1092
  513MPD2    H1 7678   4.201   3.623  13.855 -2.3892  0.2046 -0.0025
  513MPD2    H2 7679   4.115   3.692  13.440  2.3689  3.3234  1.2227
  513MPD2    H3 7680   4.088   3.747  13.677  0.4445  0.3505 -0.2244
  513MPD2     N 7681   4.393   3.436  13.809 -0.2823 -0.4188 -0.6372
  513MPD2    H5 7682   4.479   3.387  13.787  1.6997  1.7471  2.3196
  513MPD2    N1 7683   4.263   3.479  13.347 -0.7509  0.6944 -0.5093
  513MPD2    H7 7684   4.237   3.533  13.265  3.8765  0.3049 -2.2827
  514TMC3    C1 7685   4.321   3.311  13.196  0.3707  0.9224 -0.2833
  514TMC3    C2 7686   4.393   3.394  13.114  0.2540 -0.5907  0.5818
  514TMC3    C3 7687   4.454   3.334  13.014 -0.6813 -0.0001 -0.5572
  514TMC3    C4 7688   4.304   3.177  13.175  0.2558 -0.5421  0.4670
  514TMC3    C5 7689   4.379   3.119  13.081  0.4969  0.3153  0.5071
  514TMC3    C6 7690   4.448   3.196  12.997  0.4979 -0.0109  0.0344
  514TMC3     C 7691   4.298   3.346  13.335 -0.0412 -0.3740 -0.3326
  514TMC3     O 7692   4.294   3.257  13.417  0.1231 -0.2231 -0.1334
  514TMC3     H 7693   4.397   3.502  13.124 -0.7727 -0.5555  0.6086
  514TMC3    H1 7694   4.228   3.124  13.233  1.1224  1.0859  3.1190
  514TMC3    H2 7695   4.497   3.144  12.915 -2.6709  0.9433 -2.4567
  514TMC3    C7 7696   4.457   3.021  13.138 -0.3039 -0.0898  0.0086
  514TMC3    C8 7697   4.488   3.411  12.897  0.9870 -0.7305  0.4886
  514TMC3    O1 7698   4.535   2.970  13.056 -0.3358  0.0603  0.2642
  514TMC3    O2 7699   4.474   3.363  12.787 -0.4382 -0.2668  0.3038
  515MPD2     C 7700   2.811   0.178  15.097  0.1272  0.3027  0.7468
  515MPD2    C1 7701   2.807   0.190  14.960 -1.0472  0.2613 -0.1442
  515MPD2    C2 7702   2.884   0.290  14.903 -0.9045 -0.6487 -0.0143
  515MPD2    C3 7703   2.961   0.374  14.981  0.1615 -0.2657  0.5346
  515MPD2    C4 7704   2.965   0.356  15.121  0.3459 -1.1294  0.3158
  515MPD2    C5 7705   2.885   0.260  15.178 -0.6759 -1.2496 -0.1869
  515MPD2     H 7706   2.890   0.289  14.795 -0.6096 -1.2281  0.0089
  515MPD2    H1 7707   3.035   0.411  15.183 -2.9502  1.3728  1.8135
  515MPD2    H2 7708   2.765   0.095  15.150 -0.4972  0.8776  1.1068
  515MPD2    H3 7709   2.900   0.235  15.282 -2.9331 -0.9479  0.2072
  515MPD2     N 7710   3.035   0.480  14.932 -0.0553  0.0392 -0.0345
  515MPD2    H5 7711   3.083   0.540  14.998 -0.7549  2.3970 -1.6908
  515MPD2    N1 7712   2.726   0.106  14.877  0.0345 -0.1597 -0.1908
  515MPD2    H7 7713   2.721   0.130  14.779  2.6751 -3.8822 -1.2442
  516TMC3    C1 7714   2.591   4.671  14.815  0.5188  0.4500 -0.5754
  516TMC3    C2 7715   2.523   0.033  14.745  0.1191 -0.3576 -0.1223
  516TMC3    C3 7716   2.406   4.727  14.695 -0.4534 -0.0699 -0.4084
  516TMC3    C4 7717   2.557   4.540  14.810  0.1253 -0.5736  0.6915
  516TMC3    C5 7718   2.447   4.499  14.743 -0.3584 -1.3016  0.0738
  516TMC3    C6 7719   2.374   4.595  14.685 -0.1280 -0.0016 -1.0869
  516TMC3     C 7720   2.673   4.724  14.921  0.2247  0.3933  0.2199
  516TMC3     O 7721   2.699   4.653  15.020  0.3580 -0.5822  0.1566
  516TMC3     H 7722   2.538   0.140  14.759  2.1727 -0.7843  0.9285
  516TMC3    H1 7723   2.612   4.465  14.865  0.6976 -1.3413 -0.9411
  516TMC3    H2 7724   2.276   4.564  14.651 -0.8961 -0.5524  1.6062
  516TMC3    C7 7725   2.405   4.362  14.750  0.0047 -0.3587 -0.0282
  516TMC3    C8 7726   2.311   0.088  14.649  0.4718  0.2467 -0.0344
  516TMC3    O1 7727   2.471   4.298  14.828 -0.3040  0.1289 -0.1501
  516TMC3    O2 7728   2.201   0.041  14.612 -0.2438  0.2192 -0.1241
  517MPD2     C 7729   2.229   1.951  17.356  0.1616 -0.0340  0.0553
  517MPD2    C1 7730   2.322   1.916  17.455 -0.0919 -0.5913  0.1123
  517MPD2    C2 7731   2.330   1.993  17.566  0.1613  0.1539 -0.6168
  517MPD2    C3 7732   2.259   2.109  17.573  0.2858 -0.4275 -0.1734
  517MPD2    C4 7733   2.172   2.154  17.471 -0.1988  0.1989  0.0440
  517MPD2    C5 7734   2.154   2.071  17.366  1.1354  0.9716 -0.2287
  517MPD2     H 7735   2.411   1.977  17.636 -0.2679  0.8346  0.0386
  517MPD2    H1 7736   2.137   2.256  17.463 -0.5512 -0.1969 -3.3341
  517MPD2    H2 7737   2.221   1.891  17.266  1.7569  0.3869 -0.3620
  517MPD2    H3 7738   2.096   2.094  17.277 -0.7102 -0.6348  0.5494
  517MPD2     N 7739   2.277   2.199  17.685 -0.0105  0.3269 -0.5953
  517MPD2    H5 7740   2.224   2.286  17.683 -0.4474  0.0844  0.6899
  517MPD2    N1 7741   2.409   1.804  17.447 -0.4739  0.0483  0.2187
  517MPD2    H7 7742   2.473   1.791  17.525 -3.3196  1.3670  2.8028
  518TMC3    C1 7743   2.545   1.631  17.364 -0.0254  0.4498 -0.2358
  518TMC3    C2 7744   2.537   1.546  17.471  0.2114  0.1233 -0.0383
  518TMC3    C3 7745   2.638   1.464  17.473 -0.4100 -0.2781  0.1337
  518TMC3    C4 7746   2.659   1.649  17.288  0.1515 -0.7712 -0.2968
  518TMC3    C5 7747   2.764   1.565  17.308 -0.6565  0.1673 -0.0965
  518TMC3    C6 7748   2.759   1.471  17.405  0.2428  0.3196  0.3419
  518TMC3     C 7749   2.438   1.730  17.332 -0.0053 -0.1426  0.0120
  518TMC3     O 7750   2.422   1.761  17.213 -0.1065 -0.1020 -0.0039
  518TMC3     H 7751   2.441   1.542  17.522 -0.2180  2.6097 -0.6384
  518TMC3    H1 7752   2.651   1.711  17.199  1.6224  1.8961  1.3884
  518TMC3    H2 7753   2.827   1.387  17.400 -0.1762 -0.1534  2.4902
  518TMC3    C7 7754   2.859   1.556  17.196  0.2021 -0.2703  0.1511
  518TMC3    C8 7755   2.613   1.328  17.522 -0.3321 -0.0331 -0.1705
  518TMC3    O1 7756   2.865   1.650  17.114 -0.0358  0.7122 -0.1399
  518TMC3    O2 7757   2.662   1.234  17.462 -0.3385  0.3127 -0.6703
  519MPD2     C 7758   4.077   0.038  14.427  0.3927  0.2408  0.2178
  519MPD2    C1 7759   4.068   0.110  14.306 -0.2031 -0.2798 -0.6538
  519MPD2    C2 7760   4.163   0.089  14.208  0.4704 -0.4670 -0.3562
  519MPD2    C3 7761   4.258   4.719  14.223  0.0980  0.2768 -0.4197
  519MPD2    C4 7762   4.255   4.636  14.338 -0.2502 -0.1546  0.1832
  519MPD2    C5 7763   4.174   4.677  14.445 -0.6822 -0.3472 -0.4388
  519MPD2     H 7764   4.172   0.161  14.127 -0.6069  0.3785  0.2923
  519MPD2    H1 7765   4.326   4.555  14.349  1.2760  0.9658 -1.4751
  519MPD2    H2 7766   4.010   0.056  14.510  0.1854  0.5487 -0.0134
  519MPD2    H3 7767   4.183   4.631  14.543  0.7031  0.3443 -0.2376
  519MPD2     N 7768   4.355   4.685  14.120  0.0074  0.0342 -0.4557
  519MPD2    H5 7769   4.424   4.619  14.154 -0.7241 -1.1951 -1.3523
  519MPD2    N1 7770   3.969   0.206  14.295 -0.4539  0.6305 -1.2262
  519MPD2    H7 7771   3.898   0.219  14.366  0.2763  0.6273 -0.4959
  520TMC3    C1 7772   4.469   4.687  13.919 -0.2763  0.2841  0.3339
  520TMC3    C2 7773   4.487   4.732  13.789 -0.2108  0.4180 -0.2643
  520TMC3    C3 7774   4.592   4.685  13.718 -0.1793 -0.9394 -0.0037
  520TMC3    C4 7775   4.546   4.579  13.968  0.3949 -0.6741  0.7223
  520TMC3    C5 7776   4.656   4.548  13.893 -0.2466 -0.1873 -0.4115
  520TMC3    C6 7777   4.680   4.593  13.762 -0.2095  0.4441 -0.1967
  520TMC3     C 7778   4.356   4.731  13.992 -0.8634  0.3200 -0.8111
  520TMC3     O 7779   4.273   0.071  13.936  0.1494  0.1487 -0.3829
  520TMC3     H 7780   4.421   0.078  13.755  0.3747  1.3513  0.7670
  520TMC3    H1 7781   4.531   4.520  14.059  1.3828  0.3198  1.5279
  520TMC3    H2 7782   0.029   4.562  13.699  1.8544  2.1477  1.6956
  520TMC3    C7 7783   0.017   4.457  13.945 -0.6144  0.1304 -0.0334
  520TMC3    C8 7784   4.585   4.690  13.572  0.0891  0.3788  0.4226
  520TMC3    O1 7785   4.704   4.373  14.016 -0.4581  0.2609  1.0288
  520TMC3    O2 7786   4.694   4.691  13.514  0.1411  0.4843  0.2090
  521MPD2     C 7787   4.531   2.391   0.155  0.4462 -0.9242  0.2600
  521MPD2    C1 7788   4.505   2.369   0.023 -0.1080 -0.4396 -0.6730
  521MPD2    C2 7789   4.612   2.378  17.673  0.5481  0.5009 -0.4545
  521MPD2    C3 7790   0.005   2.407  17.714 -0.0797  0.4333  0.4168
  521MPD2    C4 7791   0.030   2.420   0.115  0.5795 -0.5672 -0.2195
  521MPD2    C5 7792   4.657   2.404   0.198  0.0290  0.8347 -0.9071
  521MPD2     H 7793   4.602   2.366  17.566  0.6397  0.3826 -0.4502
  521MPD2    H1 7794   0.130   2.435   0.155  0.8807  0.3425 -1.3085
  521MPD2    H2 7795   4.459   2.400   0.236 -0.6794  0.0691 -0.8586
  521MPD2    H3 7796   4.677   2.422   0.303 -0.8365  0.3301 -0.6636
  521MPD2     N 7797   0.105   2.415  17.613  0.4581  0.1475  0.0498
  521MPD2    H5 7798   0.072   2.420  17.517 -1.2153  0.0221  0.6267
  521MPD2    N1 7799   4.375   2.358  17.710 -0.8059  0.6761 -0.6502
  521MPD2    H7 7800   4.305   2.393   0.043 -1.2872  1.4626 -1.5854
  522TMC3    C1 7801   0.316   2.420  17.524 -0.0399  0.0748  0.3053
  522TMC3    C2 7802   0.437   2.360  17.529 -0.0350  0.6371  0.9307
  522TMC3    C3 7803   0.513   2.367  17.417 -0.0067  0.6045 -0.3612
  522TMC3    C4 7804   0.265   2.486  17.411  0.2703  0.5596  0.7158
  522TMC3    C5 7805   0.342   2.480  17.300  0.1742  0.0008  0.0868
  522TMC3    C6 7806   0.470   2.426  17.304 -0.3554  0.7214 -0.3944
  522TMC3     C 7807   0.243   2.413  17.645 -0.1077 -0.2066  0.4144
  522TMC3     O 7808   0.297   2.377   0.014 -0.7574  0.0171 -0.3290
  522TMC3     H 7809   0.463   2.327  17.628 -0.2411  1.4000  1.2394
  522TMC3    H1 7810   0.182   2.556  17.417 -0.3956 -0.2897  1.5421
  522TMC3    H2 7811   0.530   2.427  17.214  0.0697 -0.3112 -0.1184
  522TMC3    C7 7812   0.331   2.590  17.207  0.6556  0.2239  0.7060
  522TMC3    C8 7813   0.641   2.298  17.424 -0.5837  0.0076 -0.1515
  522TMC3    O1 7814   0.439   2.643  17.188  0.2745 -0.3206  0.5078
  522TMC3    O2 7815   0.666   2.244  17.533  0.0774 -0.3749  0.4932
  523MPD2     C 7816   2.045   2.788  10.372  0.2453  0.3555  0.5009
  523MPD2    C1 7817   2.033   2.750  10.246 -0.3549  0.0275 -0.1682
  523MPD2    C2 7818   2.011   2.846  10.144  0.3504 -0.1430 -0.0208
  523MPD2    C3 7819   2.013   2.979  10.165 -0.0370 -0.3328  0.3410
  523MPD2    C4 7820   2.015   3.012  10.299  0.2798 -0.2623  0.0753
  523MPD2    C5 7821   2.034   2.923  10.399  0.0341  0.1532  0.0778
  523MPD2     H 7822   2.010   2.799  10.046 -1.6023  0.6766 -0.3998
  523MPD2    H1 7823   2.024   3.117  10.325  0.2287 -0.5013  1.0713
  523MPD2    H2 7824   2.066   2.721  10.454  1.5078 -1.7031 -1.4960
  523MPD2    H3 7825   2.069   2.958  10.496  1.5529  1.5143 -0.9771
  523MPD2     N 7826   2.033   3.086  10.074 -0.9883 -0.3195 -0.4610
  523MPD2    H5 7827   2.012   3.177  10.115  0.7195  1.1575 -2.8538
  523MPD2    N1 7828   2.031   2.606  10.229 -0.2800  0.6480  0.1679
  523MPD2    H7 7829   2.049   2.548  10.310 -1.9540 -1.3554 -0.8800
  524TMC3    C1 7830   2.123   3.189   9.875 -0.2394  0.2934 -0.2463
  524TMC3    C2 7831   2.206   3.173   9.768 -0.4340  0.5042  0.7484
  524TMC3    C3 7832   2.242   3.287   9.700  0.1298 -0.6085  0.0078
  524TMC3    C4 7833   2.054   3.307   9.900 -0.1552  0.7659  0.2053
  524TMC3    C5 7834   2.104   3.418   9.840 -0.3940  0.4868 -0.2781
  524TMC3    C6 7835   2.200   3.411   9.743  0.0035  0.3702  0.3873
  524TMC3     C 7836   2.087   3.072   9.945 -0.4928 -0.5380  0.4022
  524TMC3     O 7837   2.106   2.963   9.886 -0.1862 -0.3505  0.1675
  524TMC3     H 7838   2.222   3.079   9.716 -1.5839  0.5553  0.3168
  524TMC3    H1 7839   1.974   3.311   9.973 -1.3559 -1.2100 -1.0332
  524TMC3    H2 7840   2.249   3.497   9.699 -0.5576  0.2109 -0.5548
  524TMC3    C7 7841   2.051   3.550   9.874  0.3126 -0.1648 -0.2181
  524TMC3    C8 7842   2.336   3.281   9.595 -0.4889 -0.6580  0.1296
  524TMC3    O1 7843   1.999   3.546   9.989  0.1951  0.3956 -0.1428
  524TMC3    O2 7844   2.400   3.177   9.589  0.1067  0.3952 -0.1512
  525MPD2     C 7845   0.911   4.081  14.578 -0.3399 -0.4512 -0.0724
  525MPD2    C1 7846   0.962   4.133  14.693 -0.2342 -0.7760 -0.9901
  525MPD2    C2 7847   1.043   4.242  14.693 -0.2231  0.4275  0.0457
  525MPD2    C3 7848   1.065   4.306  14.572 -0.1891 -0.5215  1.2983
  525MPD2    C4 7849   0.999   4.264  14.462 -0.4952 -0.0106 -0.2458
  525MPD2    C5 7850   0.931   4.147  14.458  1.3659  0.0725 -0.1948
  525MPD2     H 7851   1.094   4.281  14.780 -0.1148 -0.2715  0.2966
  525MPD2    H1 7852   1.010   4.313  14.366  0.2629 -0.4733 -0.3951
  525MPD2    H2 7853   0.864   3.983  14.580  0.5877 -0.9140 -1.1198
  525MPD2    H3 7854   0.893   4.115  14.362 -0.4597  3.6841 -0.6604
  525MPD2     N 7855   1.151   4.413  14.549 -0.1579  0.5968 -0.2659
  525MPD2    H5 7856   1.148   4.468  14.464 -0.5889 -1.4020 -1.5407
  525MPD2    N1 7857   0.942   4.065  14.818  0.0865  0.0943  0.1043
  525MPD2    H7 7858   0.996   4.097  14.898  1.1030  0.4391 -0.7169
  526TMC3    C1 7859   0.880   3.901  14.972  0.8015  0.0572  0.2021
  526TMC3    C2 7860   0.780   3.891  15.067 -0.0703 -0.3891 -0.2887
  526TMC3    C3 7861   0.815   3.892  15.198  0.4170 -0.6000 -0.5736
  526TMC3    C4 7862   1.005   3.893  15.005 -0.0781  0.3176  0.1356
  526TMC3    C5 7863   1.035   3.903  15.134  0.4402 -0.3110 -0.1004
  526TMC3    C6 7864   0.940   3.901  15.235  0.4985  0.0726 -0.1624
  526TMC3     C 7865   0.850   3.965  14.850 -0.3435  1.2095  0.5479
  526TMC3     O 7866   0.743   3.934  14.795  0.3566 -0.0957 -0.1052
  526TMC3     H 7867   0.679   3.898  15.028 -0.1133 -1.1158 -0.3183
  526TMC3    H1 7868   1.079   3.890  14.926 -1.0563 -2.0932 -0.6907
  526TMC3    H2 7869   0.972   3.887  15.337 -0.5659  0.8908  0.2816
  526TMC3    C7 7870   1.164   3.852  15.174  0.2645  0.5893 -0.3053
  526TMC3    C8 7871   0.720   3.893  15.297  0.4943 -0.3984  0.3297
  526TMC3    O1 7872   1.210   3.885  15.283  0.1345 -0.0069  0.3744
  526TMC3    O2 7873   0.769   3.905  15.408 -0.3977 -0.0858  0.1213
  527MPD2     C 7874   3.459   2.450   1.097  0.4315 -0.7053  0.4085
  527MPD2    C1 7875   3.401   2.442   0.975 -0.4681 -0.5601 -1.0440
  527MPD2    C2 7876   3.483   2.430   0.864 -0.1779 -0.8787  0.0803
  527MPD2    C3 7877   3.621   2.409   0.872 -0.6455  0.5600 -0.1408
  527MPD2    C4 7878   3.678   2.432   0.998 -0.0260 -0.4949  0.5072
  527MPD2    C5 7879   3.596   2.452   1.109  0.5207 -0.8128  0.3903
  527MPD2     H 7880   3.445   2.412   0.764 -0.2575 -2.9861  0.4894
  527MPD2    H1 7881   3.783   2.410   1.014  0.4836  1.7846  0.3306
  527MPD2    H2 7882   3.405   2.466   1.190 -1.5910 -2.9867 -0.3793
  527MPD2    H3 7883   3.641   2.450   1.207 -1.1957  3.5350  1.2747
  527MPD2     N 7884   3.694   2.357   0.764  0.0400  0.1168 -0.2917
  527MPD2    H5 7885   3.646   2.336   0.677  0.5045 -1.5209 -0.1675
  527MPD2    N1 7886   3.266   2.457   0.951  0.9470 -0.4863  0.1213
  527MPD2    H7 7887   3.238   2.440   0.855 -2.0625  0.1423  0.8715
  528TMC3    C1 7888   3.038   2.454   0.979  0.0106  0.2074  0.4021
  528TMC3    C2 7889   3.032   2.357   0.885  0.1347 -0.0751  0.3742
  528TMC3    C3 7890   2.912   2.308   0.855 -0.7698 -0.0673 -0.4260
  528TMC3    C4 7891   2.922   2.502   1.035  0.7060  0.3452 -0.1305
  528TMC3    C5 7892   2.800   2.444   1.000  0.1159  0.1197  0.6383
  528TMC3    C6 7893   2.797   2.346   0.909  0.1890 -0.2939  0.3385
  528TMC3     C 7894   3.165   2.488   1.040  0.2268  0.4304 -0.2721
  528TMC3     O 7895   3.178   2.519   1.156 -1.0187 -0.2265 -0.2119
  528TMC3     H 7896   3.116   2.301   0.845  0.4743  0.9357 -0.3496
  528TMC3    H1 7897   2.931   2.569   1.119 -1.1275 -1.3771  1.4250
  528TMC3    H2 7898   2.706   2.310   0.863  2.2851 -1.6681 -2.7135
  528TMC3    C7 7899   2.678   2.513   1.052 -0.1543  0.9369  0.2731
  528TMC3    C8 7900   2.915   2.219   0.736 -0.3043 -0.1587  0.6866
  528TMC3    O1 7901   2.684   2.617   1.113  0.0762  0.2537  0.4290
  528TMC3    O2 7902   2.992   2.259   0.648 -0.3808  0.1592  0.3391
  529MPD2     C 7903   0.171   0.392   0.486  0.1533  0.4999  0.1001
  529MPD2    C1 7904   0.298   0.434   0.498  0.0838 -0.0737  0.6336
  529MPD2    C2 7905   0.327   0.555   0.426  0.0803 -0.0907  0.0583
  529MPD2    C3 7906   0.230   0.631   0.364 -0.4299  0.3559  1.3144
  529MPD2    C4 7907   0.100   0.588   0.351 -0.0507  0.0541  1.0721
  529MPD2    C5 7908   0.073   0.462   0.414 -0.3126  0.8311 -0.6503
  529MPD2     H 7909   0.427   0.597   0.432 -0.4500  1.2514 -0.7113
  529MPD2    H1 7910   0.015   0.638   0.306  0.4965  0.7458  0.8109
  529MPD2    H2 7911   0.139   0.295   0.522  0.5168  1.6443  3.5134
  529MPD2    H3 7912   4.716   0.405   0.394  0.5164 -0.7504  0.1555
  529MPD2     N 7913   0.282   0.756   0.308  0.3763  0.6041 -0.3605
  529MPD2    H5 7914   0.383   0.758   0.314  0.2843  2.3003  0.5724
  529MPD2    N1 7915   0.401   0.366   0.563 -0.4206  0.0756  0.3638
  529MPD2    H7 7916   0.494   0.406   0.558 -0.0524 -0.6458  1.3368
  530TMC3    C1 7917   0.493   0.208   0.720 -0.6711  0.2903  0.9882
  530TMC3    C2 7918   0.601   0.288   0.725  0.6735 -0.3331 -0.5342
  530TMC3    C3 7919   0.713   0.248   0.791 -0.3026 -0.1822  0.1142
  530TMC3    C4 7920   0.486   0.093   0.790 -0.4926 -0.3860 -0.1137
  530TMC3    C5 7921   0.604   0.044   0.843 -0.1020 -0.7118  0.8822
  530TMC3    C6 7922   0.719   0.117   0.840  0.0515 -0.2255 -0.0566
  530TMC3     C 7923   0.377   0.249   0.636  0.3223  0.5546  0.4639
  530TMC3     O 7924   0.272   0.197   0.676 -0.3419  0.3225 -0.5259
  530TMC3     H 7925   0.618   0.378   0.667 -0.8758 -0.2267 -0.8372
  530TMC3    H1 7926   0.389   0.043   0.795 -1.2256  0.9865 -0.5829
  530TMC3    H2 7927   0.812   0.078   0.880 -1.0548 -1.3434  1.3816
  530TMC3    C7 7928   0.610   4.659   0.935  0.2732  0.5965 -0.0315
  530TMC3    C8 7929   0.796   0.359   0.830  0.3375  0.2945 -0.2777
  530TMC3    O1 7930   0.722   4.631   0.968  0.0438 -0.1936 -0.1800
  530TMC3    O2 7931   0.820   0.454   0.757  0.5576 -0.2221 -0.2206
  531MPD2     C 7932   4.656   2.813  13.563 -0.1303  0.9043 -0.6968
  531MPD2    C1 7933   4.546   2.889  13.602 -0.1797  0.2143  0.0123
  531MPD2    C2 7934   4.466   2.938  13.507 -0.1547  0.3911 -0.4994
  531MPD2    C3 7935   4.496   2.919  13.373  0.0155  0.0694 -0.4948
  531MPD2    C4 7936   4.594   2.833  13.337 -0.2455 -0.5420  0.4012
  531MPD2    C5 7937   4.681   2.781  13.429 -0.0984 -0.5055  0.4837
  531MPD2     H 7938   4.396   3.016  13.534  0.2027  0.5311  0.0180
  531MPD2    H1 7939   4.623   2.807  13.236  0.5443 -1.3878  0.8481
  531MPD2    H2 7940   4.722   2.771  13.638 -0.0560  0.0584 -1.2438
  531MPD2    H3 7941   0.030   2.717  13.397 -1.3483 -1.1671 -1.4186
  531MPD2     N 7942   4.429   3.002  13.274 -0.0351 -0.1775  0.2163
  531MPD2    H5 7943   4.362   3.069  13.313  1.8227  1.8102 -0.0080
  531MPD2    N1 7944   4.539   2.931  13.739 -0.3658  0.3130  0.4511
  531MPD2    H7 7945   4.630   2.912  13.779 -0.2109  1.1784  0.5098
  532TMC3    C1 7946   4.461   3.076  13.911 -0.4936 -0.7748  0.5820
  532TMC3    C2 7947   4.382   3.190  13.913  0.0288  0.2718 -0.4035
  532TMC3    C3 7948   4.429   3.298  13.985 -0.2730 -0.2661 -0.2452
  532TMC3    C4 7949   4.585   3.079  13.961 -0.3191  0.5523 -0.5970
  532TMC3    C5 7950   4.637   3.198  14.007  0.9625 -0.1130 -0.0752
  532TMC3    C6 7951   4.562   3.311  14.010 -0.0111 -0.5424  0.2509
  532TMC3     C 7952   4.439   3.006  13.787  0.2394 -0.1178 -0.9554
  532TMC3     O 7953   4.333   3.041  13.733  0.0863  0.3484  0.2573
  532TMC3     H 7954   4.276   3.188  13.892 -0.1623  1.4136  0.4652
  532TMC3    H1 7955   4.645   2.989  13.975 -0.6305  0.4259 -0.0542
  532TMC3    H2 7956   4.597   3.404  14.052  1.3576 -1.0322  0.1738
  532TMC3    C7 7957   0.039   3.207  14.059 -1.7241 -0.0247  0.0487
  532TMC3    C8 7958   4.354   3.413  13.938 -0.5725  0.0627 -0.0581
  532TMC3    O1 7959   0.069   3.310  14.123 -0.7245 -0.2978 -0.3918
  532TMC3    O2 7960   4.246   3.430  13.995  0.0196 -0.3398  0.6361
  533TMC3    C1 7961   1.237   4.598  14.663  0.5363  0.4973 -0.6748
  533TMC3    C2 7962   1.355   4.657  14.712 -0.0324 -0.7526  1.1465
  533TMC3    C3 7963   1.342   0.030  14.796 -0.1873 -0.0877 -0.3243
  533TMC3    C4 7964   1.117   4.639  14.714  0.5849 -0.0225 -0.1598
  533TMC3    C5 7965   1.103   0.015  14.794 -0.1635 -0.5398 -0.2714
  533TMC3    C6 7966   1.220   0.077  14.836 -0.2195 -0.3599  0.3140
  533TMC3     C 7967   1.248   4.453  14.642 -0.3641  0.1212 -0.9831
  533TMC3     O 7968   1.305   4.380  14.722 -0.2626 -0.5003 -0.2245
  533TMC3     H 7969   1.450   4.611  14.689  1.0307  1.8074  0.3621
  533TMC3    H1 7970   1.027   4.584  14.690  0.7876 -0.6614  0.5319
  533TMC3    H2 7971   1.203   0.155  14.909 -1.0553 -2.4527  2.3555
  533TMC3    C7 7972   0.980   0.018  14.878 -0.3099  0.0614  0.6256
  533TMC3    C8 7973   1.455   0.117  14.814 -0.6481 -0.5585 -0.4051
  533TMC3    O1 7974   0.906   4.651  14.872  0.0390 -0.5041  0.4251
  533TMC3    O2 7975   1.554   0.092  14.749 -0.5577  0.1368 -0.0201
  534MPD2     C 7976   2.358   1.741   1.611  0.4240  0.0759 -0.3403
  534MPD2    C1 7977   2.395   1.742   1.472  0.2830 -0.5622  0.7525
  534MPD2    C2 7978   2.388   1.623   1.412 -0.0821 -0.0498 -0.6248
  534MPD2    C3 7979   2.357   1.503   1.480  0.5001 -0.0910 -0.9414
  534MPD2    C4 7980   2.312   1.511   1.605  0.0522 -0.4483 -0.9333
  534MPD2    C5 7981   2.314   1.630   1.675  0.6364  0.3717 -0.4072
  534MPD2     H 7982   2.414   1.621   1.307  1.0017  0.6530 -0.3635
  534MPD2    H1 7983   2.278   1.418   1.650  0.5221 -1.5278 -2.8063
  534MPD2    H2 7984   2.350   1.835   1.665  2.4833  1.0609 -1.7283
  534MPD2    H3 7985   2.290   1.634   1.780 -2.7926 -0.8070 -1.1468
  534MPD2     N 7986   2.353   1.376   1.422  0.0570 -0.1912 -0.0469
  534MPD2    H5 7987   2.312   1.310   1.487  0.1098 -1.4237 -1.2736
  534MPD2    N1 7988   2.406   1.855   1.385 -0.1890 -0.3420  0.3374
  534MPD2    H7 7989   2.432   1.837   1.288 -4.0208 -1.7375 -0.4114
  535TMC3    C1 7990   2.364   1.215   1.253 -0.3451 -1.2887  0.8354
  535TMC3    C2 7991   2.262   1.151   1.320 -0.2818 -0.0711 -0.0078
  535TMC3    C3 7992   2.230   1.023   1.285 -0.8831  0.3519 -0.5773
  535TMC3    C4 7993   2.414   1.161   1.137 -0.4434  0.5646  0.2825
  535TMC3    C5 7994   2.374   1.030   1.106  0.6334 -0.0666  0.6713
  535TMC3    C6 7995   2.279   0.961   1.176  0.3818  0.1452 -1.2851
  535TMC3     C 7996   2.418   1.340   1.299 -0.3867 -0.4084  0.0144
  535TMC3     O 7997   2.508   1.391   1.234  0.3193  0.1518  0.3977
  535TMC3     H 7998   2.200   1.206   1.391 -2.2832  0.3308 -2.0624
  535TMC3    H1 7999   2.498   1.204   1.084 -1.4872  0.8164 -1.1717
  535TMC3    H2 8000   2.248   0.859   1.156 -0.1126 -0.1128  0.7701
  535TMC3    C7 8001   2.453   0.968   1.003 -0.4143 -0.7117  0.0548
  535TMC3    C8 8002   2.121   0.963   1.356  1.0542  0.3780 -0.0109
  535TMC3    O1 8003   2.558   1.015   0.962 -0.0909  0.1840 -0.4501
  535TMC3    O2 8004   2.074   0.880   1.280 -0.2432  0.1847  0.0160
  536MPD2     C 8005   2.196   4.048  16.353 -0.3183 -0.2439  0.2205
  536MPD2    C1 8006   2.086   4.005  16.414  0.0998  0.2771  0.1476
  536MPD2    C2 8007   1.961   4.029  16.355  0.1052  0.7856 -0.1609
  536MPD2    C3 8008   1.952   4.102  16.240  0.0617 -0.1997  0.3819
  536MPD2    C4 8009   2.068   4.140  16.178  0.1916 -0.1578 -0.1434
  536MPD2    C5 8010   2.191   4.118  16.237  0.0846 -0.1135  0.0930
  536MPD2     H 8011   1.868   4.003  16.405  0.8246  0.4412  0.9985
  536MPD2    H1 8012   2.071   4.200  16.088 -2.3444  0.1263 -0.0319
  536MPD2    H2 8013   2.298   4.028  16.383 -0.3361  0.3363  0.6647
  536MPD2    H3 8014   2.279   4.145  16.179  0.7168  0.5862  1.3781
  536MPD2     N 8015   1.833   4.144  16.177 -0.2639 -0.5133  0.1085
  536MPD2    H5 8016   1.843   4.188  16.086  1.0426 -2.6339 -0.7797
  536MPD2    N1 8017   2.100   3.945  16.540 -0.1890 -0.4031 -0.0681
  536MPD2    H7 8018   2.192   3.963  16.579 -0.8669  3.6975 -0.3536
  537TMC3    C1 8019   2.060   3.818  16.727 -0.7431  0.0651  0.3487
  537TMC3    C2 8020   2.151   3.903  16.792 -0.1383 -0.3827 -0.1712
  537TMC3    C3 8021   2.163   3.870  16.927  0.4498 -0.2933  0.3718
  537TMC3    C4 8022   1.995   3.715  16.789  0.1489  0.4041 -0.3544
  537TMC3    C5 8023   2.015   3.694  16.929  0.1763 -0.2052  1.1100
  537TMC3    C6 8024   2.104   3.769  16.998  1.0916  0.0892 -0.4522
  537TMC3     C 8025   2.016   3.851  16.597  0.5950  0.0750  0.2034
  537TMC3     O 8026   1.906   3.806  16.564  0.0322  0.2587  0.0197
  537TMC3     H 8027   2.199   3.991  16.751  1.0862 -1.0829 -0.2380
  537TMC3    H1 8028   1.926   3.648  16.737  2.2064 -0.8086 -1.5342
  537TMC3    H2 8029   2.107   3.764  17.106  0.7892  2.3511 -0.3485
  537TMC3    C7 8030   1.916   3.610  16.994  0.8608 -0.2570  0.2968
  537TMC3    C8 8031   2.222   3.971  17.009 -0.2804  0.2009 -0.0295
  537TMC3    O1 8032   1.811   3.611  16.929  0.3591  0.1025  0.6468
  537TMC3    O2 8033   2.282   3.929  17.103 -0.6291 -0.1628 -0.0150
  538TMC3    C1 8034   2.674   2.787  11.237 -0.8844  0.4233 -0.1069
  538TMC3    C2 8035   2.744   2.695  11.160 -0.2013  0.2009 -0.2424
  538TMC3    C3 8036   2.683   2.653  11.051  0.1390 -0.0347  0.1204
  538TMC3    C4 8037   2.546   2.829  11.209 -0.1999 -0.3591 -0.7441
  538TMC3    C5 8038   2.490   2.767  11.103  0.0030 -0.3037 -0.5276
  538TMC3    C6 8039   2.553   2.662  11.026  0.0315 -0.4625 -0.0352
  538TMC3     C 8040   2.721   2.808  11.374  0.1650 -0.2831  0.9756
  538TMC3     O 8041   2.677   2.912  11.425  0.1295  0.8495 -0.0360
  538TMC3     H 8042   2.837   2.654  11.198 -0.7059  0.9244  1.7817
  538TMC3    H1 8043   2.491   2.891  11.279  0.7847  0.4844 -0.7128
  538TMC3    H2 8044   2.501   2.620  10.940  0.9823 -0.1930 -0.7449
  538TMC3    C7 8045   2.348   2.798  11.084  0.3263  0.1867 -0.4185
  538TMC3    C8 8046   2.754   2.557  10.969 -0.2706  0.3386 -0.5122
  538TMC3    O1 8047   2.282   2.708  11.039 -0.1907  0.5065 -0.1679
  538TMC3    O2 8048   2.695   2.470  10.905  0.1178  0.3401 -0.8228
  539MPD2     C 8049   2.280   1.860  11.968  0.2660  0.2610 -0.1387
  539MPD2    C1 8050   2.266   1.835  11.834 -0.5051 -0.3366 -0.3593
  539MPD2    C2 8051   2.188   1.918  11.753  0.6753 -0.2142  0.7527
  539MPD2    C3 8052   2.122   2.025  11.808 -0.4236  0.4736 -0.0908
  539MPD2    C4 8053   2.132   2.038  11.941 -0.1500  0.2511 -0.2908
  539MPD2    C5 8054   2.207   1.959  12.023  0.5517 -0.0648 -0.2077
  539MPD2     H 8055   2.184   1.899  11.646  1.6829 -1.6941  0.9767
  539MPD2    H1 8056   2.072   2.113  11.989  1.0500 -0.1695  1.8617
  539MPD2    H2 8057   2.343   1.798  12.030  0.7687  2.5975  1.6750
  539MPD2    H3 8058   2.213   1.971  12.131 -0.2588  0.8946 -0.2703
  539MPD2     N 8059   2.034   2.110  11.740 -0.2414  0.1113  0.3984
  539MPD2    H5 8060   2.007   2.185  11.802 -0.8918  0.1193  0.1107
  539MPD2    N1 8061   2.343   1.733  11.768  0.2154  0.0505 -0.0896
  539MPD2    H7 8062   2.332   1.736  11.667  0.9442 -3.1067 -0.2738
  540TMC3    C1 8063   1.931   2.220  11.559  0.3449  0.2519  0.3921
  540TMC3    C2 8064   1.941   2.255  11.422  0.0087  0.5790  1.1130
  540TMC3    C3 8065   1.863   2.354  11.374  0.2821  0.2436  0.6496
  540TMC3    C4 8066   1.844   2.289  11.642 -0.0149  0.3537 -0.0568
  540TMC3    C5 8067   1.756   2.377  11.581  1.0522  0.1507 -0.2492
  540TMC3    C6 8068   1.763   2.410  11.451  0.2307 -0.0549 -0.6449
  540TMC3     C 8069   2.008   2.111  11.605  0.4094 -0.6635 -0.2406
  540TMC3     O 8070   2.065   2.048  11.520 -0.0314  0.4720 -0.4113
  540TMC3     H 8071   2.012   2.201  11.361  1.3228  2.6672  0.7760
  540TMC3    H1 8072   1.838   2.260  11.747 -1.5956 -3.2983 -1.1436
  540TMC3    H2 8073   1.704   2.494  11.415  1.7166  0.6669 -1.3742
  540TMC3    C7 8074   1.642   2.419  11.661 -0.3058  0.3087 -0.8986
  540TMC3    C8 8075   1.860   2.382  11.234 -0.6829  0.2328  0.3875
  540TMC3    O1 8076   1.603   2.335  11.745  0.5814  0.2736 -0.0363
  540TMC3    O2 8077   1.830   2.495  11.194 -0.3497  0.1975 -1.2872
  541MPD2     C 8078   1.151   3.578  13.462  0.3265  0.4388 -0.4743
  541MPD2    C1 8079   1.077   3.492  13.396  0.1988  0.7196 -0.6248
  541MPD2    C2 8080   1.013   3.532  13.282  0.3357  0.6635 -0.3815
  541MPD2    C3 8081   1.038   3.653  13.226  0.2532  0.4309 -0.3175
  541MPD2    C4 8082   1.113   3.745  13.296 -0.4113  0.4613 -0.3183
  541MPD2    C5 8083   1.160   3.710  13.419 -0.2850  0.5650  0.1654
  541MPD2     H 8084   0.948   3.457  13.239  1.6021 -0.8053  0.2391
  541MPD2    H1 8085   1.146   3.840  13.255 -0.5456 -0.2642 -2.1085
  541MPD2    H2 8086   1.199   3.556  13.557 -2.3450 -0.1128  0.7274
  541MPD2    H3 8087   1.217   3.779  13.480 -1.3203  0.7770  0.9026
  541MPD2     N 8088   0.987   3.694  13.100  0.4636 -0.0634  0.3383
  541MPD2    H5 8089   1.006   3.789  13.071 -0.9193  0.2786  0.5319
  541MPD2    N1 8090   1.049   3.362  13.436 -0.7268 -0.0306  0.1798
  541MPD2    H7 8091   1.000   3.304  13.369 -1.5079  0.7292  0.0912
  542TMC3    C1 8092   0.892   3.674  12.885  0.6910  0.7240 -0.8350
  542TMC3    C2 8093   0.869   3.591  12.782  0.5590 -0.1443 -0.2603
  542TMC3    C3 8094   0.822   3.649  12.669  0.1693 -0.1917 -0.0939
  542TMC3    C4 8095   0.864   3.805  12.889  0.2252  0.5877 -0.2439
  542TMC3    C5 8096   0.818   3.860  12.772 -0.9078  0.0325  0.0340
  542TMC3    C6 8097   0.782   3.782  12.662  0.2807  0.5358  0.0534
  542TMC3     C 8098   0.929   3.603  13.015  0.3372 -0.1500 -0.2352
  542TMC3     O 8099   0.921   3.483  13.023  0.3752  0.7335 -0.0608
  542TMC3     H 8100   0.872   3.482  12.782 -2.2765 -0.2309 -2.2586
  542TMC3    H1 8101   0.863   3.867  12.978 -1.2372 -1.3944  1.1264
  542TMC3    H2 8102   0.731   3.832  12.581  0.0419 -0.7982 -0.6090
  542TMC3    C7 8103   0.762   3.992  12.774 -1.1779 -1.3358  0.2812
  542TMC3    C8 8104   0.857   3.583  12.539 -0.0658  0.2290  0.2541
  542TMC3    O1 8105   0.722   4.034  12.883 -0.0881 -0.3146  0.1208
  542TMC3    O2 8106   0.803   3.635  12.440  0.1359  0.2251  0.5009
  543TMC3    C1 8107   0.798   4.571  17.479  0.8024  0.7552 -0.0065
  543TMC3    C2 8108   0.801   4.438  17.517  0.4982 -0.5731  0.0892
  543TMC3    C3 8109   0.709   4.393  17.606 -0.5253  0.4541  0.7229
  543TMC3    C4 8110   0.692   4.652  17.524 -0.7653 -0.2004 -0.2494
  543TMC3    C5 8111   0.606   4.600  17.618 -0.0250  0.5478 -0.2340
  543TMC3    C6 8112   0.613   4.474  17.657  0.4474  0.1571  0.3292
  543TMC3     C 8113   0.900   4.609  17.390 -0.5405  0.1933  0.0434
  543TMC3     O 8114   0.991   4.532  17.372  0.2866  0.6306  0.7214
  543TMC3     H 8115   0.876   4.372  17.474  0.0652 -0.8412 -0.2625
  543TMC3    H1 8116   0.693   0.027  17.522  0.7449 -0.2317 -1.6245
  543TMC3    H2 8117   0.560   4.437   0.012 -2.3522 -0.4514 -1.6683
  543TMC3    C7 8118   0.487   4.672  17.652  0.0702  0.3362 -0.7018
  543TMC3    C8 8119   0.729   4.257  17.661 -0.1255  0.5339  0.1926
  543TMC3    O1 8120   0.424   4.635   0.018  0.6987  0.0961 -0.2438
  543TMC3    O2 8121   0.809   4.189  17.595 -0.6970 -0.1702  0.1031
  544MPD2     C 8122   0.636   3.844   0.225  0.6446 -0.0169  0.0424
  544MPD2    C1 8123   0.663   3.850   0.087  0.5319  0.0038 -0.0053
  544MPD2    C2 8124   0.683   3.976   0.032 -0.0748  0.5894 -0.1672
  544MPD2    C3 8125   0.652   4.089   0.100 -0.1108  0.6794  0.9780
  544MPD2    C4 8126   0.622   4.080   0.236  0.0893 -0.0326  0.1714
  544MPD2    C5 8127   0.613   3.957   0.297  0.2941 -0.4872  0.3693
  544MPD2     H 8128   0.701   3.995  17.660  1.6378 -0.4075 -0.0444
  544MPD2    H1 8129   0.606   4.167   0.299 -0.0759  0.6768 -0.8545
  544MPD2    H2 8130   0.630   3.747   0.272 -1.2916 -0.0698 -0.3165
  544MPD2    H3 8131   0.578   3.951   0.400 -3.4599  0.9833 -0.8035
  544MPD2     N 8132   0.666   4.224   0.046 -0.0537  1.1848  0.6491
  544MPD2    H5 8133   0.640   4.303   0.104  0.7078  1.7237  0.2584
  544MPD2    N1 8134   0.691   3.739   0.009  0.3965  0.7276  0.4405
  544MPD2    H7 8135   0.691   3.652   0.063 -0.9896 -0.3030 -1.2149
  545TMC3    C1 8136   0.719   3.604  17.539 -0.3448 -0.2765  0.6725
  545TMC3    C2 8137   0.765   3.600  17.410 -0.2395 -0.4614  0.0495
  545TMC3    C3 8138   0.744   3.485  17.338  0.6966 -0.2426  0.2606
  545TMC3    C4 8139   0.657   3.507  17.605  0.1051  0.4428 -0.3266
  545TMC3    C5 8140   0.620   3.401  17.518 -0.2861 -0.6809  0.4627
  545TMC3    C6 8141   0.672   3.383  17.391  0.0159 -0.7123 -0.2070
  545TMC3     C 8142   0.707   3.736  17.599  0.0128 -0.2727 -0.1166
  545TMC3     O 8143   0.738   3.829  17.526 -0.4284  0.1809 -0.1114
  545TMC3     H 8144   0.828   3.679  17.370 -0.5808 -0.1968  0.0334
  545TMC3    H1 8145   0.607   3.512  17.701  0.1781  0.7924 -0.3092
  545TMC3    H2 8146   0.672   3.284  17.348  1.1219 -0.9687  0.3811
  545TMC3    C7 8147   0.544   3.297  17.577 -0.3627  0.0353  0.1132
  545TMC3    C8 8148   0.850   3.448  17.239  1.0771  0.4645 -0.2308
  545TMC3    O1 8149   0.473   3.235  17.498 -0.2496  0.1527 -0.3482
  545TMC3    O2 8150   0.851   3.337  17.191  0.6725 -0.3349  0.0563
  546MPD2     C 8151   2.136   4.674   0.200  0.7726  0.2319  0.0278
  546MPD2    C1 8152   2.141   4.666   0.062 -0.1147  1.0778 -0.2724
  546MPD2    C2 8153   2.203   0.039   0.003 -0.0420  0.4130  0.0016
  546MPD2    C3 8154   2.246   0.151   0.069  0.9009  0.5603 -0.4590
  546MPD2    C4 8155   2.246   0.152   0.208  0.0590 -0.6881  0.3007
  546MPD2    C5 8156   2.189   0.043   0.274  0.7244  0.2575  0.6269
  546MPD2     H 8157   2.223   0.029  17.630  0.8060  1.1788  0.0965
  546MPD2    H1 8158   2.279   0.238   0.266 -1.5108  0.7248 -0.8742
  546MPD2    H2 8159   2.092   4.596   0.262  1.0783  0.4749  0.5510
  546MPD2    H3 8160   2.189   0.040   0.382 -1.7522 -1.3526  0.5650
  546MPD2     N 8161   2.309   0.259   0.005 -0.2122  0.1730  0.5018
  546MPD2    H5 8162   2.330   0.342   0.059  0.3322 -1.0505  2.1507
  546MPD2    N1 8163   2.093   4.553   0.001 -0.0665 -0.2939 -0.4708
  546MPD2    H7 8164   2.036   4.491   0.058  0.3357  0.1958  0.4660
  547TMC3    C1 8165   2.081   4.381  17.573  0.3797  0.3762  0.5545
  547TMC3    C2 8166   2.072   4.340  17.442  0.3284  0.9720  0.5344
  547TMC3    C3 8167   2.029   4.212  17.413 -0.3416 -0.2288  0.1005
  547TMC3    C4 8168   2.079   4.290  17.674  0.1259 -0.3398 -0.4595
  547TMC3    C5 8169   2.058   4.163  17.632  0.0582  0.0077  0.1872
  547TMC3    C6 8170   2.028   4.117  17.509 -0.6738  0.1308 -0.4106
  547TMC3     C 8171   2.120   4.513  17.605  0.2726  0.3629 -0.5623
  547TMC3     O 8172   2.163   4.579  17.514 -0.1297  0.4113  0.6884
  547TMC3     H 8173   2.048   4.411  17.363  1.4505  0.6227 -0.1213
  547TMC3    H1 8174   2.101   4.315   0.045  0.2542  2.6363 -1.1914
  547TMC3    H2 8175   1.973   4.025  17.493  0.6954 -0.6629 -0.6565
  547TMC3    C7 8176   2.074   4.067   0.008  0.5416  0.0372  0.2962
  547TMC3    C8 8177   1.925   4.209  17.308  0.6484  0.3757  0.4330
  547TMC3    O1 8178   2.029   4.089   0.120  0.3099  0.1878 -0.6525
  547TMC3    O2 8179   1.874   4.320  17.285  0.2665 -0.0149  0.1060
  548MPD2     C 8180   1.980   0.439  12.887  0.2000  0.0632 -0.0029
  548MPD2    C1 8181   1.895   0.340  12.833  0.3483 -0.1504 -0.4549
  548MPD2    C2 8182   1.952   0.217  12.788  0.5089  0.1510  0.5943
  548MPD2    C3 8183   2.085   0.202  12.801 -0.1325 -0.0559 -0.6257
  548MPD2    C4 8184   2.164   0.292  12.864  0.2165  0.0456 -0.4383
  548MPD2    C5 8185   2.115   0.417  12.902 -0.3650  0.1072 -0.4540
  548MPD2     H 8186   1.889   0.141  12.743 -0.0534  0.0046  1.6180
  548MPD2    H1 8187   2.272   0.294  12.878  0.0277  0.9496  0.8299
  548MPD2    H2 8188   1.931   0.532  12.915  0.0926  0.3493 -1.1497
  548MPD2    H3 8189   2.184   0.491  12.940  0.8857 -0.9435 -0.6922
  548MPD2     N 8190   2.145   0.096  12.730 -0.1376 -0.2692 -0.1307
  548MPD2    H5 8191   2.080   0.026  12.697 -2.0494  0.5393  1.9551
  548MPD2    N1 8192   1.760   0.368  12.812 -0.0039 -0.2043  0.1961
  548MPD2    H7 8193   1.690   0.295  12.799  0.0888 -0.4629  1.1590
  549TMC3    C1 8194   1.568   0.474  12.737  0.8299  0.0230 -0.0579
  549TMC3    C2 8195   1.521   0.561  12.642  0.5933  0.5646  0.8984
  549TMC3    C3 8196   1.383   0.573  12.628  0.5327 -0.3750  0.5998
  549TMC3    C4 8197   1.479   0.398  12.810 -0.4370  0.1847  0.2063
  549TMC3    C5 8198   1.343   0.422  12.804  0.1168 -0.6307 -0.5263
  549TMC3    C6 8199   1.295   0.510  12.710 -0.1212 -0.1215 -0.7344
  549TMC3     C 8200   1.706   0.484  12.776 -0.3120 -0.5398  0.4186
  549TMC3     O 8201   1.769   0.586  12.744 -0.1937 -0.1350  0.3285
  549TMC3     H 8202   1.598   0.624  12.600 -0.6256  1.5411  0.1335
  549TMC3    H1 8203   1.509   0.324  12.884 -0.4267 -1.1404 -1.1364
  549TMC3    H2 8204   1.188   0.528  12.705  0.2477  1.8064 -1.6097
  549TMC3    C7 8205   1.251   0.314  12.842 -0.7539  0.4585 -0.0998
  549TMC3    C8 8206   1.320   0.649  12.524  0.3422  0.1768  0.2939
  549TMC3    O1 8207   1.131   0.345  12.858 -0.3334 -0.2603 -0.1401
  549TMC3    O2 8208   1.201   0.630  12.523  0.7862 -0.1553  0.0363
  550TMC3    C1 8209   0.395   3.326  12.170  0.4063  0.4402 -0.5634
  550TMC3    C2 8210   0.449   3.319  12.299  0.1059 -0.4309  0.6811
  550TMC3    C3 8211   0.492   3.446  12.337 -0.9958 -0.0496  0.6196
  550TMC3    C4 8212   0.384   3.440  12.090 -0.3998  0.5687  0.1863
  550TMC3    C5 8213   0.438   3.555  12.138  0.1580 -0.3788  1.2498
  550TMC3    C6 8214   0.498   3.560  12.260 -0.0803  0.3076 -0.3262
  550TMC3     C 8215   0.393   3.198  12.104 -0.0897 -0.2618  0.0536
  550TMC3     O 8216   0.436   3.101  12.171 -0.5072  0.2976  0.1869
  550TMC3     H 8217   0.435   3.239  12.371 -1.7798 -1.7253 -1.1029
  550TMC3    H1 8218   0.313   3.440  12.009 -0.7497 -3.0351  0.4989
  550TMC3    H2 8219   0.545   3.654  12.286  2.2736 -0.8185 -0.5213
  550TMC3    C7 8220   0.355   3.673  12.097  0.2404  0.1912  0.2357
  550TMC3    C8 8221   0.448   3.476  12.472  0.9595  0.2851  0.5914
  550TMC3    O1 8222   0.333   3.753  12.188  0.8107  0.6884 -0.9529
  550TMC3    O2 8223   0.467   3.396  12.562  0.7349  0.2005  0.2154
  551TMC3    C1 8224   2.716   0.775  13.632 -0.6319 -0.0090  0.3392
  551TMC3    C2 8225   2.804   0.710  13.561 -0.5051 -0.1421 -0.9768
  551TMC3    C3 8226   2.920   0.685  13.619  0.3085  0.2114  0.3005
  551TMC3    C4 8227   2.723   0.813  13.766  0.6623  0.0025 -0.2290
  551TMC3    C5 8228   2.844   0.780  13.823 -0.2704 -0.2507 -0.0219
  551TMC3    C6 8229   2.944   0.722  13.749 -0.0895 -0.5327  0.3478
  551TMC3     C 8230   2.592   0.794  13.548 -0.2164  0.6518  0.0526
  551TMC3     O 8231   2.593   0.806  13.430  0.2018 -0.6546 -0.6279
  551TMC3     H 8232   2.790   0.678  13.458 -0.5075 -0.3101 -0.9233
  551TMC3    H1 8233   2.646   0.881  13.802  2.6143  0.3094  3.3159
  551TMC3    H2 8234   3.045   0.717  13.788  0.6172 -0.3167 -1.4723
  551TMC3    C7 8235   2.897   0.867  13.928 -0.4071 -0.3465  0.5870
  551TMC3    C8 8236   3.036   0.711  13.529  1.2309 -0.2042  0.3388
  551TMC3    O1 8237   2.982   0.817  14.002  0.1562  0.0310 -0.0677
  551TMC3    O2 8238   3.056   0.641  13.435 -0.6246  0.2251 -0.0528
  552MPD2     C 8239   0.020   3.076  14.415  0.0527  0.8321  0.8831
  552MPD2    C1 8240   0.034   2.949  14.463 -0.3135 -0.3307 -0.3217
  552MPD2    C2 8241   0.132   2.921  14.557  0.4025  0.1064 -0.2133
  552MPD2    C3 8242   0.213   3.022  14.605  1.1893  0.2126  0.4523
  552MPD2    C4 8243   0.197   3.149  14.553  0.0667 -0.1837 -0.0966
  552MPD2    C5 8244   0.102   3.174  14.456 -0.3076  0.2283 -0.3107
  552MPD2     H 8245   0.138   2.819  14.593  2.1895  0.3448  0.1212
  552MPD2    H1 8246   0.263   3.224  14.594 -0.8595  0.8674 -0.5501
  552MPD2    H2 8247   4.675   3.107  14.347  0.5663 -2.2284 -1.1121
  552MPD2    H3 8248   0.095   3.273  14.413  0.1974  0.5650  0.3986
  552MPD2     N 8249   0.317   2.999  14.698  0.4518 -0.3156 -1.1109
  552MPD2    H5 8250   0.367   3.083  14.723 -1.3594 -0.2533  2.3458
  552MPD2    N1 8251   4.693   2.847  14.412 -0.4063 -0.4282  0.2424
  552MPD2    H7 8252   4.705   2.749  14.437  2.6972  0.0254  0.5108
  553TMC3    C1 8253   4.551   2.733  14.291 -0.2018  0.1448  0.1531
  553TMC3    C2 8254   4.523   2.734  14.154  0.0517  0.5802  0.1968
  553TMC3    C3 8255   4.536   2.619  14.085 -0.1183  0.3584 -0.5306
  553TMC3    C4 8256   4.586   2.618  14.353 -0.1652 -0.2147 -0.0487
  553TMC3    C5 8257   4.612   2.509  14.281  0.4569 -0.6414 -0.0401
  553TMC3    C6 8258   4.584   2.506  14.147 -0.2295  0.2073  0.0504
  553TMC3     C 8259   4.586   2.865  14.337  0.0535  0.0137  0.1843
  553TMC3     O 8260   4.542   2.953  14.262  0.2423  0.0888  0.5367
  553TMC3     H 8261   4.506   2.824  14.096  2.4160 -0.5029 -2.1946
  553TMC3    H1 8262   4.611   2.618  14.458 -1.4356  0.7524  0.2507
  553TMC3    H2 8263   4.614   2.418  14.090  1.0844  0.7563 -0.0877
  553TMC3    C7 8264   4.683   2.396  14.329  0.2294 -0.3972  0.1050
  553TMC3    C8 8265   4.608   2.651  13.961  0.2784 -0.7177  0.0686
  553TMC3    O1 8266   4.631   2.287  14.310  0.0083 -0.6243 -0.5043
  553TMC3    O2 8267   4.683   2.749  13.960 -0.1461  0.4286  0.3981
  554TMC3    C1 8268   1.075   1.631  11.417 -0.3055 -0.1487 -1.1168
  554TMC3    C2 8269   1.104   1.552  11.312 -0.0413  0.4998  0.5602
  554TMC3    C3 8270   1.224   1.567  11.244 -0.7172  0.2647  0.0754
  554TMC3    C4 8271   1.153   1.737  11.463  0.3133 -0.0448  0.4710
  554TMC3    C5 8272   1.273   1.751  11.395 -0.2116 -0.7521 -0.4283
  554TMC3    C6 8273   1.306   1.666  11.291  0.5000 -0.0489 -0.5219
  554TMC3     C 8274   0.991   1.570  11.514 -0.8320  0.5593 -0.1809
  554TMC3     O 8275   0.899   1.500  11.472 -0.7288  0.3594  0.5244
  554TMC3     H 8276   1.039   1.473  11.277 -0.7296  2.1587 -1.9148
  554TMC3    H1 8277   1.113   1.800  11.542  1.3611  2.1866 -0.7801
  554TMC3    H2 8278   1.398   1.679  11.234  1.5818 -1.2180  0.9652
  554TMC3    C7 8279   1.341   1.881  11.389 -0.3116 -0.3653 -0.1375
  554TMC3    C8 8280   1.219   1.582  11.099  0.1480 -0.2688  0.1709
  554TMC3    O1 8281   1.432   1.895  11.305  0.5690 -0.8675 -0.0725
  554TMC3    O2 8282   1.260   1.689  11.051 -0.2319 -0.4151 -0.7925
  555TMC3    C1 8283   1.115   1.278  15.077  0.1419 -0.3387 -0.0072
  555TMC3    C2 8284   1.121   1.373  15.171  0.7230  0.5397 -0.3202
  555TMC3    C3 8285   1.084   1.329  15.298 -0.1965 -0.0631  0.0623
  555TMC3    C4 8286   1.075   1.149  15.096 -0.2125 -0.5347 -0.1749
  555TMC3    C5 8287   1.029   1.120  15.222  0.0215  0.0074  0.5429
  555TMC3    C6 8288   1.037   1.204  15.330 -0.2510 -0.3360 -0.0219
  555TMC3     C 8289   1.146   1.320  14.946  0.2618 -0.0569 -0.1741
  555TMC3     O 8290   1.257   1.372  14.930  0.3410  0.1757 -0.2263
  555TMC3     H 8291   1.154   1.474  15.150 -0.6247  1.4370  1.8246
  555TMC3    H1 8292   1.066   1.077  15.016 -0.9945  0.5159 -1.0256
  555TMC3    H2 8293   1.015   1.170  15.430 -1.5172  2.3421  0.6284
  555TMC3    C7 8294   1.022   0.980  15.266 -0.7463  0.0129  0.0094
  555TMC3    C8 8295   1.084   1.428  15.403 -0.1589  0.3706 -0.8971
  555TMC3    O1 8296   0.933   0.947  15.344 -0.1208 -0.6268  0.5516
  555TMC3    O2 8297   1.044   1.541  15.364  0.1105 -0.0695 -0.2885
  556MPD2     C 8298   3.659   3.483  10.735 -0.1539  0.3995  0.2853
  556MPD2    C1 8299   3.714   3.401  10.827 -0.2093  0.2469  0.6723
  556MPD2    C2 8300   3.711   3.266  10.796 -0.4224 -0.1476  0.2480
  556MPD2    C3 8301   3.653   3.209  10.689 -0.9366 -1.1571 -0.1883
  556MPD2    C4 8302   3.594   3.301  10.601 -0.0131 -0.3759 -0.3308
  556MPD2    C5 8303   3.596   3.436  10.627  0.4163  0.6481  1.2499
  556MPD2     H 8304   3.757   3.206  10.873  1.7270 -1.8540 -2.3959
  556MPD2    H1 8305   3.532   3.273  10.516  1.0526 -2.6039 -0.3586
  556MPD2    H2 8306   3.662   3.591  10.745 -0.7176  0.5990 -1.7886
  556MPD2    H3 8307   3.552   3.501  10.552  1.7616 -1.0483 -1.0266
  556MPD2     N 8308   3.638   3.072  10.667  0.4390 -0.1042 -0.3539
  556MPD2    H5 8309   3.576   3.049  10.590  0.3521 -1.7977  0.2188
  556MPD2    N1 8310   3.766   3.449  10.950  0.5127 -0.2221 -0.1616
  556MPD2    H7 8311   3.804   3.382  11.016  0.7800 -0.6094 -0.7085
  557TMC3    C1 8312   3.634   2.839  10.707 -0.6238  0.8355 -0.1009
  557TMC3    C2 8313   3.658   2.786  10.582  0.1593 -0.6323 -0.4109
  557TMC3    C3 8314   3.603   2.661  10.553 -0.1782  0.3236 -0.2313
  557TMC3    C4 8315   3.563   2.771  10.800 -0.4269 -0.1443 -0.2764
  557TMC3    C5 8316   3.505   2.653  10.770  0.2765 -0.1416 -0.0746
  557TMC3    C6 8317   3.518   2.600  10.645  0.0825  0.0438 -0.1023
  557TMC3     C 8318   3.677   2.974  10.747  0.8537  0.4877  1.3254
  557TMC3     O 8319   3.736   2.978  10.852  0.5389  0.5964 -0.2122
  557TMC3     H 8320   3.730   2.832  10.515  0.0871 -0.5273 -0.4166
  557TMC3    H1 8321   3.559   2.800  10.905  2.4410 -0.4901 -0.0721
  557TMC3    H2 8322   3.463   2.512  10.613  0.1854  0.5827 -1.7710
  557TMC3    C7 8323   3.381   2.630  10.825 -0.0125 -0.4589 -0.9321
  557TMC3    C8 8324   3.653   2.590  10.438 -0.0792  0.0365 -0.3707
  557TMC3    O1 8325   3.327   2.739  10.850 -0.4659 -0.0357  0.2361
  557TMC3    O2 8326   3.731   2.648  10.363 -0.9106 -0.1969 -0.3120
  558TMC3    C1 8327   1.424   1.001  10.090 -0.2006 -0.0580  0.1774
  558TMC3    C2 8328   1.357   0.885  10.095 -0.3781 -0.3555  0.1136
  558TMC3    C3 8329   1.254   0.864  10.004 -0.0657  0.9500  0.1511
  558TMC3    C4 8330   1.397   1.096   9.992  1.0824  0.2609  0.0764
  558TMC3    C5 8331   1.285   1.074   9.916 -0.4484 -0.1494 -0.0064
  558TMC3    C6 8332   1.216   0.957   9.918 -0.3308  0.2441  0.1859
  558TMC3     C 8333   1.552   0.996  10.148 -0.0565 -0.7188 -0.0147
  558TMC3     O 8334   1.593   0.882  10.182 -0.1994 -0.1224  0.0247
  558TMC3     H 8335   1.366   0.821  10.182 -1.2878  0.3670  0.7407
  558TMC3    H1 8336   1.464   1.181   9.977  0.7734  0.8388  1.8677
  558TMC3    H2 8337   1.137   0.933   9.848  0.3223  0.3299 -0.5829
  558TMC3    C7 8338   1.255   1.182   9.819  0.1545 -0.0291  0.4188
  558TMC3    C8 8339   1.237   0.726   9.970  0.4712  0.1723  0.4946
  558TMC3    O1 8340   1.276   1.301   9.843 -0.5997  0.8680 -0.3126
  558TMC3    O2 8341   1.140   0.678   9.917 -0.3421 -0.2133 -0.2034
  559MPD2     C 8342   1.320   1.373  10.387  1.0913 -0.2100  0.2631
  559MPD2    C1 8343   1.317   1.237  10.401  0.3403 -0.0005 -0.9563
  559MPD2    C2 8344   1.411   1.175  10.482  0.1950  0.4762 -0.2387
  559MPD2    C3 8345   1.508   1.244  10.549  0.1906  0.0588  1.2364
  559MPD2    C4 8346   1.515   1.381  10.528  0.6062  0.3520  0.6094
  559MPD2    C5 8347   1.420   1.446  10.452 -0.1401  0.4051 -0.1045
  559MPD2     H 8348   1.410   1.066  10.485 -0.6409  0.4877  0.1006
  559MPD2    H1 8349   1.594   1.443  10.570  0.2943  0.7356  0.6234
  559MPD2    H2 8350   1.243   1.418  10.325  1.2355  3.2512  2.6255
  559MPD2    H3 8351   1.431   1.554  10.447  0.2726  0.5768  3.7893
  559MPD2     N 8352   1.601   1.180  10.635 -1.0665 -0.0994 -0.0325
  559MPD2    H5 8353   1.593   1.079  10.642 -2.0716  0.0464  0.9693
  559MPD2    N1 8354   1.221   1.164  10.323 -0.6082 -0.4003 -0.4023
  559MPD2    H7 8355   1.166   1.215  10.255  1.2551  0.1155 -1.5459
  560TMC3    C1 8356   1.756   1.155  10.813  0.1126 -0.2283 -0.2733
  560TMC3    C2 8357   1.785   1.029  10.764  0.1314 -0.7425 -0.7182
  560TMC3    C3 8358   1.857   0.953  10.849 -0.4080  0.0307 -0.4942
  560TMC3    C4 8359   1.789   1.202  10.937 -0.7235  0.0515 -0.0582
  560TMC3    C5 8360   1.866   1.125  11.014 -0.1584  0.3083  0.1756
  560TMC3    C6 8361   1.895   0.993  10.979 -0.5877  0.0029  0.1273
  560TMC3     C 8362   1.687   1.243  10.723 -0.2706  0.1066  0.2259
  560TMC3     O 8363   1.717   1.360  10.736  0.4921  0.2672  0.4659
  560TMC3     H 8364   1.759   0.999  10.663 -0.3832  2.4223 -1.5255
  560TMC3    H1 8365   1.754   1.299  10.969  0.8911  1.5848 -2.8637
  560TMC3    H2 8366   1.954   0.935  11.050 -0.7039 -0.1652  0.0862
  560TMC3    C7 8367   1.900   1.179  11.146 -0.5557  0.0906 -0.0684
  560TMC3    C8 8368   1.908   0.829  10.782 -0.8640  0.0788  0.0771
  560TMC3    O1 8369   1.920   1.099  11.232  0.1786 -0.2318  0.4204
  560TMC3    O2 8370   1.891   0.835  10.660  0.6725  0.2509 -0.2333
  561TMC3    C1 8371   4.057   0.243  11.435 -0.4342  0.2178  0.2505
  561TMC3    C2 8372   3.975   0.224  11.542  0.1728  0.2668  0.0135
  561TMC3    C3 8373   3.944   0.336  11.617 -0.1681  0.5095 -0.1825
  561TMC3    C4 8374   4.097   0.373  11.394 -0.0203  0.1262 -0.3783
  561TMC3    C5 8375   4.057   0.482  11.468  0.0141 -0.1108  0.6968
  561TMC3    C6 8376   3.980   0.459  11.578 -0.1911 -0.0561  0.2308
  561TMC3     C 8377   4.110   0.122  11.374 -0.2927  0.5452  0.2305
  561TMC3     O 8378   4.069   0.011  11.406 -0.4686  0.1693  0.4210
  561TMC3     H 8379   3.948   0.123  11.572  0.9561  0.5249  1.5980
  561TMC3    H1 8380   4.140   0.395  11.297  0.8982  0.4526  0.1083
  561TMC3    H2 8381   3.949   0.544  11.638 -2.2043 -0.5947 -0.0530
  561TMC3    C7 8382   4.101   0.622  11.440 -0.2857  0.1587 -0.5204
  561TMC3    C8 8383   3.866   0.310  11.734 -0.0428  1.0223  0.4164
  561TMC3    O1 8384   4.046   0.711  11.503  0.1644 -0.7372  0.6302
  561TMC3    O2 8385   3.850   0.192  11.765 -0.5198  0.1420  0.3426
  562TMC3    C1 8386   0.759   1.258  16.380 -0.0746 -0.2327  0.7226
  562TMC3    C2 8387   0.702   1.379  16.360 -0.5749 -0.8787 -0.5513
  562TMC3    C3 8388   0.712   1.419  16.230 -0.0418  0.9399 -0.2997
  562TMC3    C4 8389   0.822   1.185  16.283  0.3995 -0.2426 -0.1393
  562TMC3    C5 8390   0.834   1.232  16.153 -0.0311 -0.1687 -0.5966
  562TMC3    C6 8391   0.778   1.349  16.122 -0.0045 -0.2968 -0.2350
  562TMC3     C 8392   0.748   1.185  16.508  0.1645  0.8421 -0.5319
  562TMC3     O 8393   0.743   1.060  16.498 -0.0407 -0.7219 -0.0117
  562TMC3     H 8394   0.664   1.449  16.434 -0.2342 -2.5065  1.1700
  562TMC3    H1 8395   0.884   1.104  16.319  1.2082 -0.0082 -0.9915
  562TMC3    H2 8396   0.788   1.384  16.020 -0.8924  1.1588  0.1751
  562TMC3    C7 8397   0.887   1.149  16.041 -0.1865 -0.8346  0.6648
  562TMC3    C8 8398   0.719   1.561  16.215 -0.3603  0.2833 -0.3958
  562TMC3    O1 8399   0.874   1.190  15.927  1.0817  0.6627 -0.1023
  562TMC3    O2 8400   0.742   1.626  16.313 -0.6039 -0.9274  0.6257
  563MPD2     C 8401   3.149   3.361  15.899  0.0509  0.2590 -0.3447
  563MPD2    C1 8402   3.190   3.334  16.025  0.2614  0.0112 -1.2580
  563MPD2    C2 8403   3.272   3.230  16.050  0.6667  0.1941  0.0239
  563MPD2    C3 8404   3.316   3.156  15.946  0.2208  0.2936 -0.0763
  563MPD2    C4 8405   3.283   3.185  15.814 -0.1200 -0.0299 -0.5896
  563MPD2    C5 8406   3.196   3.286  15.795  0.3657  0.1511 -0.8706
  563MPD2     H 8407   3.278   3.188  16.149 -1.0675  1.0509  0.5037
  563MPD2    H1 8408   3.293   3.116  15.731  2.1837 -0.7261  0.2607
  563MPD2    H2 8409   3.075   3.437  15.879  0.7341  1.3150  1.0827
  563MPD2    H3 8410   3.148   3.301  15.699  1.7415 -2.4914 -2.0001
  563MPD2     N 8411   3.388   3.041  15.984  0.2407  0.2682 -1.0926
  563MPD2    H5 8412   3.400   3.031  16.084 -0.5358  1.0029 -0.9279
  563MPD2    N1 8413   3.125   3.402  16.133  0.3013  0.1585  0.1114
  563MPD2    H7 8414   3.055   3.467  16.098 -0.4479  1.1267  3.3709
  564TMC3    C1 8415   3.052   3.377  16.361  0.7741 -0.4496  0.0563
  564TMC3    C2 8416   2.931   3.365  16.298  0.3073 -0.3067 -0.7384
  564TMC3    C3 8417   2.836   3.277  16.341 -0.3065 -0.8481  0.2988
  564TMC3    C4 8418   3.091   3.285  16.446  0.4281  0.2795  0.0020
  564TMC3    C5 8419   3.004   3.187  16.475 -0.9402 -0.1208  0.1746
  564TMC3    C6 8420   2.874   3.191  16.438 -0.4576 -0.1725  0.2890
  564TMC3     C 8421   3.162   3.389  16.265 -0.7081  0.3787  0.0424
  564TMC3     O 8422   3.276   3.377  16.305 -0.1732  0.6009  0.0473
  564TMC3     H 8423   2.909   3.435  16.217 -0.2872  1.9497  1.3641
  564TMC3    H1 8424   3.196   3.277  16.472  0.2005 -0.5690  0.6630
  564TMC3    H2 8425   2.818   3.101  16.464  0.9397 -0.5549  1.9698
  564TMC3    C7 8426   3.074   3.061  16.454  0.1231 -0.0016 -0.4179
  564TMC3    C8 8427   2.753   3.210  16.239 -0.1954 -0.9403  1.5005
  564TMC3    O1 8428   3.190   3.048  16.493 -0.2449  0.2099  0.2640
  564TMC3    O2 8429   2.728   3.095  16.272  0.2825  0.0848 -0.9352
  565TMC3    C1 8430   3.515   4.693  10.597 -0.0218  0.1780  0.1562
  565TMC3    C2 8431   3.482   4.595  10.688 -0.0888 -0.2415  0.0572
  565TMC3    C3 8432   3.417   4.484  10.639 -0.3643  0.2685  0.6026
  565TMC3    C4 8433   3.491   4.684  10.461  0.4043 -0.2378 -0.2879
  565TMC3    C5 8434   3.438   4.571  10.421  0.4910 -0.1956 -0.1152
  565TMC3    C6 8435   3.402   4.467  10.504  0.1911  0.3244  0.5264
  565TMC3     C 8436   3.556   0.089  10.660  0.2915  0.0402  0.3692
  565TMC3     O 8437   3.604   0.169  10.586 -0.4882 -0.2092 -0.1920
  565TMC3     H 8438   3.516   4.588  10.791 -0.6934  0.0741  0.2801
  565TMC3    H1 8439   3.528   0.034  10.401  0.8562  0.5439  1.0644
  565TMC3    H2 8440   3.387   4.369  10.460  0.2911 -0.1009  1.4382
  565TMC3    C7 8441   3.470   4.542  10.286 -0.0153  0.0665  0.0680
  565TMC3    C8 8442   3.366   4.383  10.737 -0.9639 -0.3668 -0.0997
  565TMC3    O1 8443   3.538   4.621  10.217  0.4895 -0.2100  0.3562
  565TMC3    O2 8444   3.415   4.377  10.849 -0.0411 -0.1090 -0.0754
  566MPD2     C 8445   0.428   0.691  14.335  0.2611 -0.1982 -0.4856
  566MPD2    C1 8446   0.436   0.828  14.316 -0.4624 -0.3153 -0.0744
  566MPD2    C2 8447   0.320   0.891  14.271 -0.2459 -0.2986  0.2337
  566MPD2    C3 8448   0.209   0.825  14.222  0.5687 -0.0742  0.6643
  566MPD2    C4 8449   0.217   0.693  14.232  0.5779 -0.3144  0.5958
  566MPD2    C5 8450   0.316   0.625  14.291 -0.1265 -0.3789  0.8351
  566MPD2     H 8451   0.316   0.999  14.278 -2.1427 -0.4077  0.7471
  566MPD2    H1 8452   0.141   0.626  14.194  1.1802  0.4087 -1.8374
  566MPD2    H2 8453   0.511   0.629  14.367  0.4911  0.2577 -0.2142
  566MPD2    H3 8454   0.315   0.517  14.299 -1.5098 -0.3233  1.3878
  566MPD2     N 8455   0.084   0.897  14.192 -0.3354 -0.3481 -0.0212
  566MPD2    H5 8456   0.007   0.836  14.216  0.9205 -1.7397  0.4882
  566MPD2    N1 8457   0.556   0.896  14.337  0.4031  0.2876 -0.4386
  566MPD2    H7 8458   0.633   0.837  14.369  1.1335  1.5229  0.0613
  567TMC3    C1 8459   0.723   1.061  14.290  0.9027  0.0577 -0.1743
  567TMC3    C2 8460   0.778   1.131  14.185 -0.7690 -0.0994 -0.3246
  567TMC3    C3 8461   0.910   1.172  14.193  0.2930 -0.3287 -0.5741
  567TMC3    C4 8462   0.801   1.024  14.396  0.7863 -0.1918  0.3753
  567TMC3    C5 8463   0.936   1.067  14.395  0.3545  0.1230 -0.0864
  567TMC3    C6 8464   0.994   1.131  14.291  0.2266  0.3414 -0.1205
  567TMC3     C 8465   0.581   1.017  14.277 -0.0789 -0.1696  0.0692
  567TMC3     O 8466   0.512   1.097  14.211 -0.1877 -0.2183  0.2253
  567TMC3     H 8467   0.717   1.149  14.098 -0.3764 -2.7233 -1.1590
  567TMC3    H1 8468   0.763   0.947  14.464  2.0160 -2.0227 -1.0038
  567TMC3    H2 8469   1.091   1.179  14.304 -0.9175  2.4644  0.6176
  567TMC3    C7 8470   1.025   1.033  14.500  0.0393  0.0523 -0.1625
  567TMC3    C8 8471   0.940   1.271  14.095 -0.2955 -0.1707  0.5978
  567TMC3    O1 8472   1.148   1.037  14.490  0.0877 -0.2383 -0.3433
  567TMC3    O2 8473   0.849   1.352  14.093  0.3086  0.0879 -0.3549
  568MPD2     C 8474   3.037   1.802  15.817 -0.0033 -0.1672  0.3992
  568MPD2    C1 8475   2.938   1.801  15.907 -0.7380  0.2361 -0.1104
  568MPD2    C2 8476   2.877   1.924  15.935 -0.2919 -0.7098 -0.3460
  568MPD2    C3 8477   2.902   2.042  15.859 -0.7034 -0.2890 -0.2174
  568MPD2    C4 8478   2.979   2.024  15.745 -0.3244  0.0423 -0.3984
  568MPD2    C5 8479   3.056   1.910  15.736  0.5437  0.3236  0.1694
  568MPD2     H 8480   2.802   1.934  16.012  0.6369  0.4363  0.4131
  568MPD2    H1 8481   2.989   2.103  15.672  1.8256 -0.2230 -0.3972
  568MPD2    H2 8482   3.089   1.710  15.791  0.1994 -0.4907  1.9730
  568MPD2    H3 8483   3.134   1.904  15.662 -0.8189 -1.7124 -1.0912
  568MPD2     N 8484   2.836   2.160  15.897 -1.1129 -0.6684  0.8253
  568MPD2    H5 8485   2.799   2.170  15.991 -0.2838 -2.0938  1.3077
  568MPD2    N1 8486   2.920   1.686  15.987 -0.3343 -0.0519  0.2737
  568MPD2    H7 8487   2.970   1.601  15.962 -1.6810 -1.6791  3.0362
  569TMC3    C1 8488   2.798   2.396  15.907 -0.5214  0.2700  0.1674
  569TMC3    C2 8489   2.798   2.394  16.042  0.4816  0.7782  0.4842
  569TMC3    C3 8490   2.779   2.514  16.108 -0.0731  0.1771  0.0867
  569TMC3    C4 8491   2.770   2.510  15.840 -0.3052  0.5764  0.1548
  569TMC3    C5 8492   2.746   2.621  15.912  0.9575 -0.2494 -0.7891
  569TMC3    C6 8493   2.754   2.631  16.047  0.8726  0.1901 -0.1645
  569TMC3     C 8494   2.838   2.276  15.828 -0.0793 -0.1429 -0.2870
  569TMC3     O 8495   2.896   2.302  15.724  0.1178  0.2810  0.1553
  569TMC3     H 8496   2.829   2.307  16.098  1.3280  0.7453 -0.0401
  569TMC3    H1 8497   2.759   2.511  15.732  1.3198 -0.6565 -0.0318
  569TMC3    H2 8498   2.752   2.729  16.093  0.7967  0.3685 -0.5425
  569TMC3    C7 8499   2.721   2.744  15.835 -0.3452 -0.4166  0.7480
  569TMC3    C8 8500   2.814   2.521  16.250 -1.0400 -0.2095  0.0145
  569TMC3    O1 8501   2.750   2.750  15.720 -0.5775 -0.1320  0.1309
  569TMC3    O2 8502   2.902   2.450  16.295 -0.1843 -0.3959 -0.2856
  570TMC3    C1 8503   2.419   0.555  16.075 -0.0662  0.4052  0.3693
  570TMC3    C2 8504   2.497   0.572  15.971 -0.3595  0.2456  0.1006
  570TMC3    C3 8505   2.558   0.692  15.947  0.2491 -0.2312  0.8801
  570TMC3    C4 8506   2.400   0.654  16.166 -0.5032 -0.0851  0.2290
  570TMC3    C5 8507   2.455   0.775  16.139  0.5564 -0.0080 -0.4761
  570TMC3    C6 8508   2.527   0.800  16.027  0.2322  0.5515 -0.8596
  570TMC3     C 8509   2.376   0.425  16.121  0.1733  0.3002  0.1360
  570TMC3     O 8510   2.353   0.344  16.034  0.2085 -0.0335 -0.0277
  570TMC3     H 8511   2.523   0.477  15.926  0.0676  0.5208 -0.2406
  570TMC3    H1 8512   2.335   0.647  16.252  1.4072 -2.9525  1.4394
  570TMC3    H2 8513   2.576   0.895  16.013 -2.1859  2.2756  2.6478
  570TMC3    C7 8514   2.429   0.874  16.246  0.1391  0.6147  0.0583
  570TMC3    C8 8515   2.623   0.726  15.819  0.1908 -0.2086  0.3747
  570TMC3    O1 8516   2.399   0.837  16.362  0.0876 -0.0640 -0.0090
  570TMC3    O2 8517   2.683   0.833  15.822  0.8306  0.3532 -0.7622
  571MPD2     C 8518   4.490   2.283   0.762  0.3632  0.2480  0.2952
  571MPD2    C1 8519   4.425   2.276   0.640  0.5328  0.2466  0.2740
  571MPD2    C2 8520   4.307   2.350   0.618  0.2334 -0.2515  0.4796
  571MPD2    C3 8521   4.267   2.444   0.714 -0.4423 -0.5153  0.5275
  571MPD2    C4 8522   4.334   2.450   0.834  0.6984  0.4830 -0.5224
  571MPD2    C5 8523   4.447   2.372   0.853  0.3468 -0.5472 -0.4217
  571MPD2     H 8524   4.257   2.348   0.522  1.3173 -1.4416 -0.0434
  571MPD2    H1 8525   4.313   2.531   0.903 -1.9632  0.8414 -1.7363
  571MPD2    H2 8526   4.584   2.230   0.767  1.4900  2.4348  1.8107
  571MPD2    H3 8527   4.500   2.391   0.945  1.6086  2.4536 -1.7715
  571MPD2     N 8528   4.170   2.554   0.692 -0.0954 -0.0408  1.0384
  571MPD2    H5 8529   4.162   2.618   0.770 -1.4902  0.6326  0.3329
  571MPD2    N1 8530   4.485   2.183   0.545 -0.1158 -0.4889  0.5054
  571MPD2    H7 8531   4.571   2.139   0.576  0.3097 -1.3948 -1.9741
  572TMC3    C1 8532   4.039   2.705   0.574  0.6676 -0.1144  0.0442
  572TMC3    C2 8533   3.965   2.727   0.689 -0.7916 -0.3715 -0.0260
  572TMC3    C3 8534   3.894   2.841   0.696  0.0797  0.1182  0.8597
  572TMC3    C4 8535   4.056   2.802   0.482  0.2819  0.4008 -0.9425
  572TMC3    C5 8536   3.999   2.924   0.496  0.0315 -0.3237 -0.4125
  572TMC3    C6 8537   3.911   2.948   0.605  0.0406 -0.4628 -0.0777
  572TMC3     C 8538   4.126   2.593   0.567 -0.1230 -0.1507 -0.8904
  572TMC3     O 8539   4.166   2.559   0.454 -0.5461 -0.5665 -0.0640
  572TMC3     H 8540   3.926   2.645   0.748 -0.8539  1.0743  1.9309
  572TMC3    H1 8541   4.130   2.788   0.404  1.0451  0.6491 -0.2625
  572TMC3    H2 8542   3.856   3.040   0.618 -1.9196 -1.5274 -0.7665
  572TMC3    C7 8543   4.051   3.025   0.407  0.5664  0.2069 -0.3956
  572TMC3    C8 8544   3.763   2.834   0.760  0.4341 -0.0067  0.5743
  572TMC3    O1 8545   4.088   2.991   0.294 -0.1695  0.7993  0.4162
  572TMC3    O2 8546   3.707   2.730   0.727  0.1212 -0.1803 -0.1492
  573MPD2     C 8547   0.929   3.276   1.351  0.2430  0.3216 -0.1190
  573MPD2    C1 8548   0.811   3.251   1.287  0.5733 -0.2979 -0.0553
  573MPD2    C2 8549   0.801   3.176   1.172  0.3770 -0.2994 -0.6509
  573MPD2    C3 8550   0.921   3.138   1.109 -0.5831 -0.6379 -0.0508
  573MPD2    C4 8551   1.034   3.167   1.171 -0.4827 -0.0268 -1.0013
  573MPD2    C5 8552   1.044   3.221   1.299  0.1131 -0.3824  0.1334
  573MPD2     H 8553   0.706   3.132   1.144 -0.5883  0.2563  1.7737
  573MPD2    H1 8554   1.130   3.162   1.121 -0.8670 -0.0331 -1.7256
  573MPD2    H2 8555   0.926   3.330   1.446 -1.6075 -2.3113  1.3324
  573MPD2    H3 8556   1.138   3.230   1.353  0.4098  0.3104 -0.4974
  573MPD2     N 8557   0.926   3.076   0.982  0.4578 -0.4963 -0.7207
  573MPD2    H5 8558   1.019   3.047   0.954  0.4972 -2.3037  1.2496
  573MPD2    N1 8559   0.698   3.305   1.348 -0.4590 -0.1529  0.3676
  573MPD2    H7 8560   0.728   3.338   1.440 -2.2793  0.1804  0.8334
  574TMC3    C1 8561   0.858   2.988   0.770  0.0255  0.5631  0.5159
  574TMC3    C2 8562   0.750   2.985   0.681 -0.3470  0.8808  0.2301
  574TMC3    C3 8563   0.769   2.941   0.555  0.0146  0.1592 -0.6839
  574TMC3    C4 8564   0.980   2.960   0.724  0.1461  0.3022  0.0364
  574TMC3    C5 8565   1.004   2.932   0.589 -0.3839  0.4001 -0.0412
  574TMC3    C6 8566   0.900   2.929   0.507 -1.2166  0.5875  1.2279
  574TMC3     C 8567   0.824   3.059   0.896  0.0079 -0.1531  0.0158
  574TMC3     O 8568   0.703   3.081   0.915  0.2479 -0.2251 -0.3168
  574TMC3     H 8569   0.647   3.003   0.711 -0.4390  0.7359 -0.0001
  574TMC3    H1 8570   1.062   2.969   0.795  0.3699  1.6633 -0.3865
  574TMC3    H2 8571   0.909   2.916   0.400 -1.5621 -0.1918  1.2862
  574TMC3    C7 8572   1.136   2.972   0.546  0.0057 -0.3296 -0.4369
  574TMC3    C8 8573   0.656   2.953   0.459  0.1290 -0.6882  0.1164
  574TMC3    O1 8574   1.214   3.028   0.618 -0.3989  0.3549 -0.0938
  574TMC3    O2 8575   0.549   2.930   0.505  0.0871 -0.5897  0.1305
  575TMC3    C1 8576   2.973   4.209  11.510 -0.1718  0.7640  0.4517
  575TMC3    C2 8577   2.840   4.193  11.502  0.0438  0.1801  0.0498
  575TMC3    C3 8578   2.785   4.215  11.377  0.0532 -0.3737 -0.2568
  575TMC3    C4 8579   3.044   4.237  11.396 -0.1834 -0.8885 -0.4225
  575TMC3    C5 8580   2.987   4.263  11.277 -0.0777  0.1411  0.0566
  575TMC3    C6 8581   2.849   4.245  11.262  0.2334  0.3350  0.5863
  575TMC3     C 8582   3.036   4.240  11.640  0.1183 -0.3128  0.0274
  575TMC3     O 8583   3.143   4.293  11.637  0.0836  0.1689 -0.3224
  575TMC3     H 8584   2.781   4.179  11.591  1.5533  1.1043  1.1895
  575TMC3    H1 8585   3.152   4.245  11.405 -0.2077 -0.6175 -0.3895
  575TMC3    H2 8586   2.789   4.263  11.174 -0.5315 -1.7941  0.6740
  575TMC3    C7 8587   3.063   4.259  11.155 -0.3775  0.4458 -0.1192
  575TMC3    C8 8588   2.649   4.165  11.353 -0.0706  0.5202  0.1303
  575TMC3    O1 8589   3.179   4.295  11.157  0.1119  0.2580  0.1135
  575TMC3    O2 8590   2.601   4.187  11.245  0.3826 -0.2377  0.0769
  576MPD2     C 8591   2.862   0.684  12.664  0.2212 -0.8898  0.4126
  576MPD2    C1 8592   2.990   0.731  12.680  0.5527 -0.0463 -0.0598
  576MPD2    C2 8593   3.028   0.758  12.805  0.3079  0.5635 -0.0914
  576MPD2    C3 8594   2.940   0.758  12.909  0.3174 -0.1800  0.3496
  576MPD2    C4 8595   2.817   0.710  12.892 -0.2502 -0.0549  1.6941
  576MPD2    C5 8596   2.775   0.677  12.767 -0.4266 -0.4344 -0.8064
  576MPD2     H 8597   3.132   0.783  12.823  0.5460  1.5296 -2.7501
  576MPD2    H1 8598   2.743   0.710  12.971  0.1930 -0.1441  2.1112
  576MPD2    H2 8599   2.822   0.645  12.572 -1.2103 -0.0718  0.6894
  576MPD2    H3 8600   2.669   0.663  12.755 -0.5717  0.0237  0.0187
  576MPD2     N 8601   2.975   0.826  13.026 -0.0351  0.0795 -0.0385
  576MPD2    H5 8602   3.070   0.862  13.018 -0.7549  1.9368 -0.3561
  576MPD2    N1 8603   3.080   0.730  12.577 -0.4239 -0.7614  0.7305
  576MPD2    H7 8604   3.178   0.740  12.598 -0.6320 -0.2724  1.4909
  577TMC3    C1 8605   3.146   0.759  12.347  0.5607 -0.5000  0.6691
  577TMC3    C2 8606   3.263   0.686  12.374 -0.1759 -0.1151  0.2828
  577TMC3    C3 8607   3.373   0.719  12.296 -0.0770  0.3913 -0.0205
  577TMC3    C4 8608   3.141   0.865  12.263 -0.3385  0.4116  0.0738
  577TMC3    C5 8609   3.252   0.902  12.203  0.1875  0.2195 -0.1882
  577TMC3    C6 8610   3.370   0.834  12.222  0.1349 -0.5513 -0.3291
  577TMC3     C 8611   3.039   0.747  12.444  0.1538  0.3026 -0.6716
  577TMC3     O 8612   2.922   0.771  12.405 -0.0999 -0.4567 -0.4610
  577TMC3     H 8613   3.269   0.597  12.436  0.4906  0.7500  1.4519
  577TMC3    H1 8614   3.050   0.924  12.258 -0.3237  0.3458 -0.9878
  577TMC3    H2 8615   3.455   0.870  12.165 -0.6525  3.6920  1.2351
  577TMC3    C7 8616   3.256   1.032  12.143 -0.5577 -0.0618  0.0033
  577TMC3    C8 8617   3.473   0.616  12.274 -0.0635  0.4286  0.3414
  577TMC3    O1 8618   3.367   1.083  12.156  0.5902 -0.2131  0.3347
  577TMC3    O2 8619   3.461   0.530  12.359 -0.6868  0.2084  0.1526
  578MPD2     C 8620   1.221   0.931   0.638  0.0838  0.4009  0.3959
  578MPD2    C1 8621   1.299   0.818   0.648 -0.3097 -0.2984  0.3070
  578MPD2    C2 8622   1.326   0.765   0.774 -0.5279 -0.2767 -0.1941
  578MPD2    C3 8623   1.274   0.836   0.880  0.8138 -0.1407 -0.4516
  578MPD2    C4 8624   1.209   0.955   0.865 -0.2969 -0.3867  0.1228
  578MPD2    C5 8625   1.181   1.002   0.743 -0.6444  0.2873  0.4076
  578MPD2     H 8626   1.388   0.676   0.787 -0.6616 -0.5609 -1.5502
  578MPD2    H1 8627   1.168   1.017   0.944 -0.5682 -1.7829  1.0806
  578MPD2    H2 8628   1.198   0.975   0.541  1.1082 -1.7256 -0.8220
  578MPD2    H3 8629   1.131   1.096   0.722  0.0757  0.5141 -0.3009
  578MPD2     N 8630   1.308   0.777   1.002  0.6686 -0.3264 -0.8343
  578MPD2    H5 8631   1.333   0.679   1.001  0.3644 -0.4055 -0.8824
  578MPD2    N1 8632   1.350   0.762   0.531  0.1285 -0.0853  0.0210
  578MPD2    H7 8633   1.329   0.808   0.444  2.0220 -0.7086 -0.7699
  579TMC3    C1 8634   1.347   0.757   1.241 -0.5980 -0.1021 -0.2051
  579TMC3    C2 8635   1.360   0.813   1.364  0.7762  0.3054 -0.7638
  579TMC3    C3 8636   1.442   0.755   1.447 -0.1765 -0.3327  0.2520
  579TMC3    C4 8637   1.408   0.634   1.211 -0.0142 -0.0992  0.1029
  579TMC3    C5 8638   1.469   0.571   1.311  0.3474  0.1425  0.1199
  579TMC3    C6 8639   1.506   0.638   1.426  1.0064 -0.4024  0.4679
  579TMC3     C 8640   1.291   0.836   1.129 -1.0616  0.1388 -0.2053
  579TMC3     O 8641   1.253   0.949   1.146 -0.4148  0.2179  0.0108
  579TMC3     H 8642   1.332   0.915   1.383 -2.8928 -1.0106  0.9267
  579TMC3    H1 8643   1.406   0.578   1.118  0.1496 -1.3040  0.8253
  579TMC3    H2 8644   1.561   0.587   1.505  2.3762 -1.6232 -1.2788
  579TMC3    C7 8645   1.507   0.433   1.296  0.4576  0.0313  0.2713
  579TMC3    C8 8646   1.513   0.846   1.530  0.2947  0.5888 -0.4908
  579TMC3    O1 8647   1.596   0.382   1.363  0.5426 -0.3649 -0.5748
  579TMC3    O2 8648   1.455   0.939   1.573  0.3768 -0.1147 -0.0803
  580TMC3    C1 8649   1.574   4.533  11.605  0.2415  0.0061 -0.6503
  580TMC3    C2 8650   1.582   4.464  11.487 -0.8513 -0.2203 -0.2098
  580TMC3    C3 8651   1.594   4.330  11.495  0.2246 -0.3334 -0.0273
  580TMC3    C4 8652   1.534   4.469  11.721 -0.6657  0.1477 -0.5352
  580TMC3    C5 8653   1.560   4.335  11.729 -0.7491 -0.6384 -0.0559
  580TMC3    C6 8654   1.585   4.261  11.615 -0.2992 -0.6093  0.4258
  580TMC3     C 8655   1.583   4.678  11.602 -0.3555  0.6973 -0.1526
  580TMC3     O 8656   1.600   0.002  11.495 -0.0765 -0.6064 -0.0553
  580TMC3     H 8657   1.580   4.513  11.391 -0.9670  0.1335 -0.0309
  580TMC3    H1 8658   1.504   4.528  11.807 -0.1668  0.7113 -0.7430
  580TMC3    H2 8659   1.599   4.154  11.622 -0.0294 -0.9425 -4.5746
  580TMC3    C7 8660   1.549   4.275  11.857 -0.1399 -0.2147 -0.1445
  580TMC3    C8 8661   1.607   4.247  11.380 -0.3452 -0.1578  0.3597
  580TMC3    O1 8662   1.486   4.336  11.944  0.2780  0.2135 -0.2685
  580TMC3    O2 8663   1.561   4.133  11.388  0.2158  0.3933 -0.5007
  581MPD2     C 8664   3.988   4.162  14.661 -0.1310  0.5837 -0.3929
  581MPD2    C1 8665   3.962   4.219  14.782 -0.1409 -0.1379  0.2057
  581MPD2    C2 8666   3.855   4.306  14.802  0.1662 -0.2936  0.7582
  581MPD2    C3 8667   3.768   4.323  14.689  0.3346  0.0618  1.7254
  581MPD2    C4 8668   3.792   4.259  14.571 -0.5293  0.1187 -0.3220
  581MPD2    C5 8669   3.906   4.186  14.555  0.8855  0.1876  0.1602
  581MPD2     H 8670   3.826   4.350  14.897  0.4338 -0.4767  0.9231
  581MPD2    H1 8671   3.736   4.266  14.478  0.8965 -1.8650 -1.3323
  581MPD2    H2 8672   4.078   4.102  14.652  0.6751  1.1462  3.8300
  581MPD2    H3 8673   3.933   4.149  14.456  0.6356 -1.7529  0.8301
  581MPD2     N 8674   3.648   4.400  14.693  0.0839  0.1580 -0.2048
  581MPD2    H5 8675   3.636   4.459  14.775  0.1621 -0.1576  0.0345
  581MPD2    N1 8676   4.026   4.157  14.893 -0.4175  0.3733 -1.1651
  581MPD2    H7 8677   4.098   4.088  14.874  0.1437  0.5073  0.4524
  582TMC3    C1 8678   4.071   4.093  15.122 -0.0113  0.2122  0.3620
  582TMC3    C2 8679   4.070   4.143  15.247 -0.1493 -0.1423 -0.5712
  582TMC3    C3 8680   4.103   4.053  15.347  1.1067 -0.5248 -0.2582
  582TMC3    C4 8681   4.072   3.958  15.100 -0.9015  0.2489 -0.0108
  582TMC3    C5 8682   4.079   3.878  15.207 -0.3685  0.2727 -0.1607
  582TMC3    C6 8683   4.112   3.921  15.333  0.1143  0.4318 -0.0604
  582TMC3     C 8684   4.005   4.188  15.027  0.2619  0.1614  0.1174
  582TMC3     O 8685   3.915   4.244  15.083  0.3858 -0.2902 -0.0642
  582TMC3     H 8686   4.071   4.250  15.264 -1.7140 -0.2423  0.1695
  582TMC3    H1 8687   4.055   3.917  15.001  0.6114 -1.0221  0.2453
  582TMC3    H2 8688   4.128   3.857  15.419 -0.4634  0.0197 -0.2585
  582TMC3    C7 8689   4.020   3.747  15.199 -0.5986  0.1771  0.0682
  582TMC3    C8 8690   4.108   4.112  15.478  0.3419 -0.0429 -0.4500
  582TMC3    O1 8691   4.089   3.657  15.156 -0.0746 -0.0679 -0.0363
  582TMC3    O2 8692   4.023   4.197  15.494 -0.1204 -0.3675 -0.1048
  583MPD2     C 8693   3.958   1.042  16.693  0.7152  0.0660 -0.6348
  583MPD2    C1 8694   3.894   1.135  16.602  0.3443 -0.3630 -0.9148
  583MPD2    C2 8695   3.801   1.223  16.638 -0.1014  0.4265 -0.5364
  583MPD2    C3 8696   3.776   1.235  16.776 -0.0700 -0.0788 -0.7216
  583MPD2    C4 8697   3.840   1.156  16.870  1.2050  0.2968  0.8607
  583MPD2    C5 8698   3.920   1.050  16.822 -0.3117 -0.7075  0.1440
  583MPD2     H 8699   3.763   1.298  16.569  1.8971  2.4402  0.5339
  583MPD2    H1 8700   3.830   1.167  16.977 -0.0705  0.9252  0.6720
  583MPD2    H2 8701   4.027   0.962  16.669  0.9742  0.2068 -0.3752
  583MPD2    H3 8702   3.966   0.983  16.893  1.6629 -1.2059 -1.6210
  583MPD2     N 8703   3.678   1.333  16.811 -0.0090  0.2824 -0.0237
  583MPD2    H5 8704   3.623   1.380  16.740  3.5319  0.2861 -2.7992
  583MPD2    N1 8705   3.950   1.140  16.471 -0.2252  0.4310 -0.4060
  583MPD2    H7 8706   3.927   1.226  16.423  1.6374  0.4594 -1.2527
  584TMC3    C1 8707   3.533   1.451  16.954  0.4530  0.6112  0.2591
  584TMC3    C2 8708   3.546   1.570  16.887  0.8426 -0.2700  0.1784
  584TMC3    C3 8709   3.490   1.677  16.940  0.2759  0.0261 -0.4290
  584TMC3    C4 8710   3.480   1.445  17.081 -0.1066  0.1312 -0.2883
  584TMC3    C5 8711   3.419   1.555  17.131  0.4327  0.1211  0.1838
  584TMC3    C6 8712   3.429   1.673  17.064 -0.1990  0.4051  0.6937
  584TMC3     C 8713   3.643   1.363  16.939 -0.5402 -0.2891  0.1547
  584TMC3     O 8714   3.681   1.313  17.042  0.1603 -0.1338 -0.2807
  584TMC3     H 8715   3.601   1.577  16.794 -0.1149  0.9690 -0.2970
  584TMC3    H1 8716   3.475   1.346  17.124 -0.3982  0.4300  0.3695
  584TMC3    H2 8717   3.382   1.766  17.094 -0.5526  0.9095 -1.4844
  584TMC3    C7 8718   3.349   1.541  17.261 -0.3564 -0.0042  0.4835
  584TMC3    C8 8719   3.549   1.806  16.905  0.0795 -0.2767  0.2489
  584TMC3    O1 8720   3.377   1.440  17.330 -0.1517  0.3438  0.0257
  584TMC3    O2 8721   3.561   1.819  16.786  0.5141 -0.3226  0.0692
  585MPD2     C 8722   3.344   0.150   0.627  0.0660 -0.0009  0.2807
  585MPD2    C1 8723   3.321   0.243   0.527 -0.0127 -0.0637  0.3644
  585MPD2    C2 8724   3.379   0.227   0.404 -0.4981  0.1711  0.3285
  585MPD2    C3 8725   3.457   0.115   0.373 -0.1412 -0.2114  0.0241
  585MPD2    C4 8726   3.479   0.026   0.471  0.5690 -0.0789 -0.3293
  585MPD2    C5 8727   3.424   0.041   0.596  0.1035 -0.2034 -0.2527
  585MPD2     H 8728   3.361   0.298   0.324 -2.9448 -0.7232  0.0738
  585MPD2    H1 8729   3.532   4.667   0.451 -2.9790 -2.1627 -0.2184
  585MPD2    H2 8730   3.295   0.159   0.724 -0.8011  1.7658 -0.3249
  585MPD2    H3 8731   3.446   4.696   0.668  3.5487  0.8055 -0.1809
  585MPD2     N 8732   3.484   0.072   0.241 -0.1733  0.4404  0.2434
  585MPD2    H5 8733   3.506   4.707   0.226  0.2234  0.5118  0.3566
  585MPD2    N1 8734   3.233   0.350   0.560 -0.0061 -1.0864  0.3820
  585MPD2    H7 8735   3.189   0.345   0.651 -1.1609  0.9691 -0.0452
  586TMC3    C1 8736   3.435   0.070   0.020 -0.3629 -0.7264  0.1747
  586TMC3    C2 8737   3.525   4.709  17.704  0.7055 -0.1897  0.8465
  586TMC3    C3 8738   3.501   4.664  17.578 -0.4659 -0.4851  0.5085
  586TMC3    C4 8739   3.331   0.112  17.668 -0.1187  0.0395  0.1933
  586TMC3    C5 8740   3.310   0.060  17.542 -0.6718  0.2268  0.3734
  586TMC3    C6 8741   3.393   4.695  17.504  0.1576 -0.6928 -0.5416
  586TMC3     C 8742   3.453   0.150   0.134  0.2830 -0.1574 -0.0058
  586TMC3     O 8743   3.440   0.270   0.126  0.0613 -0.1560  0.6238
  586TMC3     H 8744   3.620   4.678   0.015  0.8106  1.5754  1.8816
  586TMC3    H1 8745   3.273   0.199  17.695  1.2547  0.1594  2.8055
  586TMC3    H2 8746   3.368   4.648  17.409 -1.1924  0.1003 -0.5785
  586TMC3    C7 8747   3.168   0.034  17.513  0.3691  0.0632  0.1444
  586TMC3    C8 8748   3.566   4.543  17.525 -0.0914 -0.0444  0.4228
  586TMC3    O1 8749   3.143   4.650  17.491 -0.0962  0.0934  0.1841
  586TMC3    O2 8750   3.579   4.454  17.610 -0.0801  0.1930  0.1533
  587TMC3    C1 8751   0.796   3.027  16.810 -0.5286  0.3196  0.1696
  587TMC3    C2 8752   0.799   3.162  16.803  0.9443 -0.1094 -0.1135
  587TMC3    C3 8753   0.910   3.226  16.861  0.0724  0.6225 -0.2980
  587TMC3    C4 8754   0.895   2.952  16.875  0.3704  0.1449 -0.2870
  587TMC3    C5 8755   1.006   3.022  16.917 -0.0991 -0.3962 -0.0176
  587TMC3    C6 8756   1.012   3.153  16.903 -0.0837  0.3462 -0.1103
  587TMC3     C 8757   0.685   2.953  16.747 -0.7901 -0.4257 -0.5089
  587TMC3     O 8758   0.651   2.842  16.789 -0.4801  0.3022 -0.0694
  587TMC3     H 8759   0.723   3.221  16.753  0.9429 -0.7205 -0.8295
  587TMC3    H1 8760   0.882   2.844  16.879 -0.7299  0.1781 -2.8313
  587TMC3    H2 8761   1.100   3.202  16.943 -0.1382  0.0220  0.4029
  587TMC3    C7 8762   1.106   2.966  17.010  0.7777 -0.6918  0.3896
  587TMC3    C8 8763   0.942   3.365  16.824 -0.0588 -0.3462  0.4457
  587TMC3    O1 8764   1.213   3.024  17.014 -0.2220 -0.2036 -0.4872
  587TMC3    O2 8765   1.059   3.406  16.816 -0.4510  0.3463 -0.3737
  588TMC3    C1 8766   2.770   1.904  10.158 -0.1928 -0.3095 -0.2027
  588TMC3    C2 8767   2.814   1.806  10.080  0.1588 -0.0594 -0.3096
  588TMC3    C3 8768   2.946   1.762  10.089 -0.3537 -0.2116  0.3280
  588TMC3    C4 8769   2.864   1.974  10.228  0.3106  0.1371 -0.2917
  588TMC3    C5 8770   2.993   1.928  10.233  0.4959  0.7273 -0.3706
  588TMC3    C6 8771   3.039   1.827  10.163  0.3742 -0.3369  0.0835
  588TMC3     C 8772   2.652   1.988  10.137 -0.2377 -0.0488  0.2618
  588TMC3     O 8773   2.601   1.966  10.030 -0.7948  0.0472  1.0428
  588TMC3     H 8774   2.746   1.758  10.011 -2.6918  4.0568 -0.3689
  588TMC3    H1 8775   2.840   2.079  10.245 -1.8317 -0.7833  2.4395
  588TMC3    H2 8776   3.141   1.793  10.168 -0.7275 -3.5379  0.6009
  588TMC3    C7 8777   3.078   2.030  10.276 -0.4208  0.1650  0.5171
  588TMC3    C8 8778   2.971   1.642  10.010  0.1067  0.6298 -0.4466
  588TMC3    O1 8779   3.190   2.040  10.225  0.6816  0.0161  0.1536
  588TMC3    O2 8780   2.895   1.609   9.923  0.1452 -0.0224  0.2033
  589TMC3    C1 8781   1.735   3.564   1.180 -0.2439  0.2572  0.0110
  589TMC3    C2 8782   1.823   3.631   1.261 -0.2533 -0.1600 -0.2653
  589TMC3    C3 8783   1.952   3.592   1.261 -0.1874 -0.5973 -0.1979
  589TMC3    C4 8784   1.777   3.468   1.096  0.4135  0.2755  0.4563
  589TMC3    C5 8785   1.911   3.434   1.097  0.1723 -0.1891 -0.2448
  589TMC3    C6 8786   2.003   3.496   1.174  0.0225 -0.1252  0.2537
  589TMC3     C 8787   1.615   3.634   1.147  0.1544 -0.2148  0.2602
  589TMC3     O 8788   1.559   3.600   1.046 -0.2705  0.2831  0.5918
  589TMC3     H 8789   1.794   3.716   1.323 -2.0122 -1.3646  0.5700
  589TMC3    H1 8790   1.699   3.419   1.039 -0.5234 -0.8385  2.6673
  589TMC3    H2 8791   2.097   3.444   1.191  0.9929  1.1278 -1.2844
  589TMC3    C7 8792   1.949   3.323   1.016 -0.0270  0.9256 -0.6099
  589TMC3    C8 8793   2.044   3.688   1.323  0.3938  0.1190  0.0498
  589TMC3    O1 8794   1.860   3.242   1.003  0.0232 -0.4640 -0.2634
  589TMC3    O2 8795   2.002   3.758   1.416  0.3040 -0.3581 -0.2561
  590MPD2     C 8796   1.600   2.143  16.630 -0.0720  0.0308 -0.0113
  590MPD2    C1 8797   1.567   2.275  16.621 -0.4666  0.2543 -0.4755
  590MPD2    C2 8798   1.662   2.367  16.588  0.1923 -0.5916  0.5318
  590MPD2    C3 8799   1.791   2.332  16.554  0.0797  0.7946 -0.4298
  590MPD2    C4 8800   1.825   2.194  16.561 -0.2348 -0.0045  0.8047
  590MPD2    C5 8801   1.732   2.108  16.609 -0.3501  0.2447 -0.2688
  590MPD2     H 8802   1.646   2.474  16.592  1.4912 -0.3040 -1.9113
  590MPD2    H1 8803   1.929   2.164  16.556  0.6579  2.7504  2.6411
  590MPD2    H2 8804   1.543   2.058  16.667 -1.3315  0.2932 -1.3584
  590MPD2    H3 8805   1.764   2.006  16.627 -1.4196  0.4561  2.9995
  590MPD2     N 8806   1.875   2.446  16.527 -0.9539 -0.8250 -0.7158
  590MPD2    H5 8807   1.835   2.539  16.520 -0.7856 -0.6668  0.4540
  590MPD2    N1 8808   1.433   2.310  16.656 -0.3715  0.2556  0.0513
  590MPD2    H7 8809   1.375   2.235  16.692 -1.0085  0.4591 -0.5505
  591TMC3    C1 8810   2.067   2.565  16.473  0.6168 -0.1646 -0.6195
  591TMC3    C2 8811   2.202   2.569  16.433 -0.1799 -0.3606 -0.1315
  591TMC3    C3 8812   2.264   2.691  16.410  0.2099 -0.3392  0.1229
  591TMC3    C4 8813   1.995   2.682  16.478  0.1445 -0.0311  0.0232
  591TMC3    C5 8814   2.059   2.801  16.462  0.0036 -0.3213  0.1141
  591TMC3    C6 8815   2.197   2.811  16.432  0.1534  1.3819  0.6439
  591TMC3     C 8816   2.005   2.438  16.494 -0.3699 -0.1502  0.0583
  591TMC3     O 8817   2.064   2.336  16.464  0.2497  0.3185  0.1870
  591TMC3     H 8818   2.255   2.477  16.412  1.6563  0.5495  0.5190
  591TMC3    H1 8819   1.890   2.693  16.501  0.2617 -3.1556  1.9327
  591TMC3    H2 8820   2.247   2.907  16.439  0.5200  1.4139 -2.3870
  591TMC3    C7 8821   1.962   2.899  16.419  0.1150 -0.4865 -0.3762
  591TMC3    C8 8822   2.349   2.701  16.290 -0.1473 -0.3655 -1.1276
  591TMC3    O1 8823   1.846   2.862  16.390  0.0321  0.0904  0.2846
  591TMC3    O2 8824   2.425   2.605  16.275  0.6260  0.6738 -0.4223
  592MPD2     C 8825   2.217   3.915  11.817 -0.3669  0.0813  0.5818
  592MPD2    C1 8826   2.180   3.999  11.920 -0.4929  0.4973  0.1069
  592MPD2    C2 8827   2.158   3.939  12.044 -0.5477  0.0318  0.4935
  592MPD2    C3 8828   2.144   3.801  12.055 -0.2348 -0.5812 -0.1339
  592MPD2    C4 8829   2.160   3.719  11.949  0.0316 -0.0077  0.2680
  592MPD2    C5 8830   2.202   3.779  11.835  0.0924  0.2456  0.0781
  592MPD2     H 8831   2.138   4.002  12.130 -1.7648 -2.0483  1.7509
  592MPD2    H1 8832   2.137   3.613  11.949 -0.9207  0.1837  1.5715
  592MPD2    H2 8833   2.254   3.965  11.728  1.9325 -1.0885  0.8810
  592MPD2    H3 8834   2.228   3.718  11.749  0.2047  0.3932  0.0062
  592MPD2     N 8835   2.092   3.760  12.179  1.1848 -0.2579  0.3647
  592MPD2    H5 8836   2.110   3.827  12.253  3.1193 -1.7136  1.2411
  592MPD2    N1 8837   2.184   4.137  11.889  0.1857 -0.5190  0.2666
  592MPD2    H7 8838   2.202   4.156  11.791 -1.1883 -0.7250 -0.0347
  593TMC3    C1 8839   2.133   4.358  11.914  0.1529 -0.4517  0.4762
  593TMC3    C2 8840   2.031   4.438  11.961  0.1776  0.4510 -1.0248
  593TMC3    C3 8841   2.046   4.573  11.929 -0.5452  0.3065  0.5363
  593TMC3    C4 8842   2.234   4.395  11.825  0.5119  1.4833  0.5869
  593TMC3    C5 8843   2.225   4.525  11.792  0.3087  0.6877 -0.3538
  593TMC3    C6 8844   2.144   4.614  11.847 -0.6590 -0.4459 -0.0384
  593TMC3     C 8845   2.132   4.227  11.976  0.4929  0.6274 -0.4152
  593TMC3     O 8846   2.080   4.220  12.083 -0.7057 -0.0075  0.3989
  593TMC3     H 8847   1.970   4.414  12.047  1.4696  0.5199 -0.0925
  593TMC3    H1 8848   2.330   4.345  11.816 -0.0020  0.9123 -1.7066
  593TMC3    H2 8849   2.152   4.721  11.828  0.2055 -0.1817  1.7825
  593TMC3    C7 8850   2.321   4.595  11.702 -0.0924  0.1151 -0.4042
  593TMC3    C8 8851   2.004   4.663  12.035  0.0339 -0.4741 -0.3786
  593TMC3    O1 8852   2.330   4.717  11.699  0.1338  0.4298 -0.3602
  593TMC3    O2 8853   1.904   4.630  12.097  0.3189 -0.2231  0.5322
  594MPD2     C 8854   0.832   2.996  14.397 -0.6309  0.1970  0.3739
  594MPD2    C1 8855   0.885   2.996  14.522  0.2847 -0.4300  0.2594
  594MPD2    C2 8856   1.024   3.024  14.542 -0.2110  0.2333 -0.0595
  594MPD2    C3 8857   1.099   3.071  14.433  0.0489  0.7744 -0.1346
  594MPD2    C4 8858   1.042   3.075  14.308  0.0213  0.0050  0.0445
  594MPD2    C5 8859   0.915   3.025  14.287  0.8995  0.5386 -0.2091
  594MPD2     H 8860   1.068   3.012  14.640 -0.4762 -0.8685 -0.0740
  594MPD2    H1 8861   1.103   3.115  14.227 -1.4401  1.2262 -0.4441
  594MPD2    H2 8862   0.725   2.988  14.381 -0.3875  0.2808 -1.2979
  594MPD2    H3 8863   0.858   3.043  14.196  1.5279  4.7073  0.2352
  594MPD2     N 8864   1.225   3.122  14.467 -0.1496  0.2913  0.3608
  594MPD2    H5 8865   1.256   3.112  14.563  0.2635  0.0262  0.1997
  594MPD2    N1 8866   0.792   2.971  14.621 -1.1391  0.6190  0.2578
  594MPD2    H7 8867   0.697   2.946  14.593  0.2478 -5.2281  0.6535
  595TMC3    C1 8868   1.615   3.362  14.497  0.0009  0.6149 -0.6866
  595TMC3    C2 8869   1.532   3.287  14.416 -0.9580  0.0074 -0.5922
  595TMC3    C3 8870   1.410   3.259  14.465  0.5175 -0.8669  0.2817
  595TMC3    C4 8871   1.587   3.392  14.626 -0.6109 -0.0605 -0.2857
  595TMC3    C5 8872   1.464   3.356  14.672  0.6055  0.1223 -0.0780
  595TMC3    C6 8873   1.370   3.296  14.592  0.8931 -0.3272  0.3459
  595TMC3     C 8874   1.727   3.438  14.457  0.3222 -0.1476  0.5662
  595TMC3     O 8875   1.748   3.543  14.518  0.1806 -0.8244 -0.6685
  595TMC3     H 8876   1.553   3.255  14.315 -0.3839  1.8228 -1.0590
  595TMC3    H1 8877   1.651   3.455  14.688  0.2793 -2.4184  1.1916
  595TMC3    H2 8878   1.270   3.297  14.635  0.7135 -0.7859 -0.0554
  595TMC3    C7 8879   1.409   3.415  14.795  0.1339 -0.2579  0.1879
  595TMC3    C8 8880   1.314   3.186  14.388  0.5440  0.6015 -0.2191
  595TMC3    O1 8881   1.289   3.401  14.816 -0.5066  0.2986 -0.5006
  595TMC3    O2 8882   1.309   3.206  14.268 -0.4032 -0.4255  0.4541
  596MPD2     C 8883   4.676   0.973  16.760  0.3418  0.2626  0.0705
  596MPD2    C1 8884   4.714   1.092  16.710 -0.4716 -0.2133 -0.2244
  596MPD2    C2 8885   0.019   1.110  16.583  0.4221  0.2011  0.2096
  596MPD2    C3 8886   0.022   1.007  16.502 -0.1052 -0.5738  0.5110
  596MPD2    C4 8887   4.728   0.879  16.550  0.0850 -0.5292 -0.8660
  596MPD2    C5 8888   4.687   0.862  16.680  0.7371  0.1256 -0.8443
  596MPD2     H 8889   0.066   1.202  16.551 -1.4190  1.0668  0.0263
  596MPD2    H1 8890   0.009   0.793  16.485  1.9724 -1.9948  1.4707
  596MPD2    H2 8891   4.652   0.953  16.864  0.4279 -0.5626 -0.0678
  596MPD2    H3 8892   4.676   0.762  16.721  1.0157  1.0081  1.3545
  596MPD2     N 8893   0.057   1.019  16.365 -1.1567  0.1478  0.0595
  596MPD2    H5 8894   0.050   0.932  16.312  0.9449 -0.5155  0.8747
  596MPD2    N1 8895   4.717   1.202  16.797  0.1862  0.0416  0.5802
  596MPD2    H7 8896   0.013   1.286  16.749 -2.3006  1.1330  0.9778
  597TMC3    C1 8897   4.682   1.336  16.998 -0.1863 -0.6488  0.1632
  597TMC3    C2 8898   4.730   1.365  17.117  0.3742 -0.6397 -0.0745
  597TMC3    C3 8899   4.682   1.474  17.181 -0.7252 -0.8199 -0.8942
  597TMC3    C4 8900   4.585   1.413  16.934  0.1935  0.4085 -0.8638
  597TMC3    C5 8901   4.542   1.527  17.000  0.1771  0.8401 -0.3973
  597TMC3    C6 8902   4.591   1.560  17.120 -0.5052 -0.2594  0.1052
  597TMC3     C 8903   4.698   1.203  16.938  0.3738 -0.1895 -0.0684
  597TMC3     O 8904   4.700   1.111  17.020 -0.0518 -0.2209  0.6428
  597TMC3     H 8905   0.079   1.307  17.158  0.0752  0.5022  2.1533
  597TMC3    H1 8906   4.548   1.376  16.839 -1.4716  0.1476 -0.1192
  597TMC3    H2 8907   4.559   1.646  17.178 -0.3420  1.1319 -1.8709
  597TMC3    C7 8908   4.395   1.521  17.016 -0.1394  0.2672 -0.3560
  597TMC3    C8 8909   0.010   1.509  17.301 -1.1880 -0.0128  0.0449
  597TMC3    O1 8910   4.345   1.416  17.052  0.0273  0.2575  0.4893
  597TMC3    O2 8911   4.728   1.624  17.341 -0.2798 -0.0580 -0.3042
  598TMC3    C1 8912   2.907   2.794  15.177 -0.3737 -0.2498  0.2101
  598TMC3    C2 8913   2.814   2.694  15.161  0.3550  0.6141  0.3315
  598TMC3    C3 8914   2.807   2.633  15.039  0.4313  0.1338  0.0436
  598TMC3    C4 8915   2.982   2.842  15.075 -0.1192  0.8606 -0.1225
  598TMC3    C5 8916   2.969   2.783  14.955  0.4689  0.5905 -0.1283
  598TMC3    C6 8917   2.882   2.680  14.938  0.8304 -0.4888  0.8782
  598TMC3     C 8918   2.955   2.826  15.310 -0.4503  0.1145  0.5664
  598TMC3     O 8919   2.997   2.940  15.329 -0.6601 -0.1621  0.2966
  598TMC3     H 8920   2.759   2.665  15.249 -0.6895  0.4483 -0.3700
  598TMC3    H1 8921   3.071   2.902  15.090  0.2370 -0.1400  1.7787
  598TMC3    H2 8922   2.863   2.641  14.839 -1.0748 -0.8733  1.3883
  598TMC3    C7 8923   3.055   2.820  14.842 -0.1186 -0.7587  0.5003
  598TMC3    C8 8924   2.743   2.501  15.042  1.0134 -0.3683  0.3684
  598TMC3    O1 8925   3.061   2.736  14.753 -0.2070 -0.2908  0.1783
  598TMC3    O2 8926   2.690   2.478  15.149  0.2199 -0.1872 -0.0703
  599MPD2     C 8927   3.167   4.411  15.318  0.1486 -0.0855  0.9885
  599MPD2    C1 8928   3.202   4.444  15.451  0.5275  0.2635  0.7438
  599MPD2    C2 8929   3.130   4.531  15.527 -0.3235  0.6153 -0.5771
  599MPD2    C3 8930   3.026   4.594  15.457 -0.0690  0.1324 -0.5888
  599MPD2    C4 8931   2.993   4.563  15.327 -0.4908 -0.7497 -0.5204
  599MPD2    C5 8932   3.057   4.464  15.260  0.3816  0.0890 -0.2829
  599MPD2     H 8933   3.158   4.563  15.627  0.7039 -0.7670 -0.4181
  599MPD2    H1 8934   2.913   4.611  15.272 -1.2576 -1.9878 -0.4864
  599MPD2    H2 8935   3.232   4.344  15.263 -0.3645  0.0042  0.2713
  599MPD2    H3 8936   3.025   4.445  15.158 -2.0629  0.6619  0.3789
  599MPD2     N 8937   2.931   4.681  15.529  0.2465 -0.0055  0.0046
  599MPD2    H5 8938   2.845   4.704  15.480  0.2565  0.8161  0.3715
  599MPD2    N1 8939   3.321   4.394  15.509  0.5416 -0.5381 -0.3796
  599MPD2    H7 8940   3.369   4.322  15.457 -0.1035  0.5081 -2.4263
  600TMC3    C1 8941   2.833   0.059  15.713 -0.6427 -0.6717  0.9670
  600TMC3    C2 8942   2.726   4.708  15.725  0.2366  0.5353 -0.1256
  600TMC3    C3 8943   2.635   4.725  15.823  0.1283 -0.6955 -0.6637
  600TMC3    C4 8944   2.838   0.174  15.782 -0.3530  0.3535  0.2264
  600TMC3    C5 8945   2.734   0.204  15.869  0.1022  0.4346  0.1156
  600TMC3    C6 8946   2.633   0.109  15.890  0.3292  0.3473 -0.7850
  600TMC3     C 8947   2.957   0.003  15.649  0.7611 -0.5335  0.1147
  600TMC3     O 8948   3.057   0.018  15.717 -0.3148 -0.1401  0.1288
  600TMC3     H 8949   2.725   4.616  15.668 -2.2656  0.6510 -0.2616
  600TMC3    H1 8950   2.924   0.239  15.768  1.9866 -2.0617  3.3387
  600TMC3    H2 8951   2.558   0.132  15.965  2.0526  0.4794  0.9151
  600TMC3    C7 8952   2.745   0.316  15.958 -0.3373  1.1568  0.4571
  600TMC3    C8 8953   2.603   4.606  15.899  0.1885 -0.5425 -0.8333
  600TMC3    O1 8954   2.693   0.315  16.068 -0.5357  0.0125 -0.0672
  600TMC3    O2 8955   2.688   4.517  15.905  0.2227 -0.2508 -0.0665
  601MPD2     C 8956   4.175   3.511   0.316 -0.4742 -0.0041  0.9970
  601MPD2    C1 8957   4.204   3.392   0.253 -0.4561  0.1632 -0.4539
  601MPD2    C2 8958   4.145   3.273   0.294 -0.2142 -0.9793  0.2527
  601MPD2    C3 8959   4.050   3.274   0.392 -0.4292  0.1019  0.6328
  601MPD2    C4 8960   4.010   3.393   0.443  0.7210  0.8226 -0.4481
  601MPD2    C5 8961   4.072   3.510   0.408 -0.4827  0.3206 -0.0190
  601MPD2     H 8962   4.182   3.180   0.252 -0.4369 -0.3485 -1.3573
  601MPD2    H1 8963   3.930   3.385   0.517  0.4513 -1.0112 -0.9455
  601MPD2    H2 8964   4.211   3.610   0.290  1.0838 -0.4721  1.3883
  601MPD2    H3 8965   4.038   3.594   0.467  1.5661  0.9071  0.3306
  601MPD2     N 8966   4.012   3.155   0.454 -0.6186 -0.0340  0.0919
  601MPD2    H5 8967   3.955   3.164   0.538 -0.5603 -1.0950  0.2491
  601MPD2    N1 8968   4.301   3.373   0.151 -0.4171 -1.2108  0.4478
  601MPD2    H7 8969   4.301   3.281   0.108  1.2166 -0.7009 -0.6565
  602TMC3    C1 8970   4.517   3.396   0.054  0.8191 -0.2815  0.3537
  602TMC3    C2 8971   4.628   3.475   0.043  0.3537 -0.3676  0.2451
  602TMC3    C3 8972   4.733   3.421  17.709  0.2057  0.4085 -0.0873
  602TMC3    C4 8973   4.505   3.271   0.011 -0.1422  0.1615 -0.1053
  602TMC3    C5 8974   4.618   3.223  17.678  0.2109  0.0823  0.1285
  602TMC3    C6 8975   4.728   3.299  17.652  0.0294 -0.7075 -0.5898
  602TMC3     C 8976   4.414   3.450   0.136  0.2593 -0.0053  0.2055
  602TMC3     O 8977   4.436   3.552   0.197  0.0399  0.3818 -0.5427
  602TMC3     H 8978   4.628   3.580   0.071  2.6750  0.0302 -1.1654
  602TMC3    H1 8979   4.410   3.219   0.017  0.0018  0.0546  1.1745
  602TMC3    H2 8980   0.090   3.249  17.638 -0.0816 -0.6895 -1.4550
  602TMC3    C7 8981   4.582   3.118  17.584 -0.0523  0.2774 -0.0714
  602TMC3    C8 8982   0.097   3.515  17.657 -0.1644  0.1325 -0.1019
  602TMC3    O1 8983   4.488   3.044  17.605  0.1171  0.6191 -1.0251
  602TMC3    O2 8984   0.106   3.620  17.719  0.7312 -0.5346 -0.0387
  603TMC3    C1 8985   3.097   3.586  11.196 -0.5524 -0.9376  0.1155
  603TMC3    C2 8986   3.181   3.648  11.286 -0.4373  0.0100  0.2485
  603TMC3    C3 8987   3.172   3.784  11.295  0.4655 -0.2225  0.3849
  603TMC3    C4 8988   3.017   3.659  11.117  0.3748 -0.0036  0.1305
  603TMC3    C5 8989   3.003   3.795  11.133 -0.5248  0.6440 -0.0837
  603TMC3    C6 8990   3.097   3.863  11.211  0.0254  0.0154  0.6637
  603TMC3     C 8991   3.124   3.445  11.159  0.8179  0.2015  0.3841
  603TMC3     O 8992   3.028   3.377  11.119  0.5936 -0.1852  0.1024
  603TMC3     H 8993   3.235   3.590  11.360 -1.1692  0.5200  1.1824
  603TMC3    H1 8994   2.949   3.597  11.060 -0.6412 -0.1186  1.4775
  603TMC3    H2 8995   3.087   3.968  11.233  1.9073  0.0885  1.1526
  603TMC3    C7 8996   2.875   3.847  11.104 -0.3555 -0.0839 -0.1867
  603TMC3    C8 8997   3.230   3.838  11.418 -0.3244  0.5853 -0.0290
  603TMC3    O1 8998   2.843   3.944  11.168  0.0886 -0.4126  0.0914
  603TMC3    O2 8999   3.215   3.771  11.524 -0.2289  0.5278  0.3917
  604MPD2     C 9000   3.644   1.848  16.161  0.5571  0.0196 -0.6167
  604MPD2    C1 9001   3.626   1.982  16.139 -0.3900 -0.2630  0.0315
  604MPD2    C2 9002   3.689   2.041  16.033  0.6455 -0.2141  0.1760
  604MPD2    C3 9003   3.763   1.968  15.946  0.2365 -0.2028 -0.1152
  604MPD2    C4 9004   3.783   1.834  15.970 -0.0162 -0.6492  0.7734
  604MPD2    C5 9005   3.726   1.779  16.076 -0.1645  0.0184  0.1459
  604MPD2     H 9006   3.670   2.145  16.009  0.7912  0.2301  2.0508
  604MPD2    H1 9007   3.827   1.772  15.893  0.1020 -1.3099  1.3706
  604MPD2    H2 9008   3.601   1.800  16.248  1.4696  0.6799  0.1981
  604MPD2    H3 9009   3.739   1.673  16.097 -4.5300 -0.3636  0.9489
  604MPD2     N 9010   3.826   2.045  15.846  0.9796  0.5151 -0.0133
  604MPD2    H5 9011   3.808   2.145  15.842  1.0615  0.5102 -0.4720
  604MPD2    N1 9012   3.552   2.050  16.236 -0.1126  0.6897 -0.2147
  604MPD2    H7 9013   3.531   2.000  16.322 -1.5753  0.7645 -0.5255
  605TMC3    C1 9014   3.449   2.232  16.343  0.0961 -0.8153 -0.2531
  605TMC3    C2 9015   3.519   2.208  16.456 -0.2824  0.5881 -0.0833
  605TMC3    C3 9016   3.494   2.284  16.570 -0.2121  0.2931 -0.3488
  605TMC3    C4 9017   3.360   2.332  16.341  0.4685  0.1074  0.2225
  605TMC3    C5 9018   3.345   2.418  16.448  0.6081  0.2137 -0.3238
  605TMC3    C6 9019   3.413   2.387  16.567  0.5596  0.2039 -0.4622
  605TMC3     C 9020   3.502   2.174  16.215  0.0759 -0.3270 -0.0063
  605TMC3     O 9021   3.483   2.241  16.117  0.1357  0.6471  0.0446
  605TMC3     H 9022   3.605   2.143  16.457 -0.8986 -0.2258  0.3581
  605TMC3    H1 9023   3.333   2.362  16.240 -1.5424 -1.7970  0.2011
  605TMC3    H2 9024   3.398   2.456  16.649 -1.9867  0.9993 -1.6049
  605TMC3    C7 9025   3.279   2.546  16.435  0.3123  0.0214 -0.0215
  605TMC3    C8 9026   3.612   2.314  16.648 -0.2689  0.0238  0.0407
  605TMC3    O1 9027   3.263   2.618  16.532  0.0728 -0.8369 -0.1156
  605TMC3    O2 9028   3.717   2.259  16.605 -0.3559 -0.5124  0.8124
  606TMC3    C1 9029   0.365   1.040  16.705  0.6289 -0.0666 -0.2348
  606TMC3    C2 9030   0.378   1.102  16.829  0.1089  1.2728 -0.2854
  606TMC3    C3 9031   0.328   1.034  16.940 -0.5511  0.3425  0.5730
  606TMC3    C4 9032   0.305   0.916  16.693 -0.5056  0.5291  0.3636
  606TMC3    C5 9033   0.252   0.853  16.807 -0.0928 -0.6902 -0.0918
  606TMC3    C6 9034   0.278   0.906  16.930  0.3785 -0.0917  0.4650
  606TMC3     C 9035   0.379   1.133  16.595  0.0505 -0.5717 -0.6412
  606TMC3     O 9036   0.376   1.252  16.618  0.8704  0.1241 -0.0388
  606TMC3     H 9037   0.416   1.203  16.833 -0.4748  1.5375 -1.3260
  606TMC3    H1 9038   0.289   0.864  16.600 -2.2583  0.4245  0.7128
  606TMC3    H2 9039   0.246   0.850  17.018 -2.1523  1.1618  0.3309
  606TMC3    C7 9040   0.231   0.710  16.800 -0.0994  0.5298 -0.5870
  606TMC3    C8 9041   0.364   1.074  17.073  0.6445 -0.7123 -0.5338
  606TMC3    O1 9042   0.265   0.656  16.695 -0.3879  0.1216  0.2500
  606TMC3    O2 9043   0.390   0.995  17.161 -0.2199  0.0651  0.0521
  607MPD2     C 9044   2.540   4.182  11.947  0.0699 -0.4455  1.0190
  607MPD2    C1 9045   2.561   4.305  11.995 -0.2193  0.0670  0.1312
  607MPD2    C2 9046   2.550   4.324  12.135  0.2836 -0.1783  0.3552
  607MPD2    C3 9047   2.518   4.222  12.224 -0.5043  0.4923  0.0299
  607MPD2    C4 9048   2.485   4.103  12.161 -0.8238 -0.3619  0.0892
  607MPD2    C5 9049   2.503   4.082  12.028 -0.7089 -0.0387 -0.0844
  607MPD2     H 9050   2.562   4.423  12.180 -1.7624  0.8936 -1.4685
  607MPD2    H1 9051   2.457   4.011  12.211 -0.0063 -0.8764 -0.3949
  607MPD2    H2 9052   2.522   4.163  11.841  0.8836 -0.1012  0.8198
  607MPD2    H3 9053   2.481   3.990  11.975 -1.5513 -0.6863  1.3860
  607MPD2     N 9054   2.512   4.251  12.361  0.6789 -0.0686  0.2628
  607MPD2    H5 9055   2.560   4.336  12.390 -1.4373  0.7971  1.1824
  607MPD2    N1 9056   2.603   4.411  11.916  0.1343 -0.1876 -0.3234
  607MPD2    H7 9057   2.631   4.498  11.962  1.2481  0.5200 -2.3629
  608TMC3    C1 9058   2.729   4.513  11.753 -0.6068  0.0365  0.7680
  608TMC3    C2 9059   2.794   4.564  11.858 -0.2850 -0.0000  0.4698
  608TMC3    C3 9060   2.918   4.607  11.837  0.7095  0.0821 -0.7397
  608TMC3    C4 9061   2.780   4.506  11.627 -0.0962 -0.3034 -0.3249
  608TMC3    C5 9062   2.907   4.561  11.614  0.2518 -0.3008 -0.1744
  608TMC3    C6 9063   2.981   4.609  11.719 -0.0187 -0.0903 -0.1122
  608TMC3     C 9064   2.634   4.401  11.783 -1.0685 -0.0951  0.0668
  608TMC3     O 9065   2.614   4.322  11.694 -0.2083 -0.2075  0.1712
  608TMC3     H 9066   2.737   4.599  11.943  0.6659  3.0829 -0.1600
  608TMC3    H1 9067   2.722   4.490  11.537 -0.7028  0.0185  0.0130
  608TMC3    H2 9068   3.078   4.656  11.704  0.9167 -1.3947  1.8126
  608TMC3    C7 9069   2.937   4.610  11.479 -0.0654 -0.7441 -0.1411
  608TMC3    C8 9070   3.005   4.623  11.946 -0.1519  0.8725 -0.5494
  608TMC3    O1 9071   2.881   4.568  11.377 -0.0793  0.2698  0.4340
  608TMC3    O2 9072   3.114   4.671  11.927 -0.4574 -0.7152 -0.3830
  609TMC3    C1 9073   0.902   3.115   9.192 -0.1037 -0.1730  0.3980
  609TMC3    C2 9074   0.804   3.069   9.109  0.2368  0.1870  0.7419
  609TMC3    C3 9075   0.800   2.934   9.090 -0.1255  0.2754  0.5049
  609TMC3    C4 9076   0.996   3.029   9.244  0.3499 -0.2793  0.0152
  609TMC3    C5 9077   0.986   2.898   9.213  0.1593 -0.6619  0.4489
  609TMC3    C6 9078   0.889   2.848   9.144 -0.4230 -0.3710 -0.1032
  609TMC3     C 9079   0.883   3.242   9.265  0.4659 -0.2136 -0.6731
  609TMC3     O 9080   0.966   3.326   9.276  1.0153  0.3378 -0.2931
  609TMC3     H 9081   0.716   3.130   9.092  1.5547  1.2794 -2.1616
  609TMC3    H1 9082   1.081   3.067   9.300  0.9665 -2.5291  0.5910
  609TMC3    H2 9083   0.870   2.742   9.127  1.2351 -0.6615 -0.1894
  609TMC3    C7 9084   1.089   2.810   9.267  0.3446 -0.5400  0.4597
  609TMC3    C8 9085   0.687   2.893   9.003  0.5033  0.4835 -0.3325
  609TMC3    O1 9086   1.177   2.870   9.331  0.2586  0.4424 -0.3428
  609TMC3    O2 9087   0.625   2.983   8.951 -0.3924  0.1841  0.3355
  610TMC3    C1 9088   2.226   4.030  12.913  0.0202 -0.2077  0.2465
  610TMC3    C2 9089   2.264   4.159  12.879 -0.5186  0.5687 -0.5763
  610TMC3    C3 9090   2.352   4.224  12.965 -0.0119  0.5897 -0.2064
  610TMC3    C4 9091   2.278   3.974  13.028  0.5431 -0.5813  0.5158
  610TMC3    C5 9092   2.357   4.046  13.113 -1.4869 -0.3039 -0.4527
  610TMC3    C6 9093   2.393   4.172  13.084 -0.9141 -0.0343  0.0831
  610TMC3     C 9094   2.207   3.934  12.802  0.8644 -1.0195  0.7866
  610TMC3     O 9095   2.243   3.969  12.690 -0.3884 -0.5139  0.3739
  610TMC3     H 9096   2.245   4.195  12.778 -0.9444 -0.2793 -0.7975
  610TMC3    H1 9097   2.279   3.868  13.050 -0.8307 -0.7793 -0.3988
  610TMC3    H2 9098   2.470   4.217  13.147 -0.2372 -0.8399 -0.1760
  610TMC3    C7 9099   2.430   3.975  13.218  0.0436  0.8353 -0.5947
  610TMC3    C8 9100   2.402   4.344  12.915  0.2676  0.5017 -0.4735
  610TMC3    O1 9101   2.548   3.993  13.240  0.3519  0.0387  0.0645
  610TMC3    O2 9102   2.337   4.401  12.828  0.7023  0.1998 -0.1035
  611MPD2     C 9103   1.453   3.826  10.481  0.2832 -0.2453 -0.5133
  611MPD2    C1 9104   1.491   3.722  10.402 -0.3339 -0.3343 -0.5895
  611MPD2    C2 9105   1.625   3.691  10.399  0.2510  0.5839  0.7553
  611MPD2    C3 9106   1.720   3.750  10.476 -0.0681  0.1488  0.1149
  611MPD2    C4 9107   1.679   3.854  10.559 -0.2993  0.2676 -0.1273
  611MPD2    C5 9108   1.545   3.892  10.558  0.0874 -0.5997 -0.8939
  611MPD2     H 9109   1.658   3.604  10.342  0.1387 -0.0545  1.6767
  611MPD2    H1 9110   1.743   3.907  10.629 -0.7545  0.6329  0.0102
  611MPD2    H2 9111   1.350   3.847  10.509 -0.2590 -0.9454 -2.0013
  611MPD2    H3 9112   1.522   3.978  10.620 -2.3082 -0.7387 -1.5870
  611MPD2     N 9113   1.864   3.728  10.470  0.0592 -0.7259 -0.4366
  611MPD2    H5 9114   1.921   3.775  10.541 -0.8992  1.5047 -1.1337
  611MPD2    N1 9115   1.387   3.649  10.332  0.0526  0.2530  1.0629
  611MPD2    H7 9116   1.292   3.684  10.341  0.0864  0.4623  0.6106
  612TMC3    C1 9117   2.072   3.639  10.412  0.3973  0.0462  0.1162
  612TMC3    C2 9118   2.116   3.658  10.539  0.5855 -0.4658 -1.3195
  612TMC3    C3 9119   2.249   3.636  10.565 -0.1204  0.3698 -0.4063
  612TMC3    C4 9120   2.156   3.600  10.313 -0.0853  0.4796  0.2852
  612TMC3    C5 9121   2.291   3.597  10.340  0.2893  0.3910  0.3735
  612TMC3    C6 9122   2.338   3.599  10.468  0.1738  0.4027  0.4246
  612TMC3     C 9123   1.930   3.655  10.382  0.2908  0.3635 -0.4437
  612TMC3     O 9124   1.888   3.594  10.285  0.4413 -0.0628  0.3565
  612TMC3     H 9125   2.046   3.687  10.616  0.8987 -0.3748 -1.0692
  612TMC3    H1 9126   2.121   3.581  10.212  1.2718  0.2735 -0.1563
  612TMC3    H2 9127   2.445   3.601  10.484  0.3930  0.6385 -1.0572
  612TMC3    C7 9128   2.378   3.573  10.227 -1.0758  0.4205 -0.4121
  612TMC3    C8 9129   2.283   3.643  10.708 -0.6588 -0.0160  0.3055
  612TMC3    O1 9130   2.479   3.508  10.250 -0.6187  0.4883 -0.7404
  612TMC3    O2 9131   2.191   3.620  10.785  0.2512  0.1115 -0.1220
  613MPD2     C 9132   1.135   0.909  16.752 -0.2409  0.2122 -0.6160
  613MPD2    C1 9133   1.122   0.920  16.621 -0.4445 -0.2826  0.2061
  613MPD2    C2 9134   1.100   0.809  16.545  0.8636  0.1258  0.0014
  613MPD2    C3 9135   1.088   0.679  16.598  0.0990  0.3285 -0.4575
  613MPD2    C4 9136   1.098   0.670  16.733  0.1107  0.7837 -0.4285
  613MPD2    C5 9137   1.116   0.781  16.804  0.1767 -0.3354  0.4352
  613MPD2     H 9138   1.096   0.804  16.436 -0.3129  2.3076 -0.0546
  613MPD2    H1 9139   1.098   0.577  16.789 -0.3305 -0.9497 -3.3560
  613MPD2    H2 9140   1.154   0.991  16.820 -1.1615 -0.3720  0.3413
  613MPD2    H3 9141   1.133   0.778  16.911 -0.3402  2.6160  0.5818
  613MPD2     N 9142   1.109   0.561  16.529 -0.8508  0.6736  0.2603
  613MPD2    H5 9143   1.139   0.479  16.581  0.4486  1.4181  0.6760
  613MPD2    N1 9144   1.151   1.045  16.557 -0.1481 -0.0709  0.0576
  613MPD2    H7 9145   1.203   1.111  16.613  1.5634 -1.9635  0.6869
  614TMC3    C1 9146   1.235   1.148  16.365 -0.3050 -0.0904 -0.0061
  614TMC3    C2 9147   1.365   1.122  16.391 -0.0379  0.5292  0.1623
  614TMC3    C3 9148   1.465   1.128  16.301 -0.3234  0.0467  0.2568
  614TMC3    C4 9149   1.205   1.195  16.243  0.1129  0.8881  0.6359
  614TMC3    C5 9150   1.301   1.200  16.151  0.8279  0.1113 -0.2827
  614TMC3    C6 9151   1.430   1.163  16.169  0.2073  0.0504  0.2425
  614TMC3     C 9152   1.136   1.064  16.421  0.1819 -0.8235 -0.2839
  614TMC3     O 9153   1.087   0.993  16.334  0.3824  1.1123 -0.4667
  614TMC3     H 9154   1.391   1.071  16.484 -1.9595 -0.6278  0.0713
  614TMC3    H1 9155   1.100   1.207  16.219  0.0226  1.2383  1.2161
  614TMC3    H2 9156   1.489   1.153  16.079 -0.8509 -1.6853 -0.2650
  614TMC3    C7 9157   1.262   1.247  16.016  0.4677  0.4894  0.1473
  614TMC3    C8 9158   1.562   1.017  16.314 -0.5218 -0.6066 -0.0171
  614TMC3    O1 9159   1.337   1.209  15.925  0.3947  0.0864  0.6046
  614TMC3    O2 9160   1.551   0.947  16.407 -0.2226 -0.2408  0.0472
  615MPD2     C 9161   1.106   3.018  16.574  0.5127 -0.4339 -0.4378
  615MPD2    C1 9162   0.993   3.071  16.506  0.5906  0.6759 -0.3321
  615MPD2    C2 9163   0.914   2.972  16.444 -0.4677 -0.3416  0.5183
  615MPD2    C3 9164   0.945   2.835  16.450 -0.3451  0.3272  0.2696
  615MPD2    C4 9165   1.061   2.787  16.509  0.3475  0.2132  0.2493
  615MPD2    C5 9166   1.143   2.880  16.570 -0.8931 -0.0458 -0.1693
  615MPD2     H 9167   0.822   3.002  16.395 -1.3940 -1.6110  1.4715
  615MPD2    H1 9168   1.099   2.686  16.503 -0.8899 -0.2582  0.3812
  615MPD2    H2 9169   1.180   3.075  16.628  2.0045 -0.6531 -2.2645
  615MPD2    H3 9170   1.240   2.854  16.612 -1.3047 -1.5907 -0.1830
  615MPD2     N 9171   0.875   2.738  16.376  0.4693  0.4880 -0.4601
  615MPD2    H5 9172   0.932   2.662  16.339  0.0780 -1.3229  2.6351
  615MPD2    N1 9173   0.968   3.206  16.485  0.8491 -0.1569  0.1473
  615MPD2    H7 9174   0.879   3.229  16.442  1.7747  1.2438 -1.0091
  616TMC3    C1 9175   1.019   3.437  16.490  0.0090  0.1331 -0.6871
  616TMC3    C2 9176   1.124   3.529  16.473  0.2771  0.5078 -0.1724
  616TMC3    C3 9177   1.094   3.641  16.408  0.1966 -0.5934 -0.1002
  616TMC3    C4 9178   0.885   3.456  16.464  0.3382  0.0048 -0.4249
  616TMC3    C5 9179   0.868   3.572  16.405 -0.2729  0.0456  0.2109
  616TMC3    C6 9180   0.961   3.666  16.371  0.3576  0.5925  0.2274
  616TMC3     C 9181   1.064   3.303  16.511  0.3858 -0.3566  0.2180
  616TMC3     O 9182   1.182   3.291  16.538  0.2380 -0.6286  0.2061
  616TMC3     H 9183   1.223   3.513  16.513  0.3654  0.3469 -0.4546
  616TMC3    H1 9184   0.801   3.393  16.490 -0.3102 -0.1028 -2.7090
  616TMC3    H2 9185   0.952   3.764  16.325  0.1580  1.9330  3.1236
  616TMC3    C7 9186   0.732   3.612  16.379 -0.3402  0.4914  0.2701
  616TMC3    C8 9187   1.195   3.701  16.322  0.2761 -0.6559 -0.0413
  616TMC3    O1 9188   0.649   3.523  16.374  0.0896  0.1641 -0.5712
  616TMC3    O2 9189   1.157   3.793  16.248 -0.0884 -0.0959 -0.1148
  617MPD2     C 9190   3.961   0.923  13.583  0.5119  0.6224 -0.0741
  617MPD2    C1 9191   3.931   0.860  13.704  0.2421  0.7743  0.6940
  617MPD2    C2 9192   3.802   0.823  13.731 -0.1355 -0.1055  0.8791
  617MPD2    C3 9193   3.698   0.857  13.636  0.0113 -0.1417 -0.4342
  617MPD2    C4 9194   3.731   0.925  13.521  0.4147  0.2491  0.8532
  617MPD2    C5 9195   3.862   0.955  13.493  0.5198 -0.8496 -0.1104
  617MPD2     H 9196   3.779   0.759  13.815  1.0214 -2.6732 -0.7604
  617MPD2    H1 9197   3.657   0.948  13.445  0.5220 -0.0003  0.6695
  617MPD2    H2 9198   4.064   0.944  13.556  1.2401 -0.7892  1.5986
  617MPD2    H3 9199   3.883   0.997  13.396 -1.6715  0.9216  0.1761
  617MPD2     N 9200   3.564   0.826  13.659 -0.6610  0.3705  0.4593
  617MPD2    H5 9201   3.501   0.828  13.579 -1.1805  1.2361  0.8833
  617MPD2    N1 9202   4.045   0.847  13.786 -0.2298  0.1546  0.1430
  617MPD2    H7 9203   4.133   0.875  13.743 -0.4177  0.0723 -0.2905
  618TMC3    C1 9204   4.180   0.800  13.975 -0.4703  0.1405  0.3997
  618TMC3    C2 9205   4.268   0.706  13.921 -0.2257 -0.3623  0.6629
  618TMC3    C3 9206   4.399   0.757  13.936 -0.3851  0.3193  1.1644
  618TMC3    C4 9207   4.206   0.923  14.020  0.3087  0.9787 -0.5607
  618TMC3    C5 9208   4.332   0.960  14.031 -0.0126 -0.2297 -0.1137
  618TMC3    C6 9209   4.439   0.879  13.992  0.5127 -0.2999  0.2273
  618TMC3     C 9210   4.052   0.790  13.909 -0.4819  0.5082  0.6357
  618TMC3     O 9211   3.968   0.717  13.963  0.2831  0.0349 -0.0197
  618TMC3     H 9212   4.235   0.646  13.837 -0.6692 -0.3548  0.8312
  618TMC3    H1 9213   4.122   0.984  14.052 -0.3770 -0.3449  0.2049
  618TMC3    H2 9214   4.541   0.902  14.019  0.7647  0.3324 -1.2801
  618TMC3    C7 9215   4.351   1.096  14.090  0.4834  0.7818  0.0625
  618TMC3    C8 9216   4.486   0.710  13.821  0.0964  0.0439  0.8042
  618TMC3    O1 9217   4.298   1.107  14.197 -0.8990  0.0206 -0.0408
  618TMC3    O2 9218   4.464   0.599  13.769  0.0573  0.2224 -0.6235
  619MPD2     C 9219   0.328   2.168  14.269 -0.0514  0.2964  0.5446
  619MPD2    C1 9220   0.294   2.238  14.157  0.4763 -0.3339 -0.2997
  619MPD2    C2 9221   0.168   2.221  14.107  0.1810 -1.2573  0.1205
  619MPD2    C3 9222   0.078   2.122  14.159 -0.0077  0.6477  0.0923
  619MPD2    C4 9223   0.127   2.045  14.263  0.4537 -0.3423  0.4354
  619MPD2    C5 9224   0.235   2.091  14.328  0.4902  0.4200 -0.1012
  619MPD2     H 9225   0.134   2.279  14.023  0.8222 -2.5054 -1.0025
  619MPD2    H1 9226   0.071   1.964  14.307  0.5784 -0.5948  0.1297
  619MPD2    H2 9227   0.423   2.177  14.321 -0.5234  2.1154  1.1127
  619MPD2    H3 9228   0.261   2.045  14.423 -1.4908  1.1479  0.7889
  619MPD2     N 9229   4.689   2.073  14.099 -0.3553  0.1397 -0.1366
  619MPD2    H5 9230   4.640   1.989  14.129 -0.0431  0.4790  1.3226
  619MPD2    N1 9231   0.388   2.304  14.072  0.2064 -0.5594 -0.6715
  619MPD2    H7 9232   0.350   2.337  13.984 -0.1217 -0.3868 -0.4653
  620TMC3    C1 9233   0.565   2.428  13.992 -0.0957  0.3952 -0.5181
  620TMC3    C2 9234   0.498   2.437  13.873  0.1217  0.0787 -0.0920
  620TMC3    C3 9235   0.501   2.560  13.805  0.0762  0.3730 -0.0603
  620TMC3    C4 9236   0.649   2.525  14.040  0.3889  0.7721 -0.4157
  620TMC3    C5 9237   0.638   2.647  13.975 -0.1951 -0.1329  0.2827
  620TMC3    C6 9238   0.573   2.658  13.859 -0.1959 -0.3998  0.4802
  620TMC3     C 9239   0.521   2.323  14.088 -0.3108  0.5597  0.0853
  620TMC3     O 9240   0.597   2.301  14.178 -0.6435  0.2479 -0.2238
  620TMC3     H 9241   0.437   2.361  13.825  1.7072  0.0623 -2.0648
  620TMC3    H1 9242   0.694   2.509  14.137  0.8245  0.2174 -0.7113
  620TMC3    H2 9243   0.593   2.749  13.803  0.0415 -0.3517  0.6464
  620TMC3    C7 9244   0.619   2.759  14.065 -0.3312  0.1606  0.0635
  620TMC3    C8 9245   0.363   2.613  13.777  0.1990  0.4120 -0.0262
  620TMC3    O1 9246   0.682   2.768  14.168 -0.3553  0.5447  0.8803
  620TMC3    O2 9247   0.319   2.711  13.837  0.1443  0.2555  0.6528
  621MPD2     C 9248   0.090   2.052  10.510 -0.7759 -0.4722  0.0028
  621MPD2    C1 9249   0.180   2.006  10.421  0.6037  0.0316  0.0276
  621MPD2    C2 9250   0.284   2.083  10.368 -0.3353 -0.6717 -0.9209
  621MPD2    C3 9251   0.278   2.221  10.383 -0.0496 -0.1616 -0.7603
  621MPD2    C4 9252   0.185   2.270  10.476 -0.5130  0.4703 -0.1206
  621MPD2    C5 9253   0.100   2.185  10.540 -0.9220 -0.1320  0.5118
  621MPD2     H 9254   0.368   2.029  10.324 -0.9916 -0.4698 -2.3968
  621MPD2    H1 9255   0.195   2.369  10.518  1.0283  0.2809 -0.0251
  621MPD2    H2 9256   0.022   1.990  10.568 -0.7125 -0.3532  0.2043
  621MPD2    H3 9257   0.031   2.231  10.611 -0.2229 -1.1442  1.8552
  621MPD2     N 9258   0.373   2.295  10.313  0.5520  0.0765  0.0411
  621MPD2    H5 9259   0.428   2.240  10.248  0.1907 -0.2003 -0.0289
  621MPD2    N1 9260   0.181   1.870  10.376 -0.3177  0.2597 -0.3674
  621MPD2    H7 9261   0.249   1.855  10.301 -1.8692 -0.4167 -1.6381
  622TMC3    C1 9262   0.059   1.686  10.297  0.2228 -0.4487 -0.8581
  622TMC3    C2 9263   4.723   1.573  10.340 -0.4467 -0.0867  0.0631
  622TMC3    C3 9264   4.644   1.517  10.235  0.1375  0.0773  0.2424
  622TMC3    C4 9265   0.068   1.731  10.170  0.2174  0.0228  0.0508
  622TMC3    C5 9266   4.722   1.672  10.073 -0.2041  0.6649  0.4823
  622TMC3    C6 9267   4.653   1.561  10.102 -0.3853  0.2011  0.4172
  622TMC3     C 9268   0.091   1.776  10.406  0.0599 -0.8440 -0.8160
  622TMC3     O 9269   0.018   1.773  10.505 -0.2833  0.6882 -0.0214
  622TMC3     H 9270   0.001   1.545  10.444 -1.9855  0.1472  0.2967
  622TMC3    H1 9271   0.111   1.829  10.153  1.4224 -0.3148  1.1636
  622TMC3    H2 9272   4.576   1.519  10.037  0.1424 -0.8535  0.4721
  622TMC3    C7 9273   4.720   1.721   9.935 -0.2549 -0.4304  0.1057
  622TMC3    C8 9274   4.547   1.406  10.248 -0.4065 -0.2744  0.1763
  622TMC3    O1 9275   4.695   1.648   9.840 -0.2472 -0.0238 -0.4825
  622TMC3    O2 9276   4.544   1.318  10.165  0.4361  0.0987 -0.1597
  623MPD2     C 9277   4.057   2.973  15.997 -0.4223  1.0673 -0.6893
  623MPD2    C1 9278   4.017   2.851  16.018  0.6290 -0.4667 -1.2737
  623MPD2    C2 9279   4.087   2.774  16.110 -0.3289 -0.3260  0.0997
  623MPD2    C3 9280   4.192   2.827  16.176 -0.5048 -0.3732 -0.7422
  623MPD2    C4 9281   4.231   2.952  16.149 -0.4043 -0.6598  0.4318
  623MPD2    C5 9282   4.162   3.025  16.058  0.3671 -0.4496 -0.2151
  623MPD2     H 9283   4.040   2.684  16.148 -2.5666  1.1984  0.9621
  623MPD2    H1 9284   4.311   3.004  16.201 -1.7501  2.5004 -0.6447
  623MPD2    H2 9285   3.997   3.039  15.935  0.0899 -0.4530 -2.8212
  623MPD2    H3 9286   4.196   3.126  16.040 -2.5459  0.0789 -2.8082
  623MPD2     N 9287   4.254   2.762  16.286 -0.0604 -0.4029 -0.6355
  623MPD2    H5 9288   4.218   2.669  16.306  0.3361  0.1488  2.7768
  623MPD2    N1 9289   3.879   2.821  15.992  0.9208 -0.1635 -0.0976
  623MPD2    H7 9290   3.820   2.901  15.973  0.4234 -0.7424 -0.9945
  624TMC3    C1 9291   4.421   2.703  16.723  0.0087  0.5201  0.1052
  624TMC3    C2 9292   4.301   2.656  16.764  0.2218  0.0105  0.3267
  624TMC3    C3 9293   4.198   2.663  16.668  0.6328  0.3573  0.4200
  624TMC3    C4 9294   4.444   2.755  16.592  0.3712 -0.1073  0.5823
  624TMC3    C5 9295   4.345   2.739  16.501  0.4618 -0.0963 -0.1711
  624TMC3    C6 9296   4.222   2.705  16.542  0.1463 -0.1811  0.4328
  624TMC3     C 9297   4.535   2.662  16.807  0.5742  0.0057 -0.4296
  624TMC3     O 9298   4.521   2.581  16.898  0.7385 -0.2084  0.4299
  624TMC3     H 9299   4.288   2.621  16.866  1.5978 -1.6484 -0.0572
  624TMC3    H1 9300   4.544   2.780  16.559  0.1121  0.2624  0.0694
  624TMC3    H2 9301   4.136   2.699  16.477 -1.1387 -1.1840  2.2094
  624TMC3    C7 9302   4.357   2.804  16.364 -0.1236  0.8083 -0.2715
  624TMC3    C8 9303   4.071   2.595  16.701 -0.0359 -0.6611 -0.1773
  624TMC3    O1 9304   4.443   2.890  16.355 -0.3578 -0.1226  0.3102
  624TMC3    O2 9305   4.012   2.557  16.603  0.1637  0.0491  0.0651
  625MPD2     C 9306   4.718   3.822   0.321 -1.1503 -0.7018  0.5498
  625MPD2    C1 9307   0.005   3.920   0.425 -0.7587 -0.3522  0.5380
  625MPD2    C2 9308   0.103   3.893   0.519  0.4567  0.0955  0.4574
  625MPD2    C3 9309   0.194   3.789   0.502  0.0795  0.3406  0.9180
  625MPD2    C4 9310   0.166   3.701   0.398 -0.0297  0.3173 -0.4796
  625MPD2    C5 9311   0.072   3.723   0.311 -0.1221 -0.7415  0.5412
  625MPD2     H 9312   0.112   3.957   0.606  2.0995  3.0577 -1.9054
  625MPD2    H1 9313   0.225   3.612   0.381  0.6051  0.5717  0.3744
  625MPD2    H2 9314   4.641   3.818   0.244  0.2806 -2.1255 -0.7879
  625MPD2    H3 9315   0.069   3.646   0.234 -0.7412  0.5318 -0.7119
  625MPD2     N 9316   0.291   3.766   0.600 -0.1637 -0.2314 -0.3268
  625MPD2    H5 9317   0.286   3.829   0.679 -3.2984 -1.9682  0.8518
  625MPD2    N1 9318   4.654   4.030   0.444 -0.3422 -0.0821  0.4817
  625MPD2    H7 9319   4.667   4.094   0.522 -0.6104 -0.0447  0.4959
  626TMC3    C1 9320   4.471   4.175   0.392  0.2157  0.2075 -0.3281
  626TMC3    C2 9321   4.407   4.228   0.279  0.2369  0.3009  0.2352
  626TMC3    C3 9322   4.287   4.296   0.300 -0.6510 -0.6126  0.2132
  626TMC3    C4 9323   4.404   4.166   0.516 -0.0907  0.4587  0.0835
  626TMC3    C5 9324   4.298   4.248   0.532  0.4654  0.2478 -0.1183
  626TMC3    C6 9325   4.235   4.312   0.425  0.8273 -0.1514 -0.8656
  626TMC3     C 9326   4.557   4.065   0.353 -0.3683  0.8075  0.4734
  626TMC3     O 9327   4.559   4.036   0.233 -0.2032 -0.4001  0.8584
  626TMC3     H 9328   4.441   4.220   0.177 -1.4223 -0.4602 -0.2422
  626TMC3    H1 9329   4.427   4.087   0.587  1.7017  2.1191  1.3523
  626TMC3    H2 9330   4.140   4.364   0.433  2.6106  2.5853  2.7265
  626TMC3    C7 9331   4.244   4.258   0.673 -0.2557 -0.2786  0.6306
  626TMC3    C8 9332   4.211   4.331   0.180 -0.5708  0.1843 -0.2146
  626TMC3    O1 9333   4.297   4.193   0.762  0.1210  0.3540 -0.1020
  626TMC3    O2 9334   4.215   4.250   0.085 -0.0446  0.3109 -0.2340
  627MPD2     C 9335   2.807   4.386  14.520 -0.2528  0.0781  0.2415
  627MPD2    C1 9336   2.925   4.317  14.554 -0.0539  0.7922  0.1090
  627MPD2    C2 9337   2.913   4.190  14.602 -0.0240  0.5215  0.3911
  627MPD2    C3 9338   2.790   4.126  14.617  0.4077 -0.0356  0.3217
  627MPD2    C4 9339   2.673   4.196  14.590  0.0581  1.0354  0.0543
  627MPD2    C5 9340   2.690   4.319  14.541  0.5024 -0.5172  0.2992
  627MPD2     H 9341   3.001   4.134  14.632 -0.8495 -0.7973  0.3666
  627MPD2    H1 9342   2.574   4.156  14.607  1.0621 -1.5646 -0.2523
  627MPD2    H2 9343   2.805   4.489  14.485  2.1757 -0.0795 -0.4105
  627MPD2    H3 9344   2.602   4.379  14.521  0.3610 -0.8675 -0.1432
  627MPD2     N 9345   2.786   3.988  14.645 -0.0738  0.6134 -0.1957
  627MPD2    H5 9346   2.869   3.929  14.646 -0.5194 -0.0442 -2.3965
  627MPD2    N1 9347   3.049   4.374  14.557  0.3922 -0.7461 -0.8619
  627MPD2    H7 9348   3.131   4.318  14.580  0.5808  0.2448  0.8449
  628TMC3    C1 9349   3.212   4.533  14.557  0.3586  0.3254  0.0435
  628TMC3    C2 9350   3.305   4.441  14.588 -0.3725  0.3383  0.3242
  628TMC3    C3 9351   3.432   4.479  14.628  0.3976  0.9615  0.2317
  628TMC3    C4 9352   3.247   4.666  14.553 -0.9742  0.1090 -0.1339
  628TMC3    C5 9353   3.381   4.697  14.575  0.2287  0.1409  0.1339
  628TMC3    C6 9354   3.471   4.610  14.634  0.4292 -0.2083  0.0186
  628TMC3     C 9355   3.076   4.503  14.529  0.4851 -0.1617  0.5779
  628TMC3     O 9356   3.007   4.597  14.496 -0.0577 -0.0574  0.1627
  628TMC3     H 9357   3.283   4.335  14.582  4.2302 -0.6718  1.4082
  628TMC3    H1 9358   3.177   0.007  14.518 -1.2071 -0.5995 -1.1708
  628TMC3    H2 9359   3.574   4.636  14.614  0.3858  0.2529  0.4032
  628TMC3    C7 9360   3.432   0.099  14.547  0.1451 -0.0963  0.2501
  628TMC3    C8 9361   3.537   4.377  14.607 -0.0059 -0.9286  0.4861
  628TMC3    O1 9362   3.532   0.137  14.609  0.6331 -0.0596 -0.1995
  628TMC3    O2 9363   3.520   4.300  14.519  0.0241 -0.1813 -0.2996
  629MPD2     C 9364   1.670   3.767  16.124 -0.4255  0.4185  0.0735
  629MPD2    C1 9365   1.675   3.681  16.230 -0.3170 -0.1170  0.3108
  629MPD2    C2 9366   1.563   3.639  16.298 -0.5764  0.0333  0.2708
  629MPD2    C3 9367   1.439   3.698  16.269 -0.5332  0.2736  1.1027
  629MPD2    C4 9368   1.437   3.798  16.171  0.1902 -0.0438 -0.5961
  629MPD2    C5 9369   1.549   3.827  16.093  0.2303  0.3962  0.1929
  629MPD2     H 9370   1.581   3.566  16.376  0.3066 -0.3465 -0.2875
  629MPD2    H1 9371   1.345   3.851  16.148  0.1584  0.1220 -0.0801
  629MPD2    H2 9372   1.747   3.779  16.049 -2.6335 -2.2709 -2.5905
  629MPD2    H3 9373   1.537   3.897  16.011 -3.6708  1.1961  1.4259
  629MPD2     N 9374   1.322   3.655  16.335  0.0248  0.3565 -0.2648
  629MPD2    H5 9375   1.333   3.588  16.410  1.5800  1.2410  0.3009
  629MPD2    N1 9376   1.808   3.633  16.262  0.6170 -0.6416  0.5581
  629MPD2    H7 9377   1.879   3.681  16.207  0.2606  0.3397  0.9547
  630TMC3    C1 9378   1.996   3.554  16.403 -0.3592  0.5416 -0.3718
  630TMC3    C2 9379   2.082   3.637  16.331 -0.1870  0.4905  0.2753
  630TMC3    C3 9380   2.213   3.634  16.373 -0.0656 -0.9043 -0.0012
  630TMC3    C4 9381   2.032   3.483  16.512 -0.4313 -0.2140 -0.1747
  630TMC3    C5 9382   2.164   3.494  16.556 -0.2912  0.5124  0.7785
  630TMC3    C6 9383   2.252   3.567  16.487 -0.1669 -0.0161  0.2290
  630TMC3     C 9384   1.851   3.556  16.369  0.1241  0.2275 -0.6664
  630TMC3     O 9385   1.781   3.480  16.434  0.0943 -0.0892 -0.1075
  630TMC3     H 9386   2.037   3.706  16.260 -1.3904  0.1700  0.7289
  630TMC3    H1 9387   1.954   3.450  16.580  0.2015  0.5743  0.9507
  630TMC3    H2 9388   2.354   3.562  16.523 -0.2971 -1.9621  0.3392
  630TMC3    C7 9389   2.192   3.434  16.683 -1.1738 -0.3838 -0.3200
  630TMC3    C8 9390   2.297   3.741  16.341  0.8672  0.4867 -0.3159
  630TMC3    O1 9391   2.109   3.354  16.728  0.1588  0.1445 -0.3835
  630TMC3    O2 9392   2.375   3.765  16.430 -0.9700 -0.5557  0.4765
  631MPD2     C 9393   4.703   2.784  15.790 -0.0218 -0.4344 -0.7149
  631MPD2    C1 9394   0.060   2.887  15.773 -0.5987  0.1016 -0.1747
  631MPD2    C2 9395   0.185   2.865  15.824 -0.3289 -0.1157  0.4010
  631MPD2    C3 9396   0.221   2.748  15.891  0.2673 -0.1961 -0.0447
  631MPD2    C4 9397   0.133   2.649  15.904 -0.9543  0.1382 -0.3423
  631MPD2    C5 9398   0.004   2.668  15.860  0.1004  0.3330 -0.1467
  631MPD2     H 9399   0.252   2.950  15.813  1.6669 -1.7056  0.3310
  631MPD2    H1 9400   0.163   2.550  15.938  1.5544  1.4115  1.1462
  631MPD2    H2 9401   4.603   2.785  15.748 -0.0233 -0.6786 -0.7206
  631MPD2    H3 9402   4.667   2.587  15.873 -0.1457  1.0610  3.1367
  631MPD2     N 9403   0.357   2.735  15.932  0.3872 -0.2331 -0.2112
  631MPD2    H5 9404   0.427   2.803  15.907  0.5081 -0.6964 -1.1436
  631MPD2    N1 9405   0.010   3.005  15.714 -0.3098 -0.0862 -0.4323
  631MPD2    H7 9406   4.657   3.016  15.662  0.3686 -0.0555 -1.5530
  632TMC3    C1 9407   0.034   3.224  15.622  0.4174  0.5118 -0.3787
  632TMC3    C2 9408   4.640   3.229  15.572  0.3601  0.0739  0.3134
  632TMC3    C3 9409   4.602   3.342  15.502 -0.3021 -0.5289 -0.2188
  632TMC3    C4 9410   0.127   3.320  15.575 -0.2553 -0.9314 -0.2474
  632TMC3    C5 9411   0.090   3.414  15.487 -0.0087  0.2123 -0.1884
  632TMC3    C6 9412   4.690   3.424  15.445  0.3470  0.4855  0.2086
  632TMC3     C 9413   0.087   3.118  15.713 -0.4153  0.2807  0.1123
  632TMC3     O 9414   0.185   3.151  15.778  0.0993 -0.1724 -0.3337
  632TMC3     H 9415   4.558   3.175  15.615  1.0899 -0.4711  1.0071
  632TMC3    H1 9416   0.234   3.306  15.585  0.1703  2.0284 -0.6203
  632TMC3    H2 9417   4.661   3.511  15.387 -2.3585 -0.3024  0.3799
  632TMC3    C7 9418   0.192   3.477  15.414  0.0660 -0.4162 -0.0362
  632TMC3    C8 9419   4.468   3.382  15.502 -0.1627  0.4838  0.3886
  632TMC3    O1 9420   0.291   3.501  15.480  0.4882 -0.8732  0.1486
  632TMC3    O2 9421   4.381   3.293  15.496  0.7653 -0.3942 -0.1771
  633MPD2     C 9422   4.021   0.980  17.192  0.2495  0.2779 -0.4381
  633MPD2    C1 9423   4.134   0.927  17.141 -0.1009  0.0683  0.0860
  633MPD2    C2 9424   4.189   0.808  17.191 -0.0045  0.7869 -0.0279
  633MPD2    C3 9425   4.123   0.751  17.298 -0.2343  0.0122 -0.1027
  633MPD2    C4 9426   4.006   0.799  17.343  0.0013  0.7005 -0.1092
  633MPD2    C5 9427   3.956   0.919  17.289 -0.0784  0.0652 -0.5472
  633MPD2     H 9428   4.279   0.773  17.141 -0.4484 -2.6246  1.5756
  633MPD2    H1 9429   3.947   0.744  17.416 -0.3275  1.7107  0.3937
  633MPD2    H2 9430   3.973   1.067  17.150 -0.1152 -0.7890 -2.2577
  633MPD2    H3 9431   3.864   0.963  17.326  0.9107  1.1660  0.6077
  633MPD2     N 9432   4.170   0.632  17.352  0.3597 -0.4307 -0.4718
  633MPD2    H5 9433   4.112   0.592  17.425  1.6560 -1.0811  0.2195
  633MPD2    N1 9434   4.212   1.002  17.048  0.2917  0.8352  0.4580
  633MPD2    H7 9435   4.286   0.947  17.006 -0.2532  0.4732 -0.0363
  634TMC3    C1 9436   4.252   1.164  16.883 -1.1072  0.0724  0.7852
  634TMC3    C2 9437   4.301   1.061  16.807  0.7566 -0.8280 -0.0166
  634TMC3    C3 9438   4.330   1.096  16.680 -0.3466 -1.0303 -0.4641
  634TMC3    C4 9439   4.222   1.287  16.828 -0.6096 -0.0733 -0.8694
  634TMC3    C5 9440   4.234   1.305  16.692 -0.1132  0.1099  0.5154
  634TMC3    C6 9441   4.287   1.209  16.613  0.3534  0.1573 -0.9121
  634TMC3     C 9442   4.185   1.131  17.005 -0.0650  0.7464 -0.0509
  634TMC3     O 9443   4.108   1.214  17.046 -0.8025 -0.1582 -0.2444
  634TMC3     H 9444   4.331   0.962  16.840  1.3131 -0.3795  0.8186
  634TMC3    H1 9445   4.188   1.362  16.898  0.7172 -1.7500  1.5580
  634TMC3    H2 9446   4.290   1.226  16.506 -1.1209  0.3149 -0.9168
  634TMC3    C7 9447   4.188   1.427  16.629 -0.2331 -0.8088  0.5668
  634TMC3    C8 9448   4.359   0.977  16.597  0.7012  0.2163 -0.3859
  634TMC3    O1 9449   4.246   1.460  16.527 -0.4393  0.2773  0.0175
  634TMC3    O2 9450   4.360   0.863  16.646 -0.1952  0.1485 -0.2711
  635TMC3    C1 9451   4.515   2.067   0.340  0.5607  0.5633 -0.1001
  635TMC3    C2 9452   4.638   2.018   0.391  0.2139  0.6091  0.4164
  635TMC3    C3 9453   4.730   1.970   0.304 -0.4607 -0.1670  0.3668
  635TMC3    C4 9454   4.481   2.062   0.208  0.1257  0.2089 -0.7902
  635TMC3    C5 9455   4.580   2.001   0.128 -0.8581  0.0913 -0.0294
  635TMC3    C6 9456   4.705   1.961   0.173 -0.5219  0.1699  0.3735
  635TMC3     C 9457   4.426   2.144   0.422 -0.2705  0.5171 -0.0631
  635TMC3     O 9458   4.320   2.180   0.367  0.1134  0.1981  0.3064
  635TMC3     H 9459   4.671   2.020   0.494 -0.2725  0.1565  0.5784
  635TMC3    H1 9460   4.388   2.100   0.167  0.0306  1.3778  0.4941
  635TMC3    H2 9461   0.037   1.899   0.113 -1.9949 -0.5071 -0.5440
  635TMC3    C7 9462   4.542   1.967  17.725 -0.3369 -0.2986 -0.0272
  635TMC3    C8 9463   0.089   1.873   0.355 -0.1674 -0.3410  0.3056
  635TMC3    O1 9464   4.630   1.971  17.638 -0.0646 -0.4386 -0.0494
  635TMC3    O2 9465   0.067   1.824   0.462  0.0649 -0.6651  0.5257
  636MPD2     C 9466   1.035   0.960  15.869  0.3568  0.6995  0.3160
  636MPD2    C1 9467   0.982   0.931  15.995 -0.0016  0.6029 -0.1652
  636MPD2    C2 9468   0.988   0.801  16.039  0.2894  0.1603  0.3270
  636MPD2    C3 9469   1.050   0.701  15.964 -0.3180  0.4424 -0.4764
  636MPD2    C4 9470   1.099   0.732  15.842  0.4638 -0.2626 -0.5483
  636MPD2    C5 9471   1.085   0.856  15.796  0.4310 -0.4050 -0.7358
  636MPD2     H 9472   0.960   0.782  16.142  1.4170 -1.5451  0.3198
  636MPD2    H1 9473   1.154   0.665  15.777 -3.2213 -2.3393 -1.5511
  636MPD2    H2 9474   1.019   1.052  15.813  1.4343  2.0456  2.2120
  636MPD2    H3 9475   1.109   0.876  15.692 -2.6817 -1.2137 -1.6005
  636MPD2     N 9476   1.090   0.584  16.029 -0.0741  0.1625 -0.0337
  636MPD2    H5 9477   1.066   0.583  16.127  1.5213 -1.8750  0.3286
  636MPD2    N1 9478   0.922   1.019  16.090 -0.0336  0.2968 -0.6051
  636MPD2    H7 9479   0.897   0.984  16.182  0.2643  0.8506 -0.3150
  637TMC3    C1 9480   1.184   0.393  16.108  0.0420  0.0640 -0.7397
  637TMC3    C2 9481   1.095   0.412  16.207  0.8101 -0.4942  0.0708
  637TMC3    C3 9482   1.138   0.424  16.339 -1.0432  0.0820  0.0508
  637TMC3    C4 9483   1.317   0.386  16.131 -0.5137  0.4945 -0.0107
  637TMC3    C5 9484   1.362   0.399  16.261 -0.0240  0.0196 -0.3878
  637TMC3    C6 9485   1.275   0.404  16.370  0.2338  0.7959 -0.3138
  637TMC3     C 9486   1.155   0.476  15.987 -0.1948 -1.0058 -0.1901
  637TMC3     O 9487   1.193   0.442  15.874 -0.1625  0.6724  0.0442
  637TMC3     H 9488   0.990   0.410  16.180  0.7103 -1.5445  0.5321
  637TMC3    H1 9489   1.385   0.404  16.048 -0.7470  1.6141  0.0418
  637TMC3    H2 9490   1.304   0.420  16.473  0.6943 -3.8882  0.2858
  637TMC3    C7 9491   1.460   0.508  16.283  0.2808  0.9211  0.0701
  637TMC3    C8 9492   1.084   0.549  16.392  0.2685  0.3903  0.1662
  637TMC3    O1 9493   1.443   0.572  16.385  0.4226  0.2392 -0.1156
  637TMC3    O2 9494   1.011   0.609  16.314  0.3340 -0.0266  0.6109
  638MPD2     C 9495   0.894   0.237  15.169  0.6315  0.4043 -0.3480
  638MPD2    C1 9496   0.901   0.120  15.096 -0.0758 -0.0613  0.4232
  638MPD2    C2 9497   0.833   0.008  15.148 -0.9026  0.2065  0.1019
  638MPD2    C3 9498   0.775   0.010  15.276 -0.1997  0.4114  0.2255
  638MPD2    C4 9499   0.782   0.123  15.353 -0.3599  0.2648 -0.2597
  638MPD2    C5 9500   0.840   0.232  15.292 -0.4995  0.0161 -0.1880
  638MPD2     H 9501   0.832   4.646  15.096  1.9111  0.1057  0.2410
  638MPD2    H1 9502   0.741   0.126  15.453  1.8096 -0.3997  0.6501
  638MPD2    H2 9503   0.941   0.332  15.146 -0.6520  0.4119 -2.9428
  638MPD2    H3 9504   0.847   0.322  15.351  0.8004  0.3035 -0.7743
  638MPD2     N 9505   0.715   4.622  15.320  0.6980  0.2959  0.8804
  638MPD2    H5 9506   0.709   4.550  15.249 -1.1740 -0.9259  2.2903
  638MPD2    N1 9507   0.970   0.124  14.968  0.0197 -0.0264 -0.3921
  638MPD2    H7 9508   1.024   0.207  14.948  1.1175 -0.3998  1.0196
  639TMC3    C1 9509   0.667   4.445  15.442  0.2252  0.0524  0.1231
  639TMC3    C2 9510   0.608   4.379  15.342  0.3362  0.3162  0.4777
  639TMC3    C3 9511   0.664   4.260  15.298 -0.5555  0.1440 -0.1470
  639TMC3    C4 9512   0.795   4.407  15.483  0.8435  0.0681  0.0315
  639TMC3    C5 9513   0.861   4.307  15.417  0.1643  0.1818 -0.5365
  639TMC3    C6 9514   0.794   4.229  15.322 -0.1795 -0.0282  0.7092
  639TMC3     C 9515   0.665   4.585  15.432  0.4721  0.5433  0.4924
  639TMC3     O 9516   0.671   4.641  15.540  0.1781 -0.3464 -0.0744
  639TMC3     H 9517   0.515   4.422  15.307 -0.6928 -2.6017 -0.3824
  639TMC3    H1 9518   0.849   4.466  15.556 -0.0487  2.5558 -1.3358
  639TMC3    H2 9519   0.856   4.170  15.257 -0.7228  0.0884  0.0838
  639TMC3    C7 9520   1.003   4.326  15.386 -0.2057  1.5275 -0.1366
  639TMC3    C8 9521   0.610   4.213  15.174 -0.0458  0.3239 -0.6537
  639TMC3    O1 9522   1.055   4.231  15.329 -0.1872 -0.3568 -0.1521
  639TMC3    O2 9523   0.690   4.174  15.093 -0.2759  0.5591  0.1822
  640MPD2     C 9524   1.470   3.877  10.066 -0.8572 -0.1975  0.0666
  640MPD2    C1 9525   1.483   3.892   9.932  0.2661 -0.2103  0.5046
  640MPD2    C2 9526   1.433   4.006   9.867  0.9696  0.2685 -0.3834
  640MPD2    C3 9527   1.357   4.098   9.942 -0.0544  0.1700  0.1448
  640MPD2    C4 9528   1.340   4.074  10.079 -0.9099 -0.6762 -0.4676
  640MPD2    C5 9529   1.405   3.970  10.138 -0.6404 -0.1926  0.2084
  640MPD2     H 9530   1.435   4.024   9.760  0.2250 -3.6243 -1.0231
  640MPD2    H1 9531   1.285   4.136  10.149  0.2214  2.1021 -2.0429
  640MPD2    H2 9532   1.509   3.794  10.124  3.1526  0.5526 -1.4931
  640MPD2    H3 9533   1.399   3.960  10.246 -4.8554  2.2662  0.2053
  640MPD2     N 9534   1.298   4.212   9.888 -0.1366 -0.7384  0.6985
  640MPD2    H5 9535   1.239   4.268   9.950  0.2463  3.1429 -2.4722
  640MPD2    N1 9536   1.569   3.803   9.859  0.1064  0.0477  0.1077
  640MPD2    H7 9537   1.612   3.738   9.924 -1.3731 -0.3901  0.6476
  641TMC3    C1 9538   1.662   3.674   9.687  0.1529 -0.0191 -0.0182
  641TMC3    C2 9539   1.668   3.559   9.758 -0.4050  0.1200 -0.0111
  641TMC3    C3 9540   1.728   3.456   9.691 -0.9081 -0.2331  0.0125
  641TMC3    C4 9541   1.686   3.683   9.552  0.0532  0.3847 -0.3079
  641TMC3    C5 9542   1.749   3.582   9.493 -1.0468  0.2172  0.2663
  641TMC3    C6 9543   1.770   3.465   9.559 -0.2968 -0.9199  1.0249
  641TMC3     C 9544   1.573   3.783   9.727 -0.0934 -0.8389  0.0581
  641TMC3     O 9545   1.493   3.826   9.648  0.4490  0.0762  0.5159
  641TMC3     H 9546   1.615   3.550   9.852  1.0489 -0.8050  0.7154
  641TMC3    H1 9547   1.687   3.782   9.507 -1.1082  0.1611 -0.8352
  641TMC3    H2 9548   1.810   3.375   9.513 -0.0150  1.3474 -3.1614
  641TMC3    C7 9549   1.805   3.603   9.361  0.4256 -0.1863  0.4937
  641TMC3    C8 9550   1.742   3.331   9.758  0.3854  0.7411  0.1372
  641TMC3    O1 9551   1.897   3.531   9.329 -0.0663  0.3905  0.3138
  641TMC3    O2 9552   1.796   3.235   9.697  0.2545 -0.6753 -0.2169
  642TMC3    C1 9553   2.286   4.709  12.594  0.0957  0.3977  0.6627
  642TMC3    C2 9554   2.369   4.722  12.489 -0.6490 -0.2079 -0.3905
  642TMC3    C3 9555   2.368   4.627  12.386  0.6004  0.6394  0.0974
  642TMC3    C4 9556   2.207   4.606  12.619 -0.1820  0.1868 -0.0711
  642TMC3    C5 9557   2.208   4.508  12.517 -0.9011 -0.2865 -0.2236
  642TMC3    C6 9558   2.289   4.518  12.399  0.3121 -0.3552  0.2586
  642TMC3     C 9559   2.276   0.086  12.691  0.0294 -0.3553  0.0329
  642TMC3     O 9560   2.365   0.167  12.701  0.1714 -0.2062  0.0006
  642TMC3     H 9561   2.432   0.077  12.487 -2.4325  1.1129  3.4013
  642TMC3    H1 9562   2.157   4.591  12.714 -2.5493 -1.9123 -1.6321
  642TMC3    H2 9563   2.297   4.440  12.324 -1.6547  0.1135 -0.4436
  642TMC3    C7 9564   2.147   4.383  12.548  0.1154  0.3125  0.5974
  642TMC3    C8 9565   2.435   4.654  12.259 -0.5248 -1.2290  0.8709
  642TMC3    O1 9566   2.179   4.290  12.477  0.0799 -0.1865 -0.4405
  642TMC3    O2 9567   2.387   4.598  12.161 -0.0919  0.0489  0.5111
  643TMC3    C1 9568   1.609   3.860   0.635  0.3077 -0.0004 -0.1640
  643TMC3    C2 9569   1.506   3.786   0.583 -0.4905 -0.9511  0.3896
  643TMC3    C3 9570   1.532   3.704   0.477  0.4135  0.4159 -0.0377
  643TMC3    C4 9571   1.737   3.855   0.581  0.1396  0.3144 -0.3042
  643TMC3    C5 9572   1.759   3.766   0.485 -0.0181  0.2778 -0.0838
  643TMC3    C6 9573   1.660   3.687   0.434  0.0022  0.5669 -0.4486
  643TMC3     C 9574   1.554   3.966   0.714 -0.2466 -1.0183 -0.8261
  643TMC3     O 9575   1.484   4.040   0.651 -0.3127  0.4151 -0.0323
  643TMC3     H 9576   1.408   3.802   0.627 -0.0314 -0.3097  1.1798
  643TMC3    H1 9577   1.808   3.927   0.619 -0.6118  0.2905  1.1739
  643TMC3    H2 9578   1.680   3.610   0.361 -0.6518  1.7534 -1.8763
  643TMC3    C7 9579   1.892   3.768   0.423  0.5468  0.4904  0.2790
  643TMC3    C8 9580   1.462   3.749   0.357  0.6783 -0.0956  0.8342
  643TMC3    O1 9581   1.960   3.863   0.456 -0.2722  0.6876 -0.0088
  643TMC3    O2 9582   1.474   3.695   0.249  0.0011 -0.3389 -0.1678
  644MPD2     C 9583   1.670   4.560   8.825  0.0664 -0.5735  0.8087
  644MPD2    C1 9584   1.604   4.516   8.935  0.7928  0.4073 -0.0562
  644MPD2    C2 9585   1.469   4.557   8.947  0.1827 -0.4046  0.5260
  644MPD2    C3 9586   1.405   4.637   8.855  0.3904  0.2272  0.4862
  644MPD2    C4 9587   1.476   4.677   8.747  0.0024  0.2819  0.0510
  644MPD2    C5 9588   1.607   4.629   8.729  0.5662  0.2873 -0.1196
  644MPD2     H 9589   1.412   4.519   9.030 -1.6851 -0.8613 -0.9885
  644MPD2    H1 9590   1.445   0.004   8.662 -1.2222  0.4022  0.5811
  644MPD2    H2 9591   1.769   4.523   8.799 -1.1078 -3.8404  0.8809
  644MPD2    H3 9592   1.674   4.663   8.651  0.6433  1.5604  0.5112
  644MPD2     N 9593   1.268   4.664   8.861 -0.3131 -0.5075  0.3162
  644MPD2    H5 9594   1.213   4.635   8.941  2.6500 -0.8827  2.2043
  644MPD2    N1 9595   1.671   4.424   9.017 -0.0017 -0.5501  0.0981
  644MPD2    H7 9596   1.771   4.406   9.009  0.1711  0.5296 -0.2338
  645TMC3    C1 9597   1.056   0.017   8.812  0.3507 -0.6528 -0.6183
  645TMC3    C2 9598   1.018   0.142   8.769 -0.2121  0.3521 -0.1053
  645TMC3    C3 9599   0.889   0.181   8.780 -0.3362  0.9072  0.0591
  645TMC3    C4 9600   0.963   4.656   8.848 -0.4381  0.1685  0.1332
  645TMC3    C5 9601   0.832   4.693   8.853  0.4878 -1.2496 -0.3670
  645TMC3    C6 9602   0.793   0.090   8.821 -0.3451 -0.3154  0.5135
  645TMC3     C 9603   1.185   4.714   8.765 -0.2695 -0.5686 -0.4947
  645TMC3     O 9604   1.216   0.025   8.653  0.2877  0.6472 -0.9122
  645TMC3     H 9605   1.099   0.206   8.734 -0.1476 -1.0580 -2.5940
  645TMC3    H1 9606   0.991   4.554   8.874 -1.2683  0.0728  0.6779
  645TMC3    H2 9607   0.690   0.121   8.833 -0.3105  0.3092 -0.7894
  645TMC3    C7 9608   0.733   4.603   8.912  0.1148  0.7749 -0.8488
  645TMC3    C8 9609   0.847   0.319   8.753 -0.0865  1.1412  0.3850
  645TMC3    O1 9610   0.623   4.649   8.930 -0.3355 -0.5034 -0.8514
  645TMC3    O2 9611   0.941   0.394   8.729 -0.3512  0.5828 -0.0412
  646MPD2     C 9612   0.984   3.370  14.679 -0.5747 -0.4357  0.6237
  646MPD2    C1 9613   0.908   3.439  14.760  0.4549  0.4782  0.2332
  646MPD2    C2 9614   0.823   3.534  14.718 -0.0617  0.7791  0.4283
  646MPD2    C3 9615   0.812   3.562  14.584 -0.4812  0.1798 -0.6967
  646MPD2    C4 9616   0.896   3.493  14.496  0.4461 -0.1575 -0.4258
  646MPD2    C5 9617   0.976   3.396  14.545  0.0754  0.3103  1.0358
  646MPD2     H 9618   0.763   3.584  14.794 -2.1469  0.4586 -0.9971
  646MPD2    H1 9619   0.891   3.501  14.388  1.1904 -0.3329 -0.4750
  646MPD2    H2 9620   1.058   3.298  14.712  0.5285 -0.0074 -0.9526
  646MPD2    H3 9621   1.021   3.339  14.464  0.0120  2.7623 -0.7364
  646MPD2     N 9622   0.731   3.668  14.558 -0.0561  0.1048 -0.5157
  646MPD2    H5 9623   0.663   3.700  14.626 -1.1414 -0.1490 -1.4701
  646MPD2    N1 9624   0.933   3.409  14.892  0.2038  0.1399  0.4714
  646MPD2    H7 9625   1.001   3.336  14.909 -1.9726 -1.6332  1.4978
  647TMC3    C1 9626   0.956   3.419  15.124  0.2505  0.0482 -0.5779
  647TMC3    C2 9627   0.889   3.435  15.240  0.6728  0.0056  0.0855
  647TMC3    C3 9628   0.942   3.400  15.361 -0.0199 -0.2192 -0.3212
  647TMC3    C4 9629   1.091   3.382  15.122  0.7586  0.1466 -0.1426
  647TMC3    C5 9630   1.150   3.377  15.249 -0.5579 -0.2600  0.6142
  647TMC3    C6 9631   1.078   3.380  15.370 -0.1447 -0.3912 -0.4746
  647TMC3     C 9632   0.892   3.469  15.007  0.3352 -0.6173  0.6869
  647TMC3     O 9633   0.793   3.537  15.018 -0.0815 -0.3883 -0.1299
  647TMC3     H 9634   0.781   3.445  15.228  0.7101  0.3313  0.0342
  647TMC3    H1 9635   1.140   3.380  15.025  1.1201  0.8892  0.0270
  647TMC3    H2 9636   1.125   3.361  15.466  1.4777 -1.4075 -1.4742
  647TMC3    C7 9637   1.283   3.322  15.263  0.0606  0.0866 -0.0465
  647TMC3    C8 9638   0.867   3.302  15.433  0.2753  0.1241 -0.2619
  647TMC3    O1 9639   1.334   3.317  15.373 -0.2300  0.1181  0.2179
  647TMC3    O2 9640   0.940   3.223  15.491 -0.4403  0.2904  0.3303
  648TMC3    C1 9641   0.071   1.111  16.156 -0.4052 -0.6842 -0.1559
  648TMC3    C2 9642   0.127   0.995  16.111  0.0308  0.5739 -0.6733
  648TMC3    C3 9643   0.143   0.978  15.980 -0.4444 -0.1219 -0.2612
  648TMC3    C4 9644   0.027   1.213  16.075  0.6951  0.2559 -0.8220
  648TMC3    C5 9645   0.030   1.186  15.941  0.0906  0.4794  0.5152
  648TMC3    C6 9646   0.082   1.067  15.896  0.5784 -0.4805  0.1812
  648TMC3     C 9647   0.059   1.138  16.297  0.2525 -0.4282  0.4576
  648TMC3     O 9648   0.025   1.251  16.332  0.0011 -0.3270  0.2214
  648TMC3     H 9649   0.178   0.923  16.174  1.7499 -0.7334 -3.5529
  648TMC3    H1 9650   4.705   1.303  16.100 -0.2462 -0.4360 -0.4166
  648TMC3    H2 9651   0.052   1.039  15.796 -1.5423  2.6875 -0.0740
  648TMC3    C7 9652   4.694   1.266  15.838 -0.1445  0.0747 -0.6645
  648TMC3    C8 9653   0.129   0.841  15.946 -0.0136  0.7146  0.6537
  648TMC3    O1 9654   4.729   1.245  15.723 -0.5071  0.4069 -0.2759
  648TMC3    O2 9655   0.019   0.797  15.909 -0.0533  0.8279  0.6223
  649TMC3    C1 9656   2.904   2.421  12.583 -0.4270  0.3233  0.2341
  649TMC3    C2 9657   3.019   2.460  12.527  0.0551  0.8169 -0.8206
  649TMC3    C3 9658   3.105   2.358  12.479  0.7617  0.4147 -0.3152
  649TMC3    C4 9659   2.876   2.292  12.620 -0.5049  0.0678  0.7420
  649TMC3    C5 9660   2.969   2.195  12.584 -0.3916  0.2914 -0.4423
  649TMC3    C6 9661   3.080   2.231  12.513 -0.6033 -0.7756 -0.2204
  649TMC3     C 9662   2.825   2.527  12.632  0.2418 -0.1391 -0.2675
  649TMC3     O 9663   2.785   2.523  12.748  0.3308 -0.1156  0.7036
  649TMC3     H 9664   3.055   2.562  12.524  0.8721  0.5325 -0.6991
  649TMC3    H1 9665   2.797   2.271  12.692 -1.7605 -1.6755 -1.1512
  649TMC3    H2 9666   3.160   2.161  12.491 -0.7380 -0.6981 -0.9652
  649TMC3    C7 9667   2.994   2.094  12.686  0.0120 -0.3363  0.0619
  649TMC3    C8 9668   3.243   2.397  12.488 -0.4439  0.3123  0.0062
  649TMC3    O1 9669   3.100   2.100  12.749  0.1339  0.6120 -0.2651
  649TMC3    O2 9670   3.299   2.442  12.390 -0.0069 -0.4125  0.1196
  650TMC3    C1 9671   1.446   4.046  12.804 -0.3474 -0.2753  0.0611
  650TMC3    C2 9672   1.437   4.187  12.811 -0.0656 -0.0082 -0.0516
  650TMC3    C3 9673   1.462   4.260  12.701 -0.0473 -0.5348  0.2717
  650TMC3    C4 9674   1.506   3.986  12.696  0.7319  0.6037  0.3260
  650TMC3    C5 9675   1.531   4.071  12.586  0.3444 -0.7400  0.3269
  650TMC3    C6 9676   1.513   4.206  12.581 -0.7424 -1.1215  0.5065
  650TMC3     C 9677   1.413   3.974  12.919 -0.4080  0.8105  0.5067
  650TMC3     O 9678   1.402   4.035  13.024  0.3588 -0.0236 -0.1807
  650TMC3     H 9679   1.406   4.228  12.907 -0.0887 -0.1690  0.0098
  650TMC3    H1 9680   1.515   3.878  12.697 -1.8559  0.4053  0.4691
  650TMC3    H2 9681   1.532   4.268  12.494 -1.1793  0.2361  1.3817
  650TMC3    C7 9682   1.577   4.003  12.468  0.0127 -0.2657  0.4634
  650TMC3    C8 9683   1.426   4.395  12.704 -0.1595 -0.3073 -1.1697
  650TMC3    O1 9684   1.596   3.883  12.481 -0.4811 -0.0430  0.2532
  650TMC3    O2 9685   1.495   4.475  12.642  0.2951  0.3288 -0.0362
  651MPD2     C 9686   0.526   0.556  10.745  0.6919 -0.5323  1.1112
  651MPD2    C1 9687   0.477   0.679  10.687 -0.3500 -0.3849  0.4795
  651MPD2    C2 9688   0.553   0.737  10.587 -0.2793  1.0370 -0.4524
  651MPD2    C3 9689   0.666   0.674  10.532  0.0315 -0.2682 -0.1658
  651MPD2    C4 9690   0.708   0.554  10.590  0.0165 -0.0874 -0.0137
  651MPD2    C5 9691   0.637   0.497  10.691 -0.2236  0.1022 -0.5944
  651MPD2     H 9692   0.529   0.835  10.549  2.7449  2.1419  0.4903
  651MPD2    H1 9693   0.798   0.499  10.565 -0.9854 -2.0985  0.8482
  651MPD2    H2 9694   0.479   0.506  10.828 -3.2022 -0.1648 -0.8435
  651MPD2    H3 9695   0.673   0.396  10.711 -0.2374 -0.4389 -3.2041
  651MPD2     N 9696   0.729   0.740  10.425  0.6161 -0.1744 -0.5755
  651MPD2    H5 9697   0.685   0.824  10.389  0.1796 -0.4027 -0.5680
  651MPD2    N1 9698   0.372   0.760  10.740 -0.2167 -0.8413  0.1447
  651MPD2    H7 9699   0.349   0.845  10.691  0.0362 -0.4153  0.7584
  652TMC3    C1 9700   1.061   0.992  10.302 -0.0863  0.0699  0.2633
  652TMC3    C2 9701   1.033   0.863  10.284 -0.3132  0.4917 -0.3535
  652TMC3    C3 9702   0.903   0.818  10.276  0.3314 -0.1361  0.4060
  652TMC3    C4 9703   0.957   1.079  10.280  0.1146 -0.2599  0.2336
  652TMC3    C5 9704   0.827   1.037  10.255 -0.4045 -0.1824 -0.5966
  652TMC3    C6 9705   0.800   0.904  10.231 -0.0027 -0.3033  0.2412
  652TMC3     C 9706   1.191   1.029  10.344  0.3414 -0.2219  0.6706
  652TMC3     O 9707   1.251   0.943  10.410 -0.3151 -0.7576  0.2864
  652TMC3     H 9708   1.103   0.785  10.312 -0.5215  0.6637  0.6614
  652TMC3    H1 9709   0.974   1.183  10.304 -1.5687 -0.1102  0.7432
  652TMC3    H2 9710   0.700   0.873  10.205 -0.1230 -0.0438  0.3902
  652TMC3    C7 9711   0.730   1.084  10.349 -0.6158  0.0844  0.0419
  652TMC3    C8 9712   0.856   0.718  10.374  0.9391 -0.8742  0.7345
  652TMC3    O1 9713   0.636   1.007  10.371 -0.8603  0.0416  0.1968
  652TMC3    O2 9714   0.951   0.661  10.431  0.2937 -0.2556  0.7413
  653MPD2     C 9715   3.598   0.902  17.344 -0.7536  0.4270 -0.1863
  653MPD2    C1 9716   3.619   1.013  17.261  0.1918  0.3772 -0.0196
  653MPD2    C2 9717   3.640   0.984  17.130  0.3482 -0.5244 -0.0402
  653MPD2    C3 9718   3.629   0.858  17.077  0.5012  0.2165  0.1610
  653MPD2    C4 9719   3.599   0.750  17.162 -0.2848  0.3047  0.1225
  653MPD2    C5 9720   3.587   0.773  17.295 -0.5846  0.0901 -0.0910
  653MPD2     H 9721   3.643   1.069  17.064 -0.0069  0.0133  0.6258
  653MPD2    H1 9722   3.584   0.649  17.124  1.1210 -0.4892  1.6802
  653MPD2    H2 9723   3.570   0.914  17.448 -0.9034 -1.0763 -0.0436
  653MPD2    H3 9724   3.559   0.695  17.365 -1.1172  1.4406  1.2126
  653MPD2     N 9725   3.662   0.846  16.937  0.4870 -0.2712  0.3417
  653MPD2    H5 9726   3.663   0.930  16.879  1.7184 -0.5566 -0.0381
  653MPD2    N1 9727   3.630   1.154  17.303  0.0570 -0.1057 -0.4568
  653MPD2    H7 9728   3.666   1.224  17.239  2.1379 -0.8114 -0.0707
  654TMC3    C1 9729   3.693   0.731  16.725  0.8242  0.2303 -0.0966
  654TMC3    C2 9730   3.604   0.821  16.661  0.2184  0.0350  1.0822
  654TMC3    C3 9731   3.524   0.775  16.557  0.1017  0.1352 -0.4305
  654TMC3    C4 9732   3.703   0.597  16.680  0.0357  0.3698  0.2318
  654TMC3    C5 9733   3.611   0.559  16.588 -0.3865  0.0574 -0.1807
  654TMC3    C6 9734   3.519   0.642  16.532  0.0274  0.0295 -0.0149
  654TMC3     C 9735   3.683   0.725  16.872  0.3182  0.1370 -0.2594
  654TMC3     O 9736   3.684   0.608  16.912  0.0929 -0.1786  0.1028
  654TMC3     H 9737   3.627   0.926  16.676 -2.5612  0.9898 -1.3607
  654TMC3    H1 9738   3.779   0.534  16.723  0.0012  0.8231  0.9532
  654TMC3    H2 9739   3.437   0.595  16.479  0.5672 -2.1593  1.0793
  654TMC3    C7 9740   3.575   0.420  16.595 -0.4617  0.3641 -0.0270
  654TMC3    C8 9741   3.436   0.854  16.481  0.6722  0.6924 -0.3400
  654TMC3    O1 9742   3.525   0.377  16.496  0.3875  0.3839  0.0113
  654TMC3    O2 9743   3.416   0.963  16.532 -0.4965 -0.3039  0.6166
  655MPD2     C 9744   0.677   1.331  15.707  0.2045  1.1758  0.1668
  655MPD2    C1 9745   0.543   1.319  15.658  0.3431 -0.2259 -0.2245
  655MPD2    C2 9746   0.512   1.225  15.559  0.5087  0.2480 -0.2458
  655MPD2    C3 9747   0.615   1.145  15.506  0.1924  0.5406  0.6012
  655MPD2    C4 9748   0.746   1.157  15.556  0.2839  0.6949  0.1587
  655MPD2    C5 9749   0.775   1.253  15.655  0.1280 -0.1182 -0.4631
  655MPD2     H 9750   0.411   1.232  15.519  0.4421 -0.4384 -0.1973
  655MPD2    H1 9751   0.817   1.088  15.513  0.2573 -0.5191  2.0416
  655MPD2    H2 9752   0.710   1.394  15.788 -2.4283  1.4495  1.0293
  655MPD2    H3 9753   0.873   1.276  15.695  1.0945 -3.3431 -0.9335
  655MPD2     N 9754   0.588   1.034  15.414  0.3565 -0.3079 -0.1797
  655MPD2    H5 9755   0.670   0.982  15.388 -0.2577 -0.6135 -1.5121
  655MPD2    N1 9756   0.441   1.401  15.702  0.4440  0.4741  0.1845
  655MPD2    H7 9757   0.354   1.402  15.649  0.8077  2.3670 -0.3853
  656TMC3    C1 9758   0.328   1.548  15.827  0.2267 -0.5654  0.3864
  656TMC3    C2 9759   0.263   1.572  15.944 -0.2182 -0.6235 -0.0607
  656TMC3    C3 9760   0.146   1.645  15.948 -0.2900  0.0189 -0.3591
  656TMC3    C4 9761   0.282   1.606  15.716  0.5683 -0.1120  0.3691
  656TMC3    C5 9762   0.170   1.682  15.725  0.7940 -0.9582 -0.5822
  656TMC3    C6 9763   0.089   1.695  15.834  0.4339 -0.1257 -0.0949
  656TMC3     C 9764   0.447   1.473  15.815 -0.5904  0.1134 -0.2146
  656TMC3     O 9765   0.530   1.474  15.906  0.5859 -0.0325 -0.0720
  656TMC3     H 9766   0.300   1.550  16.043  2.0218  2.2737 -0.2477
  656TMC3    H1 9767   0.341   1.615  15.626  1.0890  1.8438  0.9069
  656TMC3    H2 9768   4.721   1.732  15.842 -0.0657 -1.4925 -0.2531
  656TMC3    C7 9769   0.127   1.755  15.607  0.0480 -0.5088  0.3660
  656TMC3    C8 9770   0.054   1.600  16.050  0.4142  0.1886 -0.1779
  656TMC3    O1 9771   0.202   1.777  15.509  0.6830 -0.1414  0.5673
  656TMC3    O2 9772   0.081   1.496  16.106 -0.3894 -0.0196  0.1554
  657TMC3    C1 9773   4.353   0.599  14.707  0.0183  0.5243 -0.6780
  657TMC3    C2 9774   4.329   0.538  14.831 -0.5633 -0.0976  0.6429
  657TMC3    C3 9775   4.211   0.577  14.894 -0.4761 -0.5144 -0.3785
  657TMC3    C4 9776   4.269   0.688  14.650  0.4292  0.2858 -0.3256
  657TMC3    C5 9777   4.158   0.726  14.718 -0.5082 -0.3851 -0.2040
  657TMC3    C6 9778   4.128   0.681  14.847  0.0317  0.2506 -0.3344
  657TMC3     C 9779   4.482   0.581  14.644  0.5477 -0.9226 -0.1441
  657TMC3     O 9780   4.493   0.629  14.533  0.1630  0.0536  0.0582
  657TMC3     H 9781   4.374   0.446  14.869 -2.1282 -0.5009  1.5274
  657TMC3    H1 9782   4.281   0.697  14.543  2.9522  2.8763  0.1601
  657TMC3    H2 9783   4.029   0.708  14.881  0.7461 -1.3214  2.8962
  657TMC3    C7 9784   4.041   0.757  14.642  0.2771 -0.2676  0.2245
  657TMC3    C8 9785   4.168   0.516  15.022 -0.3423  0.5859 -0.1699
  657TMC3    O1 9786   3.939   0.702  14.674 -0.6092 -0.2571 -0.4135
  657TMC3    O2 9787   4.071   0.573  15.079 -0.4516 -0.0548  0.2272
  658MPD2     C 9788   1.031   0.804  14.967  0.1560 -1.1461 -0.2876
  658MPD2    C1 9789   0.901   0.841  14.932  0.0610 -0.4780  0.3348
  658MPD2    C2 9790   0.882   0.904  14.813 -0.2181  0.0866  0.9184
  658MPD2    C3 9791   0.992   0.935  14.731  0.5653  0.1241  0.3089
  658MPD2    C4 9792   1.122   0.894  14.763 -0.6028  0.9323 -0.5004
  658MPD2    C5 9793   1.133   0.831  14.880  0.0305 -0.7121  0.1299
  658MPD2     H 9794   0.779   0.919  14.782  0.5926  2.2492 -0.6723
  658MPD2    H1 9795   1.213   0.925  14.712  1.6106 -1.6930  1.8939
  658MPD2    H2 9796   1.057   0.747  15.055  1.3903 -0.1921 -0.0436
  658MPD2    H3 9797   1.229   0.793  14.913  0.9416  2.1493  0.8137
  658MPD2     N 9798   0.956   0.994  14.609  0.5945 -0.3213 -0.0970
  658MPD2    H5 9799   0.858   1.019  14.600  0.9480  1.0653 -0.0653
  658MPD2    N1 9800   0.796   0.792  15.016 -0.4708  0.1460 -0.3501
  658MPD2    H7 9801   0.811   0.738  15.100 -4.1826  1.3146  1.0688
  659TMC3    C1 9802   0.582   0.770  15.088  0.3366  0.0668  0.2482
  659TMC3    C2 9803   0.602   0.847  15.204  0.5316  0.1830  0.6877
  659TMC3    C3 9804   0.491   0.865  15.285 -0.3811  0.9987  0.1171
  659TMC3    C4 9805   0.459   0.719  15.048 -0.6858 -0.2103  0.6399
  659TMC3    C5 9806   0.356   0.747  15.132 -0.1414  0.2824  0.8387
  659TMC3    C6 9807   0.371   0.811  15.252 -0.0692  0.2994 -0.8765
  659TMC3     C 9808   0.668   0.797  14.973 -0.5690 -0.0483 -0.8308
  659TMC3     O 9809   0.608   0.811  14.866  0.1747 -0.7151  0.0286
  659TMC3     H 9810   0.703   0.882  15.224 -0.2152  1.5485  2.0501
  659TMC3    H1 9811   0.446   0.658  14.959  2.6404  0.2274 -0.1725
  659TMC3    H2 9812   0.282   0.825  15.313  0.3852  0.9399 -0.3600
  659TMC3    C7 9813   0.217   0.724  15.100 -0.4491  0.2863  0.3519
  659TMC3    C8 9814   0.474   0.977  15.374 -0.7979  0.5055  0.1545
  659TMC3    O1 9815   0.153   0.672  15.193  0.8644  0.3566 -0.2047
  659TMC3    O2 9816   0.358   1.007  15.391 -0.1732  0.6144 -0.2365
  660MPD2     C 9817   3.168   0.225  12.542 -0.1332  0.2847 -0.0456
  660MPD2    C1 9818   3.049   0.267  12.600  1.0075  0.5500  0.2910
  660MPD2    C2 9819   3.031   0.237  12.734  0.3458  1.1841 -0.2007
  660MPD2    C3 9820   3.126   0.167  12.812  0.3835  0.5771 -0.6538
  660MPD2    C4 9821   3.244   0.127  12.752 -0.5779 -0.1288  0.5192
  660MPD2    C5 9822   3.258   0.161  12.621  0.2257 -0.0643 -0.3498
  660MPD2     H 9823   2.944   0.277  12.784 -0.6238  0.2583 -1.1589
  660MPD2    H1 9824   3.326   0.080  12.807 -1.2544 -2.3007 -0.3192
  660MPD2    H2 9825   3.175   0.235  12.434  0.3830  2.9522  0.2189
  660MPD2    H3 9826   3.337   0.112  12.564  2.4279  2.9520  0.0859
  660MPD2     N 9827   3.111   0.134  12.949 -0.2783 -0.1376  0.5640
  660MPD2    H5 9828   3.176   0.065  12.985 -0.8805 -0.4721  0.9956
  660MPD2    N1 9829   2.952   0.327  12.515  0.1882  0.3107 -0.1129
  660MPD2    H7 9830   2.979   0.347  12.419  1.0197 -0.2351  0.0036
  661TMC3    C1 9831   2.747   0.404  12.443  0.1940 -0.4106  0.3699
  661TMC3    C2 9832   2.823   0.482  12.360  0.4424 -0.1069  0.6983
  661TMC3    C3 9833   2.769   0.524  12.245 -0.1318 -1.0594  0.1269
  661TMC3    C4 9834   2.619   0.371  12.416 -0.2331 -0.0610  1.0783
  661TMC3    C5 9835   2.567   0.424  12.300  0.7015 -0.3765 -0.7773
  661TMC3    C6 9836   2.635   0.492  12.214  0.5405  0.1854  0.5387
  661TMC3     C 9837   2.824   0.348  12.551 -0.3691  0.2137  0.1543
  661TMC3     O 9838   2.768   0.336  12.662 -0.9024  0.7596  0.3815
  661TMC3     H 9839   2.925   0.510  12.384  0.3540  1.8124 -1.1371
  661TMC3    H1 9840   2.558   0.310  12.481 -1.2450 -0.3541 -0.1375
  661TMC3    H2 9841   2.596   0.530  12.120 -0.0688 -1.7341  0.0196
  661TMC3    C7 9842   2.445   0.358  12.257  1.0514 -0.6672 -0.5437
  661TMC3    C8 9843   2.859   0.574  12.148 -0.6765 -0.3794 -0.5762
  661TMC3    O1 9844   2.430   0.344  12.140 -0.3207 -0.7090 -0.6325
  661TMC3    O2 9845   2.967   0.523  12.129  0.4627  0.2717  0.2824
  662MPD2     C 9846   3.809   4.311  17.139 -0.0281  0.4047  0.0231
  662MPD2    C1 9847   3.790   4.264  17.269  0.2974 -0.2920 -0.0345
  662MPD2    C2 9848   3.711   4.340  17.352 -0.5996 -0.0215 -0.1343
  662MPD2    C3 9849   3.648   4.456  17.305 -0.3394  0.7173 -0.0414
  662MPD2    C4 9850   3.673   4.504  17.177  0.8242  0.2277  0.2750
  662MPD2    C5 9851   3.749   4.427  17.092 -0.4942 -0.1261  0.0439
  662MPD2     H 9852   3.699   4.315  17.457  1.7930  4.3703  1.1485
  662MPD2    H1 9853   3.624   4.592  17.138  1.0346  0.5775  0.8018
  662MPD2    H2 9854   3.868   4.264  17.062 -1.0734  0.7942 -1.0172
  662MPD2    H3 9855   3.766   4.453  16.988  1.2539 -0.3326  0.2866
  662MPD2     N 9856   3.589   4.553  17.388  0.7435  0.0717  0.1351
  662MPD2    H5 9857   3.586   4.648  17.354 -1.6319 -1.1728 -3.1707
  662MPD2    N1 9858   3.851   4.151  17.319 -0.1806 -0.1139 -0.2789
  662MPD2    H7 9859   3.829   4.115  17.412 -2.1382  1.5544 -0.0856
  663TMC3    C1 9860   3.983   3.952  17.326  0.3853 -0.2695 -0.2213
  663TMC3    C2 9861   3.951   3.937  17.458  0.0093 -0.3563  0.1049
  663TMC3    C3 9862   4.002   3.823  17.523  0.1554 -0.0161 -1.3828
  663TMC3    C4 9863   4.042   3.850  17.250  0.0874 -0.4997 -0.7643
  663TMC3    C5 9864   4.078   3.738  17.320  0.2336 -0.0058  0.3570
  663TMC3    C6 9865   4.048   3.715  17.452  0.3615  0.1276 -0.0477
  663TMC3     C 9866   3.930   4.063  17.245 -0.1693 -0.3504 -0.3121
  663TMC3     O 9867   3.994   4.085  17.141  0.1741  0.3828 -0.2880
  663TMC3     H 9868   3.919   4.024  17.514  1.3831  2.6984 -3.8353
  663TMC3    H1 9869   4.040   3.841  17.142 -0.1768  0.9219 -0.8768
  663TMC3    H2 9870   4.105   3.649  17.516 -0.8040  0.5013  1.3782
  663TMC3    C7 9871   4.087   3.617  17.245 -0.2649 -0.3726  0.0004
  663TMC3    C8 9872   3.935   3.777  17.646 -0.4523 -0.0751  0.2672
  663TMC3    O1 9873   4.138   3.619  17.134  0.1870 -0.2653 -0.7419
  663TMC3    O2 9874   3.936   3.656  17.670 -0.3325  0.0731 -0.0521
  664MPD2     C 9875   1.696   2.602  17.370 -0.3592 -0.6089 -0.0993
  664MPD2    C1 9876   1.768   2.666  17.472  0.0576  0.1658  0.7154
  664MPD2    C2 9877   1.728   2.640  17.602  0.2971  0.0106 -0.1339
  664MPD2    C3 9878   1.628   2.545  17.627  0.2297  0.5426 -0.2051
  664MPD2    C4 9879   1.567   2.481  17.520  0.6538 -0.7727  0.2416
  664MPD2    C5 9880   1.598   2.512  17.392 -0.3735  0.3529  0.0155
  664MPD2     H 9881   1.775   2.691  17.685 -3.3082  0.0890  1.8619
  664MPD2    H1 9882   1.497   2.401  17.540 -0.4586  0.1736  0.0926
  664MPD2    H2 9883   1.715   2.636  17.270  0.3167 -2.4107 -0.5841
  664MPD2    H3 9884   1.542   2.471  17.309  0.5663  1.4455 -1.1442
  664MPD2     N 9885   1.588   2.519   0.026  0.5220  0.6953 -0.5298
  664MPD2    H5 9886   1.635   2.571   0.100  1.5850 -0.0001 -0.7264
  664MPD2    N1 9887   1.874   2.757  17.443 -0.0008  0.3173 -0.0420
  664MPD2    H7 9888   1.924   2.791  17.525  1.3223 -1.1926 -0.2114
  665TMC3    C1 9889   1.445   2.454   0.207  0.1893  0.8034  0.1655
  665TMC3    C2 9890   1.306   2.469   0.224 -0.1232 -0.5974 -0.6319
  665TMC3    C3 9891   1.270   2.559   0.322 -0.1907 -0.0024  0.2335
  665TMC3    C4 9892   1.537   2.523   0.279 -0.2238  0.8805  0.3592
  665TMC3    C5 9893   1.496   2.608   0.377 -0.4930  0.4961 -0.1110
  665TMC3    C6 9894   1.362   2.625   0.405  0.0666  0.3998 -0.2384
  665TMC3     C 9895   1.478   2.440   0.066  0.6916 -0.6431 -0.3812
  665TMC3     O 9896   1.390   2.389  17.729  0.3305 -0.3418 -0.4351
  665TMC3     H 9897   1.236   2.430   0.150  0.6270 -0.1470 -1.5768
  665TMC3    H1 9898   1.641   2.492   0.280  0.1673  2.1557 -1.5313
  665TMC3    H2 9899   1.327   2.687   0.486  0.1078  1.2264 -0.8543
  665TMC3    C7 9900   1.584   2.714   0.395  0.1603  0.1268  0.7292
  665TMC3    C8 9901   1.132   2.593   0.349 -0.0317 -0.5219  0.0205
  665TMC3    O1 9902   1.667   2.723   0.312  0.4234 -0.0267 -0.1461
  665TMC3    O2 9903   1.104   2.632   0.460  0.3259  0.2022 -0.0326
  666TMC3    C1 9904   0.525   2.461  10.258  0.0516 -0.5184  0.0153
  666TMC3    C2 9905   0.630   2.378  10.282  0.0332 -0.1214 -0.1622
  666TMC3    C3 9906   0.756   2.431  10.261 -0.0032 -0.0390 -0.7657
  666TMC3    C4 9907   0.529   2.587  10.219  0.3896  0.7332 -0.1243
  666TMC3    C5 9908   0.653   2.631  10.196  0.0151 -0.4252  1.0298
  666TMC3    C6 9909   0.767   2.562  10.222 -0.7904  0.6723  0.6613
  666TMC3     C 9910   0.402   2.428  10.334  0.4891 -0.8409  0.5019
  666TMC3     O 9911   0.340   2.519  10.386 -1.0336 -0.3818 -0.6431
  666TMC3     H 9912   0.617   2.286  10.337  0.8012  0.0617  0.3276
  666TMC3    H1 9913   0.439   2.644  10.195  0.9820  1.2583 -1.1210
  666TMC3    H2 9914   0.864   2.600  10.193 -1.7222  1.3163 -1.5876
  666TMC3    C7 9915   0.655   2.774  10.185  0.5261  0.1878  0.6600
  666TMC3    C8 9916   0.859   2.362  10.328  0.5822 -0.0943 -1.4715
  666TMC3    O1 9917   0.570   2.832  10.251  0.2483 -0.2745  0.2577
  666TMC3    O2 9918   0.852   2.240  10.333 -0.2428  0.6131 -0.1089
  667MPD2     C 9919   2.730   2.670  14.488 -0.0300  0.1116  0.1709
  667MPD2    C1 9920   2.657   2.734  14.580 -0.7151 -0.3892 -0.5186
  667MPD2    C2 9921   2.551   2.667  14.627 -0.4297 -0.2194 -0.3492
  667MPD2    C3 9922   2.518   2.534  14.593  0.1857  0.5463  0.7490
  667MPD2    C4 9923   2.596   2.468  14.503 -0.0707 -0.1059 -0.2088
  667MPD2    C5 9924   2.710   2.535  14.446  0.0323  0.9527 -0.2686
  667MPD2     H 9925   2.493   2.722  14.701  0.6655  1.5556 -0.8210
  667MPD2    H1 9926   2.577   2.365  14.476  0.6408 -0.2668 -0.1056
  667MPD2    H2 9927   2.817   2.721  14.447 -1.3638  2.1192 -0.1219
  667MPD2    H3 9928   2.771   2.489  14.369 -2.3159 -0.5243 -1.2585
  667MPD2     N 9929   2.407   2.465  14.645  0.0485  0.5052 -0.1383
  667MPD2    H5 9930   2.390   2.370  14.613 -0.0718 -0.0187  1.4761
  667MPD2    N1 9931   2.687   2.857  14.631  0.1285 -0.1310 -0.1599
  667MPD2    H7 9932   2.628   2.887  14.708  1.5533  0.3712  0.7314
  668TMC3    C1 9933   2.805   3.046  14.681 -0.1539  0.0119 -0.2127
  668TMC3    C2 9934   2.891   3.146  14.640  0.5102  0.2405  0.1508
  668TMC3    C3 9935   2.955   3.223  14.732 -0.9032  0.0804 -0.5009
  668TMC3    C4 9936   2.771   3.036  14.816  0.5606 -0.8201 -0.8917
  668TMC3    C5 9937   2.825   3.121  14.901 -0.1747 -0.8352 -0.3884
  668TMC3    C6 9938   2.925   3.215  14.866  1.6888 -0.7114 -0.1695
  668TMC3     C 9939   2.767   2.951  14.578  0.8293  0.9992  0.2039
  668TMC3     O 9940   2.813   2.959  14.464 -0.0161 -0.5073  0.3488
  668TMC3     H 9941   2.935   3.147  14.541  1.6380 -0.1204  0.6516
  668TMC3    H1 9942   2.713   2.950  14.849 -0.9198  0.2074 -0.7934
  668TMC3    H2 9943   2.990   3.267  14.935 -0.7268 -1.7883  2.9176
  668TMC3    C7 9944   2.796   3.110  15.046 -0.3986  0.6223 -0.0523
  668TMC3    C8 9945   3.022   3.340  14.689 -0.8784  0.4045 -0.9732
  668TMC3    O1 9946   2.886   3.152  15.118 -0.0666 -0.3595 -0.5398
  668TMC3    O2 9947   3.015   3.439  14.762  0.2896 -0.2932  0.6921
  669TMC3    C1 9948   0.616   2.807  15.001  0.2569  0.0313  0.1165
  669TMC3    C2 9949   0.490   2.811  14.947  0.7348  0.6266  0.7277
  669TMC3    C3 9950   0.464   2.884  14.837 -0.4442  0.4706 -0.2210
  669TMC3    C4 9951   0.721   2.874  14.952  0.2865 -0.3647 -0.3861
  669TMC3    C5 9952   0.698   2.949  14.839  0.5450  0.5061 -0.4808
  669TMC3    C6 9953   0.571   2.948  14.779  0.2527 -0.3774  0.3335
  669TMC3     C 9954   0.621   2.735  15.126  0.0047 -0.4558  0.1794
  669TMC3     O 9955   0.513   2.709  15.178  0.2926  0.2301  0.9899
  669TMC3     H 9956   0.411   2.752  14.991  0.2907  0.7968  0.1536
  669TMC3    H1 9957   0.817   2.869  15.004  0.7624 -4.1104 -1.6545
  669TMC3    H2 9958   0.558   3.004  14.687  1.3627 -2.6120 -1.2083
  669TMC3    C7 9959   0.819   2.966  14.757  0.0010 -0.7313  0.2307
  669TMC3    C8 9960   0.340   2.876  14.758 -0.3785  0.2202  0.0262
  669TMC3    O1 9961   0.928   2.958  14.813 -0.4023  0.0221 -0.2252
  669TMC3    O2 9962   0.268   2.777  14.777 -0.3167 -0.0150 -0.0974
  670MPD2     C 9963   3.837   0.503  13.393 -0.0283 -0.0342 -0.6299
  670MPD2    C1 9964   3.943   0.523  13.484  0.4747  0.0105 -0.2769
  670MPD2    C2 9965   3.916   0.510  13.619 -0.1945 -0.2017  0.4237
  670MPD2    C3 9966   3.792   0.465  13.657 -0.5533  0.5296  0.5687
  670MPD2    C4 9967   3.692   0.432  13.562  0.2544  0.3080 -0.1960
  670MPD2    C5 9968   3.715   0.465  13.432  0.2984 -0.4945 -0.1155
  670MPD2     H 9969   3.990   0.531  13.696 -1.1715  0.4537  1.1970
  670MPD2    H1 9970   3.598   0.393  13.599 -0.2465 -0.2313 -2.0358
  670MPD2    H2 9971   3.857   0.518  13.287 -0.3617  0.9281 -0.5595
  670MPD2    H3 9972   3.635   0.439  13.363 -0.5528  1.8513 -0.0170
  670MPD2     N 9973   3.774   0.441  13.800  0.1128  0.0352  0.1701
  670MPD2    H5 9974   3.840   0.489  13.861  0.5001 -1.4932  0.9520
  670MPD2    N1 9975   4.071   0.572  13.451  0.1023 -0.7190 -0.2759
  670MPD2    H7 9976   4.144   0.572  13.522  3.7654 -3.2046 -4.0237
  671TMC3    C1 9977   3.665   0.358  13.989  0.3805  0.0370  0.1480
  671TMC3    C2 9978   3.769   0.395  14.072  0.2790 -0.3086  0.2565
  671TMC3    C3 9979   3.797   0.317  14.183  0.1858  0.0027 -0.9589
  671TMC3    C4 9980   3.578   0.264  14.025  0.0444  0.6071  0.7254
  671TMC3    C5 9981   3.610   0.185  14.132 -0.0953  0.0379  0.3093
  671TMC3    C6 9982   3.711   0.215  14.220 -0.0205 -0.1075 -0.8015
  671TMC3     C 9983   3.683   0.355  13.848 -0.9291  0.2627  0.4669
  671TMC3     O 9984   3.616   0.272  13.787 -0.0177 -0.6235 -0.4784
  671TMC3     H 9985   3.849   0.456  14.031 -0.8573  1.5186  0.7651
  671TMC3    H1 9986   3.489   0.239  13.970 -0.2919 -2.2213  2.5328
  671TMC3    H2 9987   3.729   0.151  14.305 -1.7173 -1.6874 -1.6389
  671TMC3    C7 9988   3.600   0.042  14.098  0.1805 -0.1759 -0.0075
  671TMC3    C8 9989   3.933   0.265  14.173  0.3613  0.6958 -0.5168
  671TMC3    O1 9990   3.614   4.701  14.193 -0.4346 -0.5691  0.7161
  671TMC3    O2 9991   3.994   0.281  14.069 -0.0881  0.6931  0.3398
  672MPD2     C 9992   3.973   1.092   0.273 -0.0209  1.0928  0.3085
  672MPD2    C1 9993   4.069   1.026   0.347  1.3825  0.5706 -0.0620
  672MPD2    C2 9994   4.197   1.075   0.343 -0.1209  0.5398 -0.6034
  672MPD2    C3 9995   4.221   1.189   0.270  0.1659 -0.1532  1.1486
  672MPD2    C4 9996   4.122   1.256   0.209 -0.6471  0.4980  0.2100
  672MPD2    C5 9997   3.993   1.207   0.207 -0.0679 -0.0812  0.2616
  672MPD2     H 9998   4.282   1.027   0.391  1.3544  0.6299 -3.0669
  672MPD2    H1 9999   4.148   1.353   0.168  1.3182 -0.8656 -1.7649
  672MPD2    H210000   3.871   1.056   0.273 -0.1971  1.5678 -1.1263
  672MPD2    H310001   3.915   1.263   0.156 -2.0174 -2.1536  0.9508
  672MPD2     N10002   4.344   1.258   0.268  0.1256  0.2616  0.5586
  672MPD2    H510003   4.347   1.345   0.216 -0.5738  1.9185  3.3025
  672MPD2    N110004   4.031   0.923   0.438  0.0307  0.2142 -0.7872
  672MPD2    H710005   3.930   0.911   0.439  0.1442 -0.7643  0.5689
  673TMC3    C110006   4.027   0.762   0.613  0.5358  0.0806 -0.8612
  673TMC3    C210007   4.102   0.692   0.707  0.2193 -0.2499 -0.3866
  673TMC3    C310008   4.040   0.653   0.827  0.1262  0.3595  0.0899
  673TMC3    C410009   3.897   0.792   0.637  1.0027  0.2639 -0.6437
  673TMC3    C510010   3.841   0.749   0.755 -0.3701  0.0883 -1.0068
  673TMC3    C610011   3.906   0.683   0.850  0.0172 -0.4041 -0.7031
  673TMC3     C10012   4.101   0.854   0.528  0.3574  0.6140  0.0175
  673TMC3     O10013   4.224   0.844   0.537 -0.4272  0.0692  0.2075
  673TMC3     H10014   4.197   0.650   0.679  0.7229 -0.9994  2.4006
  673TMC3    H110015   3.838   0.843   0.561  2.1862  3.5451  0.6473
  673TMC3    H210016   3.871   0.660   0.950  0.0667 -0.6214 -0.7368
  673TMC3    C710017   3.696   0.764   0.777 -0.1735 -0.1015 -0.6411
  673TMC3    C810018   4.114   0.558   0.909 -0.9053 -0.7662 -0.0969
  673TMC3    O110019   3.662   0.724   0.890 -0.0103 -0.2270  0.5346
  673TMC3    O210020   4.057   0.506   1.006  0.6056  0.1153 -0.4368
  674MPD2     C10021   3.327   0.941  17.634 -0.2865  1.3272 -0.2394
  674MPD2    C110022   3.403   0.865  17.714  0.1509 -0.1184 -0.0157
  674MPD2    C210023   3.351   0.810   0.095 -0.5534 -0.2363 -0.3794
  674MPD2    C310024   3.221   0.846   0.138  0.5282 -0.5711 -0.2655
  674MPD2    C410025   3.140   0.920   0.054 -0.1563 -0.1164  0.0448
  674MPD2    C510026   3.194   0.967  17.670 -0.3824 -0.4407 -0.2828
  674MPD2     H10027   3.411   0.752   0.164 -1.9536  2.4927  3.1400
  674MPD2    H110028   3.037   0.939   0.082 -0.1868  0.3366 -0.3652
  674MPD2    H210029   3.365   0.971  17.537  1.9023  0.3853  0.3225
  674MPD2    H310030   3.134   1.015  17.593  0.1304  0.6699  0.0145
  674MPD2     N10031   3.170   0.794   0.262 -0.1083  0.2985  0.1770
  674MPD2    H510032   3.209   0.711   0.305  0.0988  0.9201  1.2117
  674MPD2    N110033   3.542   0.848  17.685  0.4213  0.0080 -0.1674
  674MPD2    H710034   3.582   0.923  17.630  0.9739 -1.0902 -1.2663
  675TMC3    C110035   3.762   0.769  17.705 -0.9860 -0.0213  0.0377
  675TMC3    C210036   3.845   0.700   0.058 -0.5669  0.6311 -1.1637
  675TMC3    C310037   3.970   0.745   0.087  0.7062  0.0038  0.0526
  675TMC3    C410038   3.816   0.880  17.650 -0.6023  0.6702  0.1342
  675TMC3    C510039   3.944   0.922  17.676 -0.5164  0.6946  0.1847
  675TMC3    C610040   4.027   0.860   0.032 -0.8811 -0.0534 -0.2525
  675TMC3     C10041   3.622   0.744  17.730 -0.1317 -0.2661  0.2497
  675TMC3     O10042   3.592   0.644   0.062 -0.3667 -0.1677  0.0518
  675TMC3     H10043   3.801   0.625   0.122  1.3395  0.1438 -0.4022
  675TMC3    H110044   3.753   0.936  17.582 -0.5643  0.1706 -0.3082
  675TMC3    H210045   4.123   0.900   0.062 -1.0895  0.8110 -0.7181
  675TMC3    C710046   3.964   1.058  17.634 -0.3806  0.4521 -0.3055
  675TMC3    C810047   4.050   0.657   0.171 -0.2923  0.3993  0.0201
  675TMC3    O110048   3.865   1.127  17.620  0.2482  0.1471  0.1435
  675TMC3    O210049   4.172   0.666   0.159 -0.1033 -0.4148 -0.1977
  676MPD2     C10050   1.752   3.701  10.927 -0.0440  0.1068 -1.1199
  676MPD2    C110051   1.649   3.682  11.017  0.2131 -0.1294 -0.3604
  676MPD2    C210052   1.552   3.592  10.979  0.2055 -0.8433 -0.1553
  676MPD2    C310053   1.558   3.537  10.849 -0.7752 -0.7164  0.0604
  676MPD2    C410054   1.661   3.559  10.762 -0.4484 -0.4797  1.1910
  676MPD2    C510055   1.763   3.644  10.804 -0.2112  0.4678  0.7388
  676MPD2     H10056   1.468   3.579  11.046 -0.7435 -0.9959 -1.3910
  676MPD2    H110057   1.661   3.513  10.664 -0.5680 -1.2865  1.5756
  676MPD2    H210058   1.834   3.769  10.950  1.5460 -2.2388  0.1604
  676MPD2    H310059   1.846   3.676  10.742  0.4443  0.8589  1.8170
  676MPD2     N10060   1.473   3.437  10.810 -0.1199  0.0319 -0.8299
  676MPD2    H510061   1.478   3.418  10.711  0.4600  0.0335 -0.7970
  676MPD2    N110062   1.651   3.750  11.142 -0.1700  0.3371  0.0679
  676MPD2    H710063   1.565   3.748  11.196  1.4055  0.0997  2.5457
  677TMC3    C110064   1.726   3.865  11.333 -0.5707 -0.3790  0.2675
  677TMC3    C210065   1.648   3.790  11.414 -0.1000 -0.0715  0.0205
  677TMC3    C310066   1.665   3.796  11.547  0.7697  0.6638  0.0926
  677TMC3    C410067   1.826   3.946  11.380  0.8774 -0.4531  0.1589
  677TMC3    C510068   1.840   3.947  11.516  0.3281 -0.6319 -0.4314
  677TMC3    C610069   1.759   3.870  11.601 -0.4880 -0.4995  0.1982
  677TMC3     C10070   1.755   3.822  11.200 -0.6202  0.3402 -0.4318
  677TMC3     O10071   1.869   3.851  11.161  0.3706 -0.0449  0.0997
  677TMC3     H10072   1.576   3.718  11.377 -1.6988  1.0584  0.9385
  677TMC3    H110073   1.883   4.013  11.317  1.5328 -1.2278 -0.0847
  677TMC3    H210074   1.758   3.895  11.707  0.5982 -0.3897  0.1786
  677TMC3    C710075   1.887   4.071  11.575  0.4446 -0.1733 -0.1229
  677TMC3    C810076   1.565   3.746  11.637 -0.6193  0.2478  0.4227
  677TMC3    O110077   1.835   4.114  11.678 -0.1642  0.1107 -0.2210
  677TMC3    O210078   1.450   3.723  11.593 -0.0199 -0.0082 -0.7375
  678MPD2     C10079   2.505   3.887   1.426 -0.1444 -0.3200 -0.1650
  678MPD2    C110080   2.524   3.785   1.334 -0.8049  0.2527 -0.2572
  678MPD2    C210081   2.410   3.701   1.307  0.5160 -1.1042 -0.3233
  678MPD2    C310082   2.282   3.735   1.350 -0.1071 -0.6822 -0.4323
  678MPD2    C410083   2.278   3.835   1.442  0.4867 -0.0871  0.5632
  678MPD2    C510084   2.380   3.913   1.478  0.2525  0.2107  0.1251
  678MPD2     H10085   2.423   3.625   1.231 -0.0727 -2.8440  1.3204
  678MPD2    H110086   2.186   3.874   1.486  1.0300  0.9623  0.7743
  678MPD2    H210087   2.591   3.948   1.453  0.1307 -2.2181  3.2232
  678MPD2    H310088   2.367   3.998   1.544 -4.6142  2.1166 -3.2642
  678MPD2     N10089   2.172   3.668   1.294 -0.4829 -0.3409 -0.8436
  678MPD2    H510090   2.199   3.601   1.222 -0.8567 -0.7510 -0.6036
  678MPD2    N110091   2.654   3.765   1.287  0.1669  0.2663  0.5223
  678MPD2    H710092   2.723   3.824   1.332 -0.3507 -0.4078  2.1702
  679TMC3    C110093   3.016   3.510   1.138 -0.2498  0.2367  0.3533
  679TMC3    C210094   2.892   3.529   1.202 -0.2184  0.0478 -0.3565
  679TMC3    C310095   2.840   3.652   1.200 -0.2379  0.3647  0.0540
  679TMC3    C410096   3.088   3.618   1.100  0.6131  0.0203  0.6374
  679TMC3    C510097   3.030   3.745   1.112 -0.2821  0.3130 -0.4512
  679TMC3    C610098   2.909   3.761   1.161 -0.1666 -0.5311 -0.1612
  679TMC3     C10099   3.059   3.387   1.092  0.0931  0.2597  0.3674
  679TMC3     O10100   3.167   3.395   1.031  0.9139  0.1045  0.6458
  679TMC3     H10101   2.824   3.449   1.227  0.4075 -0.7486 -1.1786
  679TMC3    H110102   3.182   3.613   1.045  0.4766 -1.6926  0.5698
  679TMC3    H210103   2.846   3.846   1.137 -0.4059 -0.2395  1.4964
  679TMC3    C710104   3.106   3.859   1.052 -0.0007 -0.0771 -0.5543
  679TMC3    C810105   2.697   3.659   1.207 -0.3817 -0.2391  0.2360
  679TMC3    O110106   3.201   3.839   0.978 -0.0393 -0.0910  0.1027
  679TMC3    O210107   2.637   3.556   1.170  0.2709 -0.3640 -0.0363
  680MPD2     C10108   3.002   2.488  13.529 -0.1211 -0.7251 -0.2665
  680MPD2    C110109   3.103   2.402  13.575 -0.2805  0.6445 -0.1313
  680MPD2    C210110   3.213   2.459  13.646  0.1545 -0.0619  0.4400
  680MPD2    C310111   3.227   2.598  13.653 -0.0426 -0.0600 -0.4037
  680MPD2    C410112   3.118   2.673  13.618  0.3502 -0.9858  0.2786
  680MPD2    C510113   3.018   2.620  13.544 -0.5152  0.3860 -0.4415
  680MPD2     H10114   3.291   2.391  13.680  1.0231  1.2691  1.1266
  680MPD2    H110115   3.119   2.775  13.653  2.5129 -1.8383  2.6791
  680MPD2    H210116   2.924   2.445  13.467 -1.0521  1.0989 -0.3444
  680MPD2    H310117   2.937   2.686  13.517 -0.5093  0.4065 -0.4085
  680MPD2     N10118   3.342   2.663  13.706 -0.0136 -0.0665 -0.1017
  680MPD2    H510119   3.349   2.763  13.723  0.1632 -0.0777 -0.1106
  680MPD2    N110120   3.096   2.264  13.554 -0.5623 -0.1778  0.3341
  680MPD2    H710121   3.169   2.212  13.602  1.3253  1.6489 -0.6012
  681TMC3    C110122   3.034   2.054  13.476  0.1466 -0.0697 -0.1315
  681TMC3    C210123   3.070   1.983  13.587 -0.5389 -0.0570  0.0981
  681TMC3    C310124   3.056   1.849  13.593 -0.3963 -0.1452 -0.3784
  681TMC3    C410125   2.992   1.998  13.357  0.6209  0.6966  0.2160
  681TMC3    C510126   2.959   1.866  13.373 -0.1678 -0.1093  0.2588
  681TMC3    C610127   2.988   1.790  13.485  0.2212 -0.1509  0.1681
  681TMC3     C10128   2.998   2.197  13.480  0.4020  0.0349 -0.4018
  681TMC3     O10129   2.906   2.238  13.409  0.0074  0.0313 -0.2831
  681TMC3     H10130   3.082   2.042  13.677 -3.5638 -0.7445  0.9296
  681TMC3    H110131   2.960   2.059  13.273 -2.7797 -0.1091  0.9311
  681TMC3    H210132   2.960   1.685  13.490  1.0238 -0.4014 -0.5256
  681TMC3    C710133   2.905   1.800  13.258 -0.0458  0.1723 -0.3200
  681TMC3    C810134   3.102   1.776  13.708 -0.1323  0.5984  0.0470
  681TMC3    O110135   2.861   1.688  13.270 -0.4753  0.7032 -0.0247
  681TMC3    O210136   3.064   1.658  13.718 -0.4526  0.1704  0.3282
  682MPD2     C10137   0.626   4.069  10.515 -0.3654 -0.3066  0.9199
  682MPD2    C110138   0.538   3.978  10.573  0.0902  1.0194 -0.0541
  682MPD2    C210139   0.492   4.002  10.703 -0.7431 -0.0682 -0.1329
  682MPD2    C310140   0.539   4.112  10.768  0.3242 -0.1466 -0.1619
  682MPD2    C410141   0.630   4.206  10.712 -0.4921  0.1453  0.7652
  682MPD2    C510142   0.669   4.183  10.585  0.0733 -0.2663  0.3237
  682MPD2     H10143   0.427   3.934  10.756 -1.0214 -0.1573 -0.5886
  682MPD2    H110144   0.673   4.286  10.771  0.6462 -1.3980  2.0106
  682MPD2    H210145   0.672   4.055  10.417  0.8126  0.8723  1.2999
  682MPD2    H310146   0.735   4.255  10.540  1.7953 -0.0176  3.2950
  682MPD2     N10147   0.495   4.144  10.901 -0.6468  0.6237  0.6181
  682MPD2    H510148   0.536   4.224  10.949  0.4211  1.2247 -1.2744
  682MPD2    N110149   0.505   3.852  10.511  0.0964 -0.2702  0.2895
  682MPD2    H710150   0.434   3.796  10.558  1.1754  1.3350  3.8626
  683TMC3    C110151   0.432   4.248  11.308 -0.4237  0.2389  0.2972
  683TMC3    C210152   0.319   4.209  11.370  0.1894  0.0486  0.1008
  683TMC3    C310153   0.228   4.148  11.296 -0.2236  0.2680  0.3618
  683TMC3    C410154   0.469   4.197  11.182 -0.4364  0.2336  0.0221
  683TMC3    C510155   0.370   4.151  11.102  0.3863 -0.1132  0.6770
  683TMC3    C610156   0.249   4.123  11.160 -0.3167  0.2198  0.0228
  683TMC3     C10157   0.534   4.308  11.389  0.2805  0.3642  0.0708
  683TMC3     O10158   0.622   4.366  11.332  0.5580 -0.6069  0.2080
  683TMC3     H10159   0.297   4.243  11.470  1.3291  2.2027 -0.3976
  683TMC3    H110160   0.566   4.205  11.136 -0.2594  1.6627  0.6311
  683TMC3    H210161   0.176   4.069  11.103  0.6873 -0.1090 -0.9450
  683TMC3    C710162   0.399   4.082  10.977 -0.8790  0.0703  0.2604
  683TMC3    C810163   0.109   4.088  11.366  0.6334 -0.0800  0.8889
  683TMC3    O110164   0.321   3.996  10.945  0.2492 -0.7054  0.7085
  683TMC3    O210165   0.074   4.140  11.469 -0.0271  0.6659  0.2067
  684MPD2     C10166   3.702   2.809  16.592  0.7329  1.0393  0.1595
  684MPD2    C110167   3.638   2.892  16.501 -1.1926  0.2809  0.1138
  684MPD2    C210168   3.627   3.024  16.534 -0.1105  0.1786 -0.5956
  684MPD2    C310169   3.691   3.083  16.644  0.2313  0.3253 -1.0046
  684MPD2    C410170   3.765   3.001  16.725  0.6414  0.0491 -0.3323
  684MPD2    C510171   3.767   2.866  16.700  0.0378 -0.3721  0.7324
  684MPD2     H10172   3.582   3.089  16.460  0.0616 -1.2583 -1.9744
  684MPD2    H110173   3.821   3.050  16.803  1.4224  0.0058 -0.8733
  684MPD2    H210174   3.701   2.702  16.581 -0.7146  1.1698 -0.9125
  684MPD2    H310175   3.824   2.798  16.763  0.4485 -0.2256  0.5172
  684MPD2     N10176   3.695   3.225  16.671 -0.0474  0.1014 -0.5771
  684MPD2    H510177   3.760   3.246  16.746 -0.5693 -3.2011  0.7778
  684MPD2    N110178   3.579   2.855  16.375  0.4992 -0.0377  0.1921
  684MPD2    H710179   3.540   2.930  16.318 -0.1974  0.4308  1.2900
  685TMC3    C110180   3.567   2.716  16.177 -0.0117  0.1415  0.1638
  685TMC3    C210181   3.492   2.815  16.121 -0.3490  0.1263 -0.6148
  685TMC3    C310182   3.516   2.841  15.989  0.3103  0.2042  0.6103
  685TMC3    C410183   3.655   2.636  16.109 -0.4126  0.4321  0.0601
  685TMC3    C510184   3.691   2.677  15.983  0.7801 -0.4043 -0.7505
  685TMC3    C610185   3.624   2.778  15.921 -0.0651  0.7697 -0.6421
  685TMC3     C10186   3.602   2.727  16.322  0.1894  0.4087  0.1633
  685TMC3     O10187   3.659   2.629  16.374 -0.0291  0.7432  0.9296
  685TMC3     H10188   3.407   2.860  16.171 -0.1446  0.3142 -0.4360
  685TMC3    H110189   3.725   2.564  16.150 -2.4800 -1.8567 -0.4051
  685TMC3    H210190   3.665   2.807  15.825  2.1973  1.9883  0.6962
  685TMC3    C710191   3.838   2.693  15.979  0.2501  0.8435  0.6807
  685TMC3    C810192   3.456   2.947  15.911  0.6584  0.2369 -0.2157
  685TMC3    O110193   3.905   2.592  15.995 -0.1521 -0.1580 -0.2128
  685TMC3    O210194   3.486   2.946  15.794  0.2137 -0.3958  0.0167
  686MPD2     C10195   0.474   3.221  15.861  1.1982  0.0896 -0.0446
  686MPD2    C110196   0.473   3.123  15.952  0.4019 -0.1170  0.5624
  686MPD2    C210197   0.580   3.031  15.957  0.0869 -0.6925  0.5000
  686MPD2    C310198   0.690   3.044  15.867  0.0281 -0.7268 -0.3401
  686MPD2    C410199   0.691   3.154  15.786  0.1148 -0.4492 -0.0998
  686MPD2    C510200   0.584   3.242  15.788 -0.7385  0.4427  0.1814
  686MPD2     H10201   0.582   2.955  16.034  1.8099  0.4083  1.5606
  686MPD2    H110202   0.761   3.176  15.706 -1.2027  1.7551 -0.6559
  686MPD2    H210203   0.390   3.289  15.851  2.6482  1.7355 -1.1197
  686MPD2    H310204   0.588   3.325  15.718 -2.0602 -2.1234 -2.9578
  686MPD2     N10205   0.808   2.959  15.850 -0.2349  0.0384 -0.7561
  686MPD2    H510206   0.879   2.992  15.785  0.4192  0.7357  0.3141
  686MPD2    N110207   0.353   3.107  16.024 -0.0534 -0.2797  0.1539
  686MPD2    H710208   0.277   3.166  15.989 -1.6764 -2.2571  0.3529
  687TMC3    C110209   0.750   2.769  15.986  0.0657 -0.1036 -0.1906
  687TMC3    C210210   0.627   2.724  15.953  0.2299 -0.1860 -0.0118
  687TMC3    C310211   0.543   2.661  16.049 -0.5146 -0.3560  0.1280
  687TMC3    C410212   0.803   2.731  16.107 -0.2461 -0.0623  0.1851
  687TMC3    C510213   0.721   2.686  16.207  0.0733  0.5430  0.5613
  687TMC3    C610214   0.588   2.662  16.174 -0.8255  0.1983  0.0762
  687TMC3     C10215   0.836   2.829  15.892 -0.9402  0.0944 -0.1856
  687TMC3     O10216   0.943   2.767  15.872 -0.5844 -0.7273  0.7278
  687TMC3     H10217   0.593   2.725  15.850  1.5095  2.3245 -0.3858
  687TMC3    H110218   0.888   2.793  16.133 -0.5577  0.3210  0.2928
  687TMC3    H210219   0.526   2.624  16.255 -1.0238  1.8497  0.7002
  687TMC3    C710220   0.750   2.767  16.322  0.3594 -0.2608 -0.3140
  687TMC3    C810221   0.403   2.641  16.019 -0.2621  0.8499  1.1341
  687TMC3    O110222   0.664   2.841  16.364  0.0630 -0.4375  0.0177
  687TMC3    O210223   0.339   2.559  16.084  0.0714  0.4637  0.2571
  688MPD2     C10224   3.968   1.778  17.084  0.1535  0.1321  0.0744
  688MPD2    C110225   3.997   1.652  17.120 -0.0007  0.3738  0.4438
  688MPD2    C210226   4.124   1.604  17.083 -0.4211 -0.3929 -0.4290
  688MPD2    C310227   4.215   1.681  17.024 -0.2031  0.2524 -0.2531
  688MPD2    C410228   4.184   1.815  16.990 -0.9498  0.1674  0.0265
  688MPD2    C510229   4.056   1.857  17.016  0.0942  0.0795  0.1569
  688MPD2     H10230   4.140   1.496  17.088  2.6534  0.0428 -0.8711
  688MPD2    H110231   4.259   1.880  16.946 -0.6372 -0.0708  0.2079
  688MPD2    H210232   3.871   1.819  17.108  1.1977  1.6833  1.6016
  688MPD2    H310233   4.021   1.954  16.983 -2.1252 -1.1292 -1.0465
  688MPD2     N10234   4.345   1.646  17.006 -0.4639 -0.0208  0.8499
  688MPD2    H510235   4.404   1.723  16.973 -2.2841  0.5875 -0.9890
  688MPD2    N110236   3.915   1.572  17.206  0.3096  0.7681  0.3237
  688MPD2    H710237   3.949   1.478  17.222  1.5325  0.6967 -2.7698
  689TMC3    C110238   3.760   1.529  17.383  0.0463 -0.1280 -0.2712
  689TMC3    C210239   3.721   1.600  17.490 -0.2545 -0.0599  0.6418
  689TMC3    C310240   3.652   1.524  17.589 -0.8818  0.1763 -0.1135
  689TMC3    C410241   3.730   1.400  17.356  0.5770 -0.1846 -0.4917
  689TMC3    C510242   3.665   1.337  17.456 -0.1480 -0.1943 -0.0590
  689TMC3    C610243   3.616   1.399  17.567  0.7588 -0.2409  0.9887
  689TMC3     C10244   3.802   1.620  17.277  0.5635  0.3248  0.4873
  689TMC3     O10245   3.753   1.734  17.267  0.0301 -0.0823  0.0905
  689TMC3     H10246   3.732   1.708  17.498 -0.0397 -0.0679  0.4491
  689TMC3    H110247   3.752   1.348  17.264 -1.1203 -1.2935 -0.2790
  689TMC3    H210248   3.563   1.339  17.639 -0.7490  2.6869  2.2903
  689TMC3    C710249   3.620   1.199  17.436  0.3927 -0.3137 -0.4958
  689TMC3    C810250   3.657   1.594  17.717 -0.1291 -0.6370 -0.5212
  689TMC3    O110251   3.584   1.131  17.531 -0.2394  0.5995 -0.6487
  689TMC3    O210252   3.738   1.685  17.728  0.0549 -0.1604 -0.2391
  690MPD2     C10253   1.447   3.780  15.752 -0.0128 -0.2468 -0.2967
  690MPD2    C110254   1.549   3.687  15.741 -0.4706 -0.2024  0.5517
  690MPD2    C210255   1.654   3.702  15.653 -0.6127 -1.2750 -0.4996
  690MPD2    C310256   1.660   3.811  15.566  0.6343  0.1555 -0.2183
  690MPD2    C410257   1.553   3.893  15.561 -0.2339 -0.5109 -0.1384
  690MPD2    C510258   1.451   3.883  15.659  0.0476  0.8812  0.2921
  690MPD2     H10259   1.725   3.619  15.648 -0.8956 -1.5231 -0.4101
  690MPD2    H110260   1.535   3.968  15.484 -2.5392  0.7557  1.6201
  690MPD2    H210261   1.367   3.787  15.824 -2.4357 -0.2856 -2.9794
  690MPD2    H310262   1.378   3.963  15.671  0.0986  1.0883 -0.7456
  690MPD2     N10263   1.763   3.811  15.466 -0.2310 -0.6533 -0.0506
  690MPD2    H510264   1.849   3.759  15.479 -0.0265  0.0812  1.4512
  690MPD2    N110265   1.557   3.580  15.831  0.4854  0.2736  0.0617
  690MPD2    H710266   1.644   3.528  15.829 -1.1827 -2.6309  1.2531
  691TMC3    C110267   1.499   3.431  16.005 -0.9222  0.2058  0.0133
  691TMC3    C210268   1.407   3.407  16.106 -0.1633 -0.1730  0.3710
  691TMC3    C310269   1.369   3.283  16.137 -0.0207 -0.2098 -0.8013
  691TMC3    C410270   1.556   3.328  15.938 -0.4916 -0.1151  0.7802
  691TMC3    C510271   1.516   3.202  15.976  0.7500 -1.2212 -0.2016
  691TMC3    C610272   1.428   3.176  16.079  0.5611  0.1629 -0.0979
  691TMC3     C10273   1.459   3.548  15.927  0.0861  0.0681  0.1979
  691TMC3     O10274   1.353   3.594  15.955 -0.0592 -0.5407  0.4001
  691TMC3     H10275   1.368   3.489  16.164  0.0089  0.5623 -0.5449
  691TMC3    H110276   1.630   3.329  15.859 -1.4386 -0.9703 -0.1228
  691TMC3    H210277   1.389   3.077  16.097 -0.3794  0.1050 -2.4051
  691TMC3    C710278   1.558   3.090  15.894  0.0940 -0.4269  0.1875
  691TMC3    C810279   1.222   3.260  16.164  0.4460 -0.0428 -0.0167
  691TMC3    O110280   1.664   3.090  15.844  0.2981  0.1703 -0.0547
  691TMC3    O210281   1.186   3.150  16.196  0.1718  0.7077 -1.0528
  692TMC3    C110282   3.491   4.353  15.663  0.1901  0.1640 -0.9926
  692TMC3    C210283   3.530   4.418  15.775 -0.4722 -1.1630  0.0784
  692TMC3    C310284   3.530   4.346  15.895  0.0365 -0.4932  0.1075
  692TMC3    C410285   3.459   4.217  15.672 -0.3274 -0.6564 -0.0792
  692TMC3    C510286   3.447   4.153  15.787  1.3654  0.1282  0.7207
  692TMC3    C610287   3.496   4.211  15.902  0.3709 -0.8844 -0.2053
  692TMC3     C10288   3.384   4.435  15.622 -0.4514  0.1332  0.5345
  692TMC3     O10289   3.359   4.516  15.708  0.0133  0.5317 -0.0627
  692TMC3     H10290   3.600   4.500  15.769 -1.4372 -0.4204 -1.1109
  692TMC3    H110291   3.425   4.162  15.585 -0.5793 -1.4849  0.5555
  692TMC3    H210292   3.470   4.168  15.998 -0.6294  1.0382  0.3764
  692TMC3    C710293   3.428   4.010  15.782  0.7571 -0.0529  0.6333
  692TMC3    C810294   3.502   4.420  16.015 -0.2333  0.5511  0.6278
  692TMC3    O110295   3.375   3.955  15.685 -0.3912 -0.4373  0.0654
  692TMC3    O210296   3.512   4.356  16.120  0.3430  0.4168  0.2219
  693MPD2     C10297   1.917   3.036  11.225  0.5127 -0.6478 -0.1895
  693MPD2    C110298   1.930   2.920  11.148  0.3639 -0.2195  0.1760
  693MPD2    C210299   2.059   2.882  11.115  0.0817 -0.2247 -0.0657
  693MPD2    C310300   2.168   2.961  11.157 -0.5426  0.3328  0.1540
  693MPD2    C410301   2.142   3.079  11.226  0.9758  0.1014  0.2567
  693MPD2    C510302   2.017   3.118  11.254  0.5011  0.5936  0.3380
  693MPD2     H10303   2.062   2.790  11.057 -1.3841  0.6223 -1.5034
  693MPD2    H110304   2.221   3.134  11.276  1.2602 -0.2107  0.1468
  693MPD2    H210305   1.820   3.083  11.238  1.0091  0.1540  0.6094
  693MPD2    H310306   2.001   3.215  11.300 -3.4501 -0.2471  0.7572
  693MPD2     N10307   2.305   2.921  11.138  0.0969 -0.0500 -0.4207
  693MPD2    H510308   2.375   2.977  11.185 -0.3999 -2.0445  2.7381
  693MPD2    N110309   1.812   2.855  11.114 -0.4047 -0.1071  0.3229
  693MPD2    H710310   1.721   2.886  11.145 -0.6259  0.8811 -1.3088
  694TMC3    C110311   1.669   2.695  11.025 -0.7936 -0.2239 -0.6494
  694TMC3    C210312   1.632   2.627  10.903  1.0389  0.1663  0.2433
  694TMC3    C310313   1.533   2.531  10.900  0.9257  0.0360  0.3598
  694TMC3    C410314   1.610   2.656  11.139 -0.5729  0.4147  0.0527
  694TMC3    C510315   1.515   2.557  11.131 -0.0140  0.4369 -0.4827
  694TMC3    C610316   1.469   2.490  11.019 -0.3905 -0.0612  0.0633
  694TMC3     C10317   1.808   2.741  11.031  0.1809  0.3501 -0.3569
  694TMC3     O10318   1.889   2.688  10.952 -0.0128 -0.1867 -0.3043
  694TMC3     H10319   1.705   2.628  10.822  0.4587 -1.7862 -0.2760
  694TMC3    H110320   1.656   2.686  11.232  1.1936 -2.1425 -0.0031
  694TMC3    H210321   1.396   2.410  11.016  0.7076 -1.0629 -0.1609
  694TMC3    C710322   1.468   2.516  11.260 -0.2715  0.7098 -0.2025
  694TMC3    C810323   1.494   2.461  10.781 -0.9970  0.4512  0.5366
  694TMC3    O110324   1.461   2.606  11.345  0.2796 -0.2946  0.6856
  694TMC3    O210325   1.442   2.354  10.804 -0.0221 -0.4594  0.1220
  695MPD2     C10326   4.489   4.717  13.297 -0.1241 -0.1342 -0.2592
  695MPD2    C110327   4.414   4.664  13.397 -0.5339 -0.3676  0.1819
  695MPD2    C210328   4.278   4.628  13.379  0.3981  0.4274 -0.2802
  695MPD2    C310329   4.218   4.641  13.254  0.6224 -0.1686 -0.0280
  695MPD2    C410330   4.294   4.700  13.149  0.4947 -0.1390 -0.4555
  695MPD2    C510331   4.427   4.729  13.172  0.3738  0.1580  0.5453
  695MPD2     H10332   4.229   4.573  13.459 -0.4710  1.7765  0.1085
  695MPD2    H110333   4.256   4.731  13.052 -1.9449 -2.5913 -0.2834
  695MPD2    H210334   4.588   0.024  13.311 -0.0958  0.2120 -1.5153
  695MPD2    H310335   4.470   0.050  13.088 -0.7930 -2.2292 -1.6094
  695MPD2     N10336   4.084   4.591  13.237 -0.2144 -0.2723  0.8535
  695MPD2    H510337   4.035   4.565  13.321  1.0185 -1.3451  1.2359
  695MPD2    N110338   4.462   4.657  13.531 -0.1172  0.4003 -0.1837
  695MPD2    H710339   4.397   4.620  13.600  0.7320 -1.1422 -0.1996
  696TMC3    C110340   3.880   4.541  13.146  0.4148  0.0416 -0.0038
  696TMC3    C210341   3.853   4.490  13.273 -0.5143 -0.1536 -0.8553
  696TMC3    C310342   3.737   4.520  13.328 -0.3391 -0.2235 -0.1407
  696TMC3    C410343   3.794   4.629  13.088 -0.6291  1.1382 -0.0225
  696TMC3    C510344   3.687   4.664  13.155  0.4999 -0.0995 -0.8180
  696TMC3    C610345   3.652   4.609  13.279 -0.0080  1.0209 -0.0840
  696TMC3     C10346   4.011   4.594  13.122 -0.7016 -0.3683  0.9197
  696TMC3     O10347   4.044   4.628  13.007 -0.1409  0.0859  0.1938
  696TMC3     H10348   3.913   4.413  13.322 -1.1133  0.4504  0.8256
  696TMC3    H110349   3.817   4.675  12.992  2.7611  1.9152  1.1788
  696TMC3    H210350   3.566   4.638  13.338  0.0365  0.1420  0.4023
  696TMC3    C710351   3.603   0.042  13.111  0.0405 -0.1989  0.0635
  696TMC3    C810352   3.709   4.470  13.461  0.1397  0.4883  0.9550
  696TMC3    O110353   3.604   0.070  12.991 -0.3364 -0.3254  0.5166
  696TMC3    O210354   3.753   4.359  13.482 -0.0431 -0.5368  0.2051
  697MPD2     C10355   2.873   1.593  15.529 -0.3735  0.4965  0.5387
  697MPD2    C110356   2.942   1.571  15.415  0.2432 -0.7522  0.4835
  697MPD2    C210357   2.939   1.660  15.309 -0.2125  0.1703 -0.4570
  697MPD2    C310358   2.867   1.774  15.325  0.5204 -0.3247  0.2996
  697MPD2    C410359   2.799   1.800  15.443  0.0052  0.3267  0.5065
  697MPD2    C510360   2.798   1.705  15.542 -0.1598 -0.4983 -0.5051
  697MPD2     H10361   3.001   1.639  15.222 -2.0714 -1.0592 -1.4646
  697MPD2    H110362   2.758   1.893  15.480 -0.6762  1.6059 -3.4272
  697MPD2    H210363   2.866   1.526  15.613  0.5409 -4.2323 -3.1979
  697MPD2    H310364   2.736   1.721  15.629 -1.3387 -3.1622 -0.8482
  697MPD2     N10365   2.868   1.869  15.218 -0.1604 -0.0753  0.3008
  697MPD2    H510366   2.915   1.848  15.130 -0.0439 -1.7883  0.7706
  697MPD2    N110367   3.003   1.447  15.383 -0.2219  0.7421  0.2354
  697MPD2    H710368   3.022   1.443  15.283  0.2551  1.7982  0.2823
  698TMC3    C110369   2.879   2.074  15.118 -0.1229  0.0905 -0.0308
  698TMC3    C210370   2.918   2.200  15.137  0.4622  0.5278  0.6843
  698TMC3    C310371   3.008   2.262  15.058  0.0201  0.1907 -0.1284
  698TMC3    C410372   2.927   2.003  15.010 -0.3693 -0.0971  0.5361
  698TMC3    C510373   3.021   2.066  14.925 -0.4908  0.8312  0.1313
  698TMC3    C610374   3.052   2.197  14.945 -0.7432 -0.4030 -0.0572
  698TMC3     C10375   2.832   2.000  15.230  0.1219 -0.0194  0.6620
  698TMC3     O10376   2.782   2.054  15.328 -0.2567  0.4511 -0.4851
  698TMC3     H10377   2.885   2.255  15.224 -1.3165  1.9756 -0.9059
  698TMC3    H110378   2.898   1.904  14.978 -0.9025 -0.1901  1.2939
  698TMC3    H210379   3.122   2.240  14.873  1.5163  3.0412  4.1546
  698TMC3    C710380   3.027   2.014  14.794 -0.9385 -0.1209  0.9625
  698TMC3    C810381   3.067   2.386  15.112  0.1758  0.5287  0.7156
  698TMC3    O110382   2.923   1.967  14.742  0.3179  0.0976  0.0659
  698TMC3    O210383   3.013   2.453  15.196 -0.1193  0.5533  0.0751
  699TMC3    C110384   3.035   0.166  13.172  0.0544 -0.3271 -0.0561
  699TMC3    C210385   3.120   0.065  13.213 -0.1089 -0.2260  0.1143
  699TMC3    C310386   3.145   0.067  13.352 -0.1919 -0.2723  0.1588
  699TMC3    C410387   2.978   0.261  13.257  0.5505  0.4248 -0.0905
  699TMC3    C510388   3.003   0.252  13.394 -0.2229  0.3960 -0.5791
  699TMC3    C610389   3.093   0.158  13.438 -0.1828  0.3400  0.7242
  699TMC3     C10390   3.023   0.196  13.029 -0.8617  0.0120 -0.9240
  699TMC3     O10391   2.962   0.297  13.007  0.0953 -0.0644 -0.0764
  699TMC3     H10392   3.147   4.720  13.143  1.0801  0.5019 -0.2424
  699TMC3    H110393   2.899   0.325  13.221  0.6784  0.3594 -0.4841
  699TMC3    H210394   3.105   0.140  13.544  2.8037  3.3915  0.9144
  699TMC3    C710395   2.900   0.293  13.487 -0.0838 -0.5115 -0.2147
  699TMC3    C810396   3.188   4.675  13.414  0.4254  0.3362 -0.2618
  699TMC3    O110397   2.933   0.292  13.606 -0.1636  0.0662  0.0208
  699TMC3    O210398   3.179   4.663  13.536  0.1972 -0.0401 -0.1306
  700TMC3    C110399   2.247   2.196  16.868  0.4970  0.4818  0.2930
  700TMC3    C210400   2.292   2.079  16.820  0.1137 -0.5733 -0.6031
  700TMC3    C310401   2.378   2.006  16.895 -0.5856  0.4505 -0.7799
  700TMC3    C410402   2.288   2.242  16.990  0.0332 -0.4535 -0.9747
  700TMC3    C510403   2.366   2.162  17.067 -0.2469 -0.4611 -0.3266
  700TMC3    C610404   2.406   2.038  17.024 -0.1052 -0.2203 -0.0608
  700TMC3     C10405   2.165   2.283  16.783  0.2291  0.0638 -0.1493
  700TMC3     O10406   2.052   2.247  16.764 -0.1433  0.8160 -0.0930
  700TMC3     H10407   2.265   2.053  16.718 -0.2676 -1.3741 -0.2991
  700TMC3    H110408   2.253   2.336  17.032 -0.3756 -0.9797 -0.1312
  700TMC3    H210409   2.475   1.971  17.074  0.0947 -0.2883 -0.4293
  700TMC3    C710410   2.420   2.220  17.188 -0.1555 -0.3803 -0.5711
  700TMC3    C810411   2.467   1.913  16.825 -1.0463  0.7081  0.5859
  700TMC3    O110412   2.384   2.333  17.220 -0.6414 -0.2298 -0.5686
  700TMC3    O210413   2.476   1.932  16.705  0.2073  0.4333  0.2137
  701TMC3    C110414   2.513   1.087  15.685  0.1198 -0.2644  0.8718
  701TMC3    C210415   2.579   1.047  15.574 -0.3359 -0.3902  0.4796
  701TMC3    C310416   2.635   1.145  15.495 -0.6431 -0.0693 -0.3930
  701TMC3    C410417   2.530   1.219  15.735  0.3985 -0.7153  0.1124
  701TMC3    C510418   2.594   1.313  15.655 -0.2647  0.2294  0.0444
  701TMC3    C610419   2.647   1.274  15.536 -0.2589  0.0368  0.3663
  701TMC3     C10420   2.404   1.006  15.751 -0.0520 -0.4752 -0.4736
  701TMC3     O10421   2.361   1.039  15.863 -0.0533 -0.2620 -0.8088
  701TMC3     H10422   2.589   0.942  15.548 -1.7505 -0.9424  2.1084
  701TMC3    H110423   2.478   1.250  15.825 -0.5239 -0.1842 -0.5982
  701TMC3    H210424   2.686   1.357  15.478 -1.6971  1.3532  1.2855
  701TMC3    C710425   2.560   1.450  15.674 -0.3879  0.2314  0.2599
  701TMC3    C810426   2.684   1.118  15.357  0.0317  0.0817  0.3334
  701TMC3    O110427   2.530   1.511  15.575 -0.2018 -0.0880  0.0077
  701TMC3    O210428   2.769   1.192  15.307 -0.7291 -0.1718 -0.7905
  702MPD2     C10429   1.169   2.838  10.274  0.2742 -0.1310 -0.1396
  702MPD2    C110430   1.241   2.954  10.295 -0.2335  0.4943 -0.3773
  702MPD2    C210431   1.294   3.033  10.196  0.8268 -1.0002  0.1224
  702MPD2    C310432   1.256   3.001  10.070 -0.9384 -0.4489 -0.8448
  702MPD2    C410433   1.189   2.882  10.039  0.1354  0.1227 -0.5832
  702MPD2    C510434   1.155   2.798  10.144  0.4165 -0.7946 -0.0859
  702MPD2     H10435   1.349   3.122  10.223 -1.6050  0.4434  0.2871
  702MPD2    H110436   1.166   2.852   9.937 -0.3206 -0.1729 -0.3943
  702MPD2    H210437   1.130   2.781  10.358  3.0750 -1.6469  0.1313
  702MPD2    H310438   1.096   2.711  10.117 -2.5344  0.7711  1.2305
  702MPD2     N10439   1.278   3.080   9.952  0.0388  0.2004 -0.4043
  702MPD2    H510440   1.260   3.028   9.867 -1.9260  0.0316  0.0986
  702MPD2    N110441   1.238   2.998  10.430 -0.3275  0.5079  0.4880
  702MPD2    H710442   1.180   2.944  10.493 -0.4575 -0.3421 -0.3617
  703TMC3    C110443   1.254   3.293  10.059  1.0430  0.3972 -0.2919
  703TMC3    C210444   1.140   3.275  10.123  0.4242 -0.2550  0.6817
  703TMC3    C310445   1.123   3.348  10.242 -0.2241 -0.3986  0.8603
  703TMC3    C410446   1.329   3.406  10.083 -0.3663 -0.2417 -0.2829
  703TMC3    C510447   1.298   3.485  10.187  0.3914  0.7806  0.4840
  703TMC3    C610448   1.195   3.463  10.272  0.1555  0.5627 -0.1445
  703TMC3     C10449   1.298   3.216   9.940 -0.5527  0.4432  0.1532
  703TMC3     O10450   1.314   3.283   9.839 -0.3741  0.2113  0.7086
  703TMC3     H10451   1.067   3.196  10.104  1.0138 -0.5499 -0.3536
  703TMC3    H110452   1.417   3.423  10.022 -0.4066 -2.4318 -0.9662
  703TMC3    H210453   1.181   3.526  10.360 -1.1999 -2.1286  1.5730
  703TMC3    C710454   1.414   3.550  10.244  0.1657 -0.1113  0.1915
  703TMC3    C810455   1.000   3.319  10.316  0.0949 -0.3373  0.0596
  703TMC3    O110456   1.523   3.509  10.204  0.0964 -0.3583 -0.2463
  703TMC3    O210457   0.961   3.204  10.314 -0.0795 -0.2218 -0.3081
  704TMC3    C110458   3.509   1.677  11.928  0.0887 -0.1218  0.3324
  704TMC3    C210459   3.516   1.766  12.027 -0.3203 -0.3235  0.0431
  704TMC3    C310460   3.555   1.713  12.142  0.4650  0.2452 -0.1974
  704TMC3    C410461   3.521   1.536  11.943 -0.5066  0.0785 -0.4276
  704TMC3    C510462   3.545   1.489  12.072  0.1323 -0.5771 -0.6664
  704TMC3    C610463   3.577   1.581  12.167 -0.1531 -0.3887 -0.1493
  704TMC3     C10464   3.446   1.713  11.804 -0.0150  0.0114 -0.1317
  704TMC3     O10465   3.368   1.629  11.756  0.2188  0.7220  0.4235
  704TMC3     H10466   3.463   1.860  12.025  1.0617  0.4632  0.6711
  704TMC3    H110467   3.523   1.485  11.847 -0.2706 -2.6876  1.0416
  704TMC3    H210468   3.621   1.554  12.263  0.3613 -0.0017 -0.2808
  704TMC3    C710469   3.627   1.370  12.081 -0.4710 -0.7590  0.7065
  704TMC3    C810470   3.598   1.798  12.244  0.1571  0.3313  0.4884
  704TMC3    O110471   3.710   1.370  12.172 -0.1340  0.0044  0.5678
  704TMC3    O210472   3.700   1.858  12.220  0.5063  0.4569 -0.7906
  705MPD2     C10473   3.757   4.191  16.764 -0.6194  0.3104  0.0627
  705MPD2    C110474   3.677   4.268  16.673 -0.0542  0.4221 -0.3855
  705MPD2    C210475   3.550   4.306  16.705 -0.2616  0.2222  0.5459
  705MPD2    C310476   3.489   4.257  16.821 -0.0906  0.0748  0.0293
  705MPD2    C410477   3.562   4.178  16.908  0.6482 -0.6350  0.6763
  705MPD2    C510478   3.691   4.144  16.874 -0.0106 -0.2590 -0.9066
  705MPD2     H10479   3.501   4.376  16.639  1.6668  1.1091  0.0350
  705MPD2    H110480   3.513   4.158  17.003  1.5368  0.3567  1.3396
  705MPD2    H210481   3.864   4.181  16.752 -0.6020  0.2578  0.2569
  705MPD2    H310482   3.749   4.097  16.953 -1.0952 -0.5369 -0.2643
  705MPD2     N10483   3.365   4.299  16.867  0.4785  0.5801 -0.8733
  705MPD2    H510484   3.322   4.275  16.955  0.8357  1.3697 -0.4887
  705MPD2    N110485   3.725   4.309  16.546 -0.0981  0.1752 -0.3668
  705MPD2    H710486   3.664   4.355  16.480 -0.1707 -0.0054 -0.4262
  706TMC3    C110487   4.018   4.341  16.183 -0.9140  0.4908 -0.8433
  706TMC3    C210488   3.972   4.467  16.160  0.1031  0.4755 -0.4587
  706TMC3    C310489   3.869   4.524  16.235 -0.5348  0.1343 -0.4201
  706TMC3    C410490   3.967   4.276  16.293 -0.7656  0.8269  1.3094
  706TMC3    C510491   3.875   4.344  16.372 -0.4492 -0.2805 -0.3381
  706TMC3    C610492   3.812   4.462  16.338  0.6549 -0.2052 -0.3799
  706TMC3     C10493   4.130   4.283  16.117 -0.7719  0.3815  0.7423
  706TMC3     O10494   4.202   4.226  16.201  0.1804  0.4056  0.2178
  706TMC3     H10495   4.007   4.522  16.073  3.9747 -0.4923  0.4685
  706TMC3    H110496   3.998   4.174  16.309 -0.9305  0.6691  0.6104
  706TMC3    H210497   3.745   4.513  16.405 -0.1146 -0.5942 -0.8474
  706TMC3    C710498   3.835   4.263  16.490 -0.1848  0.0835  0.8168
  706TMC3    C810499   3.864   4.661  16.211  0.0617  0.7837  0.1209
  706TMC3    O110500   3.912   4.170  16.520  0.1616 -0.7766  0.2190
  706TMC3    O210501   3.840   4.701  16.096  0.7029  0.1748  0.0535
  707TMC3    C110502   4.315   3.174   1.047 -0.1135 -0.0340 -0.8054
  707TMC3    C210503   4.358   3.052   0.993 -0.2537  0.2616 -0.2897
  707TMC3    C310504   4.280   2.987   0.901  0.5420 -0.0056  0.2578
  707TMC3    C410505   4.190   3.231   1.021  0.2741  0.1463 -0.4035
  707TMC3    C510506   4.107   3.160   0.938 -0.0976 -0.2208  0.2662
  707TMC3    C610507   4.155   3.038   0.881  0.0743  0.3756 -0.3746
  707TMC3     C10508   4.407   3.231   1.147 -0.2302  0.0556  0.6007
  707TMC3     O10509   4.512   3.175   1.161 -0.2573 -0.3039  0.0080
  707TMC3     H10510   4.457   3.016   1.021  1.0476  2.1200 -2.5266
  707TMC3    H110511   4.150   3.324   1.059  0.0830  0.0062 -0.2633
  707TMC3    H210512   4.089   2.983   0.814 -0.7951  0.3500  0.4854
  707TMC3    C710513   3.987   3.225   0.885 -0.1024  0.3267  0.4762
  707TMC3    C810514   4.332   2.887   0.812  0.0972 -0.3492 -0.2834
  707TMC3    O110515   3.904   3.155   0.829 -0.4936 -0.3671  0.4841
  707TMC3    O210516   4.249   2.830   0.738 -0.3673 -0.7602 -0.3978
  708MPD2     C10517   2.090   2.831  13.745 -0.0233 -0.2586 -0.1050
  708MPD2    C110518   1.965   2.830  13.814  0.9752  0.0217  0.5981
  708MPD2    C210519   1.959   2.770  13.936  0.4665  0.1774 -0.3108
  708MPD2    C310520   2.074   2.709  13.995 -0.5175  0.1920 -0.0261
  708MPD2    C410521   2.194   2.728  13.928 -0.4450  0.3646 -0.2114
  708MPD2    C510522   2.199   2.797  13.808 -0.3356 -0.2820  0.2637
  708MPD2     H10523   1.864   2.778  13.988  0.8777  2.1100  0.1603
  708MPD2    H110524   2.288   2.703  13.977  0.0101  1.6093 -0.4634
  708MPD2    H210525   2.115   2.888  13.656 -2.3122  2.1182  0.7638
  708MPD2    H310526   2.289   2.821  13.752 -0.8223  0.4750 -0.1717
  708MPD2     N10527   2.073   2.641  14.118  0.0983  0.0546  0.2306
  708MPD2    H510528   2.159   2.603  14.154  1.2144  1.3882 -0.9984
  708MPD2    N110529   1.851   2.889  13.764 -0.3944 -0.3100 -0.0610
  708MPD2    H710530   1.778   2.892  13.834 -1.0880  0.0755 -0.7968
  709TMC3    C110531   1.698   3.006  13.632 -0.4335  0.3555  0.6827
  709TMC3    C210532   1.600   2.934  13.569 -0.4066  0.2014 -0.3415
  709TMC3    C310533   1.474   2.939  13.626  0.1508 -0.0525  0.2261
  709TMC3    C410534   1.671   3.058  13.758 -0.3061 -0.2369  0.2393
  709TMC3    C510535   1.553   3.042  13.824 -0.5355  0.8385  0.5642
  709TMC3    C610536   1.450   2.985  13.754  0.4721  0.1591 -0.7994
  709TMC3     C10537   1.824   2.928  13.634  0.5293 -0.0910  0.4026
  709TMC3     O10538   1.891   2.899  13.535  0.1460  0.4648  0.0346
  709TMC3     H10539   1.618   2.880  13.477 -1.2445  0.1753 -0.4898
  709TMC3    H110540   1.758   3.106  13.801 -0.2856 -0.8761  0.9098
  709TMC3    H210541   1.348   2.978  13.792  1.2166 -1.0231  0.9624
  709TMC3    C710542   1.574   2.994  13.957 -0.7524  0.1508  0.5877
  709TMC3    C810543   1.358   2.887  13.561 -0.0742 -0.1819  0.2956
  709TMC3    O110544   1.695   2.976  13.976  0.9563 -0.2348  0.0863
  709TMC3    O210545   1.254   2.869  13.624  0.2794 -0.0077 -0.2403
  710TMC3    C110546   3.295   4.438   0.352  0.6122  0.6399  0.2605
  710TMC3    C210547   3.386   4.369   0.274 -0.3683 -1.0976  0.2477
  710TMC3    C310548   3.431   4.248   0.321  0.4631  0.2853  0.4142
  710TMC3    C410549   3.233   4.375   0.461  0.7931 -0.6552 -0.8306
  710TMC3    C510550   3.267   4.250   0.490  0.3890  0.8553 -0.0398
  710TMC3    C610551   3.375   4.188   0.422  0.4445  0.8324  0.2272
  710TMC3     C10552   3.236   4.560   0.292 -0.5507  0.9341  0.0730
  710TMC3     O10553   3.266   4.590   0.176 -0.0730 -0.4530  0.2845
  710TMC3     H10554   3.431   4.409   0.184 -1.2433  0.0549  0.3295
  710TMC3    H110555   3.140   4.412   0.503  2.0228  1.6686 -0.1612
  710TMC3    H210556   3.400   4.085   0.446  4.4465  1.8411  0.3727
  710TMC3    C710557   3.230   4.189   0.614  0.1473  0.3708 -0.2456
  710TMC3    C810558   3.514   4.160   0.240 -0.3667  0.7497 -0.9658
  710TMC3    O110559   3.245   4.069   0.624  0.2985  0.3619 -0.0496
  710TMC3    O210560   3.524   4.197   0.124 -0.0431  0.0630 -0.3058
  711TMC3    C110561   3.170   0.595  14.786 -0.3567  0.4627  0.5164
  711TMC3    C210562   3.180   0.671  14.902  0.0962  0.5036  0.5448
  711TMC3    C310563   3.280   0.649  14.991 -0.1132 -0.7173 -0.4932
  711TMC3    C410564   3.278   0.522  14.738 -1.2116  0.3735  1.0837
  711TMC3    C510565   3.369   0.487  14.834 -0.2382  0.4109  0.0486
  711TMC3    C610566   3.368   0.549  14.959  0.2455 -1.0683 -0.2141
  711TMC3     C10567   3.061   0.500  14.797 -0.2493 -0.2238 -0.2371
  711TMC3     O10568   3.046   0.435  14.694 -0.1043  0.0954  0.2713
  711TMC3     H10569   3.099   0.734  14.936  0.4227  1.1754  0.0745
  711TMC3    H110570   3.277   0.458  14.651  2.0866  1.2502  0.4091
  711TMC3    H210571   3.431   0.507  15.037 -0.8920  2.2512  2.5186
  711TMC3    C710572   3.411   0.350  14.848  0.0932 -0.1109 -0.2803
  711TMC3    C810573   3.234   0.652  15.135  0.4473  0.0926  0.1237
  711TMC3    O110574   3.510   0.321  14.909  0.4558 -0.2465  0.2608
  711TMC3    O210575   3.113   0.659  15.149  0.5514 -0.0889  0.2753
  712MPD2     C10576   4.184   1.395  14.068 -0.4916 -0.1678  0.1095
  712MPD2    C110577   4.157   1.448  13.939  0.0332  0.6542  0.0953
  712MPD2    C210578   4.203   1.573  13.909  0.8526 -0.0653 -0.4171
  712MPD2    C310579   4.279   1.641  14.001 -0.5561  0.6650  0.1387
  712MPD2    C410580   4.314   1.587  14.127 -0.0772  0.3083  0.0134
  712MPD2    C510581   4.267   1.459  14.159  0.3070 -0.5103 -0.7241
  712MPD2     H10582   4.174   1.615  13.814  0.9373 -0.6207 -0.6884
  712MPD2    H110583   4.372   1.647  14.196  0.5921 -2.3353  1.7488
  712MPD2    H210584   4.136   1.305  14.103 -2.2348  0.4123 -0.7906
  712MPD2    H310585   4.279   1.411  14.255  0.3775 -1.0336 -0.9976
  712MPD2     N10586   4.305   1.780  13.982  0.4415  0.0398 -0.4125
  712MPD2    H510587   4.359   1.823  14.057 -0.7619  0.7577  0.0397
  712MPD2    N110588   4.067   1.382  13.855 -0.2033 -0.3366  0.6030
  712MPD2    H710589   4.047   1.414  13.760  2.3281 -1.2111 -0.2165
  713TMC3    C110590   4.337   1.989  13.884 -0.6519  0.1173 -0.5125
  713TMC3    C210591   4.450   1.987  13.951  0.4192  0.3804 -0.1051
  713TMC3    C310592   4.486   2.119  13.987 -0.3763 -0.2394  0.0788
  713TMC3    C410593   4.256   2.096  13.848 -0.3574 -0.5269 -0.1610
  713TMC3    C510594   4.302   2.222  13.883 -0.8057  0.3550  0.1094
  713TMC3    C610595   4.415   2.232  13.950  0.7737  0.0144  0.2136
  713TMC3     C10596   4.266   1.861  13.879  0.1646  0.0613  0.1205
  713TMC3     O10597   4.194   1.841  13.788  0.5800 -0.2312 -0.2355
  713TMC3     H10598   4.513   1.899  13.957 -1.8218 -1.2062  0.1856
  713TMC3    H110599   4.163   2.081  13.795  0.4594 -1.3763 -1.3653
  713TMC3    H210600   4.460   2.328  13.969 -0.3996  0.0652  2.7333
  713TMC3    C710601   4.274   2.341  13.801  0.3655  0.6156 -0.0583
  713TMC3    C810602   4.626   2.145  14.000  0.0293 -0.2091 -0.0764
  713TMC3    O110603   4.331   2.449  13.828 -0.0636  0.4269  0.1902
  713TMC3    O210604   4.675   2.229  13.929  0.0467 -0.1416  0.2754
  714MPD2     C10605   1.033   0.563   1.233 -0.6758 -0.4484  0.1133
  714MPD2    C110606   1.022   0.427   1.250  0.6274 -0.1075  0.6879
  714MPD2    C210607   0.966   0.346   1.151  1.0354 -0.0270 -0.5738
  714MPD2    C310608   0.917   0.403   1.040 -0.2321 -1.0146 -0.0924
  714MPD2    C410609   0.940   0.537   1.018 -1.6873  0.2928  0.0890
  714MPD2    C510610   0.996   0.617   1.109 -0.0534 -0.0332 -0.0975
  714MPD2     H10611   0.965   0.238   1.153 -1.4526  0.0077  0.9467
  714MPD2    H110612   0.903   0.581   0.926  2.7304 -0.5193 -2.0511
  714MPD2    H210613   1.082   0.630   1.304  1.1141 -0.3823 -1.1815
  714MPD2    H310614   1.013   0.720   1.080  0.5680  0.6756  2.8010
  714MPD2     N10615   0.856   0.324   0.944 -0.5842 -0.4185  0.3876
  714MPD2    H510616   0.838   0.228   0.973  2.1359 -1.4423 -1.3314
  714MPD2    N110617   1.085   0.374   1.371 -0.3485  0.4877 -0.0455
  714MPD2    H710618   1.114   0.442   1.440  0.9824  0.1512 -0.2710
  715TMC3    C110619   1.156   0.210   1.524  0.4262  0.4071  0.2181
  715TMC3    C210620   1.139   0.082   1.570 -0.2006 -0.0076  0.0280
  715TMC3    C310621   1.203   0.052   1.683  0.2444 -0.5271 -0.7190
  715TMC3    C410622   1.237   0.300   1.581  0.4927 -0.4043 -0.3741
  715TMC3    C510623   1.316   0.255   1.682 -0.0979  0.1860  0.1058
  715TMC3    C610624   1.301   0.128   1.731 -0.8146 -0.3806  0.1193
  715TMC3     C10625   1.076   0.243   1.407  0.0117 -0.6437 -0.1730
  715TMC3     O10626   1.015   0.150   1.355 -0.3532 -0.1930 -0.0732
  715TMC3     H10627   1.074   0.003   1.534  0.8594 -1.0885  0.4606
  715TMC3    H110628   1.267   0.389   1.527  0.4230 -0.3022 -0.2424
  715TMC3    H210629   1.368   0.090   1.807 -0.1427  0.1380 -0.2162
  715TMC3    C710630   1.431   0.337   1.724 -0.4275 -0.4618 -0.1773
  715TMC3    C810631   1.236   4.646   1.696 -0.4619  0.0936 -0.6052
  715TMC3    O110632   1.535   0.284   1.750 -0.1576  0.4491  0.8172
  715TMC3    O210633   1.264   4.591   1.590 -0.1466  0.0236  0.2004
  716MPD2     C10634   1.649   3.233  10.101  0.3152  0.0729 -0.8553
  716MPD2    C110635   1.671   3.218   9.965 -0.3171  0.1367 -0.2283
  716MPD2    C210636   1.672   3.086   9.917 -0.1356 -0.5742 -0.4250
  716MPD2    C310637   1.633   2.978  10.003  0.2409 -0.5921  0.4352
  716MPD2    C410638   1.607   3.005  10.134 -0.1389  0.0495 -0.0111
  716MPD2    C510639   1.612   3.134  10.184 -0.1946 -0.0449  0.4000
  716MPD2     H10640   1.706   3.062   9.817  0.7539 -1.2806  0.0427
  716MPD2    H110641   1.580   2.927  10.205 -1.4852 -0.0230 -0.6008
  716MPD2    H210642   1.665   3.332  10.142  3.4805 -0.5293 -0.6612
  716MPD2    H310643   1.587   3.149  10.288 -1.6447  0.4813 -0.0094
  716MPD2     N10644   1.631   2.846   9.955 -0.6399  0.1933 -0.1293
  716MPD2    H510645   1.643   2.841   9.854  0.7715  1.3515 -0.0128
  716MPD2    N110646   1.714   3.331   9.891 -0.2962  0.5169 -0.2113
  716MPD2    H710647   1.692   3.419   9.936  1.0906  0.7761 -0.0194
  717TMC3    C110648   1.579   2.613   9.938 -0.1595 -0.6861 -0.4693
  717TMC3    C210649   1.522   2.642   9.820 -0.2902  0.3104 -0.3981
  717TMC3    C310650   1.480   2.537   9.738 -0.2026 -0.1537  0.3325
  717TMC3    C410651   1.593   2.482   9.986  0.5511 -0.1991  0.8502
  717TMC3    C510652   1.541   2.381   9.905  0.3009  0.0788 -0.3852
  717TMC3    C610653   1.493   2.403   9.780 -0.2816 -0.3528  0.0427
  717TMC3     C10654   1.614   2.729  10.022 -0.1267  1.1223  0.3959
  717TMC3     O10655   1.604   2.712  10.145 -0.0352  0.0675  0.1189
  717TMC3     H10656   1.534   2.737   9.770  0.4327 -0.0220 -0.8658
  717TMC3    H110657   1.648   2.463  10.078  0.6839  2.1411  1.2609
  717TMC3    H210658   1.485   2.325   9.705  1.1002 -1.6751  1.2773
  717TMC3    C710659   1.596   2.250   9.928 -0.1677 -0.3535  0.3332
  717TMC3    C810660   1.412   2.578   9.617  1.1176 -0.2948  0.4731
  717TMC3    O110661   1.635   2.193   9.832  0.7137  0.5376  0.0377
  717TMC3    O210662   1.360   2.689   9.614  0.1995  0.0724  0.3727
  718MPD2     C10663   0.290   2.691  13.243  0.6142  0.3021 -0.6770
  718MPD2    C110664   0.248   2.587  13.170  0.4083  0.2866 -0.5261
  718MPD2    C210665   0.295   2.463  13.203  0.4461  0.5115  0.8003
  718MPD2    C310666   0.376   2.442  13.309  0.0255 -0.4884  0.4091
  718MPD2    C410667   0.424   2.549  13.384 -0.1716 -0.5688 -0.8255
  718MPD2    C510668   0.378   2.678  13.348 -0.0719  0.2666 -0.3101
  718MPD2     H10669   0.259   2.373  13.154  1.9403 -0.8113  2.1275
  718MPD2    H110670   0.485   2.544  13.474 -2.8745 -0.2725  1.0303
  718MPD2    H210671   0.253   2.792  13.229  0.0920  0.3907  1.3392
  718MPD2    H310672   0.411   2.759  13.413  0.0507 -0.1221  0.1117
  718MPD2     N10673   0.397   2.310  13.343 -0.0907  0.0873  0.0300
  718MPD2    H510674   0.368   2.245  13.271  0.3999  0.3901 -0.4399
  718MPD2    N110675   0.157   2.605  13.065  0.0184  0.6012  0.2132
  718MPD2    H710676   0.145   2.700  13.032 -2.7669  0.2932  0.3352
  719TMC3    C110677   0.035   2.541  12.875  0.3511 -0.5431  0.2741
  719TMC3    C210678   4.680   2.442  12.839  0.5997  0.2364  0.0681
  719TMC3    C310679   4.682   2.396  12.711  0.1241 -0.5349  0.1307
  719TMC3    C410680   0.127   2.593  12.789 -0.6296  0.2854 -0.6355
  719TMC3    C510681   0.117   2.560  12.657 -0.1544  0.0070  0.3527
  719TMC3    C610682   0.018   2.470  12.617  0.2446  0.2363 -0.3744
  719TMC3     C10683   0.080   2.511  13.009 -0.9984  0.4117  0.3206
  719TMC3     O10684   0.063   2.393  13.040 -0.1919  0.2357  0.1016
  719TMC3     H10685   4.615   2.392  12.911  2.7451 -1.6203  0.7117
  719TMC3    H110686   0.191   2.675  12.822  0.8445  0.3546 -3.5804
  719TMC3    H210687   0.023   2.436  12.514 -0.8495  0.5278 -0.5316
  719TMC3    C710688   0.232   2.582  12.571  0.2346 -1.7050  0.3532
  719TMC3    C810689   4.716   2.250  12.703  0.1654  0.1912  0.8627
  719TMC3    O110690   0.342   2.610  12.618  0.2348 -0.0658  0.0510
  719TMC3    O210691   0.004   2.204  12.592  0.3457  0.1046  0.0482
  720MPD2     C10692   4.323   3.710  14.091  0.6361  0.4257 -0.2380
  720MPD2    C110693   4.441   3.724  14.020  0.5339 -0.4620 -0.5274
  720MPD2    C210694   4.553   3.688  14.093  0.3509  0.0871  0.9326
  720MPD2    C310695   4.557   3.650  14.225  0.1547 -0.4736 -0.1102
  720MPD2    C410696   4.435   3.631  14.288  0.3229 -0.0189  0.0898
  720MPD2    C510697   4.317   3.658  14.219 -0.2369  0.0817  0.8510
  720MPD2     H10698   4.652   3.702  14.052 -0.7509  3.2040 -0.7386
  720MPD2    H110699   4.433   3.583  14.385  0.2289  0.2293  0.2097
  720MPD2    H210700   4.226   3.731  14.048 -0.1742 -1.0220  0.9228
  720MPD2    H310701   4.218   3.641  14.259 -0.0232 -4.9434 -0.6984
  720MPD2     N10702   4.678   3.642  14.282 -0.6467  0.1687  0.8855
  720MPD2    H510703   0.023   3.687  14.236  0.2401 -3.1440 -0.8549
  720MPD2    N110704   4.446   3.768  13.888 -0.1902  0.6265  0.6646
  720MPD2    H710705   4.366   3.820  13.854  0.3329  0.2283 -1.1729
  721TMC3    C110706   0.112   3.559  14.437 -0.6388 -0.1866  0.4349
  721TMC3    C210707   0.157   3.551  14.566  0.2063 -0.1541  0.0340
  721TMC3    C310708   0.292   3.533  14.588 -0.7322 -0.3135 -0.7815
  721TMC3    C410709   0.185   3.526  14.327 -0.3987  0.1893  0.7093
  721TMC3    C510710   0.324   3.515  14.352 -0.2655  0.2826  0.2098
  721TMC3    C610711   0.378   3.523  14.482 -0.2057  0.4374  0.2009
  721TMC3     C10712   4.705   3.584  14.410 -0.0982  0.3744  0.3455
  721TMC3     O10713   4.630   3.563  14.501  0.6734 -0.9205 -0.5959
  721TMC3     H10714   0.089   3.570  14.648 -1.2969 -1.7362 -0.8209
  721TMC3    H110715   0.144   3.508  14.228 -0.5640  0.0996  0.7956
  721TMC3    H210716   0.484   3.506  14.497  0.0212  0.8357 -0.9713
  721TMC3    C710717   0.408   3.477  14.243  0.0661  0.4863  0.0443
  721TMC3    C810718   0.363   3.569  14.713  0.8616  0.4293 -0.1120
  721TMC3    O110719   0.530   3.472  14.265  0.5322 -0.0990 -0.0734
  721TMC3    O210720   0.460   3.642  14.698  0.2750  0.2140  0.0592
  722MPD2     C10721   3.199   2.243  13.149 -0.5686  0.4698  0.0589
  722MPD2    C110722   3.158   2.366  13.193  0.3249 -0.5343  0.0314
  722MPD2    C210723   3.029   2.399  13.174 -0.5293  0.6500  0.5675
  722MPD2    C310724   2.947   2.335  13.086 -0.0511  0.5640  0.0229
  722MPD2    C410725   3.002   2.224  13.028  0.1327 -1.0193 -1.1644
  722MPD2    C510726   3.127   2.172  13.060  0.1113  0.7380  0.4020
  722MPD2     H10727   2.992   2.491  13.217  0.5783  1.8809 -1.0990
  722MPD2    H110728   2.948   2.164  12.956 -0.5137 -1.9595  0.0857
  722MPD2    H210729   3.292   2.196  13.181 -0.8823  0.7641  1.3910
  722MPD2    H310730   3.173   2.084  13.015  1.4768  2.1966 -1.0763
  722MPD2     N10731   2.818   2.388  13.062  0.4457  0.9607 -0.5020
  722MPD2    H510732   2.792   2.468  13.118 -1.7430 -0.0197 -0.0981
  722MPD2    N110733   3.248   2.453  13.270  0.8426  0.4186 -0.1675
  722MPD2    H710734   3.208   2.543  13.296 -0.9578 -0.5980  0.6492
  723TMC3    C110735   2.591   2.394  13.007  0.3463  0.8668 -0.3547
  723TMC3    C210736   2.475   2.309  13.003 -0.5785 -0.5436  0.3792
  723TMC3    C310737   2.355   2.377  13.035  0.3196  0.0220  0.2145
  723TMC3    C410738   2.595   2.529  13.036 -0.0207  0.1600 -0.1939
  723TMC3    C510739   2.471   2.573  13.079  0.5045  0.1575  0.9979
  723TMC3    C610740   2.352   2.502  13.070  0.8339  0.0249  0.8719
  723TMC3     C10741   2.718   2.325  12.992 -0.0587 -0.3388  1.0247
  723TMC3     O10742   2.716   2.222  12.926  0.4856  0.2544 -0.1556
  723TMC3     H10743   2.486   2.208  12.965 -0.3366  0.1758 -1.4589
  723TMC3    H110744   2.673   2.591  12.993  1.1184 -0.5916  0.7817
  723TMC3    H210745   2.257   2.539  13.108  0.0722 -0.0200 -0.9887
  723TMC3    C710746   2.455   2.716  13.055  0.1412  0.0468 -0.3008
  723TMC3    C810747   2.227   2.316  13.037  0.0616 -0.3688 -0.3350
  723TMC3    O110748   2.498   2.772  12.954 -0.4209  0.3312 -0.2096
  723TMC3    O210749   2.133   2.381  12.993 -0.0127 -0.1358 -0.3455
  724TMC3    C110750   3.285   0.372  10.691  0.1972 -0.4763 -0.1988
  724TMC3    C210751   3.375   0.407  10.592  0.9483 -0.4454  0.1628
  724TMC3    C310752   3.449   0.521  10.603  0.1073  0.6087 -0.9347
  724TMC3    C410753   3.254   0.467  10.786 -0.5289  0.1508 -0.7504
  724TMC3    C510754   3.309   0.593  10.781  0.1599 -0.0941  0.6142
  724TMC3    C610755   3.405   0.617  10.689  0.2248 -0.0826 -0.1711
  724TMC3     C10756   3.236   0.234  10.722 -0.4071  0.1910  0.5893
  724TMC3     O10757   3.192   0.223  10.838  0.6268 -0.3872 -0.0466
  724TMC3     H10758   3.418   0.328  10.532 -0.4769 -0.4906 -0.7964
  724TMC3    H110759   3.189   0.449  10.871 -1.7371  3.9310 -0.8923
  724TMC3    H210760   3.451   0.715  10.700 -1.0705  0.3571  1.2348
  724TMC3    C710761   3.292   0.685  10.890  0.6562  0.0527 -0.1751
  724TMC3    C810762   3.529   0.562  10.491 -0.5331 -0.1662 -0.2228
  724TMC3    O110763   3.380   0.768  10.904 -0.1668 -0.2599 -0.6455
  724TMC3    O210764   3.512   0.500  10.388  0.4320  0.0038 -0.0235
  725TMC3    C110765   0.322   4.460  12.683 -0.2470  0.3851  0.1413
  725TMC3    C210766   0.326   4.533  12.565  0.1669  0.5738  0.9148
  725TMC3    C310767   0.335   4.472  12.443  0.1759 -0.0751 -0.4407
  725TMC3    C410768   0.310   4.324  12.674 -0.1572  0.1868  0.2273
  725TMC3    C510769   0.328   4.260  12.554 -0.2149 -0.4841  0.3284
  725TMC3    C610770   0.341   4.332  12.435 -0.0163 -0.3197 -0.1134
  725TMC3     C10771   0.376   4.523  12.804  0.4412  0.5511 -0.1640
  725TMC3     O10772   0.379   4.644  12.819 -0.2636 -0.3207  0.3174
  725TMC3     H10773   0.344   4.640  12.572 -1.5891  0.9401 -0.2342
  725TMC3    H110774   0.277   4.267  12.760  1.3029  0.7875  1.1693
  725TMC3    H210775   0.348   4.287  12.337 -1.6554 -1.9469  0.5119
  725TMC3    C710776   0.341   4.116  12.541  0.3899 -0.4977  0.3051
  725TMC3    C810777   0.402   4.554  12.349 -0.3636  0.7901 -0.3581
  725TMC3    O110778   0.367   4.074  12.430  0.2255 -0.1390  0.1966
  725TMC3    O210779   0.499   4.614  12.402 -0.1059 -0.0677 -0.7932
  726MPD2     C10780   2.935   0.985   9.937 -0.3751 -1.0634 -0.2215
  726MPD2    C110781   2.825   0.983  10.017 -0.0861 -0.1998 -0.6262
  726MPD2    C210782   2.775   0.855  10.060  0.2040 -0.5101  0.5574
  726MPD2    C310783   2.846   0.736  10.041 -1.0456  0.0367 -0.4277
  726MPD2    C410784   2.960   0.746   9.966  0.0238 -0.3924  0.0998
  726MPD2    C510785   2.998   0.864   9.907 -0.0141 -0.5979  0.0388
  726MPD2     H10786   2.684   0.852  10.119 -0.2882 -1.2227 -0.2400
  726MPD2    H110787   3.016   0.656   9.943  0.7827 -0.6760  3.1101
  726MPD2    H210788   2.986   1.074   9.902 -0.4483 -0.9229  0.0317
  726MPD2    H310789   3.084   0.873   9.842 -0.9165 -1.7657 -1.3206
  726MPD2     N10790   2.806   0.609  10.095  0.8047  0.1300  0.1328
  726MPD2    H510791   2.853   0.527  10.060  2.0744  0.2936  1.4268
  726MPD2    N110792   2.754   1.106  10.039 -0.1690  0.3635 -0.7752
  726MPD2    H710793   2.674   1.098  10.102  0.4986  2.1072  0.2896
  727TMC3    C110794   2.648   1.303   9.983 -0.2560 -0.4288 -0.5207
  727TMC3    C210795   2.662   1.379  10.099 -0.2311 -0.2475  0.4726
  727TMC3    C310796   2.617   1.506  10.107  0.0783  0.2473  0.8068
  727TMC3    C410797   2.580   1.362   9.880  0.1072  0.7406  0.0098
  727TMC3    C510798   2.518   1.482   9.905 -0.4773 -0.1157  0.3072
  727TMC3    C610799   2.540   1.560  10.011  0.2902  0.2593 -0.9591
  727TMC3     C10800   2.754   1.209   9.951 -0.9144 -0.4754 -0.5038
  727TMC3     O10801   2.810   1.228   9.841 -0.3657 -0.2303  0.2939
  727TMC3     H10802   2.718   1.338  10.183  2.3444  0.0953 -1.0669
  727TMC3    H110803   2.565   1.294   9.797  0.8012 -0.1895  0.6306
  727TMC3    H210804   2.505   1.663  10.011  0.4798  0.3215 -1.9567
  727TMC3    C710805   2.431   1.520   9.792 -0.3756  0.0743  0.1423
  727TMC3    C810806   2.603   1.558  10.246  0.4873 -1.0099  0.8181
  727TMC3    O110807   2.455   1.472   9.683 -0.3587 -0.5494 -0.4380
  727TMC3    O210808   2.653   1.496  10.340 -0.2875 -0.1565 -0.0877
  728TMC3    C110809   1.889   3.863  15.290  0.4531  0.2281 -0.2252
  728TMC3    C210810   1.997   3.872  15.367 -0.0545 -0.0175  0.4118
  728TMC3    C310811   2.120   3.866  15.301 -0.2651 -0.0449 -0.4628
  728TMC3    C410812   1.893   3.836  15.157  0.1074 -0.0060  0.1415
  728TMC3    C510813   2.013   3.826  15.097  0.3467 -0.3410  0.3502
  728TMC3    C610814   2.128   3.853  15.164 -0.2910  0.9148  0.1283
  728TMC3     C10815   1.761   3.877  15.350  0.1920  0.5321 -0.3126
  728TMC3     O10816   1.668   3.927  15.288 -0.1302  0.1912 -0.0757
  728TMC3     H10817   1.996   3.922  15.463 -0.2662 -0.1090  0.4572
  728TMC3    H110818   1.800   3.814  15.106 -0.4939 -2.1468  2.1722
  728TMC3    H210819   2.218   3.857  15.104  1.4218  4.3580  2.9280
  728TMC3    C710820   2.006   3.869  14.955  0.4299 -0.4801  0.3133
  728TMC3    C810821   2.240   3.896  15.373  0.1956  0.3954  0.5457
  728TMC3    O110822   1.903   3.845  14.892  0.5347 -0.4400  0.2293
  728TMC3    O210823   2.224   3.930  15.488  0.8052  0.2543 -0.2605
  729MPD2     C10824   4.111   0.623  16.758 -0.2591 -0.2966  0.4331
  729MPD2    C110825   4.126   0.484  16.749  0.3404  0.3376  0.3038
  729MPD2    C210826   4.103   0.409  16.865  0.1253 -0.5679  0.2210
  729MPD2    C310827   4.057   0.470  16.978 -0.5417  0.6873  0.5785
  729MPD2    C410828   4.026   0.600  16.982  0.2373 -0.5225 -0.1778
  729MPD2    C510829   4.057   0.682  16.871  0.7718  0.1930  0.0771
  729MPD2     H10830   4.125   0.303  16.872  1.7898 -0.1414  1.6065
  729MPD2    H110831   3.987   0.647  17.071 -2.2997 -1.0900 -0.9878
  729MPD2    H210832   4.132   0.680  16.668 -0.0699 -1.3551 -0.1991
  729MPD2    H310833   4.040   0.790  16.866  0.0154  0.1539  1.8587
  729MPD2     N10834   4.029   0.410  17.108 -0.1855 -0.1643  0.2221
  729MPD2    H510835   4.017   0.463  17.194  0.5308 -0.8214  0.7298
  729MPD2    N110836   4.182   0.433  16.629  0.1129  0.2443 -0.6954
  729MPD2    H710837   4.208   0.499  16.556  1.3575 -0.8083 -1.2039
  730TMC3    C110838   4.172   0.269  17.227 -0.2285  0.3340 -0.8906
  730TMC3    C210839   4.284   0.201  17.198  0.0943 -0.0191  0.2591
  730TMC3    C310840   4.400   0.262  17.244  0.0350 -1.2409 -0.0157
  730TMC3    C410841   4.173   0.381  17.311  0.6594  0.1935  0.2645
  730TMC3    C510842   4.291   0.436  17.348 -0.2061 -0.4581  1.1552
  730TMC3    C610843   4.409   0.377  17.326  0.2656 -0.3618  0.1892
  730TMC3     C10844   4.075   0.283  17.126 -0.0347 -0.3093 -0.1541
  730TMC3     O10845   4.051   0.185  17.058 -0.0018 -0.3857 -0.0230
  730TMC3     H10846   4.291   0.135  17.112 -0.0102  1.3443 -0.8015
  730TMC3    H110847   4.079   0.420  17.346  0.2466 -1.1603  0.6868
  730TMC3    H210848   4.503   0.419  17.360  0.7479 -1.4715  0.2314
  730TMC3    C710849   4.294   0.574  17.319 -0.1132 -0.1989 -0.1176
  730TMC3    C810850   4.507   0.238  17.145  0.0107  0.2310 -0.5090
  730TMC3    O110851   4.396   0.615  17.259  0.0938  0.1089  0.2415
  730TMC3    O210852   4.499   0.137  17.070  0.6434  0.4183  0.0254
  731MPD2     C10853   4.678   3.807  12.652 -0.3443 -0.0423 -0.4512
  731MPD2    C110854   4.586   3.713  12.612 -0.0014 -0.6745 -0.1948
  731MPD2    C210855   4.540   3.625  12.707 -0.0131  0.2753  0.8541
  731MPD2    C310856   4.584   3.624  12.837 -0.6000 -0.2495 -0.2141
  731MPD2    C410857   4.680   3.722  12.874  0.2778  0.4160  0.5500
  731MPD2    C510858   4.726   3.812  12.779  0.0816  0.4922  0.3842
  731MPD2     H10859   4.456   3.564  12.676  0.3081  1.3007 -2.0366
  731MPD2    H110860   4.718   3.731  12.975 -0.8715 -0.0683  1.0313
  731MPD2    H210861   4.699   3.885  12.579 -0.3345 -0.6921 -1.1430
  731MPD2    H310862   0.065   3.889  12.803 -0.0536  1.1366 -1.2603
  731MPD2     N10863   4.542   3.533  12.932  0.3927  0.3321 -0.3721
  731MPD2    H510864   4.562   3.544  13.031  0.2949  1.5138 -0.4861
  731MPD2    N110865   4.520   3.729  12.482  0.2969 -0.1279  0.2859
  731MPD2    H710866   4.570   3.792  12.420  1.7026 -2.3120 -0.8006
  732TMC3    C110867   4.361   3.660  12.306 -0.3728 -0.4549 -0.7833
  732TMC3    C210868   4.248   3.602  12.279 -0.2809 -0.7073  0.8391
  732TMC3    C310869   4.205   3.605  12.149  0.0957  0.0252  0.6741
  732TMC3    C410870   4.442   3.724  12.212 -0.1113  0.9458  0.4322
  732TMC3    C510871   4.390   3.742  12.091  0.0282  0.0313  0.1354
  732TMC3    C610872   4.273   3.687  12.060  0.1401  0.5335 -0.7732
  732TMC3     C10873   4.399   3.664  12.447 -0.1691  0.5448  0.2801
  732TMC3     O10874   4.317   3.620  12.524 -0.4283 -0.2760  0.5542
  732TMC3     H10875   4.179   3.562  12.354  1.1485 -2.0524  1.4416
  732TMC3    H110876   4.539   3.764  12.241 -0.0829  0.2541  1.3090
  732TMC3    H210877   4.232   3.696  11.961 -1.0135  1.1044 -0.2400
  732TMC3    C710878   4.471   3.779  11.977 -0.2005  0.0628 -0.1401
  732TMC3    C810879   4.113   3.504  12.101 -0.0922 -0.5855  0.2536
  732TMC3    O110880   4.418   3.801  11.869 -1.0046 -0.1865  0.0063
  732TMC3    O210881   4.090   3.513  11.980 -0.1485  0.4087 -0.1064
  733TMC3    C110882   0.336   1.932  13.553  0.4416 -0.5709  0.6872
  733TMC3    C210883   0.392   2.058  13.571 -0.1275  0.2575 -0.0063
  733TMC3    C310884   0.441   2.123  13.465 -0.6363 -0.4744 -0.5084
  733TMC3    C410885   0.369   1.871  13.433 -0.2968 -0.1560  1.1835
  733TMC3    C510886   0.422   1.940  13.330  0.1274 -0.0078 -0.3019
  733TMC3    C610887   0.458   2.069  13.344  0.3376 -0.4055 -0.1069
  733TMC3     C10888   0.197   1.933  13.579 -0.1257  0.2526  0.2119
  733TMC3     O10889   0.151   2.046  13.562 -0.0903 -0.1849 -0.1802
  733TMC3     H10890   0.363   2.114  13.659  1.0169 -2.2632  1.9893
  733TMC3    H110891   0.339   1.769  13.410  0.2603 -0.4678  1.8246
  733TMC3    H210892   0.490   2.125  13.257  1.8462 -2.8633 -1.1271
  733TMC3    C710893   0.385   1.898  13.202  0.0186  0.5710  0.2965
  733TMC3    C810894   0.438   2.267  13.463  0.2714  0.0341  0.3929
  733TMC3    O110895   0.413   1.786  13.164 -0.6360  0.0335  0.1820
  733TMC3    O210896   0.460   2.334  13.562 -0.1122 -1.1052 -0.6849
  734MPD2     C10897   3.120   4.576  12.446 -0.1814 -0.3349  0.3919
  734MPD2    C110898   2.994   4.530  12.423 -0.5109  0.5754 -0.4695
  734MPD2    C210899   2.937   4.546  12.294  0.0518 -0.3147 -0.7131
  734MPD2    C310900   3.009   4.588  12.195  0.3225  0.7991 -0.2183
  734MPD2    C410901   3.135   4.651  12.218  0.4867 -0.2926  0.4449
  734MPD2    C510902   3.190   4.632  12.343  0.5420  0.3875 -0.2240
  734MPD2     H10903   2.840   4.500  12.274 -0.9618  2.8400 -2.9517
  734MPD2    H110904   3.201   4.684  12.138 -0.6512  1.9058  0.4439
  734MPD2    H210905   3.173   4.555  12.539 -2.5124 -1.4693  1.4757
  734MPD2    H310906   3.295   4.648  12.364 -0.2626  3.4842  1.4544
  734MPD2     N10907   2.951   4.579  12.065 -0.1860 -0.0108  0.5335
  734MPD2    H510908   2.865   4.525  12.061  0.5169 -1.1244  0.3180
  734MPD2    N110909   2.917   4.475  12.528 -0.8237  0.2399 -0.0185
  734MPD2    H710910   2.970   4.446  12.609 -1.9966  0.7021  0.9110
  735TMC3    C110911   2.719   4.348  12.610 -0.0464 -0.4441  0.3049
  735TMC3    C210912   2.583   4.333  12.577 -0.2304 -1.2295 -0.1171
  735TMC3    C310913   2.535   4.203  12.587 -0.2393 -0.0494 -0.5493
  735TMC3    C410914   2.797   4.250  12.659 -0.0324 -0.1265 -0.0048
  735TMC3    C510915   2.736   4.134  12.682  0.1107 -0.5670 -0.8835
  735TMC3    C610916   2.600   4.110  12.653  0.3198  0.0761  0.3439
  735TMC3     C10917   2.777   4.453  12.520 -0.4006  0.5381 -0.1678
  735TMC3     O10918   2.701   4.502  12.440 -0.8444  0.1848 -0.0302
  735TMC3     H10919   2.519   4.415  12.544 -1.3564 -2.0406  0.0266
  735TMC3    H110920   2.904   4.261  12.677 -0.5786  1.5195  2.1868
  735TMC3    H210921   2.555   4.011  12.655  0.9756 -0.2593 -1.4459
  735TMC3    C710922   2.811   4.011  12.703  0.1188  0.1822  0.8970
  735TMC3    C810923   2.481   4.154  12.455  0.5787 -0.7888 -0.8330
  735TMC3    O110924   2.769   3.922  12.778 -0.2689  0.2439  0.0757
  735TMC3    O210925   2.455   4.034  12.432  0.5836  0.1150 -0.1575
  736MPD2     C10926   3.035   3.812  12.725 -0.3107 -0.0024 -0.2430
  736MPD2    C110927   3.027   3.913  12.628 -0.1027 -0.5330 -0.0717
  736MPD2    C210928   3.125   3.919  12.528  0.5949 -1.0008  1.1739
  736MPD2    C310929   3.234   3.835  12.526  0.3594  0.5134 -0.9344
  736MPD2    C410930   3.235   3.743  12.626 -0.1754 -0.2005  0.6411
  736MPD2    C510931   3.138   3.724  12.715  0.0005 -0.6768 -0.2090
  736MPD2     H10932   3.116   4.003  12.459  0.7128 -1.1017  1.0349
  736MPD2    H110933   3.322   3.680  12.638 -0.5979 -1.4352 -2.5504
  736MPD2    H210934   2.957   3.784  12.795 -1.3805 -0.0692 -1.4596
  736MPD2    H310935   3.153   3.648  12.791  1.6818  0.1597  0.3073
  736MPD2     N10936   3.350   3.838  12.441 -0.0789  0.3483  0.5567
  736MPD2    H510937   3.427   3.774  12.460  0.1745  0.6579  0.5855
  736MPD2    N110938   2.924   4.008  12.629 -0.1367  0.2964  0.0314
  736MPD2    H710939   2.915   4.065  12.545  1.8909  0.3488 -0.1542
  737TMC3    C110940   3.476   3.909  12.252 -0.0908  0.0321  0.1485
  737TMC3    C210941   3.492   4.016  12.171  0.4501 -0.9796  1.2112
  737TMC3    C310942   3.565   3.993  12.052  0.0233  0.4595  0.6562
  737TMC3    C410943   3.528   3.785  12.235 -0.2256  0.3346  0.3346
  737TMC3    C510944   3.595   3.766  12.112  0.7495  0.0975  0.0623
  737TMC3    C610945   3.606   3.868  12.020 -0.0578 -0.8916  1.1407
  737TMC3     C10946   3.354   3.925  12.334 -0.1575 -0.4444  0.3371
  737TMC3     O10947   3.285   4.025  12.310  0.1684  0.1178 -0.1216
  737TMC3     H10948   3.455   4.114  12.198  0.8046 -0.8583  1.2638
  737TMC3    H110949   3.495   3.702  12.295  1.4061  0.9867  2.1468
  737TMC3    H210950   3.625   3.841  11.917  1.0192 -1.3970  1.4711
  737TMC3    C710951   3.625   3.634  12.069  0.7137 -0.5621  0.8363
  737TMC3    C810952   3.530   4.085  11.945  0.0305  0.1899 -0.0381
  737TMC3    O110953   3.574   3.542  12.136 -0.2113 -0.1034  0.9438
  737TMC3    O210954   3.536   4.203  11.973 -0.1559  0.6665 -0.4075
  738MPD2     C10955   3.219   2.648  15.160 -0.7969  0.2257  0.1420
  738MPD2    C110956   3.253   2.556  15.066  0.1452 -0.4953 -0.1932
  738MPD2    C210957   3.366   2.573  14.986  0.3615 -0.1695  0.3788
  738MPD2    C310958   3.446   2.687  14.999 -0.4278  0.0578 -0.6640
  738MPD2    C410959   3.406   2.782  15.087  0.7651 -0.4660 -0.5214
  738MPD2    C510960   3.294   2.759  15.164  0.3667  0.0473 -0.5036
  738MPD2     H10961   3.392   2.496  14.914  0.3263 -0.4104  0.6242
  738MPD2    H110962   3.461   2.875  15.093 -0.6573  0.3344  0.2158
  738MPD2    H210963   3.127   2.645  15.218 -0.0907 -0.4243  1.2235
  738MPD2    H310964   3.267   2.834  15.238  0.0133 -2.1338  1.6005
  738MPD2     N10965   3.569   2.703  14.932  0.0231  0.4512  0.7835
  738MPD2    H510966   3.607   2.796  14.941 -0.0077  0.4237  1.1766
  738MPD2    N110967   3.176   2.443  15.037  0.0383  0.0240 -0.1874
  738MPD2    H710968   3.200   2.395  14.950  0.9686  0.5072 -0.2011
  739TMC3    C110969   3.774   2.651  14.815 -0.6049 -0.2966  0.6336
  739TMC3    C210970   3.831   2.619  14.691  0.1484  0.3589  0.0566
  739TMC3    C310971   3.951   2.677  14.652 -0.7766 -0.1969 -0.3827
  739TMC3    C410972   3.844   2.722  14.908 -0.2902 -0.2530  0.9434
  739TMC3    C510973   3.969   2.762  14.870  0.0379 -0.1840  0.4181
  739TMC3    C610974   4.023   2.756  14.744 -0.3941 -0.1630  0.2906
  739TMC3     C10975   3.635   2.613  14.844 -1.0039  0.0199 -0.0228
  739TMC3     O10976   3.596   2.506  14.796 -0.1378 -0.2764  0.5783
  739TMC3     H10977   3.787   2.544  14.626 -0.8303  1.5187 -0.6221
  739TMC3    H110978   3.808   2.760  15.003 -2.8057 -0.5087  0.0977
  739TMC3    H210979   4.125   2.789  14.728 -0.3858 -0.4145 -0.1718
  739TMC3    C710980   4.056   2.802  14.977  0.4636 -0.1498 -0.6573
  739TMC3    C810981   3.969   2.685  14.503  0.0837  0.2589 -0.5619
  739TMC3    O110982   4.034   2.754  15.088 -0.7943 -0.0796  0.2745
  739TMC3    O210983   3.890   2.615  14.437  1.3610  0.5087  0.5434
  740TMC3    C110984   4.390   3.992  14.323  0.6481  0.1878  0.1336
  740TMC3    C210985   4.412   3.984  14.455  0.2900  0.4343 -0.0458
  740TMC3    C310986   4.541   3.987  14.506 -0.1897  1.1241  0.2502
  740TMC3    C410987   4.489   3.988  14.233 -0.2633  0.2690 -0.4193
  740TMC3    C510988   4.617   3.985  14.282 -0.0942 -0.4200  0.5512
  740TMC3    C610989   4.643   3.974  14.414  0.4168 -0.4896 -0.4170
  740TMC3     C10990   4.253   3.977  14.283 -0.3479 -0.3147 -0.5006
  740TMC3     O10991   4.227   4.018  14.170 -0.2017  0.1023  0.2515
  740TMC3     H10992   4.335   4.007  14.527  0.8507  1.5430  0.2042
  740TMC3    H110993   4.459   3.977  14.130 -0.9087  0.4131 -0.2444
  740TMC3    H210994   0.007   3.986  14.461  0.1233 -0.0531  0.0724
  740TMC3    C710995   4.725   3.949  14.198  0.6550 -0.3564  0.3378
  740TMC3    C810996   4.557   3.964  14.652  0.2305 -0.7443  0.1153
  740TMC3    O110997   0.087   3.892  14.251 -0.3502  0.0961  0.3846
  740TMC3    O210998   4.462   3.987  14.728 -0.3117  0.2370 -0.1780
  741TMC3    C110999   3.821   3.117  14.284  0.3616  0.0520  0.0817
  741TMC3    C211000   3.743   3.015  14.242  0.2379 -0.5821  0.2615
  741TMC3    C311001   3.724   2.918  14.334 -0.1259  0.5964  0.4548
  741TMC3    C411002   3.888   3.119  14.398 -0.3185 -0.3082 -0.7188
  741TMC3    C511003   3.847   3.034  14.498 -0.4066 -0.1419  0.0324
  741TMC3    C611004   3.752   2.935  14.468  0.2177  0.0502  0.8092
  741TMC3     C11005   3.881   3.193  14.183 -0.5299 -0.3478 -0.1177
  741TMC3     O11006   4.000   3.201  14.189 -0.2071 -0.1021 -0.5963
  741TMC3     H11007   3.727   2.994  14.137  1.3119  1.2327 -0.2620
  741TMC3    H111008   3.955   3.201  14.417 -1.8990  1.0486 -1.0152
  741TMC3    H211009   3.726   2.858  14.540 -2.6353  1.3229  1.1548
  741TMC3    C711010   3.858   3.067  14.639  0.0628 -0.7512 -0.0694
  741TMC3    C811011   3.627   2.817  14.297  0.3564 -0.4049 -0.0392
  741TMC3    O111012   3.814   2.986  14.716  0.1348  0.2295  0.3939
  741TMC3    O211013   3.561   2.831  14.191  0.5244 -0.7598  0.0629
  742TMC3    C111014   3.994   1.879  15.240 -0.0867  0.4051 -0.0023
  742TMC3    C211015   3.882   1.830  15.174 -0.0675  0.7417 -0.8024
  742TMC3    C311016   3.883   1.705  15.136  0.8743  0.5869  0.2095
  742TMC3    C411017   4.113   1.805  15.253 -0.1371  0.0131 -0.0778
  742TMC3    C511018   4.108   1.673  15.211 -0.3172 -0.1421 -0.4001
  742TMC3    C611019   3.993   1.624  15.158  0.7470 -0.5941  0.9229
  742TMC3     C11020   4.018   2.023  15.233 -0.3118  0.5987 -0.5059
  742TMC3     O11021   4.128   2.058  15.196  0.3474 -0.5728 -0.0372
  742TMC3     H11022   3.814   1.901  15.128  0.5191  1.4737 -0.5227
  742TMC3    H111023   4.199   1.857  15.293 -0.4225 -1.2410  2.1238
  742TMC3    H211024   3.982   1.523  15.119  3.2977 -0.4569 -0.1135
  742TMC3    C711025   4.223   1.579  15.228 -0.1320  0.1356  0.1678
  742TMC3    C811026   3.779   1.657  15.056 -0.2620  0.0023 -0.0608
  742TMC3    O111027   4.195   1.459  15.224  0.4134  0.2391  0.8910
  742TMC3    O211028   3.813   1.580  14.967  0.1504 -0.3859 -0.6679
  743MPD2     C11029   0.520   2.931   1.370  0.1006  0.1540 -0.1913
  743MPD2    C111030   0.605   2.865   1.284 -0.1953 -0.2147 -0.0770
  743MPD2    C211031   0.737   2.853   1.326 -0.3776 -0.3674 -0.9506
  743MPD2    C311032   0.789   2.895   1.449 -0.1465 -0.6639 -0.0034
  743MPD2    C411033   0.706   2.956   1.537  0.3949  1.0767  0.1415
  743MPD2    C511034   0.575   2.973   1.488  0.7745 -0.7178  0.2259
  743MPD2     H11035   0.814   2.811   1.263 -0.0416  1.2326 -1.6147
  743MPD2    H111036   0.729   3.000   1.633  1.4092  0.1054  0.3401
  743MPD2    H211037   0.424   2.976   1.349 -0.8367 -1.9879 -0.4786
  743MPD2    H311038   0.500   3.022   1.549 -1.2159 -2.3366 -0.9425
  743MPD2     N11039   0.929   2.871   1.473 -0.1753  0.3191 -0.7534
  743MPD2    H511040   0.982   2.833   1.395 -4.5001 -1.2581 -2.9415
  743MPD2    N111041   0.566   2.828   1.155  0.6049  0.6795 -0.0366
  743MPD2    H711042   0.483   2.870   1.117 -0.2776 -0.6938  0.3750
  744TMC3    C111043   0.575   2.726   0.945  0.0533  0.5369  0.0056
  744TMC3    C211044   0.437   2.761   0.925 -0.0912  0.3853  0.1705
  744TMC3    C311045   0.383   2.739   0.800 -0.4319  0.6427 -0.7712
  744TMC3    C411046   0.644   2.669   0.837  0.2125  0.2517 -0.2468
  744TMC3    C511047   0.581   2.659   0.715  0.1457  0.4963  0.1437
  744TMC3    C611048   0.451   2.701   0.687 -0.4464  0.0903 -0.0762
  744TMC3     C11049   0.630   2.732   1.077 -0.5812 -0.0399  0.0156
  744TMC3     O11050   0.738   2.678   1.091  0.1501 -0.1346 -0.5412
  744TMC3     H11051   0.379   2.800   1.007 -2.3094 -1.1033 -0.7074
  744TMC3    H111052   0.740   2.626   0.860  0.4554  0.2372 -1.2846
  744TMC3    H211053   0.408   2.703   0.587 -0.2083 -3.0310 -0.2392
  744TMC3    C711054   0.665   2.603   0.609 -0.1861  0.5736  0.3014
  744TMC3    C811055   0.242   2.781   0.783  0.3414 -0.0187  0.6265
  744TMC3    O111056   0.769   2.563   0.652  0.6363  0.0113 -0.5223
  744TMC3    O211057   0.205   2.857   0.867 -0.0030  0.5125  0.2149
  745TMC3    C111058   3.903   1.222  13.779  0.3686 -0.1800 -0.2069
  745TMC3    C211059   3.807   1.141  13.842 -0.1224  0.1408  0.2244
  745TMC3    C311060   3.665   1.156  13.813 -1.0437  0.6784  0.0816
  745TMC3    C411061   3.855   1.308  13.681  0.1508 -0.0924  0.5887
  745TMC3    C511062   3.725   1.301  13.640 -0.2433 -0.4854 -0.4135
  745TMC3    C611063   3.635   1.220  13.700  0.4007 -0.2944  0.1069
  745TMC3     C11064   3.992   1.273  13.882 -0.0634  0.5304  0.1060
  745TMC3     O11065   3.969   1.214  13.990 -0.4678 -0.1678 -0.1382
  745TMC3     H11066   3.841   1.056  13.900  1.8844 -0.2010 -1.4199
  745TMC3    H111067   3.920   1.371  13.622  0.3699 -0.6821  0.2090
  745TMC3    H211068   3.534   1.234  13.663  0.4679  0.5389  0.2481
  745TMC3    C711069   3.680   1.371  13.520 -0.1112  0.3828 -0.1521
  745TMC3    C811070   3.593   1.205  13.932  0.4412  0.4044  0.1103
  745TMC3    O111071   3.604   1.316  13.441 -0.2793  0.0967 -0.0826
  745TMC3    O211072   3.488   1.263  13.906  0.2056  0.5410 -0.4205
  746TMC3    C111073   1.298   3.281  10.803  0.2906 -0.3063 -0.3955
  746TMC3    C211074   1.343   3.224  10.684  0.2182 -0.3146 -0.2864
  746TMC3    C311075   1.257   3.150  10.613 -0.7998 -0.5319 -0.3377
  746TMC3    C411076   1.170   3.252  10.851  0.6035 -0.7430 -0.0283
  746TMC3    C511077   1.090   3.181  10.773  0.0726  0.1923 -0.8684
  746TMC3    C611078   1.129   3.136  10.647  0.4088  0.9633 -0.1445
  746TMC3     C11079   1.389   3.362  10.887 -0.1980  0.0360 -0.0829
  746TMC3     O11080   1.367   3.364  11.009 -0.4021 -0.2315  0.4220
  746TMC3     H11081   1.447   3.244  10.662  0.7277 -2.7043  0.0019
  746TMC3    H111082   1.135   3.296  10.943 -1.8494 -1.0419 -0.8278
  746TMC3    H211083   1.056   3.088  10.582  1.0416  1.1899 -1.0237
  746TMC3    C711084   0.957   3.155  10.813  0.3152  0.2337 -0.0679
  746TMC3    C811085   1.294   3.115  10.480 -0.0483 -0.6454  0.1675
  746TMC3    O111086   0.897   3.064  10.758 -0.1571 -0.2631 -0.6529
  746TMC3    O211087   1.380   3.190  10.438  0.7546  0.2614  0.1331
  747TMC3    C111088   3.859   3.579  11.110  1.0475  0.7253 -0.2347
  747TMC3    C211089   3.824   3.485  11.201  0.4515 -0.5653 -0.3204
  747TMC3    C311090   3.901   3.464  11.307 -0.0450  0.5790  0.5099
  747TMC3    C411091   3.964   3.667  11.128 -0.7927  0.2387 -0.0441
  747TMC3    C511092   4.036   3.647  11.245  0.5742 -0.0832 -0.0446
  747TMC3    C611093   4.007   3.540  11.335 -0.3160 -0.1042 -0.0007
  747TMC3     C11094   3.789   3.580  10.984  0.3255  0.7018 -0.4628
  747TMC3     O11095   3.778   3.685  10.918  0.1245 -0.3715 -0.3248
  747TMC3     H11096   3.733   3.427  11.196  2.1768 -3.2489 -0.7303
  747TMC3    H111097   3.983   3.750  11.061 -1.1343  0.6038  0.3151
  747TMC3    H211098   4.061   3.518  11.427 -1.5109 -1.2672  0.4256
  747TMC3    C711099   4.111   3.761  11.310  0.0856  0.2611 -0.7736
  747TMC3    C811100   3.834   3.390  11.409  0.7443  0.2315 -0.8053
  747TMC3    O111101   4.159   3.756  11.421  0.5176  0.2414  0.4104
  747TMC3    O211102   3.759   3.295  11.381  0.1124 -0.8098  0.2803
  748MPD2     C11103   4.724   3.718   1.194 -0.1728 -1.1908 -0.1011
  748MPD2    C111104   0.070   3.662   1.091 -0.1445 -0.3258  1.0156
  748MPD2    C211105   0.214   3.655   1.103  0.3835 -0.0333  0.4255
  748MPD2    C311106   0.277   3.708   1.213 -0.1104  0.1611 -0.6434
  748MPD2    C411107   0.199   3.769   1.316  0.0820 -0.2841  0.6081
  748MPD2    C511108   0.057   3.776   1.301 -0.6773 -1.1691 -0.3036
  748MPD2     H11109   0.276   3.609   1.027  1.1431 -2.7561  2.6602
  748MPD2    H111110   0.241   3.825   1.399 -0.8735  1.6539 -0.2244
  748MPD2    H211111   4.616   3.720   1.189 -0.1329 -3.3691 -1.9963
  748MPD2    H311112   4.731   3.843   1.363  1.6401  2.6021 -2.1889
  748MPD2     N11113   0.416   3.724   1.209  0.0322  0.0194 -0.0382
  748MPD2    H511114   0.459   3.682   1.128  2.9822 -1.1084  2.1057
  748MPD2    N111115   0.002   3.626   0.969  0.2033  0.4712  0.1124
  748MPD2    H711116   4.636   3.647   0.967  0.4170  1.1789 -3.3429
  749TMC3    C111117   0.627   3.755   1.288  0.0563  0.1671  0.7071
  749TMC3    C211118   0.704   3.715   1.391 -0.0641 -0.4920  0.3658
  749TMC3    C311119   0.837   3.751   1.378  0.2262  0.0195 -0.3066
  749TMC3    C411120   0.669   3.825   1.177  1.0687  0.4080 -0.0945
  749TMC3    C511121   0.807   3.850   1.172 -0.1246  0.1672  0.7205
  749TMC3    C611122   0.894   3.812   1.266 -0.4074 -0.1896  0.2325
  749TMC3     C11123   0.491   3.749   1.319  0.1668  0.3169  0.1913
  749TMC3     O11124   0.462   3.739   1.439 -0.3397 -0.2449 -0.9138
  749TMC3     H11125   0.666   3.670   1.482  1.7991 -0.5252  1.1227
  749TMC3    H111126   0.598   3.856   1.102 -0.6311 -3.7680 -0.1800
  749TMC3    H211127   0.998   3.844   1.266 -1.4274  3.1333 -2.1617
  749TMC3    C711128   0.852   3.953   1.083 -0.1425  0.0489  0.4136
  749TMC3    C811129   0.925   3.692   1.479 -0.3382 -0.2596 -0.0799
  749TMC3    O111130   0.772   4.038   1.039 -0.2026  0.7350 -0.0039
  749TMC3    O211131   0.882   3.682   1.596  0.6881 -0.4503 -0.0756
  750MPD2     C11132   1.712   0.540  10.718 -1.2996 -0.4013 -0.3952
  750MPD2    C111133   1.727   0.467  10.833  0.2853 -0.0747 -0.8375
  750MPD2    C211134   1.768   0.339  10.824  0.6938 -0.0719 -0.5418
  750MPD2    C311135   1.767   0.272  10.706 -0.3809 -0.4697  0.0261
  750MPD2    C411136   1.753   0.348  10.590  1.2534  0.4161 -0.1324
  750MPD2    C511137   1.722   0.481  10.594  0.0894 -0.5657 -0.0464
  750MPD2     H11138   1.791   0.284  10.915  0.6028  1.9509  0.6970
  750MPD2    H111139   1.767   0.311  10.489 -0.3000  0.2048 -0.2686
  750MPD2    H211140   1.696   0.647  10.716 -1.7952 -0.4913 -1.3328
  750MPD2    H311141   1.724   0.540  10.503 -2.1754 -0.2035  0.1549
  750MPD2     N11142   1.770   0.130  10.698  0.0611  0.3898 -0.1552
  750MPD2    H511143   1.776   0.092  10.604  0.3751 -0.4500  0.2067
  750MPD2    N111144   1.713   0.536  10.959  0.3008 -0.2423 -0.6610
  750MPD2    H711145   1.695   0.635  10.945  1.3546 -0.2451 -2.0377
  751TMC3    C111146   1.737   4.639  10.759  0.4246  0.2217 -1.1293
  751TMC3    C211147   1.646   4.570  10.843 -0.0896 -0.1758 -0.3387
  751TMC3    C311148   1.592   4.456  10.790  0.1549  0.3611 -0.0367
  751TMC3    C411149   1.788   4.583  10.649  0.1052  0.2102 -0.4296
  751TMC3    C511150   1.733   4.462  10.609  0.0670 -0.3780  0.1977
  751TMC3    C611151   1.631   4.404  10.673 -0.5617 -0.2013  0.4089
  751TMC3     C11152   1.770   0.041  10.803 -0.7437  0.2413 -0.4921
  751TMC3     O11153   1.763   0.055  10.923 -0.0174  0.1673 -0.0142
  751TMC3     H11154   1.603   4.620  10.929 -0.0027  1.8460 -1.4687
  751TMC3    H111155   1.860   4.637  10.588 -1.0387  1.3263 -0.7985
  751TMC3    H211156   1.576   4.318  10.636 -1.0855  0.0546  0.5905
  751TMC3    C711157   1.817   4.388  10.512 -0.3277 -0.2801 -0.1958
  751TMC3    C811158   1.480   4.387  10.857  0.1837  0.4172  0.4186
  751TMC3    O111159   1.932   4.434  10.496 -0.7605  0.1772  0.2342
  751TMC3    O211160   1.432   4.283  10.806 -0.1768  0.3201  0.2980
  752TMC3    C111161   0.079   4.611  17.211  0.2499  0.1916 -0.0660
  752TMC3    C211162   0.159   4.545  17.300  0.5013 -0.2351 -0.3057
  752TMC3    C311163   0.132   4.541  17.432  0.2423 -0.3012 -0.2161
  752TMC3    C411164   4.693   4.661  17.251 -0.4125  0.3144 -0.0318
  752TMC3    C511165   4.663   4.651  17.385  0.8639  0.3733 -0.5187
  752TMC3    C611166   0.013   4.595  17.479 -0.2855 -0.1100 -0.2331
  752TMC3     C11167   0.121   4.622  17.074 -0.5546 -0.3420 -0.4976
  752TMC3     O11168   0.232   4.593  17.046 -0.6501 -0.0994 -0.5109
  752TMC3     H11169   0.252   4.503  17.265 -0.3364 -0.8339 -1.8070
  752TMC3    H111170   4.623   4.715  17.188 -1.5662  0.1581  1.1238
  752TMC3    H211171   4.707   4.594  17.580 -0.7240  1.2162 -0.3951
  752TMC3    C711172   4.536   4.713  17.428  1.2186  0.5605  0.3737
  752TMC3    C811173   0.202   4.456  17.521 -0.2667  0.1796  1.1570
  752TMC3    O111174   4.447   4.712  17.344  0.3262  0.2084  0.4362
  752TMC3    O211175   0.148   4.435  17.628 -0.7089 -0.6916 -0.0053
  753TMC3    C111176   2.096   1.047  13.666  0.0902  0.1152 -0.6962
  753TMC3    C211177   2.187   1.028  13.764 -0.1848 -0.2172 -0.2263
  753TMC3    C311178   2.181   0.922  13.848 -0.0949 -0.9294  0.2138
  753TMC3    C411179   1.985   0.969  13.669  0.7345 -0.0214  0.5113
  753TMC3    C511180   1.971   0.865  13.766 -0.4518 -0.1076  0.0686
  753TMC3    C611181   2.080   0.827  13.845  0.6888  0.7957 -0.2640
  753TMC3     C11182   2.097   1.181  13.606 -0.3279  0.2138  0.2331
  753TMC3     O11183   2.200   1.247  13.599  0.2780  0.0918  0.1805
  753TMC3     H11184   2.274   1.092  13.756 -0.8407  0.4197 -2.3264
  753TMC3    H111185   1.903   0.981  13.599  1.0383 -1.2988 -0.0540
  753TMC3    H211186   2.082   0.743  13.913  5.0797  1.0820 -0.0015
  753TMC3    C711187   1.870   0.767  13.723  0.3624  0.3370 -0.0550
  753TMC3    C811188   2.280   0.904  13.953 -0.4248 -0.5351 -0.2261
  753TMC3    O111189   1.775   0.798  13.656 -0.0646 -0.0621  0.7539
  753TMC3    O211190   2.304   0.793  13.997  0.3939  0.1982  0.1421
  754MPD2     C11191   1.700   0.230  13.164 -0.1547 -0.3870  0.1939
  754MPD2    C111192   1.610   0.130  13.122 -0.8639 -0.8553 -0.7447
  754MPD2    C211193   1.472   0.151  13.128  0.7332 -0.1970  0.6000
  754MPD2    C311194   1.427   0.278  13.178  0.5371 -0.2460 -0.0050
  754MPD2    C411195   1.516   0.376  13.221 -0.7171  0.3685 -0.1251
  754MPD2    C511196   1.649   0.352  13.211 -0.0699 -0.5361  0.0203
  754MPD2     H11197   1.406   0.086  13.073  1.0585  0.2839 -0.3609
  754MPD2    H111198   1.486   0.475  13.253  0.2450 -0.1934  2.5297
  754MPD2    H211199   1.807   0.230  13.145  0.0758 -1.4331  1.4928
  754MPD2    H311200   1.720   0.431  13.236 -0.6166 -0.2481  0.6697
  754MPD2     N11201   1.294   0.301  13.186  0.4371 -0.1109 -0.0697
  754MPD2    H511202   1.271   0.399  13.197 -1.1453 -0.3680 -1.1059
  754MPD2    N111203   1.662   0.011  13.068  0.3191 -0.5734 -0.0524
  754MPD2    H711204   1.761   0.020  13.048  0.8080 -0.1830  2.5037
  755MPD2     C11205   0.965   1.020  13.381 -0.2802 -0.5501  0.3061
  755MPD2    C111206   0.841   0.965  13.365 -0.2169 -0.3193 -0.1008
  755MPD2    C211207   0.837   0.843  13.308 -0.5424 -0.1329  0.7338
  755MPD2    C311208   0.960   0.775  13.280  0.5740  0.6426 -0.0059
  755MPD2    C411209   1.080   0.836  13.305  0.4742 -0.2247  0.2039
  755MPD2    C511210   1.085   0.961  13.348 -0.0969 -0.2585  0.4868
  755MPD2     H11211   0.740   0.799  13.288 -0.9580  0.6217  1.0997
  755MPD2    H111212   1.172   0.779  13.292  0.2380 -1.0305  1.9495
  755MPD2    H211213   0.979   1.123  13.412  0.4496 -1.2044  2.1215
  755MPD2    H311214   1.182   1.007  13.360  0.0327 -0.3079 -0.3586
  755MPD2     N11215   0.973   0.643  13.223 -0.1601 -0.5293  0.2265
  755MPD2    H511216   1.065   0.610  13.198 -1.0730 -2.1705 -0.9632
  755MPD2    N111217   0.721   1.026  13.414  0.4908  0.0583 -0.0244
  755MPD2    H711218   0.642   0.966  13.397 -0.0776  1.1924 -1.4550
  756MPD2     C11219   1.101   1.322   9.594  0.5135 -0.9987  0.2611
  756MPD2    C111220   1.129   1.185   9.606  0.1686  0.3262  0.2561
  756MPD2    C211221   1.062   1.100   9.518 -0.8223 -0.2047  0.1268
  756MPD2    C311222   0.979   1.151   9.419 -0.1173 -0.1441 -0.6367
  756MPD2    C411223   0.960   1.283   9.404 -0.2911  0.5451 -0.4605
  756MPD2    C511224   1.017   1.365   9.495 -0.5931 -0.5665 -0.0615
  756MPD2     H11225   1.061   0.992   9.531  0.6132 -0.6142 -3.0701
  756MPD2    H111226   0.903   1.319   9.319 -0.0577  0.2690 -0.7339
  756MPD2    H211227   1.146   1.393   9.663  2.2188 -0.5098 -1.3626
  756MPD2    H311228   0.997   1.471   9.485  2.2669  0.0514  0.7125
  756MPD2     N11229   0.921   1.053   9.336 -0.4685 -0.0701  0.4773
  756MPD2    H511230   0.953   0.957   9.346 -0.7152 -0.4703 -2.4570
  756MPD2    N111231   1.197   1.122   9.712  0.3840 -0.2703  0.3202
  756MPD2    H711232   1.216   1.023   9.695 -0.3000 -0.2685 -0.4527
  757MPD2     C11233   1.102   0.184   9.106 -0.2356  0.2856  0.4679
  757MPD2    C111234   0.979   0.183   9.173 -0.0048 -0.0663  0.0602
  757MPD2    C211235   0.904   0.300   9.154  0.3019 -0.0161 -0.0624
  757MPD2    C311236   0.957   0.412   9.089 -0.3521 -0.9949 -0.1553
  757MPD2    C411237   1.083   0.411   9.047  0.2967 -0.0860 -0.0243
  757MPD2    C511238   1.151   0.295   9.050  0.0680  0.2382 -0.6642
  757MPD2     H11239   0.803   0.308   9.195  0.5648 -1.5007  0.8686
  757MPD2    H111240   1.132   0.489   8.990 -1.9404  1.2443 -0.1434
  757MPD2    H211241   1.162   0.093   9.097 -0.7953  0.0341 -0.7567
  757MPD2    H311242   1.249   0.279   9.007  1.1368 -1.6079  2.4539
  757MPD2     N11243   0.869   0.524   9.078 -0.4777  0.0043  0.3127
  757MPD2    H511244   0.777   0.512   9.119 -1.1770 -1.4505 -1.7185
  757MPD2    N111245   0.926   0.066   9.233 -0.4822 -0.8149  0.6178
  757MPD2    H711246   0.991   4.721   9.226 -1.2420 -1.5189  1.3972
  758MPD2     C11247   1.181   4.653  16.070 -0.3838 -0.4691  0.0687
  758MPD2    C111248   1.224   4.536  16.127 -0.0225 -0.0963  0.0070
  758MPD2    C211249   1.243   4.532  16.264  0.7181 -0.0664 -0.0492
  758MPD2    C311250   1.238   4.638  16.350  0.6674 -0.2416 -0.1855
  758MPD2    C411251   1.193   0.020  16.289  0.4741 -0.2325  0.0196
  758MPD2    C511252   1.159   0.022  16.159  0.2212 -0.4352  0.3863
  758MPD2     H11253   1.274   4.438  16.310 -1.3943 -1.2569 -1.0697
  758MPD2    H111254   1.192   0.108  16.353  3.2948 -1.3581  1.6437
  758MPD2    H211255   1.185   4.669  15.963  1.2503 -1.2112  0.0062
  758MPD2    H311256   1.124   0.119  16.125  0.5002 -0.0238  1.2803
  758MPD2     N11257   1.276   4.634  16.488 -0.0844  0.1420  0.4403
  758MPD2    H511258   1.244   4.716  16.539 -0.6361  0.2231 -0.0469
  758MPD2    N111259   1.255   4.425  16.044  0.7593  0.1345  0.1209
  758MPD2    H711260   1.279   4.454  15.950  1.7722  3.0229  1.2640
  759MPD2     C11261   0.229   2.381  10.003  0.1731  0.4427 -0.2647
  759MPD2    C111262   0.152   2.455  10.097 -0.1974 -0.2762 -0.5513
  759MPD2    C211263   0.182   2.587  10.117 -0.1797  0.3148  0.3597
  759MPD2    C311264   0.258   2.659  10.025  0.2783  1.0177 -0.0993
  759MPD2    C411265   0.331   2.589   9.930 -0.2108 -0.6148  0.9519
  759MPD2    C511266   0.321   2.454   9.926  0.1159  0.8526  0.3721
  759MPD2     H11267   0.134   2.637  10.201 -1.0790 -1.0630  0.6579
  759MPD2    H111268   0.397   2.643   9.863  0.3692  1.0122  2.8402
  759MPD2    H211269   0.224   2.274   9.988  0.4075  0.5603 -1.2224
  759MPD2    H311270   0.376   2.406   9.845  0.1173 -1.8709  2.0096
  759MPD2     N11271   0.270   2.800  10.039 -1.0540  0.2265  0.0651
  759MPD2    H511272   0.212   2.842  10.111  0.4082 -1.3260  2.1235
  759MPD2    N111273   0.045   2.396  10.172  0.2753  0.6183  0.4170
  759MPD2    H711274   0.007   2.465  10.237 -1.1533  0.6232 -0.4453
  760MPD2     C11275   4.228   0.195  11.728  0.3020 -0.5977  0.2763
  760MPD2    C111276   4.331   0.251  11.662 -0.1497 -0.1457 -0.7307
  760MPD2    C211277   4.417   0.166  11.591 -0.7970 -0.4772 -0.2745
  760MPD2    C311278   4.392   0.027  11.593  0.3511  1.1498  0.3254
  760MPD2    C411279   4.285   4.707  11.662  0.4305  0.2002 -0.4846
  760MPD2    C511280   4.204   0.063  11.725 -0.4420 -0.3781 -0.5538
  760MPD2     H11281   4.511   0.202  11.552 -0.4264  0.8313  1.8422
  760MPD2    H111282   4.269   4.600  11.667  3.6428 -0.2074  1.2111
  760MPD2    H211283   4.159   0.252  11.788 -1.0176 -1.4734 -0.4002
  760MPD2    H311284   4.127   0.024  11.791  1.3916  0.2105  1.9805
  760MPD2     N11285   4.485   4.671  11.527  0.0647 -0.0728  0.7241
  760MPD2    H511286   4.473   4.570  11.535 -0.7524 -0.0049  0.3370
  760MPD2    N111287   4.360   0.389  11.666  0.3202 -0.0951 -0.6227
  760MPD2    H711288   4.441   0.424  11.616  0.6443  1.9590  1.3190
  761MPD2     C11289   1.145   4.312  11.254 -0.1420  0.3671  0.2159
  761MPD2    C111290   1.146   4.259  11.123 -0.1475  0.5837  0.1385
  761MPD2    C211291   1.247   4.293  11.038 -0.1671  0.6877  0.3160
  761MPD2    C311292   1.341   4.389  11.067  0.4452 -0.2861  0.2402
  761MPD2    C411293   1.335   4.437  11.198 -0.1770 -0.3313  0.2260
  761MPD2    C511294   1.242   4.405  11.290  0.0130  0.0334 -0.0882
  761MPD2     H11295   1.250   4.249  10.939  0.7652  0.1347  0.5887
  761MPD2    H111296   1.417   4.494  11.241  0.4587 -2.6639  2.0639
  761MPD2    H211297   1.077   4.277  11.330  1.8442 -3.3067  0.3144
  761MPD2    H311298   1.253   4.435  11.393  1.7630 -0.3960 -0.1509
  761MPD2     N11299   1.444   4.439  10.987 -0.1839  0.1678 -0.3290
  761MPD2    H511300   1.504   4.512  11.024  0.4156 -0.1772 -0.6263
  761MPD2    N111301   1.043   4.164  11.091 -0.2296  0.1629  0.4852
  761MPD2    H711302   0.992   4.134  11.173 -0.3823 -0.5659  0.1251
  762MPD2     C11303   0.628   3.447  10.658 -0.2691  0.1637  0.0925
  762MPD2    C111304   0.724   3.545  10.652 -0.0363  0.0812  0.2700
  762MPD2    C211305   0.827   3.532  10.561  0.1433 -0.1278  0.2560
  762MPD2    C311306   0.846   3.420  10.480  0.5416  0.0933  0.4817
  762MPD2    C411307   0.740   3.331  10.482 -0.3137 -0.7927  0.0485
  762MPD2    C511308   0.638   3.347  10.569 -0.1510  0.3198 -0.1483
  762MPD2     H11309   0.904   3.607  10.556 -0.9291  1.0287  1.2062
  762MPD2    H111310   0.746   3.246  10.415  0.4290  0.3153 -1.3092
  762MPD2    H211311   0.534   3.446  10.711  0.3533 -0.2110  1.1800
  762MPD2    H311312   0.562   3.270  10.577 -1.6255  1.7614 -0.2790
  762MPD2     N11313   0.964   3.420  10.401  0.0349 -0.5609  0.1314
  762MPD2    H511314   1.029   3.498  10.412  0.0782 -0.2624 -2.2618
  762MPD2    N111315   0.705   3.657  10.742  0.7044 -0.5750 -0.8900
  762MPD2    H711316   0.623   3.656  10.802  2.6613 -0.4288  1.7688
  763MPD2     C11317   3.160   4.289  16.092 -0.3855  0.0719 -0.3119
  763MPD2    C111318   3.126   4.333  15.972  0.6192  0.1987  0.5172
  763MPD2    C211319   3.113   4.466  15.938  0.3835 -0.1762 -0.0323
  763MPD2    C311320   3.132   4.565  16.028  1.1350  0.0842  0.7095
  763MPD2    C411321   3.158   4.522  16.156  0.6072  0.1257  0.3481
  763MPD2    C511322   3.180   4.388  16.183 -0.3523  0.0828 -0.2767
  763MPD2     H11323   3.079   4.487  15.837 -1.1276  1.6926  0.8682
  763MPD2    H111324   3.185   4.589  16.237 -2.6547  0.0979  1.4535
  763MPD2    H211325   3.178   4.187  16.123 -1.9233 -0.4047 -0.9531
  763MPD2    H311326   3.200   4.364  16.287 -0.9367 -1.7502 -0.5950
  763MPD2     N11327   3.102   4.703  15.999  0.0907  0.2857  0.1403
  763MPD2    H511328   3.086   0.002  15.904 -0.5701  2.0322  0.8356
  763MPD2    N111329   3.103   4.238  15.866 -0.3258 -0.4054  0.1247
  763MPD2    H711330   3.080   4.274  15.774 -1.6693 -0.7735  0.3263
  764MPD2     C11331   1.126   1.207   0.308 -0.5399 -0.0605  0.0118
  764MPD2    C111332   1.093   1.205   0.172  0.5186  0.3679 -0.0336
  764MPD2    C211333   0.964   1.177   0.136  0.7163 -0.3360  0.2035
  764MPD2    C311334   0.874   1.140   0.232  0.1317 -0.0801 -0.3811
  764MPD2    C411335   0.914   1.127   0.365  0.0274  0.1141  0.2901
  764MPD2    C511336   1.040   1.163   0.401  0.6620 -0.4241 -0.1565
  764MPD2     H11337   0.926   1.188   0.035 -0.2151 -1.1175  0.4705
  764MPD2    H111338   0.848   1.100   0.447 -2.3068  2.6388 -0.7097
  764MPD2    H211339   1.226   1.221   0.346 -0.9386  0.6689  0.7943
  764MPD2    H311340   1.065   1.155   0.506 -0.7805  0.4655  0.2451
  764MPD2     N11341   0.742   1.108   0.194 -0.1800 -1.1085 -0.2258
  764MPD2    H511342   0.711   1.131   0.100  0.9617  0.5883 -0.1744
  764MPD2    N111343   1.175   1.262   0.066 -0.4302  0.2825 -0.5419
  764MPD2    H711344   1.136   1.267  17.704 -0.8423 -2.0582 -0.5093
  765MPD2     C11345   0.739   3.405  16.077  0.0401 -0.4721  0.2550
  765MPD2    C111346   0.817   3.515  16.055  0.3129  0.1458  0.2145
  765MPD2    C211347   0.958   3.496  16.073 -0.4062 -0.2814 -0.1214
  765MPD2    C311348   1.005   3.382  16.132 -0.1562 -0.8434 -0.0689
  765MPD2    C411349   0.923   3.280  16.168 -0.0677  0.3948  1.0591
  765MPD2    C511350   0.789   3.297  16.140  0.0424  0.2546 -0.4794
  765MPD2     H11351   1.026   3.576  16.048  0.4532 -0.8855  0.3123
  765MPD2    H111352   0.953   3.184  16.207 -1.8322 -0.2302  0.8726
  765MPD2    H211353   0.633   3.407  16.052 -0.1714 -0.0309  1.1938
  765MPD2    H311354   0.723   3.212  16.141 -0.7691  0.8792 -1.1070
  765MPD2     N11355   1.144   3.373  16.145 -1.0532  0.2405 -0.0449
  765MPD2    H511356   1.199   3.450  16.108 -0.5248  0.3580  0.9612
  765MPD2    N111357   0.757   3.637  16.016 -0.2892  0.2050  0.4588
  765MPD2    H711358   0.655   3.642  16.013 -0.2279  1.1576 -0.2757
  766MPD2     C11359   0.296   3.960  15.540 -0.6873  0.2958 -0.2324
  766MPD2    C111360   0.419   3.900  15.584  0.0957 -0.1624 -0.2821
  766MPD2    C211361   0.506   3.857  15.487  0.3571 -0.5249  0.3259
  766MPD2    C311362   0.483   3.888  15.350 -0.6228  0.1265  0.6563
  766MPD2    C411363   0.356   3.923  15.311  0.7188  0.4023 -0.1136
  766MPD2    C511364   0.263   3.952  15.406 -0.2074  0.3567  0.2054
  766MPD2     H11365   0.593   3.803  15.521  0.1444 -1.4088 -0.5279
  766MPD2    H111366   0.330   3.934  15.206 -1.2902 -0.8736  0.2477
  766MPD2    H211367   0.217   3.984  15.610 -0.0811 -1.8338  1.2025
  766MPD2    H311368   0.164   3.984  15.378  0.3524  0.4965 -1.6063
  766MPD2     N11369   0.589   3.889  15.253  0.0919  0.3837 -0.7091
  766MPD2    H511370   0.560   3.910  15.159  0.2200  0.4896 -0.7243
  766MPD2    N111371   0.461   3.879  15.714  0.0414  0.5091 -0.2874
  766MPD2    H711372   0.544   3.822  15.723  0.0036  0.2561 -1.4938
  767MPD2     C11373   0.263   4.227  15.049 -0.5798  0.2896 -0.2142
  767MPD2    C111374   0.391   4.183  15.051  0.5005  0.4530 -0.1764
  767MPD2    C211375   0.431   4.108  14.944 -0.4532  0.4752 -0.7180
  767MPD2    C311376   0.357   4.086  14.828 -0.1726  0.1076  0.1564
  767MPD2    C411377   0.233   4.145  14.831 -0.4007 -0.6442 -0.7510
  767MPD2    C511378   0.192   4.215  14.934 -0.4642  0.0382  0.6706
  767MPD2     H11379   0.529   4.063  14.951 -0.3732  0.8077  0.3196
  767MPD2    H111380   0.164   4.135  14.748 -1.1354  0.4821 -0.2588
  767MPD2    H211381   0.220   4.286  15.128 -1.5467  0.7901 -1.1168
  767MPD2    H311382   0.091   4.253  14.925  0.3872  1.1779 -4.0126
  767MPD2     N11383   0.412   4.002  14.720  0.5343  0.0423  0.1248
  767MPD2    H511384   0.507   3.970  14.738  0.4238  0.2515  1.0767
  767MPD2    N111385   0.473   4.227  15.163 -0.2378 -0.0699  0.3078
  767MPD2    H711386   0.421   4.269  15.239  0.4028  0.1138  0.6482
  768MPD2     C11387   0.426   2.410  10.705  0.3013  0.3726 -0.6259
  768MPD2    C111388   0.468   2.511  10.794 -0.2192 -0.0901  0.8696
  768MPD2    C211389   0.587   2.496  10.860 -0.5182  0.4789 -0.0540
  768MPD2    C311390   0.659   2.377  10.851 -0.4948  1.3437  0.5497
  768MPD2    C411391   0.601   2.271  10.785  0.3407  0.3604 -0.7984
  768MPD2    C511392   0.492   2.293  10.703  0.2204 -0.0592  0.3842
  768MPD2     H11393   0.624   2.572  10.928 -3.6730 -0.3215  2.6046
  768MPD2    H111394   0.648   2.173  10.782 -1.7336 -0.6789 -0.2356
  768MPD2    H211395   0.343   2.434  10.640 -0.9360 -0.2929  0.7186
  768MPD2    H311396   0.464   2.212  10.636 -0.7364 -0.8778  1.7626
  768MPD2     N11397   0.768   2.352  10.933  0.1770 -0.5027  0.5777
  768MPD2    H511398   0.817   2.263  10.930  0.2040 -0.5023  1.0365
  768MPD2    N111399   0.389   2.627  10.822 -0.3661  0.6546 -0.3566
  768MPD2    H711400   0.429   2.703  10.875  2.8824 -0.5806 -1.0233
  769MPD2     C11401   2.733   0.764  14.993 -0.0811  0.2827 -0.2193
  769MPD2    C111402   2.599   0.765  15.030 -0.5138 -0.7722  0.4111
  769MPD2    C211403   2.561   0.848  15.136  0.3902  1.2616  0.4430
  769MPD2    C311404   2.656   0.927  15.200  0.2872  0.0290 -0.2289
  769MPD2    C411405   2.787   0.930  15.164 -0.1237  0.0892 -0.1061
  769MPD2    C511406   2.822   0.850  15.059  0.0526  0.3884  0.0037
  769MPD2     H11407   2.460   0.847  15.177  0.0465 -1.1084 -0.4270
  769MPD2    H111408   2.861   0.995  15.209  1.5193  0.0518 -2.7920
  769MPD2    H211409   2.765   0.710  14.904 -1.6896  0.0199 -0.6571
  769MPD2    H311410   2.927   0.842  15.032 -0.0659  1.4214 -0.7292
  769MPD2     N11411   2.617   1.007  15.306 -0.4736  0.3451  0.1706
  769MPD2    H511412   2.523   1.001  15.344  0.4020 -1.8182  2.0045
  769MPD2    N111413   2.515   0.683  14.958  0.1485  0.2988 -0.0121
  769MPD2    H711414   2.558   0.615  14.896 -0.7458 -1.1210  0.9238
  770MPD2     C11415   2.218   4.463  15.031 -0.0104 -0.6093 -0.3588
  770MPD2    C111416   2.124   4.525  14.950  0.0371  0.1463  0.7218
  770MPD2    C211417   2.132   4.655  14.927  0.1465  0.3294 -0.6436
  770MPD2    C311418   2.235   0.000  14.986  0.1474 -0.0009 -1.0343
  770MPD2    C411419   2.325   4.678  15.072 -0.5951 -0.2676 -0.1819
  770MPD2    C511420   2.320   4.539  15.087 -0.4401 -0.1433 -0.4249
  770MPD2     H11421   2.058   4.701  14.862  0.7986  1.8975 -0.2758
  770MPD2    H111422   2.391   0.009  15.130  0.8926 -2.7571  0.8672
  770MPD2    H211423   2.218   4.358  15.054 -0.6423 -0.8796 -1.5724
  770MPD2    H311424   2.406   4.489  15.131  0.4754 -0.0875 -2.1810
  770MPD2     N11425   2.224   0.138  14.956  0.2233  0.2588  0.6743
  770MPD2    H511426   2.153   0.163  14.888  0.1527  0.2286  0.7367
  770MPD2    N111427   2.020   4.434  14.908  0.0123  0.2214  0.1442
  770MPD2    H711428   2.023   4.347  14.961 -1.4285 -1.0916 -1.9290
  771MPD2     C11429   2.758   3.425  13.756  0.6521 -0.7996  0.3721
  771MPD2    C111430   2.686   3.540  13.755  0.0617  0.3914 -0.4761
  771MPD2    C211431   2.549   3.530  13.770 -0.1097 -0.1582  0.1822
  771MPD2    C311432   2.475   3.413  13.792 -0.1044  0.4884  0.0687
  771MPD2    C411433   2.554   3.302  13.798  0.1460  0.1016 -0.2281
  771MPD2    C511434   2.691   3.313  13.782 -0.4614  0.0785  0.2275
  771MPD2     H11435   2.497   3.626  13.767 -2.9299 -1.6938  0.3359
  771MPD2    H111436   2.504   3.208  13.820  1.1739  0.2550  2.7966
  771MPD2    H211437   2.866   3.422  13.744  0.8853  0.6430  2.1439
  771MPD2    H311438   2.750   3.222  13.789  0.7475  0.5567 -3.6256
  771MPD2     N11439   2.328   3.411  13.801  0.2429 -0.3837  0.7719
  771MPD2    H511440   2.285   3.501  13.787 -0.0171 -0.7078 -0.4868
  771MPD2    N111441   2.740   3.669  13.740  0.2436  0.3786 -0.4939
  771MPD2    H711442   2.677   3.749  13.743  0.0233  0.1795  0.2493
  772MPD2     C11443   2.622   4.194  14.131  0.6870 -0.5046 -0.3979
  772MPD2    C111444   2.577   4.113  14.024  1.0151 -0.4026 -0.7425
  772MPD2    C211445   2.456   4.057  14.041 -0.1326 -0.2907  0.2278
  772MPD2    C311446   2.389   4.070  14.159 -0.2591 -0.5585 -0.6241
  772MPD2    C411447   2.427   4.160  14.249 -0.2958 -0.2167  0.9220
  772MPD2    C511448   2.545   4.223  14.241 -0.4511 -0.7353 -0.0848
  772MPD2     H11449   2.407   4.002  13.962  2.3447 -2.4631  0.1785
  772MPD2    H111450   2.359   4.180  14.330 -2.4173  0.7192 -1.0914
  772MPD2    H211451   2.720   4.241  14.123  0.0364  0.9616  0.3634
  772MPD2    H311452   2.572   4.289  14.322 -0.4266 -1.0978  0.2057
  772MPD2     N11453   2.261   4.016  14.179 -0.4293  0.4658 -0.7559
  772MPD2    H511454   2.199   4.051  14.251 -0.5410  0.8160 -1.0262
  772MPD2    N111455   2.646   4.085  13.904 -0.1526  0.0935  0.3618
  772MPD2    H711456   2.598   4.032  13.832 -0.1819 -1.1481  1.2738
  773MPD2     C11457   1.608   4.572   0.926  0.6647  0.0805  0.1138
  773MPD2    C111458   1.635   4.523   0.805  0.2911 -0.2030 -0.3686
  773MPD2    C211459   1.732   4.428   0.792  0.1594  0.3384  0.0040
  773MPD2    C311460   1.792   4.375   0.913 -0.3437  0.2434  0.2594
  773MPD2    C411461   1.767   4.430   1.034  0.5462  0.1179 -0.2911
  773MPD2    C511462   1.670   4.530   1.041  0.4361  0.0823 -0.6020
  773MPD2     H11463   1.767   4.387   0.698 -1.3065 -0.9519  0.0171
  773MPD2    H111464   1.823   4.409   1.125 -0.3255  0.0487  0.2261
  773MPD2    H211465   1.525   4.642   0.933  0.7362  0.2925 -1.1317
  773MPD2    H311466   1.636   4.580   1.130 -2.4896 -1.2955 -0.9376
  773MPD2     N11467   1.901   4.286   0.897 -0.1317 -0.7509  0.5708
  773MPD2    H511468   1.917   4.256   0.802 -1.1066  0.5357 -0.0001
  773MPD2    N111469   1.568   4.559   0.686 -0.6254 -0.4768 -0.1719
  773MPD2    H711470   1.586   4.493   0.612  1.2059  0.3171 -0.4421
  774MPD2     C11471   0.846   4.026  13.288 -0.2801 -0.0711  0.2901
  774MPD2    C111472   0.929   4.027  13.400  0.3813  0.1938 -0.0775
  774MPD2    C211473   1.046   4.092  13.392  0.6192  0.1701  0.8355
  774MPD2    C311474   1.075   4.177  13.287 -0.1885  0.5736  0.2452
  774MPD2    C411475   0.977   4.193  13.186  0.0642  0.2903 -0.7456
  774MPD2    C511476   0.867   4.110  13.185 -0.2976  0.4657 -0.6254
  774MPD2     H11477   1.112   4.092  13.478 -0.2254  1.2269  1.4860
  774MPD2    H111478   0.989   4.261  13.102 -2.4403  0.3603 -1.0348
  774MPD2    H211479   0.768   3.951  13.282  0.7441 -1.2311  1.3976
  774MPD2    H311480   0.797   4.112  13.102 -1.3688 -0.9218  0.2400
  774MPD2     N11481   1.193   4.252  13.294  0.0867  0.0081  0.5336
  774MPD2    H511482   1.241   4.262  13.383  1.4149 -1.7903  0.0347
  774MPD2    N111483   0.896   3.937  13.503 -0.7104 -0.0152  0.7376
  774MPD2    H711484   0.828   3.865  13.478  0.0634 -0.0100 -1.4044
  775MPD2     C11485   2.636   0.535  15.502 -0.4673  0.3739 -0.0403
  775MPD2    C111486   2.670   0.640  15.589  0.8831 -0.0548  0.5463
  775MPD2    C211487   2.770   0.728  15.563  0.0065  0.0338 -0.2405
  775MPD2    C311488   2.837   0.717  15.441  0.3986  0.1704  0.2590
  775MPD2    C411489   2.798   0.624  15.350  0.1649  0.1779 -0.0725
  775MPD2    C511490   2.702   0.537  15.383 -0.2379 -0.0679  1.3931
  775MPD2     H11491   2.809   0.797  15.636  1.2797 -1.9707  0.9494
  775MPD2    H111492   2.847   0.617  15.254  1.1401  0.7350  0.3816
  775MPD2    H211493   2.552   0.469  15.522  0.3272 -0.3211  1.0206
  775MPD2    H311494   2.659   0.463  15.317 -1.9056  1.1712  1.0711
  775MPD2     N11495   2.936   0.806  15.402  0.6396  0.0199  0.0138
  775MPD2    H511496   2.956   0.812  15.303  0.7887  1.5479  0.1327
  775MPD2    N111497   2.613   0.628  15.721 -0.5084  0.6407 -0.1695
  775MPD2    H711498   2.556   0.548  15.745 -2.0056  1.9007  0.4988
  776MPD2     C11499   1.458   1.109  10.968 -0.0686  0.1933 -0.2048
  776MPD2    C111500   1.521   1.099  11.091  0.4253 -0.5666 -0.4879
  776MPD2    C211501   1.543   1.216  11.165 -0.0643  0.2106  0.0487
  776MPD2    C311502   1.512   1.343  11.116  0.1010  0.6229 -0.7246
  776MPD2    C411503   1.465   1.345  10.985 -0.4972  0.7622  0.5443
  776MPD2    C511504   1.431   1.231  10.913  0.1458  1.1927  0.1074
  776MPD2     H11505   1.587   1.197  11.262  0.6257 -1.8005 -0.6438
  776MPD2    H111506   1.440   1.437  10.934  5.7367  1.7958 -0.6551
  776MPD2    H211507   1.443   1.022  10.905  0.9722 -0.7299  0.8262
  776MPD2    H311508   1.390   1.234  10.813 -0.7066 -0.6159  0.3860
  776MPD2     N11509   1.562   1.464  11.181  0.1521  0.3162 -0.4451
  776MPD2    H511510   1.576   1.550  11.129  0.4216  1.2900  1.2602
  776MPD2    N111511   1.574   0.973  11.134 -0.0279  0.2594 -0.7483
  776MPD2    H711512   1.574   0.898  11.066  2.3594  0.8478 -1.3997
  777MPD2     C11513   1.810   3.054   0.710 -0.0371  0.3050  0.0605
  777MPD2    C111514   1.703   3.001   0.772 -0.4017  0.4417 -0.3741
  777MPD2    C211515   1.628   2.904   0.707  0.5263 -0.2293  1.1890
  777MPD2    C311516   1.650   2.873   0.578  0.4321  0.4242  0.1433
  777MPD2    C411517   1.753   2.932   0.510 -0.1364 -0.1645 -0.3254
  777MPD2    C511518   1.830   3.021   0.575  0.4208 -0.6335 -0.0384
  777MPD2     H11519   1.540   2.863   0.755 -0.2810 -0.7770 -0.7655
  777MPD2    H111520   1.772   2.909   0.406  1.9926 -0.3841  0.1074
  777MPD2    H211521   1.870   3.134   0.753 -1.0523  2.2684 -2.1443
  777MPD2    H311522   1.919   3.057   0.524  1.1797 -1.3827  0.7720
  777MPD2     N11523   1.568   2.773   0.521 -0.2126 -0.0486  0.7356
  777MPD2    H511524   1.495   2.730   0.579  0.6326 -1.4687  0.7466
  777MPD2    N111525   1.678   3.051   0.903 -0.5578  0.5784  0.1601
  777MPD2    H711526   1.745   3.118   0.940  0.9256 -0.7319 -0.1237
  778MPD2     C11527   3.106   3.565  14.523 -0.1775 -0.1332 -0.0779
  778MPD2    C111528   3.152   3.436  14.505  0.2472  0.2999 -0.2068
  778MPD2    C211529   3.261   3.419  14.420 -0.6516  0.1164 -0.2215
  778MPD2    C311530   3.320   3.526  14.353 -0.2271 -0.5376  0.1221
  778MPD2    C411531   3.265   3.653  14.368 -0.1623  0.0693  0.0495
  778MPD2    C511532   3.163   3.670  14.460 -0.0013  0.4765  0.2878
  778MPD2     H11533   3.311   3.324  14.400  1.3701  1.4729 -1.5972
  778MPD2    H111534   3.307   3.746  14.332  0.1816 -0.5308 -1.1163
  778MPD2    H211535   3.017   3.577  14.584  0.3108 -2.1607  1.0198
  778MPD2    H311536   3.116   3.765  14.480  0.9324  1.0581 -0.2849
  778MPD2     N11537   3.448   3.505  14.294 -0.3181 -0.4157  0.4248
  778MPD2    H511538   3.475   3.407  14.295  3.5831  0.6469 -0.8472
  778MPD2    N111539   3.092   3.326  14.572 -0.5090  0.2588 -0.1105
  778MPD2    H711540   3.100   3.231  14.537  1.3136  0.1798  0.5140
  779MPD2     C11541   2.767   2.073  13.767 -0.0589  0.3472 -0.2197
  779MPD2    C111542   2.814   2.076  13.893 -0.5072  0.8591  0.2024
  779MPD2    C211543   2.855   2.200  13.944 -0.3149  0.4115 -0.4680
  779MPD2    C311544   2.847   2.319  13.870 -0.7100  0.3698  0.7747
  779MPD2    C411545   2.789   2.305  13.747 -0.9169 -0.2332  0.5120
  779MPD2    C511546   2.752   2.184  13.693  0.2619 -0.0237  0.2748
  779MPD2     H11547   2.884   2.214  14.047 -0.6694 -0.2779 -0.2725
  779MPD2    H111548   2.757   2.395  13.696 -0.9635 -1.1374 -1.0274
  779MPD2    H211549   2.734   1.982  13.718  2.0551 -0.0259 -0.9403
  779MPD2    H311550   2.711   2.173  13.593  0.7217  1.9210 -0.1323
  779MPD2     N11551   2.884   2.438  13.930 -0.0428  0.1766 -0.2225
  779MPD2    H511552   2.938   2.435  14.015  0.2555  2.6689 -0.3213
  779MPD2    N111553   2.834   1.965  13.976 -0.1367 -0.2236 -0.4863
  779MPD2    H711554   2.842   1.992  14.073  1.2599  1.3262 -1.0375
  780MPD2     C11555   1.831   2.085   0.721 -0.3832  0.1858 -0.0775
  780MPD2    C111556   1.854   2.028   0.600 -0.2825 -0.0935 -0.1286
  780MPD2    C211557   1.975   2.057   0.538 -0.7930 -0.3034 -0.6255
  780MPD2    C311558   2.064   2.142   0.589 -0.1344  0.1837  0.2907
  780MPD2    C411559   2.039   2.195   0.715  0.8762 -0.1040  0.2628
  780MPD2    C511560   1.922   2.168   0.783  0.1460 -0.2343  0.1946
  780MPD2     H11561   2.002   2.030   0.436 -2.0815  0.3062 -1.1152
  780MPD2    H111562   2.105   2.270   0.756 -0.7542  0.4217  1.8986
  780MPD2    H211563   1.746   2.050   0.778  0.3736 -1.3451  0.1117
  780MPD2    H311564   1.906   2.215   0.879 -0.6784 -0.8755  0.3697
  780MPD2     N11565   2.171   2.181   0.508 -0.0497  0.2838 -0.2414
  780MPD2    H511566   2.175   2.137   0.416 -1.1931 -0.7311  0.1960
  780MPD2    N111567   1.760   1.936   0.543 -0.1959  0.2138  0.0619
  780MPD2    H711568   1.670   1.927   0.589  0.6266 -0.9050  1.4829
  781MPD2     C11569   3.998   3.898  12.294  0.8401  0.0681  0.0743
  781MPD2    C111570   4.130   3.916  12.334  0.4674  0.0915  0.2444
  781MPD2    C211571   4.218   3.977  12.251 -0.2835 -0.7545  0.6386
  781MPD2    C311572   4.176   4.010  12.116 -0.2891 -0.4850  0.0706
  781MPD2    C411573   4.050   3.965  12.073 -0.3503  0.4791  0.6489
  781MPD2    C511574   3.954   3.920  12.168  0.3436  0.3379 -0.3930
  781MPD2     H11575   4.318   3.998  12.286 -0.3421 -1.7460  1.3735
  781MPD2    H111576   4.007   4.005  11.983  2.6469  1.7213 -0.2175
  781MPD2    H211577   3.928   3.850  12.362  0.6393 -0.5017 -0.5384
  781MPD2    H311578   3.850   3.911  12.141  0.2352  2.1006 -0.5444
  781MPD2     N11579   4.260   4.074  12.022 -0.2756  0.8294  0.7382
  781MPD2    H511580   4.232   4.068  11.925  0.1360  0.7623  0.6207
  781MPD2    N111581   4.174   3.892  12.465 -0.0960  0.2141 -0.7300
  781MPD2    H711582   4.263   3.924  12.501  0.5700 -1.2588 -1.0695
  782MPD2     C11583   2.623   4.395   9.826  0.5017 -0.5882 -0.4963
  782MPD2    C111584   2.617   4.388   9.967  0.1658  0.1746  0.6429
  782MPD2    C211585   2.602   4.504  10.042  0.2519  0.8765 -0.3193
  782MPD2    C311586   2.625   4.624   9.980  0.2341  0.0222  0.1990
  782MPD2    C411587   2.650   4.629   9.841  0.3005  0.0134 -0.3188
  782MPD2    C511588   2.639   4.514   9.766  0.5866 -0.1013 -0.7474
  782MPD2     H11589   2.591   4.508  10.150  0.3275  0.7485 -0.3069
  782MPD2    H111590   2.650   4.725   9.790  1.9753  0.4205  0.4776
  782MPD2    H211591   2.640   4.299   9.778  2.9640  0.3777 -1.5225
  782MPD2    H311592   2.650   4.517   9.658 -0.8568 -2.4853 -0.9606
  782MPD2     N11593   2.603   0.005  10.060 -0.3888  1.0053  0.0283
  782MPD2    H511594   2.579   4.714  10.156 -2.3322  1.5378 -0.3306
  782MPD2    N111595   2.598   4.268  10.037  0.4682  0.3981  0.5411
  782MPD2    H711596   2.604   4.276  10.138  0.7359  0.7196  0.4961
  783MPD2     C11597   1.740   4.073  10.329 -0.5009  0.1569  0.2984
  783MPD2    C111598   1.817   4.168  10.388  0.3821 -0.8122  0.2384
  783MPD2    C211599   1.955   4.154  10.370  0.3381 -0.6345 -0.2008
  783MPD2    C311600   2.009   4.049  10.297  0.4847  0.1197 -0.0882
  783MPD2    C411601   1.922   3.958  10.233 -0.1396 -0.1547 -0.9709
  783MPD2    C511602   1.791   3.979  10.244 -0.2587 -0.6490  0.5929
  783MPD2     H11603   2.014   4.225  10.427 -0.0644  0.8539 -1.6176
  783MPD2    H111604   1.957   3.877  10.169 -1.8897  0.6098 -2.8834
  783MPD2    H211605   1.632   4.079  10.338 -0.6400  0.5991 -1.6070
  783MPD2    H311606   1.714   3.911  10.208  2.1803 -2.0456 -1.9663
  783MPD2     N11607   2.148   4.038  10.282 -0.3646  0.1742 -0.5622
  783MPD2    H511608   2.211   4.107  10.321  0.2782 -0.4972 -0.4159
  783MPD2    N111609   1.757   4.268  10.472 -0.2071 -1.0693  0.1308
  783MPD2    H711610   1.659   4.261  10.497 -0.1183 -0.7342  0.5664
  784MPD2     C11611   4.548   0.274   0.988  0.2820  0.4316 -0.1718
  784MPD2    C111612   4.575   0.387   0.915 -0.1076 -0.0501 -0.1914
  784MPD2    C211613   4.475   0.480   0.894  0.4691 -0.4318  0.2145
  784MPD2    C311614   4.346   0.467   0.937 -0.0437 -0.3866  0.6090
  784MPD2    C411615   4.321   0.357   1.012 -0.0893 -0.1079 -0.7406
  784MPD2    C511616   4.423   0.264   1.042 -0.0489 -0.3072 -0.2799
  784MPD2     H11617   4.500   0.568   0.835  2.2362 -0.0260  1.5890
  784MPD2    H111618   4.220   0.342   1.050  1.4831 -2.3075  2.5698
  784MPD2    H211619   4.627   0.201   1.002  0.8712  1.1566  0.3134
  784MPD2    H311620   4.396   0.184   1.110  0.3934  0.4387  0.7751
  784MPD2     N11621   4.253   0.564   0.898 -0.3654  0.8618  0.1927
  784MPD2    H511622   4.287   0.642   0.843 -1.6808  1.5456  0.3546
  784MPD2    N111623   4.705   0.425   0.883 -0.1050  0.2542 -0.5439
  784MPD2    H711624   4.725   0.520   0.853 -1.0034  1.1703  1.7647
  785MPD2     C11625   4.276   3.399  10.908 -0.5496 -0.2353  0.1852
  785MPD2    C111626   4.278   3.542  10.895  0.4328 -0.6190 -0.1813
  785MPD2    C211627   4.175   3.598  10.819  0.9415  0.0479 -0.7595
  785MPD2    C311628   4.087   3.524  10.745  0.2833  0.5964  0.2140
  785MPD2    C411629   4.090   3.385  10.752 -0.0872  0.3700 -0.8222
  785MPD2    C511630   4.183   3.325  10.833  0.0386 -0.1297 -0.2846
  785MPD2     H11631   4.165   3.705  10.804  2.2007  0.0799 -1.3734
  785MPD2    H111632   4.011   3.324  10.709  0.5758 -1.4685  0.5342
  785MPD2    H211633   4.345   3.340  10.968  2.1010  0.7835 -1.8171
  785MPD2    H311634   4.177   3.217  10.836  1.7501 -0.2767 -2.1936
  785MPD2     N11635   3.995   3.595  10.665  0.0508 -0.1878 -0.7687
  785MPD2    H511636   3.991   3.695  10.683  2.3822  0.1163 -1.8772
  785MPD2    N111637   4.378   3.618  10.968  0.1329 -0.1881 -0.4785
  785MPD2    H711638   4.456   3.565  11.005 -0.3432 -0.2505  0.4246
  786MPD2     C11639   3.290   1.616  14.892 -0.3942  0.2816 -0.2188
  786MPD2    C111640   3.404   1.554  14.851  0.2845 -0.3743  0.8758
  786MPD2    C211641   3.529   1.585  14.904  0.0465 -0.6992  0.0326
  786MPD2    C311642   3.539   1.682  15.006  0.4220 -0.0864 -0.5830
  786MPD2    C411643   3.423   1.746  15.042 -0.3902  0.1604 -0.0555
  786MPD2    C511644   3.307   1.719  14.980  0.7337  0.0323 -0.0412
  786MPD2     H11645   3.610   1.526  14.862  0.9405  0.1412  0.5970
  786MPD2    H111646   3.417   1.816  15.125 -0.6363  0.7269 -0.5500
  786MPD2    H211647   3.190   1.602  14.853 -0.2420  0.7645 -0.7847
  786MPD2    H311648   3.219   1.773  15.010  0.6925  0.3043 -0.6524
  786MPD2     N11649   3.655   1.715  15.074  0.5953 -0.3739  0.6471
  786MPD2    H511650   3.662   1.782  15.150  0.6155  0.5966 -0.2082
  786MPD2    N111651   3.397   1.451  14.760 -0.6251  0.3568 -0.6408
  786MPD2    H711652   3.487   1.407  14.743 -0.3550  0.5597  0.2973
  787MPD2     C11653   3.556   0.904  15.043 -0.2259 -0.0555 -0.0771
  787MPD2    C111654   3.565   0.872  14.911  0.1538  0.2132 -0.1554
  787MPD2    C211655   3.622   0.752  14.870 -0.3530 -0.3246  0.7481
  787MPD2    C311656   3.665   0.663  14.964 -0.0383 -1.4448  0.1360
  787MPD2    C411657   3.659   0.697  15.096  0.3919 -0.8265  0.6632
  787MPD2    C511658   3.601   0.815  15.135  0.5084  0.5558 -0.5232
  787MPD2     H11659   3.637   0.722  14.766  1.1570  1.3649  0.4782
  787MPD2    H111660   3.699   0.629  15.170 -0.9570 -0.5998  1.6120
  787MPD2    H211661   3.510   0.996  15.078 -1.4098 -0.8137  0.3780
  787MPD2    H311662   3.601   0.845  15.239 -1.3318 -0.5607 -0.2142
  787MPD2     N11663   3.727   0.540  14.924 -0.6771 -0.4506  0.4633
  787MPD2    H511664   3.750   0.519  14.827  1.4386 -2.7089  1.4671
  787MPD2    N111665   3.505   0.958  14.817 -0.1812 -0.1448 -0.1420
  787MPD2    H711666   3.461   1.042  14.854 -1.8518 -2.2056  2.5438
  788MPD2     C11667   0.245   4.233   0.911  0.1993 -0.2969 -0.4703
  788MPD2    C111668   0.362   4.243   0.832 -0.8058  0.1391  0.4831
  788MPD2    C211669   0.375   4.346   0.734  0.2673 -0.2218 -0.0205
  788MPD2    C311670   0.274   4.437   0.726  0.5186 -0.1510  0.3349
  788MPD2    C411671   0.174   4.434   0.819 -0.5855 -0.4277 -0.6267
  788MPD2    C511672   0.157   4.330   0.905  0.2817 -0.0973  0.5164
  788MPD2     H11673   0.461   4.338   0.668 -0.6025  1.4915 -1.3642
  788MPD2    H111674   0.103   4.514   0.834 -0.0691 -0.0764 -0.0533
  788MPD2    H211675   0.236   4.151   0.982  1.9513  0.7179  0.9183
  788MPD2    H311676   0.069   4.336   0.969  0.1630  2.1925  0.1258
  788MPD2     N11677   0.275   4.554   0.642  0.5628  0.7313  0.4559
  788MPD2    H511678   0.188   4.605   0.640 -0.6013 -1.2461  0.8132
  788MPD2    N111679   0.471   4.146   0.836  0.2713 -0.4764 -0.2276
  788MPD2    H711680   0.531   4.147   0.754  1.3839  0.9295  0.6066
  789MPD2     C11681   0.914   3.645  16.745 -0.2242 -0.6823  0.1105
  789MPD2    C111682   0.804   3.563  16.769  0.1587 -0.3449  0.1659
  789MPD2    C211683   0.677   3.614  16.759  0.8874 -0.6801 -0.4341
  789MPD2    C311684   0.649   3.745  16.717  0.2968 -0.1962 -0.5375
  789MPD2    C411685   0.760   3.822  16.681 -1.0173  0.6241 -0.0815
  789MPD2    C511686   0.893   3.775  16.695 -0.1812  0.6137  0.3436
  789MPD2     H11687   0.592   3.550  16.779 -1.3514  1.9357 -1.6378
  789MPD2    H111688   0.740   3.922  16.644  1.0863  1.0941  0.0310
  789MPD2    H211689   1.015   3.610  16.766  0.4455  2.2102  1.6893
  789MPD2    H311690   0.977   3.837  16.665  0.8012  0.0781  1.9807
  789MPD2     N11691   0.524   3.804  16.700 -0.4518  0.0228 -0.3362
  789MPD2    H511692   0.529   3.899  16.666  1.7544 -0.6323 -1.8285
  789MPD2    N111693   0.822   3.432  16.816 -0.8832  0.2211 -0.2609
  789MPD2    H711694   0.745   3.380  16.857  0.9103 -1.5746  0.7663
  790MPD2     C11695   1.470   1.860  13.430 -1.1744  0.3810  0.0838
  790MPD2    C111696   1.484   1.741  13.486  0.5211  0.1025 -0.6439
  790MPD2    C211697   1.426   1.631  13.418  0.3345  0.1267 -0.4572
  790MPD2    C311698   1.344   1.645  13.310  0.1779  0.3695  0.1576
  790MPD2    C411699   1.327   1.779  13.256  0.3026  0.4752  0.5529
  790MPD2    C511700   1.399   1.881  13.315 -0.0098 -0.5614  0.7636
  790MPD2     H11701   1.447   1.529  13.448  0.4293  0.3453  0.2263
  790MPD2    H111702   1.276   1.791  13.162  3.5963 -1.7470 -1.5157
  790MPD2    H211703   1.510   1.954  13.468 -2.5925  1.0829 -0.1640
  790MPD2    H311704   1.399   1.979  13.270 -1.4588 -0.3591  1.2135
  790MPD2     N11705   1.289   1.532  13.250 -0.4430 -0.2237  0.3264
  790MPD2    H511706   1.300   1.444  13.300 -1.8323 -0.2888  0.5248
  790MPD2    N111707   1.576   1.734  13.595  0.2409  0.5289  0.0837
  790MPD2    H711708   1.622   1.821  13.621  0.6451  0.3566 -0.0672
  791MPD2     C11709   0.594   1.251  13.139  0.4601 -0.1650  0.2528
  791MPD2    C111710   0.693   1.172  13.076 -0.4824 -0.4612  0.0710
  791MPD2    C211711   0.667   1.058  13.006  0.3187  0.0093 -0.6262
  791MPD2    C311712   0.536   1.021  12.990  0.1106 -0.3058 -0.2510
  791MPD2    C411713   0.433   1.094  13.054  0.2519 -0.4438  0.7483
  791MPD2    C511714   0.462   1.205  13.124  0.0724 -0.5162 -0.0561
  791MPD2     H11715   0.746   0.997  12.964  1.0971 -0.1214  1.0201
  791MPD2    H111716   0.328   1.071  13.040 -0.4410  2.2503  1.3907
  791MPD2    H211717   0.627   1.336  13.199  0.0679  0.9324 -1.0985
  791MPD2    H311718   0.382   1.267  13.164  0.0583 -1.0717  0.7945
  791MPD2     N11719   0.513   0.897  12.928  0.5200  0.9040  0.0580
  791MPD2    H511720   0.595   0.850  12.891  0.7484  1.6712 -0.4038
  791MPD2    N111721   0.832   1.210  13.095  0.4066 -0.1295 -0.1865
  791MPD2    H711722   0.854   1.296  13.145  0.7327 -0.9283  1.0513
  792MPD2     C11723   2.104   0.539  10.921 -0.1622  0.7834 -0.1817
  792MPD2    C111724   2.044   0.619  10.827 -0.2950 -0.1306  0.2584
  792MPD2    C211725   2.040   0.572  10.695 -0.2270  0.3153 -0.4638
  792MPD2    C311726   2.111   0.458  10.656  0.0228 -0.3836 -0.0653
  792MPD2    C411727   2.175   0.378  10.752  0.8079  0.1004  0.6877
  792MPD2    C511728   2.159   0.420  10.882  0.4191 -0.5269  0.0820
  792MPD2     H11729   2.000   0.637  10.619  2.8291  1.1473 -1.3479
  792MPD2    H111730   2.230   0.289  10.722  1.3842  1.5738 -2.6201
  792MPD2    H211731   2.112   0.553  11.028 -2.6356  0.4539  0.0607
  792MPD2    H311732   2.212   0.360  10.954  0.8416 -2.3439 -1.7468
  792MPD2     N11733   2.132   0.427  10.519  0.2293  0.2044  0.2172
  792MPD2    H511734   2.192   0.346  10.504  0.7725  0.8039 -0.8448
  792MPD2    N111735   1.978   0.740  10.868 -0.0598  0.2644  0.1432
  792MPD2    H711736   1.991   0.761  10.966 -1.2008  0.9517  0.1361
  793MPD2     C11737   1.341   0.445   9.917 -0.3975 -0.0600 -0.1049
  793MPD2    C111738   1.410   0.548   9.977 -0.4646 -0.7863 -0.6313
  793MPD2    C211739   1.538   0.536  10.018  0.5091  0.0400 -0.0990
  793MPD2    C311740   1.603   0.416   9.994 -0.0100  0.1478  0.2818
  793MPD2    C411741   1.541   0.311   9.930 -0.0612  0.2517 -0.9875
  793MPD2    C511742   1.410   0.330   9.886  0.0018 -0.4364 -0.9060
  793MPD2     H11743   1.595   0.618  10.058  1.0179 -0.1576 -0.4150
  793MPD2    H111744   1.580   0.214   9.902 -0.4511  0.0380 -0.7928
  793MPD2    H211745   1.241   0.463   9.881  0.4775  2.3545 -1.3386
  793MPD2    H311746   1.367   0.252   9.825 -1.4170 -0.8581  0.6300
  793MPD2     N11747   1.732   0.410  10.040  0.3321  0.0370  0.5920
  793MPD2    H511748   1.760   0.479  10.109 -1.5257  1.0200  0.3437
  793MPD2    N111749   1.367   0.674   9.985 -0.4164  0.4639  0.4347
  793MPD2    H711750   1.437   0.739  10.020 -2.4964  2.0030  1.6875
  794MPD2     C11751   1.175   0.443   0.185  0.0587 -0.1890  0.5795
  794MPD2    C111752   1.218   0.329   0.125 -0.4586 -0.7937 -0.7707
  794MPD2    C211753   1.226   0.325  17.724 -0.3066 -0.0635 -0.3751
  794MPD2    C311754   1.212   0.445  17.650  0.0073  0.3192  0.1063
  794MPD2    C411755   1.170   0.565  17.713  0.9823  0.0054 -0.4594
  794MPD2    C511756   1.147   0.558   0.116  0.0964  0.2402 -0.0891
  794MPD2     H11757   1.273   0.236  17.683  0.7061 -0.3848  1.4618
  794MPD2    H111758   1.151   0.657  17.660 -0.2412 -0.6937 -1.2414
  794MPD2    H211759   1.143   0.451   0.289  1.3622 -0.9970  1.0456
  794MPD2    H311760   1.111   0.638   0.179  0.4177  2.9742 -3.3381
  794MPD2     N11761   1.241   0.458  17.510 -0.3769  0.2208 -0.4061
  794MPD2    H511762   1.249   0.554  17.477 -0.2134 -0.1001 -1.3038
  794MPD2    N111763   1.256   0.216   0.203 -0.2914 -0.4549  0.5734
  794MPD2    H711764   1.291   0.137   0.150 -2.2798 -0.4704 -0.7046
  795MPD2     C11765   4.079   2.605  13.421  0.1475 -0.1527  0.1879
  795MPD2    C111766   3.973   2.549  13.490 -0.0174 -0.3430  0.9765
  795MPD2    C211767   4.004   2.453  13.582 -0.1465 -0.0265 -0.5896
  795MPD2    C311768   4.129   2.440  13.636  0.7326 -0.1597  0.7056
  795MPD2    C411769   4.230   2.517  13.578  0.8825  0.2528  0.5060
  795MPD2    C511770   4.208   2.594  13.468 -0.1476  0.1218 -0.7707
  795MPD2     H11771   3.917   2.406  13.627  0.2968  1.4397  1.7818
  795MPD2    H111772   4.335   2.505  13.604  1.4672  0.1168 -1.9030
  795MPD2    H211773   4.060   2.671  13.337 -0.0910 -1.9823 -1.1813
  795MPD2    H311774   4.292   2.649  13.428  0.8088 -1.6300 -1.1835
  795MPD2     N11775   4.153   2.341  13.733 -0.1894  0.6781 -0.7676
  795MPD2    H511776   4.081   2.271  13.746  1.7124 -0.8756  1.4769
  795MPD2    N111777   3.832   2.569  13.462 -0.1509  0.0947 -0.3409
  795MPD2    H711778   3.776   2.498  13.508 -1.0291  1.5879  0.8963
  796MPD2     C11779   3.483   3.544  16.007 -0.4681 -0.2285 -0.5539
  796MPD2    C111780   3.548   3.635  16.082 -0.2862  0.2544  0.3633
  796MPD2    C211781   3.555   3.764  16.044  0.1106  1.0559 -0.0656
  796MPD2    C311782   3.483   3.805  15.934 -0.6360  1.6464 -0.3750
  796MPD2    C411783   3.417   3.714  15.857  0.1988  0.2901  0.3112
  796MPD2    C511784   3.414   3.589  15.901  0.7545  0.1832 -0.1215
  796MPD2     H11785   3.621   3.838  16.088  0.2428  0.0367  1.4359
  796MPD2    H111786   3.363   3.743  15.768 -1.1971 -2.7192  0.1726
  796MPD2    H211787   3.492   3.438  16.025 -0.0715 -0.0555  0.2962
  796MPD2    H311788   3.359   3.515  15.844 -0.6215  0.0420  1.4009
  796MPD2     N11789   3.486   3.944  15.891  0.4695 -0.0142  0.4355
  796MPD2    H511790   3.542   4.009  15.945 -1.2840  0.1792  2.0269
  796MPD2    N111791   3.616   3.591  16.196  0.2877  0.0754 -0.0473
  796MPD2    H711792   3.612   3.491  16.212 -0.0058  0.0616 -0.2105
  797MPD2     C11793   4.532   2.954  17.336  0.1897  0.6215 -0.0709
  797MPD2    C111794   4.632   3.049  17.351  0.0282 -0.1224 -0.1436
  797MPD2    C211795   4.711   3.077  17.240  0.2832 -0.4075  0.7692
  797MPD2    C311796   4.676   3.039  17.115  0.4699 -0.4109  1.1826
  797MPD2    C411797   4.565   2.948  17.095 -0.7932 -0.7578  0.1592
  797MPD2    C511798   4.503   2.899  17.209  0.1899  0.8610  0.4562
  797MPD2     H11799   0.039   3.166  17.254 -0.8843  0.8268 -1.8608
  797MPD2    H111800   4.522   2.921  16.999 -0.0870  1.2079 -0.7043
  797MPD2    H211801   4.466   2.927  17.417  1.5153 -0.1101  0.7596
  797MPD2    H311802   4.422   2.828  17.210  0.5040  0.5009  0.4795
  797MPD2     N11803   0.007   3.105  17.011 -0.2955 -0.1395 -0.4888
  797MPD2    H511804   0.085   3.163  17.043  2.6210 -2.4394 -3.4020
  797MPD2    N111805   4.662   3.117  17.470 -0.0933  0.2738 -0.8159
  797MPD2    H711806   0.019   3.164  17.467 -0.0712  0.4219  2.3190
  798MPD2     C11807   0.328   3.668  17.227 -0.1041 -0.4073 -0.6039
  798MPD2    C111808   0.282   3.542  17.204  0.2094  0.3691 -0.1644
  798MPD2    C211809   0.227   3.473  17.303  0.6446 -0.4090 -0.5247
  798MPD2    C311810   0.215   3.531  17.437  0.2961  0.7750 -0.0966
  798MPD2    C411811   0.270   3.661  17.458 -0.0738  0.0844 -0.6743
  798MPD2    C511812   0.334   3.721  17.353  0.1652 -0.5857 -0.5621
  798MPD2     H11813   0.207   3.367  17.288  0.4778 -0.8000  2.4243
  798MPD2    H111814   0.253   3.717  17.549  0.6615 -4.2988  2.1708
  798MPD2    H211815   0.373   3.722  17.144 -1.7203 -1.4051 -2.1323
  798MPD2    H311816   0.374   3.821  17.363  0.5765 -0.7376 -0.6492
  798MPD2     N11817   0.142   3.463  17.537 -0.3322 -0.4946  0.3542
  798MPD2    H511818   0.102   3.376  17.503  1.6611 -0.8160 -1.0875
  798MPD2    N111819   0.293   3.495  17.066  0.1728  0.0055 -0.0612
  798MPD2    H711820   0.333   3.548  16.989  5.1809 -0.5548  2.2081
  799MPD2     C11821   3.454   0.383  14.471  0.0956 -0.5231 -0.6062
  799MPD2    C111822   3.390   0.289  14.396  0.1644  0.4647 -0.2700
  799MPD2    C211823   3.342   0.334  14.266 -0.2715  0.3696 -0.3439
  799MPD2    C311824   3.363   0.468  14.232 -0.4265 -0.1399 -0.8876
  799MPD2    C411825   3.410   0.554  14.322 -0.4185 -0.5958 -0.4952
  799MPD2    C511826   3.453   0.510  14.443 -0.0360 -0.4410  0.6086
  799MPD2     H11827   3.292   0.266  14.198  4.0084 -1.1520 -1.9914
  799MPD2    H111828   3.426   0.660  14.306  1.0512 -0.7625 -0.1103
  799MPD2    H211829   3.506   0.361  14.564 -0.1458  0.1225 -0.3210
  799MPD2    H311830   3.505   0.575  14.513  0.4830 -0.1102 -0.0822
  799MPD2     N11831   3.328   0.528  14.110  0.0506 -0.6248 -0.4984
  799MPD2    H511832   3.340   0.628  14.100 -1.6368 -0.2735  0.9751
  799MPD2    N111833   3.371   0.154  14.436  0.1332  0.6342  0.1546
  799MPD2    H711834   3.313   0.091  14.383  0.8985  0.4254 -0.4299
  800MPD2     C11835   3.598   1.479  14.358 -0.6787  0.8911  0.1279
  800MPD2    C111836   3.728   1.454  14.327 -0.7336  1.0225 -0.6279
  800MPD2    C211837   3.756   1.372  14.217  0.2452 -0.6088 -0.4103
  800MPD2    C311838   3.655   1.320  14.138  0.0896 -0.4176 -0.2424
  800MPD2    C411839   3.522   1.339  14.179 -0.1446  0.1866  0.1717
  800MPD2    C511840   3.496   1.430  14.280 -0.3457 -0.0562 -0.3811
  800MPD2     H11841   3.857   1.364  14.180  0.5124 -2.2821  0.6864
  800MPD2    H111842   3.437   1.286  14.138 -1.9736  1.7072  1.9267
  800MPD2    H211843   3.578   1.549  14.438 -0.2478  0.0949  0.9289
  800MPD2    H311844   3.396   1.458  14.309  0.0501  1.1580 -0.1953
  800MPD2     N11845   3.687   1.249  14.022  0.7636 -0.0073  0.0050
  800MPD2    H511846   3.786   1.240  13.999  0.9471 -1.7173  1.4805
  800MPD2    N111847   3.823   1.525  14.405  0.5949 -0.0004  0.2603
  800MPD2    H711848   3.791   1.603  14.462  2.1226 -0.3422  1.5697
  801MPD2     C11849   4.263   2.271  14.309 -0.7465 -0.0079  0.9843
  801MPD2    C111850   4.165   2.178  14.282  0.0186 -0.5002 -0.2988
  801MPD2    C211851   4.066   2.219  14.198  0.4049  0.3679 -0.7215
  801MPD2    C311852   4.039   2.353  14.174 -0.4077 -0.3001 -0.0649
  801MPD2    C411853   4.142   2.439  14.202 -0.5094  0.2921  0.0874
  801MPD2    C511854   4.248   2.396  14.266 -0.4362  0.1836  0.2093
  801MPD2     H11855   4.001   2.137  14.167 -1.1315  1.3205 -0.0332
  801MPD2    H111856   4.128   2.544  14.177 -0.4592 -0.5219 -3.3521
  801MPD2    H211857   4.350   2.237  14.365  0.6907  0.0437 -1.1983
  801MPD2    H311858   4.319   2.472  14.298  1.4704 -1.1013 -0.9832
  801MPD2     N11859   3.921   2.394  14.105 -0.0876 -0.8165  0.4412
  801MPD2    H511860   3.918   2.490  14.072  1.2419 -0.7787  0.4336
  801MPD2    N111861   4.186   2.048  14.328  0.1745 -0.4113 -0.1514
  801MPD2    H711862   4.264   2.041  14.392 -0.7696  0.6765  1.1325
  802MPD2     C11863   2.908   3.153  17.594 -0.3331 -0.6101  0.0768
  802MPD2    C111864   2.955   3.082  17.703  0.2215  0.9263 -0.4437
  802MPD2    C211865   2.964   2.944  17.687  0.8347  0.0632 -0.3455
  802MPD2    C311866   2.930   2.881  17.566 -0.7792  0.2436  0.3131
  802MPD2    C411867   2.896   2.957  17.455 -0.2507  0.4435  0.0949
  802MPD2    C511868   2.882   3.089  17.471 -0.4273 -0.0858 -0.1562
  802MPD2     H11869   3.006   2.890   0.039  0.9920  1.7879  0.6885
  802MPD2    H111870   2.891   2.912  17.357 -2.3704  1.2671 -0.1889
  802MPD2    H211871   2.912   3.261  17.590 -1.2338 -0.5745  0.1875
  802MPD2    H311872   2.863   3.145  17.381 -0.5891 -1.3062 -0.8884
  802MPD2     N11873   2.938   2.740  17.563 -0.4506 -0.1781 -0.3014
  802MPD2    H511874   2.966   2.698  17.651  2.4350  2.3105 -0.0301
  802MPD2    N111875   2.972   3.130   0.101  0.2650 -0.7791  0.4412
  802MPD2    H711876   2.994   3.075   0.183  1.8583 -0.9910 -0.1289
  803MPD2     C11877   4.480   1.267  12.832  0.1046  0.6242 -0.0595
  803MPD2    C111878   4.428   1.328  12.724  0.2019 -0.1942  0.0711
  803MPD2    C211879   4.399   1.256  12.607  0.6495  0.0344  0.5718
  803MPD2    C311880   4.428   1.121  12.606 -0.5662  0.0364 -0.1347
  803MPD2    C411881   4.488   1.063  12.711  0.0324 -0.1304  0.2765
  803MPD2    C511882   4.499   1.132  12.824 -0.2666 -0.7573 -0.5815
  803MPD2     H11883   4.357   1.310  12.523  0.8764 -2.0856 -0.9066
  803MPD2    H111884   4.512   0.958  12.705  0.6636 -0.0324  1.0695
  803MPD2    H211885   4.502   1.328  12.919 -1.1804  1.5554 -0.3864
  803MPD2    H311886   4.545   1.082  12.908 -2.1543 -1.3941  0.0725
  803MPD2     N11887   4.396   1.026  12.504 -0.2432 -0.3500 -0.3047
  803MPD2    H511888   4.409   0.926  12.515 -1.5567 -0.2441  2.2614
  803MPD2    N111889   4.406   1.469  12.721 -0.3809 -0.2500  0.4106
  803MPD2    H711890   4.386   1.506  12.628  0.3624 -0.4098  0.1870
  804MPD2     C11891   3.713   2.062  16.886  0.0901 -0.1677  0.4015
  804MPD2    C111892   3.673   1.996  17.004  0.1449  0.3079 -0.3503
  804MPD2    C211893   3.725   2.047  17.115 -0.5972 -0.5103 -0.3703
  804MPD2    C311894   3.824   2.138  17.127 -0.5479  0.9723 -0.2109
  804MPD2    C411895   3.874   2.188  17.007 -0.4507  0.5342 -0.3449
  804MPD2    C511896   3.815   2.151  16.892 -0.4372 -0.2455 -0.1109
  804MPD2     H11897   3.703   1.998  17.209 -0.2255  1.5491  0.7886
  804MPD2    H111898   3.956   2.258  16.999 -1.2727  2.0427  4.3747
  804MPD2    H211899   3.667   2.055  16.788  0.5780  0.3888  0.1322
  804MPD2    H311900   3.852   2.195  16.800 -5.2408  0.1062 -1.8784
  804MPD2     N11901   3.873   2.164  17.256 -0.3389 -0.5005  0.5841
  804MPD2    H511902   3.827   2.120  17.335  0.0841 -0.4091  0.8789
  804MPD2    N111903   3.585   1.886  17.008  0.2809 -0.9339  0.5481
  804MPD2    H711904   3.572   1.852  17.103 -0.9630  0.7192  0.9713
  805MPD2     C11905   3.189   0.607  15.424  0.1817  0.0940  0.5561
  805MPD2    C111906   3.314   0.638  15.364  0.5372 -0.7072  0.3032
  805MPD2    C211907   3.423   0.647  15.450  0.2526 -0.2527 -0.4158
  805MPD2    C311908   3.403   0.640  15.585 -0.1306 -0.0283 -0.4185
  805MPD2    C411909   3.279   0.617  15.640  0.0119 -0.1937 -0.0236
  805MPD2    C511910   3.172   0.608  15.557 -0.4870 -0.5065  0.0947
  805MPD2     H11911   3.522   0.668  15.411 -0.1391  1.4507 -0.4971
  805MPD2    H111912   3.273   0.622  15.748 -0.9393 -1.9026  0.0032
  805MPD2    H211913   3.097   0.591  15.369 -0.5524  1.5478  1.3652
  805MPD2    H311914   3.076   0.587  15.601 -0.2915 -2.8405 -0.5858
  805MPD2     N11915   3.517   0.661  15.667  0.2880  0.4929 -0.7221
  805MPD2    H511916   3.603   0.680  15.617  1.1084  0.1053  0.5651
  805MPD2    N111917   3.333   0.655  15.225 -0.6974 -0.0010  0.5256
  805MPD2    H711918   3.422   0.683  15.184  1.0083 -3.9890  1.5304
  806MPD2     C11919   4.103   0.370   0.595 -0.6657 -0.0615 -0.3617
  806MPD2    C111920   3.973   0.396   0.585  0.6680 -0.5625  0.1700
  806MPD2    C211921   3.928   0.477   0.474  0.1137 -0.1263 -0.5864
  806MPD2    C311922   4.023   0.523   0.390 -0.3773 -0.4093 -0.1533
  806MPD2    C411923   4.157   0.488   0.405 -0.6097  0.0874 -0.0063
  806MPD2    C511924   4.196   0.418   0.511 -0.4919 -0.1044  0.4737
  806MPD2     H11925   3.826   0.502   0.450 -0.8535 -1.4789  2.0617
  806MPD2    H111926   4.239   0.521   0.343  0.1916 -0.6361  0.6736
  806MPD2    H211927   4.137   0.306   0.676  0.4316  0.9347 -0.0434
  806MPD2    H311928   4.302   0.400   0.524 -1.2611 -3.0971  2.5318
  806MPD2     N11929   3.977   0.598   0.276 -0.1762 -0.2973  0.3493
  806MPD2    H511930   3.879   0.623   0.277 -0.0141  0.3666 -0.0378
  806MPD2    N111931   3.883   0.349   0.679  0.9915 -0.1929  0.1919
  806MPD2    H711932   3.921   0.298   0.758  0.7278  1.9741  1.7208
  807MPD2     C11933   3.136   0.339   1.141  0.1838 -0.2656  0.9785
  807MPD2    C111934   3.220   0.233   1.169 -0.2853  0.4125  0.1419
  807MPD2    C211935   3.183   0.140   1.268  0.5216  0.5758  0.4508
  807MPD2    C311936   3.075   0.168   1.349 -0.1705  0.6466  0.1745
  807MPD2    C411937   2.989   0.272   1.310  0.1508  0.5103  0.8621
  807MPD2    C511938   3.023   0.358   1.216 -0.5308  0.0581  0.0748
  807MPD2     H11939   3.239   0.057   1.308  0.2318  0.8293  1.3842
  807MPD2    H111940   2.887   0.268   1.347 -0.9434  1.9734 -1.9195
  807MPD2    H211941   3.161   0.411   1.064  0.1875 -0.2749  0.9710
  807MPD2    H311942   2.949   0.437   1.206 -0.6958 -0.0841  0.1671
  807MPD2     N11943   3.059   0.083   1.457 -0.1091 -0.0650  0.0173
  807MPD2    H511944   3.128   0.011   1.475 -0.4487 -0.4032 -0.0540
  807MPD2    N111945   3.345   0.218   1.097 -0.1641  0.1208  0.0370
  807MPD2    H711946   3.408   0.146   1.129 -0.1969  0.5067  1.0001
  808MPD2     C11947   4.122   1.854  10.167  0.4114  0.1553 -0.0274
  808MPD2    C111948   4.090   1.846  10.301 -0.7327  0.8818  0.2004
  808MPD2    C211949   4.077   1.962  10.372 -0.2140 -0.1271  0.3653
  808MPD2    C311950   4.096   2.087  10.311  0.2684  1.2327  0.6750
  808MPD2    C411951   4.137   2.095  10.178  0.5047  0.0594  0.4685
  808MPD2    C511952   4.141   1.981  10.111  0.0878 -0.0586  0.0955
  808MPD2     H11953   4.039   1.954  10.473 -1.3799 -0.7940 -0.1246
  808MPD2    H111954   4.151   2.185  10.119 -0.5662  1.2631  2.0598
  808MPD2    H211955   4.129   1.772  10.096  1.0005  2.0994 -2.2246
  808MPD2    H311956   4.158   1.988  10.004 -1.6405  1.4577 -0.0715
  808MPD2     N11957   4.070   2.208  10.371 -0.3273 -0.6601 -0.0505
  808MPD2    H511958   4.111   2.286  10.321 -0.9265  1.5786  2.9384
  808MPD2    N111959   4.074   1.720  10.370 -0.3186  0.1905 -0.0248
  808MPD2    H711960   4.046   1.717  10.468  2.1046  1.5984  0.7151
  809MPD2     C11961   4.532   2.937  10.231  0.7307 -0.2498 -0.1281
  809MPD2    C111962   4.469   2.836  10.158 -0.4244 -0.2961 -1.0432
  809MPD2    C211963   4.361   2.781  10.220 -0.1010 -0.3306  0.7693
  809MPD2    C311964   4.309   2.819  10.341 -0.7626  0.8494  0.0891
  809MPD2    C411965   4.368   2.925  10.406 -0.4464  0.3153 -0.0369
  809MPD2    C511966   4.480   2.983  10.353  0.0388 -0.0219 -0.0127
  809MPD2     H11967   4.327   2.690  10.172  1.4134 -0.7937  0.5830
  809MPD2    H111968   4.325   2.975  10.492 -0.3625 -1.1997  0.8878
  809MPD2    H211969   4.629   2.975  10.200  1.4074 -1.4932  0.4564
  809MPD2    H311970   4.534   3.049  10.420 -1.3631  2.2250 -1.1356
  809MPD2     N11971   4.198   2.754  10.402 -0.1330  0.3345 -0.0580
  809MPD2    H511972   4.161   2.788  10.491 -0.1025 -2.9725  1.2235
  809MPD2    N111973   4.528   2.771  10.039  0.1175 -0.7389 -0.2966
  809MPD2    H711974   4.487   2.685  10.003  2.5862 -1.4203 -1.4416
  810MPD2     C11975   3.506   1.405  10.940 -0.2222  0.3916 -0.7303
  810MPD2    C111976   3.390   1.384  10.869 -0.1160  0.3543  0.5231
  810MPD2    C211977   3.262   1.423  10.904  0.1395 -0.0724  0.1344
  810MPD2    C311978   3.248   1.497  11.020 -0.1118  0.2031 -0.4135
  810MPD2    C411979   3.354   1.513  11.102 -0.1947  0.2749 -0.0308
  810MPD2    C511980   3.480   1.466  11.064 -0.2017  0.0164  0.2338
  810MPD2     H11981   3.180   1.409  10.835 -0.5056 -2.5749  1.4057
  810MPD2    H111982   3.344   1.559  11.200  0.8315  0.0295  0.1811
  810MPD2    H211983   3.603   1.371  10.903 -1.2367 -0.5347 -2.5212
  810MPD2    H311984   3.568   1.473  11.127  0.2601  1.1181 -0.5285
  810MPD2     N11985   3.127   1.554  11.055  0.2266 -0.2968  0.3739
  810MPD2    H511986   3.106   1.589  11.148  1.1810  2.3536 -0.4039
  810MPD2    N111987   3.411   1.293  10.769  0.0448 -0.2319 -0.2062
  810MPD2    H711988   3.507   1.263  10.759  0.0724  0.4912 -1.9853
  811MPD2     C11989   3.240   1.212   9.953  0.1608  0.1895 -0.2154
  811MPD2    C111990   3.260   1.267  10.079 -0.3696  0.1939  0.5383
  811MPD2    C211991   3.202   1.388  10.115  0.0611 -0.1256 -0.1347
  811MPD2    C311992   3.119   1.448  10.024  0.2751  0.1651 -0.0439
  811MPD2    C411993   3.105   1.409   9.899  0.5051  0.2835 -0.3572
  811MPD2    C511994   3.166   1.285   9.863  0.2109  0.3150 -0.2096
  811MPD2     H11995   3.200   1.424  10.217 -0.9538  2.7137 -1.1628
  811MPD2    H111996   3.054   1.464   9.820  1.3688 -0.6255 -1.5587
  811MPD2    H211997   3.282   1.118   9.919  1.6681  0.5631  0.6168
  811MPD2    H311998   3.144   1.250   9.763 -0.0732  0.4449 -0.1942
  811MPD2     N11999   3.073   1.571  10.066 -0.7447 -0.7447 -0.0260
  811MPD2    H512000   3.102   1.604  10.158 -0.2973  0.6572 -0.6628
  811MPD2    N112001   3.323   1.184  10.172  0.4597 -0.3140 -0.3749
  811MPD2    H712002   3.327   1.089  10.138 -1.7962 -0.8090  0.7666
  812MPD2     C12003   1.212   0.922  12.738  0.6192  0.7849  0.2209
  812MPD2    C112004   1.315   0.981  12.671  0.3376 -0.0161 -0.9393
  812MPD2    C212005   1.443   0.960  12.714  0.1393  0.3156  0.2008
  812MPD2    C312006   1.468   0.878  12.823  0.3820  0.2340  0.4354
  812MPD2    C412007   1.357   0.823  12.891 -0.4407 -0.4277  0.2312
  812MPD2    C512008   1.230   0.850  12.851 -0.4286  0.7973  0.1619
  812MPD2     H12009   1.529   1.011  12.671  0.2864 -0.3994 -0.3533
  812MPD2    H112010   1.378   0.755  12.973  0.8686  2.0933  2.0176
  812MPD2    H212011   1.111   0.943  12.705  0.3021 -0.4862  0.3480
  812MPD2    H312012   1.145   0.813  12.907 -1.0312 -1.5426 -2.2894
  812MPD2     N12013   1.602   0.853  12.855  0.6164  0.1343  0.6855
  812MPD2    H512014   1.670   0.869  12.782  0.4577 -0.4644  0.4057
  812MPD2    N112015   1.277   1.064  12.556  0.1830 -0.1019  0.7466
  812MPD2    H712016   1.179   1.087  12.541  0.0129  0.0183  2.0723
  813MPD2     C12017   0.594   3.146  12.923 -0.7317 -0.1091 -0.5116
  813MPD2    C112018   0.721   3.093  12.926 -0.1203  0.1922  0.3069
  813MPD2    C212019   0.769   3.043  13.046 -0.1083 -0.1263 -0.0318
  813MPD2    C312020   0.693   3.056  13.160  0.9300  0.5684 -0.3800
  813MPD2    C412021   0.563   3.100  13.148  0.1100  0.4550 -0.2303
  813MPD2    C512022   0.515   3.141  13.028 -0.5484  0.1546  0.1547
  813MPD2     H12023   0.874   3.014  13.053 -0.5058 -1.3085  0.9613
  813MPD2    H112024   0.498   3.116  13.234  0.7538  1.3487  0.0790
  813MPD2    H212025   0.549   3.190  12.835 -2.7135  0.8366  0.9686
  813MPD2    H312026   0.419   3.185  13.005  0.2494  2.6844  1.6548
  813MPD2     N12027   0.761   3.043  13.281  0.0204 -0.4608 -0.0604
  813MPD2    H512028   0.861   3.030  13.278  0.1380  0.2901  0.7123
  813MPD2    N112029   0.805   3.087  12.811  0.1378  0.3550  0.3914
  813MPD2    H712030   0.779   3.149  12.735 -0.1444  1.3958  1.3274
  814MPD2     C12031   1.819   4.070  12.782  0.3126  0.0756 -0.2593
  814MPD2    C112032   1.895   4.052  12.667  0.1101  0.2479  0.4667
  814MPD2    C212033   1.964   4.163  12.624 -0.5835 -0.2331 -0.6850
  814MPD2    C312034   1.959   4.281  12.683  0.2349 -0.1416 -0.7139
  814MPD2    C412035   1.880   4.306  12.794 -0.3190  0.2912 -0.5089
  814MPD2    C512036   1.813   4.193  12.844  0.1478  0.2514 -0.1278
  814MPD2     H12037   2.036   4.138  12.546 -1.1450  0.2908 -1.3703
  814MPD2    H112038   1.873   4.398  12.851  1.4965 -1.7051  2.9381
  814MPD2    H212039   1.776   3.986  12.835  1.3371 -1.0088 -1.1418
  814MPD2    H312040   1.775   4.205  12.945  1.2029  1.3464  0.1515
  814MPD2     N12041   2.047   4.388  12.641  0.2726  0.2426 -0.3299
  814MPD2    H512042   2.022   4.479  12.677  1.6280 -0.0840  1.4089
  814MPD2    N112043   1.899   3.934  12.588  0.4660 -0.4273  0.4224
  814MPD2    H712044   1.941   3.941  12.496 -1.4063  3.4158 -0.1562
  815MPD2     C12045   1.467   2.742  11.653  0.3410  0.1497  0.4168
  815MPD2    C112046   1.499   2.620  11.699  0.4013 -0.7699 -0.1510
  815MPD2    C212047   1.421   2.567  11.801 -0.3907 -0.4595  0.2007
  815MPD2    C312048   1.316   2.637  11.857 -0.0443  0.2049  0.1061
  815MPD2    C412049   1.285   2.764  11.816  0.1008 -0.5020 -0.2376
  815MPD2    C512050   1.358   2.812  11.707  0.0169  0.0783 -0.3912
  815MPD2     H12051   1.440   2.467  11.838  2.5213 -0.0837 -0.3129
  815MPD2    H112052   1.194   2.818  11.838  0.5479 -0.0113  0.3961
  815MPD2    H212053   1.526   2.771  11.567  2.0889 -1.1716  1.1583
  815MPD2    H312054   1.329   2.911  11.675 -1.9775 -0.2082  0.5830
  815MPD2     N12055   1.248   2.566  11.961 -0.5548 -0.5394 -0.6061
  815MPD2    H512056   1.276   2.470  11.979  1.3855 -0.1817 -1.6787
  815MPD2    N112057   1.595   2.545  11.631  0.0533  0.0561 -0.5146
  815MPD2    H712058   1.643   2.587  11.552 -0.4361 -1.9701 -1.8862
  816MPD2     C12059   2.596   1.600  16.953 -0.2372 -0.0562 -0.1715
  816MPD2    C112060   2.588   1.700  16.860  0.4513  0.4128 -1.1282
  816MPD2    C212061   2.635   1.680  16.727 -0.4691  0.2766  0.0563
  816MPD2    C312062   2.696   1.561  16.686 -0.6057 -0.3377  0.2588
  816MPD2    C412063   2.713   1.466  16.785 -0.3552  0.4011  0.1996
  816MPD2    C512064   2.663   1.487  16.911  0.2411  0.3049 -0.6613
  816MPD2     H12065   2.619   1.750  16.646 -1.4115  0.3988  0.3448
  816MPD2    H112066   2.769   1.373  16.777  0.4672  0.9744 -0.7777
  816MPD2    H212067   2.559   1.602  17.055  0.3037 -3.6257  0.0775
  816MPD2    H312068   2.682   1.413  16.989  1.3827  0.1338 -1.1125
  816MPD2     N12069   2.746   1.538  16.553 -1.2468 -0.5746  0.3730
  816MPD2    H512070   2.723   1.615  16.492 -1.0904 -0.7803  0.0569
  816MPD2    N112071   2.518   1.813  16.902  0.1008 -0.4834  0.2691
  816MPD2    H712072   2.516   1.820  17.003 -0.8387 -1.4628  0.3221
  817MPD2     C12073   1.935   3.822   9.878  0.0870  0.5169  0.9799
  817MPD2    C112074   1.991   3.771   9.766 -0.3234 -0.3108  0.6248
  817MPD2    C212075   1.979   3.832   9.645  0.2423  1.3594 -0.3077
  817MPD2    C312076   1.911   3.954   9.637 -0.4401  0.8784  0.6524
  817MPD2    C412077   1.861   4.006   9.750  0.0514 -0.6507  0.4441
  817MPD2    C512078   1.873   3.940   9.868  0.1539 -0.5257  0.4270
  817MPD2     H12079   2.002   3.781   9.553 -3.0753  0.5689 -0.7078
  817MPD2    H112080   1.809   4.101   9.746 -1.1011 -1.3564 -0.9679
  817MPD2    H212081   1.921   3.765   9.969  2.8572 -0.6210  0.6806
  817MPD2    H312082   1.814   3.963   9.956 -1.0209 -0.9061 -0.2671
  817MPD2     N12083   1.910   4.015   9.510  0.3464 -0.6245  0.1457
  817MPD2    H512084   1.949   3.972   9.427  0.8221 -1.3487  0.7517
  817MPD2    N112085   2.050   3.637   9.769  0.4109  0.3231 -0.5330
  817MPD2    H712086   2.078   3.598   9.680  0.7368  0.0779 -0.3233
  818MPD2     C12087   0.804   3.213   9.968  0.4009  0.1342 -0.0381
  818MPD2    C112088   0.707   3.184  10.065 -0.4791  0.1923  0.7333
  818MPD2    C212089   0.695   3.052  10.109  0.4084 -0.1650 -0.0702
  818MPD2    C312090   0.775   2.953  10.063 -0.0093 -0.2325 -0.6559
  818MPD2    C412091   0.880   2.984   9.977  0.0432 -0.7486  0.9724
  818MPD2    C512092   0.896   3.116   9.935 -0.1788 -0.1740  0.1715
  818MPD2     H12093   0.614   3.033  10.179 -0.3487  0.7545 -0.6998
  818MPD2    H112094   0.942   2.902   9.944  0.7670  0.6498 -1.1508
  818MPD2    H212095   0.820   3.315   9.934 -0.1767  0.6522  1.2821
  818MPD2    H312096   0.980   3.149   9.874 -0.7186 -1.1206 -1.0710
  818MPD2     N12097   0.761   2.824  10.107  0.1151 -0.7472 -0.3421
  818MPD2    H512098   0.826   2.755  10.070  0.3320 -1.4602  1.3788
  818MPD2    N112099   0.637   3.284  10.136  0.6284  0.5768 -0.2814
  818MPD2    H712100   0.573   3.249  10.207  0.4209  1.8181  0.1333
  819MPD2     C12101   3.867   0.039  15.715 -0.4181  0.0942  0.6720
  819MPD2    C112102   3.925   4.686  15.629 -0.3236 -0.3333 -0.8460
  819MPD2    C212103   4.048   4.638  15.652  1.0120 -1.1105 -0.2530
  819MPD2    C312104   4.110   4.655  15.775 -0.4288 -0.1967  0.5047
  819MPD2    C412105   4.044   0.008  15.861  0.3918  0.5763 -0.8309
  819MPD2    C512106   3.929   0.076  15.830 -0.2658 -0.4773 -0.7713
  819MPD2     H12107   4.110   4.581  15.583  2.4603  1.2107 -0.8415
  819MPD2    H112108   4.092   0.034  15.955  1.9566 -2.5222 -0.7628
  819MPD2    H212109   3.777   0.090  15.685 -0.3495 -1.7807 -2.6929
  819MPD2    H312110   3.881   0.151  15.891 -0.8413 -1.2367 -0.2785
  819MPD2     N12111   4.237   4.593  15.807 -0.4348  0.1606 -0.6459
  819MPD2    H512112   4.284   4.542  15.732 -0.0945 -0.4832  0.0122
  819MPD2    N112113   3.851   4.651  15.517 -0.1114  0.1703 -0.0934
  819MPD2    H712114   3.761   4.696  15.511 -0.5618 -0.4539  2.0045
  820MPD2     C12115   3.154   0.078  14.824  0.4416  0.4770 -0.5480
  820MPD2    C112116   3.274   0.143  14.865  0.2396 -0.8395  0.3942
  820MPD2    C212117   3.350   0.079  14.962  0.3695  0.0940 -0.4631
  820MPD2    C312118   3.308   4.691  15.024  0.0709  0.5020  0.8277
  820MPD2    C412119   3.195   4.631  14.976 -0.2751 -0.0941 -1.2787
  820MPD2    C512120   3.121   4.691  14.881 -0.3152  0.8462 -0.8277
  820MPD2     H12121   3.445   0.124  14.989  0.8587 -2.1389  1.5776
  820MPD2    H112122   3.163   4.537  15.019  1.1344 -0.9757 -2.1548
  820MPD2    H212123   3.096   0.117  14.741 -1.3566  2.1309  1.4767
  820MPD2    H312124   3.027   4.643  14.856 -0.4266  0.2535  0.6975
  820MPD2     N12125   3.368   4.632  15.137 -0.1635  0.6202  0.6588
  820MPD2    H512126   3.331   4.540  15.159 -0.4562  0.1943 -1.6725
  820MPD2    N112127   3.299   0.271  14.812  0.3426  0.0796 -0.3168
  820MPD2    H712128   3.219   0.316  14.769  1.5287  2.3212 -0.1252
  821MPD2     C12129   3.663   1.565  13.299  0.2130 -0.6816  0.2422
  821MPD2    C112130   3.733   1.595  13.415  0.4677  0.1236 -0.3616
  821MPD2    C212131   3.799   1.716  13.430 -0.3396 -0.0866 -0.6947
  821MPD2    C312132   3.806   1.803  13.323 -0.5384 -0.3079 -0.8191
  821MPD2    C412133   3.748   1.770  13.209  0.1769 -0.0524  0.2736
  821MPD2    C512134   3.674   1.654  13.195 -0.5063  0.2333  0.3074
  821MPD2     H12135   3.851   1.732  13.524 -2.4942  2.1328  0.1213
  821MPD2    H112136   3.762   1.838  13.126  0.1463 -0.7499 -0.3079
  821MPD2    H212137   3.606   1.475  13.276 -0.8260  0.1168 -0.3096
  821MPD2    H312138   3.633   1.633  13.097 -0.6581 -1.2685  0.6994
  821MPD2     N12139   3.888   1.921  13.330  0.2669 -0.9378  0.3686
  821MPD2    H512140   3.904   1.973  13.244 -1.9969  0.5971  0.8689
  821MPD2    N112141   3.740   1.498  13.520  0.1799  0.7722  0.3193
  821MPD2    H712142   3.803   1.520  13.596  0.5407  2.6405 -0.5413
  822MPD2     C12143   4.573   1.493  15.677 -0.0055  0.6799 -0.3970
  822MPD2    C112144   4.545   1.456  15.805 -0.7381 -0.1863 -0.0019
  822MPD2    C212145   4.457   1.531  15.881 -0.4732  0.6806 -0.4667
  822MPD2    C312146   4.413   1.651  15.832 -0.4869  0.0944 -0.5316
  822MPD2    C412147   4.436   1.686  15.699 -0.5076 -0.3239  0.3231
  822MPD2    C512148   4.517   1.611  15.620  0.4966  0.5913  0.4562
  822MPD2     H12149   4.421   1.506  15.980  2.3576 -1.2187  0.0951
  822MPD2    H112150   4.399   1.775  15.648 -0.7268 -0.6628 -0.1064
  822MPD2    H212151   4.644   1.425  15.631 -2.7361 -0.1861 -3.3598
  822MPD2    H312152   4.528   1.644  15.517 -0.0123  1.2478  0.6066
  822MPD2     N12153   4.320   1.723  15.908 -0.0108 -0.1116 -0.0471
  822MPD2    H512154   4.279   1.683  15.992 -2.8420  1.8892 -0.4664
  822MPD2    N112155   4.596   1.347  15.878  0.0676  0.1369 -0.3812
  822MPD2    H712156   4.562   1.344  15.974 -0.3299 -0.8190 -0.5471
  823MPD2     C12157   3.863   1.838  16.599 -0.6666  0.6730  0.0926
  823MPD2    C112158   3.939   1.774  16.505  0.7638  0.1209  0.0061
  823MPD2    C212159   4.009   1.659  16.535 -0.2130  0.2352  0.3036
  823MPD2    C312160   4.019   1.613  16.670 -0.1954 -0.1359 -0.0822
  823MPD2    C412161   3.938   1.664  16.761 -1.0443  0.6196  0.0106
  823MPD2    C512162   3.867   1.776  16.726 -0.4622 -0.7582 -0.4555
  823MPD2     H12163   4.071   1.611  16.461 -0.9174  0.7666 -0.6229
  823MPD2    H112164   3.932   1.629  16.863 -0.5431 -0.7029 -0.4097
  823MPD2    H212165   3.800   1.924  16.577 -0.3557  1.1896  1.2112
  823MPD2    H312166   3.816   1.821  16.811 -0.9517 -0.4769 -0.8969
  823MPD2     N12167   4.098   1.498  16.705  0.4118  0.6607 -0.3717
  823MPD2    H512168   4.075   1.459  16.796 -1.0411  0.3458 -0.8775
  823MPD2    N112169   3.942   1.834  16.376  0.2731  0.2887 -1.3204
  823MPD2    H712170   3.895   1.924  16.376  0.6390  0.4350  3.7538
  824MPD2     C12171   0.178   0.547  15.934  0.0644 -0.0037  0.4095
  824MPD2    C112172   0.273   0.643  15.930  0.9471 -0.4112 -0.0913
  824MPD2    C212173   0.398   0.600  15.907 -0.1130 -0.0071 -0.7720
  824MPD2    C312174   0.433   0.464  15.882  0.0978  0.5178  0.0616
  824MPD2    C412175   0.330   0.378  15.874 -0.4897  0.7923  0.4495
  824MPD2    C512176   0.203   0.419  15.897 -0.8972  0.2016 -0.1454
  824MPD2     H12177   0.477   0.672  15.892  0.9874 -1.4492 -1.9332
  824MPD2    H112178   0.336   0.272  15.849  0.7222  0.4519  2.1504
  824MPD2    H212179   0.074   0.565  15.960  0.1548  0.2257  0.6092
  824MPD2    H312180   0.125   0.344  15.887 -0.7850  0.2576 -1.4331
  824MPD2     N12181   0.571   0.439  15.850  0.5440  0.2096  0.5868
  824MPD2    H512182   0.633   0.519  15.844 -2.3834  2.1785 -3.1287
  824MPD2    N112183   0.252   0.779  15.953  0.9166 -0.1509 -0.4292
  824MPD2    H712184   0.331   0.842  15.952  1.6036 -0.9799  1.9378
  825MPD2     C12185   1.308   0.567  15.386  0.3774 -0.5553  0.2041
  825MPD2    C112186   1.185   0.607  15.434 -0.3120  0.3247  0.7978
  825MPD2    C212187   1.125   0.723  15.383  0.3100  0.4349  0.7995
  825MPD2    C312188   1.195   0.808  15.290 -0.0455  0.1098  0.2412
  825MPD2    C412189   1.314   0.760  15.248  0.1739 -0.0766 -0.0562
  825MPD2    C512190   1.368   0.641  15.284  0.5018  1.2394 -0.4107
  825MPD2     H12191   1.021   0.743  15.405  0.3231  0.5600  0.7453
  825MPD2    H112192   1.351   0.820  15.165 -2.8885  3.2164  0.9201
  825MPD2    H212193   1.355   0.473  15.413 -0.9730 -0.8951  1.3585
  825MPD2    H312194   1.450   0.603  15.226 -0.6845  1.7368 -2.4331
  825MPD2     N12195   1.145   0.933  15.247  0.6543 -0.0020  0.8247
  825MPD2    H512196   1.216   0.985  15.196  0.4355 -0.9867 -0.4879
  825MPD2    N112197   1.123   0.523  15.531  0.0084 -0.2697 -0.0843
  825MPD2    H712198   1.181   0.451  15.573 -0.3943 -0.0012  0.9566
  826MPD2     C12199   0.656   0.645  13.579 -0.4258 -0.4066  0.7951
  826MPD2    C112200   0.721   0.742  13.657  0.6284  0.0214  0.5242
  826MPD2    C212201   0.641   0.821  13.738 -0.5585  0.4687  0.3099
  826MPD2    C312202   0.503   0.799  13.745  0.2040 -0.1655 -0.4556
  826MPD2    C412203   0.443   0.692  13.679  0.1353 -0.1957  1.3039
  826MPD2    C512204   0.523   0.625  13.587 -0.0722  0.1707  0.5530
  826MPD2     H12205   0.683   0.895  13.806 -0.6904 -2.0796  3.1755
  826MPD2    H112206   0.338   0.668  13.677  0.3568 -0.9338 -1.5829
  826MPD2    H212207   0.721   0.594  13.509 -2.3811  0.8588 -1.9432
  826MPD2    H312208   0.473   0.552  13.524  1.1715  0.8465 -1.2371
  826MPD2     N12209   0.417   0.890  13.808  0.2994  0.1815 -0.0315
  826MPD2    H512210   0.321   0.859  13.814  0.8064 -1.4158 -0.2514
  826MPD2    N112211   0.862   0.748  13.648 -0.4458  0.0929 -0.5958
  826MPD2    H712212   0.904   0.666  13.607 -0.0777  0.5926 -1.2193
  827MPD2     C12213   0.827   2.276   9.921 -0.5017  0.1531  0.5746
  827MPD2    C112214   0.823   2.141   9.956  0.1254  0.1383 -0.0924
  827MPD2    C212215   0.760   2.054   9.867 -0.0446 -0.5101 -0.5532
  827MPD2    C312216   0.675   2.108   9.771  1.0071  0.1083  0.5435
  827MPD2    C412217   0.666   2.241   9.743  0.2646 -1.1268 -0.4701
  827MPD2    C512218   0.743   2.325   9.820  0.5008  0.1699 -0.0499
  827MPD2     H12219   0.774   1.948   9.883  0.9140  0.3813  4.3198
  827MPD2    H112220   0.600   2.282   9.667 -2.8072 -2.3124  1.5524
  827MPD2    H212221   0.885   2.355   9.967 -1.9010  1.4376  0.1418
  827MPD2    H312222   0.742   2.433   9.809  2.1748  0.4012  2.0425
  827MPD2     N12223   0.606   2.012   9.696 -0.5128  0.0433  0.3204
  827MPD2    H512224   0.617   1.918   9.733 -2.1182 -0.9143 -1.5979
  827MPD2    N112225   0.910   2.094  10.060  0.2950  0.0326  0.7504
  827MPD2    H712226   0.938   2.164  10.128 -2.6023  0.4163  1.5840
  828MPD2     C12227   4.154   2.187  12.734 -0.1133  0.2873  0.1013
  828MPD2    C112228   4.070   2.174  12.621  0.1874  0.3127 -0.7453
  828MPD2    C212229   4.127   2.181  12.500 -0.7430  0.0962 -0.3211
  828MPD2    C312230   4.266   2.209  12.487 -0.9911 -0.2167 -0.5580
  828MPD2    C412231   4.345   2.222  12.593 -0.8357 -0.2668  0.5559
  828MPD2    C512232   4.288   2.201  12.716 -0.3204 -0.1164 -0.9155
  828MPD2     H12233   4.075   2.155  12.408 -2.5704  1.1077  0.4244
  828MPD2    H112234   4.452   2.235  12.590 -0.9827  0.3964 -1.4754
  828MPD2    H212235   4.128   2.166  12.837 -1.6817 -0.5182 -0.4707
  828MPD2    H312236   4.352   2.186  12.803  0.2655 -1.0728 -1.5217
  828MPD2     N12237   4.328   2.205  12.360  0.0933  0.5029  0.1420
  828MPD2    H512238   4.429   2.208  12.361  0.0945 -0.0392  1.3580
  828MPD2    N112239   3.931   2.157  12.627 -0.4480 -0.1351 -0.1470
  828MPD2    H712240   3.889   2.121  12.542  0.9234 -0.1270 -0.8242
  829MPD2     C12241   3.449   2.277  11.953 -0.1495 -0.0811 -0.1147
  829MPD2    C112242   3.372   2.186  12.016  1.0426  0.0610  0.3601
  829MPD2    C212243   3.388   2.168  12.150  1.1984 -0.5348 -0.0982
  829MPD2    C312244   3.506   2.220  12.214  0.3635 -0.2709 -0.0183
  829MPD2    C412245   3.587   2.304  12.147  0.2557  0.1200 -0.1074
  829MPD2    C512246   3.560   2.327  12.018  0.4300  0.1692 -1.1345
  829MPD2     H12247   3.327   2.097  12.205  0.1415  0.6495  0.2639
  829MPD2    H112248   3.669   2.355  12.196  1.1672 -1.0222 -0.4237
  829MPD2    H212249   3.432   2.291  11.847  2.0574 -2.2330 -0.7590
  829MPD2    H312250   3.624   2.397  11.964 -0.1032  1.3067 -0.2786
  829MPD2     N12251   3.543   2.195  12.345 -0.4897 -0.4861 -0.3902
  829MPD2    H512252   3.627   2.242  12.377 -0.4324 -0.6525 -0.2955
  829MPD2    N112253   3.266   2.139  11.942  0.2274 -0.6893  1.3182
  829MPD2    H712254   3.250   2.179  11.851  0.5434 -1.9987  0.6789
  830MPD2     C12255   4.601   4.434  15.367  0.6451 -0.2508 -0.1360
  830MPD2    C112256   4.684   4.487  15.457  0.0383 -0.3627 -0.8584
  830MPD2    C212257   0.071   4.544  15.414 -0.0279  0.3818 -0.3707
  830MPD2    C312258   0.114   4.549  15.288  0.8360 -0.6294  0.6846
  830MPD2    C412259   0.036   4.481  15.193 -0.1493  0.3344 -0.0445
  830MPD2    C512260   4.647   4.430  15.232  0.0714  0.2636  0.3118
  830MPD2     H12261   0.132   4.590  15.491  0.8426  0.6797 -1.2439
  830MPD2    H112262   0.064   4.480  15.089 -1.9256  2.0748 -0.5399
  830MPD2    H212263   4.501   4.404  15.397  1.2156 -3.6465 -1.6829
  830MPD2    H312264   4.585   4.377  15.160 -1.5983  0.3184  1.7153
  830MPD2     N12265   0.224   4.614  15.232  0.1779  0.9893 -0.2923
  830MPD2    H512266   0.244   4.607  15.133  0.7144 -2.1070  0.0288
  830MPD2    N112267   4.640   4.489  15.588  0.3979 -0.2100  0.6594
  830MPD2    H712268   4.544   4.462  15.604  0.8319 -1.5924  0.9675
  831MPD2     C12269   4.537   1.791  16.240 -0.2671 -0.1514  0.4277
  831MPD2    C112270   4.585   1.677  16.175 -0.1208  0.0501 -0.8024
  831MPD2    C212271   4.516   1.560  16.192 -0.3483  0.2406 -0.1456
  831MPD2    C312272   4.392   1.557  16.249 -0.4427 -0.4240  0.3093
  831MPD2    C412273   4.350   1.666  16.319  0.1724 -0.0822 -0.0645
  831MPD2    C512274   4.425   1.782  16.325  0.4511  0.2929 -0.5370
  831MPD2     H12275   4.573   1.475  16.157 -1.9125 -2.0868  2.9548
  831MPD2    H112276   4.252   1.652  16.363  1.3223  0.5719  2.7239
  831MPD2    H212277   4.590   1.885  16.237 -1.0992  0.2972 -0.1237
  831MPD2    H312278   4.381   1.863  16.383 -1.1850 -1.7407  1.0366
  831MPD2     N12279   4.305   1.446  16.237 -0.3060 -0.2737 -0.1073
  831MPD2    H512280   4.215   1.467  16.278 -0.2842 -1.8245  0.7569
  831MPD2    N112281   4.698   1.699  16.091  0.1145 -0.1216 -0.4270
  831MPD2    H712282   4.724   1.792  16.062 -1.5716 -0.0223 -1.6237
  832MPD2     C12283   3.034   2.682  17.107  0.2139  0.6683  0.1730
  832MPD2    C112284   3.058   2.815  17.142  0.4765 -0.2430  0.0372
  832MPD2    C212285   2.959   2.910  17.101  0.1512 -0.3363  0.0642
  832MPD2    C312286   2.849   2.863  17.029 -0.3002  0.3029 -0.4021
  832MPD2    C412287   2.832   2.732  16.994  0.0959 -0.2757  0.8385
  832MPD2    C512288   2.923   2.636  17.038 -0.1640 -0.0384  0.4613
  832MPD2     H12289   2.974   3.017  17.110 -0.0570 -0.3661  0.8379
  832MPD2    H112290   2.747   2.704  16.933  1.2334 -1.3916 -0.2129
  832MPD2    H212291   3.107   2.606  17.134  1.5185  1.7215 -0.3966
  832MPD2    H312292   2.911   2.531  17.014 -0.9389 -0.6691  3.6586
  832MPD2     N12293   2.745   2.944  16.980 -0.1578 -0.1003  0.0010
  832MPD2    H512294   2.663   2.891  16.949 -0.3873  0.3710 -0.1887
  832MPD2    N112295   3.169   2.842  17.223  0.1425  0.2083 -0.4807
  832MPD2    H712296   3.210   2.754  17.253 -1.5271  0.2671  1.9776
  833MPD2     C12297   0.528   0.171  12.437 -0.2160 -0.7266 -0.1593
  833MPD2    C112298   0.465   0.196  12.313  0.4738 -0.1909  0.2969
  833MPD2    C212299   0.545   0.235  12.205  1.1498  0.1359  0.1179
  833MPD2    C312300   0.681   0.252  12.223 -0.3211 -0.5072 -0.5600
  833MPD2    C412301   0.743   0.234  12.348 -0.1425 -0.1587  0.5346
  833MPD2    C512302   0.663   0.189  12.451  0.2438 -0.0415  1.0523
  833MPD2     H12303   0.500   0.248  12.108  0.4643  1.8677  0.6606
  833MPD2    H112304   0.848   0.247  12.372 -0.6372  3.5525  0.7214
  833MPD2    H212305   0.474   0.136  12.525 -1.1991 -0.2058 -0.5521
  833MPD2    H312306   0.718   0.180  12.544 -0.3071  1.2321  1.5000
  833MPD2     N12307   0.775   0.271  12.114 -0.5397 -0.1465 -0.2274
  833MPD2    H512308   0.873   0.263  12.137 -0.3396 -1.1797 -1.4004
  833MPD2    N112309   0.319   0.200  12.300  0.4194  0.7196 -0.1980
  833MPD2    H712310   0.287   0.224  12.207 -1.0715  0.2055  0.1730
  834MPD2     C12311   0.650   4.238  11.735  0.6074  0.2209 -0.1281
  834MPD2    C112312   0.625   4.313  11.624 -0.2563  1.3010  0.1821
  834MPD2    C212313   0.682   4.437  11.609  0.2605 -0.1532  0.1003
  834MPD2    C312314   0.767   4.490  11.707 -0.0816 -0.0981  0.6913
  834MPD2    C412315   0.786   4.414  11.819 -0.6599  0.4051 -0.2065
  834MPD2    C512316   0.727   4.287  11.835  0.5467  0.7257 -0.4801
  834MPD2     H12317   0.658   4.501  11.524  0.2767  0.3401  0.4704
  834MPD2    H112318   0.838   4.449  11.907 -1.7300  0.6772  0.3258
  834MPD2    H212319   0.609   4.138  11.727 -0.1103  0.3217  2.4030
  834MPD2    H312320   0.740   4.216  11.916 -1.2896 -0.8428 -1.5483
  834MPD2     N12321   0.817   4.625  11.702 -0.3298  0.2488 -0.3115
  834MPD2    H512322   0.796   4.685  11.622 -0.0356 -1.4607 -1.6648
  834MPD2    N112323   0.534   4.261  11.520 -0.3779  0.7628  0.2589
  834MPD2    H712324   0.477   4.181  11.544  0.2747  0.6620  1.4510
  835MPD2     C12325   0.588   1.795  11.503  0.6207  0.2819 -0.1142
  835MPD2    C112326   0.474   1.871  11.483 -0.3110 -0.6323 -0.4089
  835MPD2    C212327   0.409   1.932  11.587  0.1663 -1.1880  0.3085
  835MPD2    C312328   0.464   1.923  11.718  0.3026 -0.3348  0.4441
  835MPD2    C412329   0.571   1.842  11.738  0.4053  0.8707 -0.1042
  835MPD2    C512330   0.635   1.791  11.632 -0.2593 -0.2987 -0.0966
  835MPD2     H12331   0.317   1.988  11.573 -0.2394 -1.5809  1.3446
  835MPD2    H112332   0.609   1.823  11.838  0.5913  0.8640 -0.1757
  835MPD2    H212333   0.643   1.744  11.425 -1.3162 -2.4618  0.3191
  835MPD2    H312334   0.726   1.738  11.655 -1.3331 -1.8417  0.6179
  835MPD2     N12335   0.411   1.990  11.823 -0.1671 -0.6867  0.6047
  835MPD2    H512336   0.454   1.979  11.914  1.1862 -0.2703  0.0073
  835MPD2    N112337   0.430   1.909  11.352  0.4374  0.7130  0.1858
  835MPD2    H712338   0.339   1.954  11.353 -0.0641 -0.3419  1.7451
  836MPD2     C12339   4.628   2.639  11.872  0.1980  0.2148  0.0967
  836MPD2    C112340   4.639   2.548  11.972 -0.6206 -0.5323  0.1054
  836MPD2    C212341   4.529   2.528  12.061  0.1118  0.6621 -0.1292
  836MPD2    C312342   4.421   2.612  12.057  0.1420 -0.1742 -0.0530
  836MPD2    C412343   4.415   2.695  11.953  0.0236 -0.6725  0.3849
  836MPD2    C512344   4.515   2.706  11.856  0.0964 -0.0307 -0.5752
  836MPD2     H12345   4.532   2.438  12.121 -1.1968 -0.6757 -2.0707
  836MPD2    H112346   4.325   2.755  11.939 -0.8083 -2.2646 -1.1203
  836MPD2    H212347   4.701   2.662  11.795  1.4694 -2.0159  0.6290
  836MPD2    H312348   4.497   2.773  11.773 -0.6932  0.1607 -0.2512
  836MPD2     N12349   4.305   2.615  12.139  0.1276  1.2069  0.2606
  836MPD2    H512350   4.229   2.674  12.109 -0.8208 -0.0787  0.1622
  836MPD2    N112351   0.021   2.473  11.980 -0.4209  0.1473 -0.4336
  836MPD2    H712352   0.091   2.489  11.908 -0.6828  3.5302  0.0592
  837MPD2     C12353   3.195   2.268  10.401 -0.0605 -0.1646 -0.2960
  837MPD2    C112354   3.073   2.218  10.436 -0.2955 -0.0817  1.1498
  837MPD2    C212355   2.987   2.306  10.501  0.1986  0.4115  0.5813
  837MPD2    C312356   3.028   2.431  10.543  0.3084  0.5572  0.3587
  837MPD2    C412357   3.155   2.481  10.509 -0.1077  0.2001  0.0927
  837MPD2    C512358   3.236   2.396  10.447 -0.2421  0.2711 -0.0287
  837MPD2     H12359   2.889   2.259  10.513  2.4301 -4.3242  0.4168
  837MPD2    H112360   3.208   2.565  10.552  1.2807 -0.4843 -0.2836
  837MPD2    H212361   3.269   2.203  10.356 -0.4695 -1.1875  0.5093
  837MPD2    H312362   3.338   2.430  10.429 -0.8259  1.6977 -0.6108
  837MPD2     N12363   2.924   2.511  10.585  0.2393 -0.3711  0.3206
  837MPD2    H512364   2.836   2.462  10.574  0.5632 -0.8930  0.0489
  837MPD2    N112365   3.023   2.100  10.383 -0.0405  0.5002  0.6129
  837MPD2    H712366   2.941   2.061  10.429  0.3737  0.3038  1.1922
  838MPD2     C12367   1.789   4.142  10.912  0.5273  0.1321  0.0229
  838MPD2    C112368   1.840   4.259  10.960 -0.1065  0.6603 -0.3337
  838MPD2    C212369   1.793   4.311  11.078 -0.4155 -0.0038 -0.2043
  838MPD2    C312370   1.701   4.240  11.149  0.0532  0.3164 -0.7929
  838MPD2    C412371   1.636   4.125  11.100  0.9924 -0.7388 -0.4607
  838MPD2    C512372   1.688   4.083  10.982 -0.5506  0.2007  0.6222
  838MPD2     H12373   1.842   4.399  11.117  0.1992  0.9025 -3.0226
  838MPD2    H112374   1.545   4.083  11.141  2.7885 -1.5714  2.7606
  838MPD2    H212375   1.822   4.090  10.823 -0.8148 -0.2490 -0.2539
  838MPD2    H312376   1.634   4.001  10.935 -0.3517  1.6275 -2.0821
  838MPD2     N12377   1.667   4.302  11.273  0.0392  0.3375  0.7012
  838MPD2    H512378   1.718   4.388  11.289  1.0362 -0.2572  0.7517
  838MPD2    N112379   1.942   4.329  10.900  0.1143 -0.0166 -0.0200
  838MPD2    H712380   1.964   4.422  10.936 -1.1329  0.2540  0.0514
  839MPD2     C12381   1.987   4.360  11.570 -0.9043  0.0675 -0.2004
  839MPD2    C112382   2.028   4.255  11.492 -0.8437 -0.3712 -0.2871
  839MPD2    C212383   2.116   4.276  11.391 -0.2775 -0.0680 -0.0676
  839MPD2    C312384   2.141   4.403  11.335  0.6359 -0.6755 -0.4572
  839MPD2    C412385   2.092   4.512  11.413  0.9619  0.5138 -0.4217
  839MPD2    C512386   2.033   4.487  11.531  0.0521 -0.3624  0.1349
  839MPD2     H12387   2.152   4.189  11.337  1.1805  0.0843  0.6607
  839MPD2    H112388   2.109   4.613  11.379  1.0893  0.2936 -1.0188
  839MPD2    H212389   1.917   4.348  11.652 -0.9122  4.7699  0.4762
  839MPD2    H312390   2.009   4.569  11.598  1.1058  1.0616 -1.2367
  839MPD2     N12391   2.206   4.423  11.208  0.0971  0.5955  0.3574
  839MPD2    H512392   2.200   4.517  11.170 -2.7504 -0.2309 -1.2337
  839MPD2    N112393   1.990   4.121  11.497 -0.3931  0.5050 -0.1381
  839MPD2    H712394   2.039   4.059  11.434 -0.0212  1.3296 -0.6586
  840MPD2     C12395   1.334   2.460  10.284 -0.0314  0.0591 -0.4896
  840MPD2    C112396   1.328   2.361  10.382 -0.0111  0.0090 -0.8640
  840MPD2    C212397   1.384   2.382  10.509 -0.0583  0.2264  0.1857
  840MPD2    C312398   1.450   2.501  10.537  0.1880 -0.0486 -0.2542
  840MPD2    C412399   1.440   2.603  10.443  0.5623  0.4135  0.1289
  840MPD2    C512400   1.399   2.577  10.317  1.0781  0.5777 -0.2770
  840MPD2     H12401   1.381   2.308  10.587 -0.4298 -1.8917 -1.8225
  840MPD2    H112402   1.476   2.704  10.456  1.3418  0.2526 -0.7525
  840MPD2    H212403   1.287   2.453  10.186 -0.9336  1.6316 -0.1604
  840MPD2    H312404   1.410   2.652  10.240  1.7930  0.3598 -0.3814
  840MPD2     N12405   1.505   2.532  10.665 -0.2391  0.0731 -0.4545
  840MPD2    H512406   1.544   2.625  10.669 -0.6317  0.1722  0.9816
  840MPD2    N112407   1.256   2.243  10.358 -0.4409 -0.1576 -0.1880
  840MPD2    H712408   1.215   2.245  10.265 -0.4639 -0.1461 -0.1777
  841MPD2     C12409   1.369   2.380  14.914 -0.1356 -1.1482  0.2044
  841MPD2    C112410   1.418   2.290  14.826  0.0302  0.6260 -0.0887
  841MPD2    C212411   1.555   2.274  14.799  0.4937 -0.7990 -0.5072
  841MPD2    C312412   1.640   2.345  14.874  0.1187 -0.0778 -0.3666
  841MPD2    C412413   1.592   2.432  14.963 -0.1525  1.4396 -0.1104
  841MPD2    C512414   1.458   2.453  14.986  0.2536 -0.1272  0.0731
  841MPD2     H12415   1.593   2.206  14.724  0.9696  0.6916 -1.6218
  841MPD2    H112416   1.670   2.491  15.010  2.1609  0.4744 -2.7566
  841MPD2    H212417   1.263   2.383  14.937  0.2275  0.9590  1.6360
  841MPD2    H312418   1.436   2.536  15.053  1.1096  0.0349  0.1643
  841MPD2     N12419   1.776   2.333  14.839 -0.2344 -0.0728 -0.1084
  841MPD2    H512420   1.805   2.264  14.771 -0.5832 -0.9151  0.5887
  841MPD2    N112421   1.316   2.210  14.756  0.5065  0.0503 -0.3863
  841MPD2    H712422   1.217   2.220  14.776  0.0716 -1.0286 -2.0014
  842MPD2     C12423   2.432   3.537  16.940 -0.2520 -0.4381 -0.4943
  842MPD2    C112424   2.330   3.457  16.887 -0.1914 -0.2417  0.0645
  842MPD2    C212425   2.288   3.349  16.962  0.5683 -0.9053 -0.3921
  842MPD2    C312426   2.348   3.316  17.083  0.7861  0.2164 -0.3669
  842MPD2    C412427   2.442   3.398  17.128  0.2832  0.8021 -0.8439
  842MPD2    C512428   2.487   3.507  17.058  0.2833 -0.7082  0.0272
  842MPD2     H12429   2.203   3.291  16.925  0.0713  0.1372 -0.8740
  842MPD2    H112430   2.478   3.394  17.230  1.0193 -1.2459 -1.1965
  842MPD2    H212431   2.479   3.621  16.889 -0.1413 -0.1874  0.0221
  842MPD2    H312432   2.549   3.584  17.103 -1.0022 -0.3727  1.2511
  842MPD2     N12433   2.308   3.213  17.173  0.3998  0.2594 -0.4725
  842MPD2    H512434   2.371   3.191  17.249  1.6399  2.9020 -0.7721
  842MPD2    N112435   2.287   3.500  16.758  0.0397  0.3045 -0.2715
  842MPD2    H712436   2.323   3.590  16.728  0.7230  0.6317  1.4957
  843MPD2     C12437   4.525   3.354  17.209  0.4240  0.2685  0.0271
  843MPD2    C112438   4.455   3.391  17.320 -0.6748  0.2445 -0.0807
  843MPD2    C212439   4.495   3.506  17.384 -0.6362 -0.2892 -0.3644
  843MPD2    C312440   4.595   3.580  17.331  0.6559  1.3366  0.1727
  843MPD2    C412441   4.667   3.538  17.222  0.3588  0.4895  0.0024
  843MPD2    C512442   4.635   3.420  17.162 -0.1508  0.0750 -0.0542
  843MPD2     H12443   4.455   3.532  17.481 -0.1121 -0.8465  0.0012
  843MPD2    H112444   4.732   3.604  17.166  1.2626 -0.6188 -0.2623
  843MPD2    H212445   4.505   3.264  17.151 -2.3561  2.4398 -2.3360
  843MPD2    H312446   4.670   3.384  17.066  0.9413  0.5720  0.1579
  843MPD2     N12447   4.648   3.695  17.395 -0.2088  0.1881 -0.2747
  843MPD2    H512448   4.712   3.747  17.336  0.5308 -0.1126  0.2567
  843MPD2    N112449   4.339   3.318  17.354 -0.2649  0.1785 -0.5630
  843MPD2    H712450   4.316   3.236  17.300 -1.9983  0.0645  0.3413
  844MPD2     C12451   2.653   2.760  16.488 -0.0222 -0.2206  0.3424
  844MPD2    C112452   2.753   2.677  16.441  0.0467  0.2989 -0.0179
  844MPD2    C212453   2.876   2.673  16.506  0.3805 -0.2745  0.4473
  844MPD2    C312454   2.897   2.769  16.607  0.3243 -0.0182 -0.3565
  844MPD2    C412455   2.796   2.856  16.644 -0.2124 -0.6580  0.3741
  844MPD2    C512456   2.674   2.857  16.585 -0.0931 -0.3499  0.0822
  844MPD2     H12457   2.961   2.624  16.461  0.4961  1.0624 -0.8047
  844MPD2    H112458   2.813   2.935  16.717  3.9379 -1.0029 -0.2156
  844MPD2    H212459   2.554   2.751  16.446 -0.4880  1.1906  1.1474
  844MPD2    H312460   2.601   2.933  16.609  1.8278  1.9027 -1.1508
  844MPD2     N12461   3.031   2.772  16.659 -0.2040 -0.3792 -0.1989
  844MPD2    H512462   3.101   2.711  16.618  0.7926  1.0361 -0.5967
  844MPD2    N112463   2.730   2.614  16.311  0.3859  0.2253  0.2408
  844MPD2    H712464   2.638   2.631  16.273 -0.0005  0.0305  1.0706
  845MPD2     C12465   3.455   3.544  17.161  0.6306  0.4017 -0.4883
  845MPD2    C112466   3.321   3.503  17.148  0.4024 -0.1614 -0.4213
  845MPD2    C212467   3.294   3.386  17.078  0.1900  0.3184  1.3239
  845MPD2    C312468   3.394   3.321  17.014 -0.3985 -0.7179 -0.6252
  845MPD2    C412469   3.528   3.370  17.025 -0.1163  0.2501 -0.1529
  845MPD2    C512470   3.553   3.479  17.104 -0.2288  0.7508  0.1658
  845MPD2     H12471   3.198   3.337  17.074  2.1082 -3.2603 -0.8389
  845MPD2    H112472   3.611   3.319  16.977 -0.4235 -0.0276 -0.3896
  845MPD2    H212473   3.484   3.640  17.202  1.7505  1.1941 -3.1128
  845MPD2    H312474   3.653   3.523  17.109  0.6946 -1.3661  0.0559
  845MPD2     N12475   3.369   3.194  16.962 -0.4397  0.1937  0.2130
  845MPD2    H512476   3.270   3.180  16.944 -0.1168 -2.8854  0.8813
  845MPD2    N112477   3.216   3.576  17.219  0.0247  0.0159 -0.1204
  845MPD2    H712478   3.255   3.659  17.263 -1.7353  1.0353 -0.5005
  846MPD2     C12479   0.224   3.938  13.743  0.1434  0.0499  0.1604
  846MPD2    C112480   0.124   4.034  13.749  0.0123  0.5005  0.1102
  846MPD2    C212481   0.046   4.049  13.861 -0.4535  0.0976  0.3081
  846MPD2    C312482   0.062   3.964  13.965  0.2050  0.2086 -0.2353
  846MPD2    C412483   0.165   3.868  13.963  0.9744  0.4033 -0.4239
  846MPD2    C512484   0.239   3.857  13.847  1.1345  0.3589  0.2880
  846MPD2     H12485   4.708   4.130  13.872 -0.1416  0.6207 -1.6035
  846MPD2    H112486   0.186   3.793  14.039 -0.8879  2.3492  1.9739
  846MPD2    H212487   0.298   3.928  13.664 -1.7254  0.5332 -1.6635
  846MPD2    H312488   0.318   3.787  13.823 -0.3511 -0.3022 -2.7028
  846MPD2     N12489   4.703   3.987  14.070 -0.2183 -0.5809  0.4830
  846MPD2    H512490   4.640   4.067  14.066  2.4495  1.5250  1.0524
  846MPD2    N112491   0.119   4.141  13.652  0.2577 -0.1008 -0.1390
  846MPD2    H712492   0.061   4.220  13.679 -0.1408 -0.5428  0.3039
  847MPD2     C12493   0.084   4.438  14.316  0.3840 -0.4455 -0.2907
  847MPD2    C112494   0.167   4.536  14.277  0.0437  0.4404 -0.2307
  847MPD2    C212495   0.303   4.522  14.287  0.2664 -0.1034 -0.0209
  847MPD2    C312496   0.360   4.412  14.333  0.0634 -0.1975 -0.1898
  847MPD2    C412497   0.277   4.316  14.384 -0.8298 -0.5930 -0.0854
  847MPD2    C512498   0.140   4.320  14.367 -0.3103 -0.0402 -0.1553
  847MPD2     H12499   0.372   4.599  14.254 -0.5289  0.9509  0.7470
  847MPD2    H112500   0.308   4.227  14.437  2.0507  0.6811  0.3984
  847MPD2    H212501   4.709   4.441  14.322  0.4392  0.0305  0.4805
  847MPD2    H312502   0.071   4.245  14.403  0.2901  0.2972  1.6608
  847MPD2     N12503   0.499   4.402  14.327 -0.2317  0.2558 -0.0839
  847MPD2    H512504   0.550   4.474  14.277  0.4952 -1.3080 -1.5722
  847MPD2    N112505   0.121   4.657  14.227  0.3707 -0.2321 -0.2873
  847MPD2    H712506   0.197   4.723  14.222  2.8352 -3.3357 -3.4437
  848MPD2     C12507   2.535   3.441  16.352 -0.2222  0.0768 -0.6868
  848MPD2    C112508   2.601   3.471  16.474 -0.7098  0.2948  0.2659
  848MPD2    C212509   2.685   3.580  16.481  0.3121 -0.8522  0.7486
  848MPD2    C312510   2.708   3.660  16.374  0.6032  0.8609  0.0340
  848MPD2    C412511   2.631   3.638  16.259  0.3534  0.2847  0.7644
  848MPD2    C512512   2.556   3.524  16.247  0.2658 -0.2254  0.6676
  848MPD2     H12513   2.733   3.589  16.578 -0.4429  1.6853  0.8897
  848MPD2    H112514   2.639   3.707  16.176 -0.5724 -1.0354 -0.4325
  848MPD2    H212515   2.469   3.358  16.333  1.6125 -1.5748  0.1035
  848MPD2    H312516   2.500   3.500  16.157 -1.9075  0.5671  1.7893
  848MPD2     N12517   2.798   3.780  16.370 -0.7577 -0.9075  0.0599
  848MPD2    H512518   2.796   3.828  16.281  1.5147 -0.7194  0.1067
  848MPD2    N112519   2.593   3.383  16.589 -0.1146 -0.0340 -0.6889
  848MPD2    H712520   2.647   3.415  16.668  1.0019 -0.2254 -1.3679
  849MPD2     C12521   1.338   2.894  14.228 -0.4348 -0.8039 -0.0259
  849MPD2    C112522   1.461   2.904  14.155 -0.0124 -0.4903  0.6212
  849MPD2    C212523   1.575   2.851  14.211 -0.1037 -0.8090  0.3426
  849MPD2    C312524   1.571   2.784  14.330  0.4052 -0.7025  0.4464
  849MPD2    C412525   1.456   2.772  14.401 -0.3995  0.0973 -0.8411
  849MPD2    C512526   1.338   2.822  14.343  0.0535  0.6335  0.9822
  849MPD2     H12527   1.669   2.869  14.159 -1.3332  0.9691 -1.2913
  849MPD2    H112528   1.448   2.710  14.490  1.4827 -0.9127 -1.3703
  849MPD2    H212529   1.240   2.920  14.189 -0.4164 -1.6961 -0.6749
  849MPD2    H312530   1.245   2.798  14.393 -0.3283 -0.5072 -0.2903
  849MPD2     N12531   1.687   2.729  14.379  0.1484 -0.0618 -0.0146
  849MPD2    H512532   1.757   2.717  14.306 -1.5202  0.5267 -1.6997
  849MPD2    N112533   1.461   2.969  14.032  0.0157 -0.7102 -0.7485
  849MPD2    H712534   1.367   2.995  14.004  0.1770  2.6045  1.8791
  850MPD2     C12535   4.525   0.870  14.857  0.9520 -0.4102  0.7440
  850MPD2    C112536   4.539   0.829  14.990 -0.5088  0.0669 -0.1707
  850MPD2    C212537   4.671   0.794  15.024  0.0841 -0.1104  0.3197
  850MPD2    C312538   0.045   0.814  14.943  0.6216  0.2298 -0.2962
  850MPD2    C412539   0.027   0.864  14.816 -0.2415 -0.1794  0.0322
  850MPD2    C512540   4.629   0.877  14.769  0.0196 -0.0923  0.7388
  850MPD2     H12541   4.691   0.757  15.123 -1.1495  0.1804  0.6761
  850MPD2    H112542   0.099   0.882  14.737 -0.8308 -0.6820 -0.6200
  850MPD2    H212543   4.427   0.898  14.822  1.7128  0.0691 -1.0081
  850MPD2    H312544   4.610   0.919  14.671  2.7063  2.1130  1.1473
  850MPD2     N12545   0.178   0.782  14.984 -0.3571 -0.1946  0.1360
  850MPD2    H512546   0.249   0.821  14.924 -0.3210  1.2643  1.1301
  850MPD2    N112547   4.426   0.824  15.078  0.2043 -0.0575  0.2833
  850MPD2    H712548   4.338   0.825  15.028  0.6069 -0.0759 -0.4200
  851MPD2     C12549   0.398   0.755  15.628 -0.2101  0.8810  0.6606
  851MPD2    C112550   0.284   0.703  15.574 -0.3742 -0.0677  0.6602
  851MPD2    C212551   0.292   0.579  15.508  0.6575  0.2305  0.1229
  851MPD2    C312552   0.418   0.531  15.472 -0.1758  0.0425  0.1942
  851MPD2    C412553   0.535   0.586  15.525  0.2692 -0.2820  0.7307
  851MPD2    C512554   0.518   0.694  15.603 -0.9787  0.5413 -0.2526
  851MPD2     H12555   0.202   0.527  15.480 -1.2129  3.0326  0.8983
  851MPD2    H112556   0.632   0.545  15.500  0.2744  1.1453 -1.5897
  851MPD2    H212557   0.398   0.849  15.682  0.3250  1.3174 -0.0943
  851MPD2    H312558   0.609   0.726  15.654 -0.2912 -0.4918 -0.8406
  851MPD2     N12559   0.418   0.416  15.386 -0.3947 -0.4241  0.0632
  851MPD2    H512560   0.327   0.381  15.357 -1.6300  1.0234  2.2125
  851MPD2    N112561   0.166   0.777  15.583  0.2085  0.1311  0.1416
  851MPD2    H712562   0.182   0.872  15.615  0.5711 -0.4870  1.8072
  852MPD2     C12563   4.049   3.551   9.969  0.1289  0.7112 -0.0314
  852MPD2    C112564   4.065   3.676  10.032 -0.4008 -0.1041  0.5737
  852MPD2    C212565   4.187   3.733  10.028 -0.2350 -0.5755  0.0021
  852MPD2    C312566   4.292   3.671   9.969  0.6759  0.4119  0.0906
  852MPD2    C412567   4.274   3.547   9.905  0.3499 -1.0798 -0.4676
  852MPD2    C512568   4.151   3.488   9.907  0.4286 -0.8849 -0.2661
  852MPD2     H12569   4.214   3.830  10.070  0.5589 -1.1275  0.7534
  852MPD2    H112570   4.363   3.500   9.865  1.6558 -0.8087  2.1458
  852MPD2    H212571   3.956   3.496   9.979  0.8026 -0.8303 -2.1214
  852MPD2    H312572   4.141   3.394   9.853  0.7626 -1.3837  0.5339
  852MPD2     N12573   4.426   3.722   9.973 -0.1331 -0.2770  0.4797
  852MPD2    H512574   4.437   3.821   9.993 -2.9621  0.2306 -0.3913
  852MPD2    N112575   3.969   3.720  10.118 -0.2347  0.3040  0.0069
  852MPD2    H712576   3.893   3.653  10.126 -0.3862  0.2126 -2.2058
  853MPD2     C12577   1.177   3.442  12.442 -0.2396  0.2984  0.9247
  853MPD2    C112578   1.045   3.453  12.436 -0.0207 -0.3285 -0.0101
  853MPD2    C212579   0.976   3.417  12.322 -0.2053 -0.2655 -0.2877
  853MPD2    C312580   1.045   3.374  12.209 -0.1780 -0.2273 -0.4328
  853MPD2    C412581   1.180   3.372  12.210 -0.3421  0.6866  0.4619
  853MPD2    C512582   1.242   3.401  12.327 -0.2051 -0.6936  0.6412
  853MPD2     H12583   0.868   3.410  12.333 -0.1072  1.1995  1.6455
  853MPD2    H112584   1.238   3.332  12.127 -1.9847 -0.6616 -0.0213
  853MPD2    H212585   1.238   3.470  12.527  1.4351  0.5617 -0.3831
  853MPD2    H312586   1.350   3.394  12.320 -0.1350  0.4619  0.6071
  853MPD2     N12587   0.976   3.337  12.093 -0.4393  0.0509  0.4122
  853MPD2    H512588   1.033   3.336  12.009 -2.2224 -0.5286 -0.7842
  853MPD2    N112589   0.973   3.502  12.549 -0.0230  0.3902 -0.3363
  853MPD2    H712590   1.031   3.494  12.632 -1.3413  0.7381  0.6134
  854MPD2     C12591   2.302   3.680  13.392  0.6533 -0.6876 -0.5613
  854MPD2    C112592   2.396   3.760  13.332 -0.0217  0.5362  0.1394
  854MPD2    C212593   2.527   3.713  13.331  0.1009 -0.3356  0.5182
  854MPD2    C312594   2.553   3.583  13.380 -0.2079 -0.4484 -0.5951
  854MPD2    C412595   2.449   3.505  13.436 -0.2003  0.3179  0.0666
  854MPD2    C512596   2.325   3.557  13.440  0.6101  0.8578  0.3457
  854MPD2     H12597   2.602   3.769  13.276  0.8881  0.2994  2.2408
  854MPD2    H112598   2.460   3.400  13.461  0.1059 -0.3420 -2.7782
  854MPD2    H212599   2.199   3.714  13.393  0.2219 -2.0612  2.2387
  854MPD2    H312600   2.247   3.495  13.483  2.3881 -2.5331 -1.3703
  854MPD2     N12601   2.678   3.524  13.367 -0.0377 -0.1730  0.4577
  854MPD2    H512602   2.685   3.425  13.387 -1.8679 -0.2150  0.9261
  854MPD2    N112603   2.349   3.881  13.269 -0.2020  0.1858 -0.7750
  854MPD2    H712604   2.249   3.902  13.264 -0.3110 -0.1738 -0.1630
  855MPD2     C12605   3.367   3.280  13.906 -0.3068 -0.9541  0.1973
  855MPD2    C112606   3.406   3.236  13.784  0.1592  0.1258  0.5353
  855MPD2    C212607   3.349   3.287  13.671  0.7287  0.1411  0.1022
  855MPD2    C312608   3.247   3.385  13.676  0.4094 -0.5226  0.3060
  855MPD2    C412609   3.219   3.436  13.801 -0.2578  0.2443  0.1592
  855MPD2    C512610   3.277   3.379  13.914 -0.6809 -0.4015 -0.0044
  855MPD2     H12611   3.375   3.242  13.576  0.0076 -1.1124  0.4945
  855MPD2    H112612   3.152   3.522  13.802  0.4486  0.8064 -0.5604
  855MPD2    H212613   3.406   3.237  13.998 -1.9526 -1.9567  0.4219
  855MPD2    H312614   3.250   3.415  14.012 -1.1353 -0.8080  0.0212
  855MPD2     N12615   3.175   3.427  13.560 -0.0635  0.0048  0.0468
  855MPD2    H512616   3.100   3.495  13.573 -0.0932 -0.0055 -0.0663
  855MPD2    N112617   3.499   3.132  13.756 -0.1214  0.7626 -0.0256
  855MPD2    H712618   3.514   3.098  13.661  1.9317  1.9611 -0.1327
  856MPD2     C12619   0.993   4.074  14.050 -0.9131  0.3279  0.1029
  856MPD2    C112620   1.094   4.162  14.085 -0.0352  0.0614 -0.2729
  856MPD2    C212621   1.096   4.284  14.026 -0.5125  1.1384 -0.2190
  856MPD2    C312622   1.003   4.327  13.936 -0.4499 -0.1334 -0.2236
  856MPD2    C412623   0.902   4.235  13.901 -0.6130  0.2934  0.2821
  856MPD2    C512624   0.894   4.112  13.965 -0.0889  0.7291 -0.1205
  856MPD2     H12625   1.177   4.349  14.058  1.0708 -1.0307  0.1539
  856MPD2    H112626   0.836   4.269  13.822  1.0422 -0.8580 -1.5908
  856MPD2    H212627   0.992   3.977  14.098  5.5372 -0.1790 -0.8052
  856MPD2    H312628   0.821   4.036  13.939  1.9310 -1.2707  0.0420
  856MPD2     N12629   1.003   4.457  13.886 -0.1622  0.3450  0.0663
  856MPD2    H512630   0.948   4.476  13.803  0.9954  0.6290 -0.6285
  856MPD2    N112631   1.188   4.142  14.192  0.4759  0.1010 -0.0077
  856MPD2    H712632   1.260   4.214  14.195  0.2070  0.3480  0.4833
  857MPD2     C12633   1.946   1.891  13.042 -0.0985 -0.1325 -0.3578
  857MPD2    C112634   2.079   1.855  13.063  0.7357  0.1997 -0.2405
  857MPD2    C212635   2.173   1.958  13.058  0.4298  0.2064 -0.5594
  857MPD2    C312636   2.135   2.089  13.062  0.2866 -0.2096  0.5352
  857MPD2    C412637   2.002   2.125  13.056  0.3625  0.8030  0.2371
  857MPD2    C512638   1.909   2.026  13.045 -0.4298 -0.5007 -0.4276
  857MPD2     H12639   2.280   1.942  13.055  0.6083  1.4269 -0.5292
  857MPD2    H112640   1.962   2.224  13.070 -0.8608  0.6736 -2.4679
  857MPD2    H212641   1.862   1.824  13.032 -1.4180  1.8164 -2.3808
  857MPD2    H312642   1.803   2.050  13.047 -0.2233  0.3208  0.2659
  857MPD2     N12643   2.241   2.183  13.062 -0.7649  0.2772 -0.1169
  857MPD2    H512644   2.335   2.148  13.075 -2.0032 -2.2982  1.7958
  857MPD2    N112645   2.111   1.717  13.059 -0.5410 -0.2931  0.2279
  857MPD2    H712646   2.039   1.646  13.052 -0.4310 -0.2850 -1.1418
  858MPD2     C12647   3.174   0.151  16.551  0.8326 -0.3504 -0.5791
  858MPD2    C112648   3.175   0.276  16.505 -0.2099  1.2870  0.3624
  858MPD2    C212649   3.223   0.383  16.589  0.2797 -0.2871 -0.1877
  858MPD2    C312650   3.259   0.352  16.725  0.0132  0.0276  0.3222
  858MPD2    C412651   3.254   0.216  16.765  0.7389  0.2308 -0.1028
  858MPD2    C512652   3.217   0.123  16.677 -0.8384  0.7996  0.0657
  858MPD2     H12653   3.228   0.487  16.560 -1.9187 -0.5868 -1.6886
  858MPD2    H112654   3.291   0.185  16.861  2.0566  0.4775 -0.5279
  858MPD2    H212655   3.151   0.071  16.480 -0.5814 -0.8123  0.3991
  858MPD2    H312656   3.227   0.017  16.699  1.1452  1.0586  0.4148
  858MPD2     N12657   3.289   0.445  16.823  0.3876  0.3146  0.0623
  858MPD2    H512658   3.336   0.408  16.905  1.8163 -1.1680 -1.4270
  858MPD2    N112659   3.153   0.294  16.369  0.1889 -0.5132 -0.5946
  858MPD2    H712660   3.139   0.211  16.312  0.0885 -0.2816 -0.9063
  859MPD2     C12661   2.023   2.683  16.011  0.1899  0.1251 -0.4177
  859MPD2    C112662   2.014   2.653  15.878 -0.8601  0.0202  0.0457
  859MPD2    C212663   2.020   2.517  15.843 -0.7380  0.5423 -0.6570
  859MPD2    C312664   2.032   2.418  15.935 -0.0581 -0.2852 -0.1288
  859MPD2    C412665   2.038   2.453  16.067  0.0910 -0.0046  0.2589
  859MPD2    C512666   2.030   2.587  16.105  0.0616 -0.0081  0.1449
  859MPD2     H12667   2.020   2.486  15.739  0.1920 -0.3172 -0.4014
  859MPD2    H112668   2.058   2.381  16.145 -0.7957  0.6446  1.0879
  859MPD2    H212669   2.027   2.786  16.044 -2.5442  0.5734 -1.4415
  859MPD2    H312670   2.029   2.614  16.210 -0.4255  1.1835 -0.1695
  859MPD2     N12671   2.054   2.277  15.910  0.4334 -0.3420 -0.8026
  859MPD2    H512672   2.069   2.219  15.992  1.2939  1.2682  0.1696
  859MPD2    N112673   2.022   2.762  15.789  0.0599  0.2655 -0.1955
  859MPD2    H712674   2.034   2.850  15.838 -0.0419 -1.5388  3.0664
  860MPD2     C12675   3.961   3.264  12.036  0.7196  0.1005  0.0959
  860MPD2    C112676   4.003   3.292  12.164 -0.4314 -0.5657 -0.0141
  860MPD2    C212677   3.982   3.202  12.265  1.2504 -0.1400 -0.2388
  860MPD2    C312678   3.901   3.091  12.244  0.1110  0.2817  0.1937
  860MPD2    C412679   3.856   3.057  12.118 -0.2314 -0.4913 -0.1968
  860MPD2    C512680   3.882   3.147  12.015  0.1018 -0.9599  0.5319
  860MPD2     H12681   4.026   3.223  12.362 -0.5119 -1.5502  0.8472
  860MPD2    H112682   3.784   2.978  12.098 -1.9292  0.2122  3.0640
  860MPD2    H212683   3.974   3.332  11.953  0.9706 -0.1577 -0.0772
  860MPD2    H312684   3.845   3.113  11.919 -0.1952 -1.2748  0.7585
  860MPD2     N12685   3.880   3.015  12.366  0.1612  0.8198  0.0597
  860MPD2    H512686   3.919   3.046  12.455  0.1957  0.7160  0.0809
  860MPD2    N112687   4.082   3.407  12.189  0.3966  0.5207  0.0575
  860MPD2    H712688   4.124   3.419  12.280  1.5697 -2.6238 -0.0623
  861MPD2     C12689   2.408   1.194  11.226 -1.1383 -0.0867 -0.3613
  861MPD2    C112690   2.390   1.325  11.255 -0.3384  0.3859 -0.7314
  861MPD2    C212691   2.370   1.425  11.159  0.4342  0.2697 -0.1139
  861MPD2    C312692   2.364   1.382  11.029 -0.2502  0.6015  0.0945
  861MPD2    C412693   2.394   1.253  10.997 -0.5189 -0.7031 -0.5304
  861MPD2    C512694   2.419   1.161  11.097 -0.4011 -0.0309  0.4595
  861MPD2     H12695   2.349   1.527  11.189  1.0158 -0.0101  1.2651
  861MPD2    H112696   2.404   1.216  10.896  2.1561 -1.4000 -0.0163
  861MPD2    H212697   2.427   1.109  11.291 -1.3306 -0.5607 -0.9229
  861MPD2    H312698   2.444   1.059  11.072 -0.5589  0.1987 -0.6236
  861MPD2     N12699   2.335   1.463  10.914  0.0426  0.2592  0.1732
  861MPD2    H512700   2.342   1.414  10.826 -0.0496  0.0766  0.2677
  861MPD2    N112701   2.391   1.365  11.393 -0.3376  0.4418 -0.3075
  861MPD2    H712702   2.393   1.464  11.411  0.0647  0.4555 -0.4357
  862MPD2     C12703   2.262   1.401  10.174 -0.5527  0.2553  0.8524
  862MPD2    C112704   2.305   1.369  10.297 -0.9129 -0.6685 -0.0199
  862MPD2    C212705   2.366   1.250  10.314  0.1520 -0.1500  0.6393
  862MPD2    C312706   2.381   1.154  10.218 -1.2684 -0.4103 -0.1531
  862MPD2    C412707   2.336   1.185  10.091  0.2393  0.4000 -0.6633
  862MPD2    C512708   2.270   1.305  10.070  0.5207  0.7614 -0.1716
  862MPD2     H12709   2.391   1.216  10.413  1.8770  0.8160  0.5313
  862MPD2    H112710   2.343   1.120  10.004  0.2726  0.1845 -0.4989
  862MPD2    H212711   2.212   1.494  10.147  1.0306  0.6338 -0.7440
  862MPD2    H312712   2.244   1.336   9.969 -1.2392 -0.3606 -0.0643
  862MPD2     N12713   2.425   1.017  10.237  0.3949 -0.5794  0.4605
  862MPD2    H512714   2.415   0.941  10.170  0.6420  0.9743 -1.3252
  862MPD2    N112715   2.306   1.457  10.405  0.2176 -0.4189  0.2140
  862MPD2    H712716   2.340   1.422  10.494 -0.1307 -1.3594 -0.0207
  863MPD2     C12717   1.710   4.080  16.863 -0.2257 -0.5539 -0.5715
  863MPD2    C112718   1.690   4.190  16.942 -0.0230  0.2323  0.2327
  863MPD2    C212719   1.751   4.192  17.068  0.7544 -0.1987 -0.2547
  863MPD2    C312720   1.822   4.083  17.119  0.3818 -0.0731  0.0744
  863MPD2    C412721   1.837   3.967  17.041  0.2275  0.1944  0.0603
  863MPD2    C512722   1.786   3.969  16.917 -0.6327  0.0293 -0.6664
  863MPD2     H12723   1.728   4.278  17.131 -1.9361  0.4768 -2.1376
  863MPD2    H112724   1.877   3.876  17.083  0.6720  0.0464 -0.6767
  863MPD2    H212725   1.674   4.064  16.761  0.8902 -1.8959 -0.7568
  863MPD2    H312726   1.783   3.876  16.861  2.1428 -0.3368 -0.1967
  863MPD2     N12727   1.893   4.086  17.243  0.5612 -0.5706  0.4683
  863MPD2    H512728   1.921   3.991  17.263 -1.3640 -0.7282  2.5341
  863MPD2    N112729   1.605   4.294  16.889 -1.0378  0.2974  1.0338
  863MPD2    H712730   1.588   4.290  16.789 -1.6858  3.6030  1.0202
  864MPD2     C12731   2.778   0.170  16.853 -0.3552 -0.2386  0.7453
  864MPD2    C112732   2.683   0.259  16.910  0.6507 -0.5638  0.2562
  864MPD2    C212733   2.692   0.400  16.890  0.4132 -0.2972  0.0604
  864MPD2    C312734   2.792   0.448  16.806  0.2882 -0.4698 -0.2475
  864MPD2    C412735   2.890   0.361  16.756  0.1649  0.0202  0.0887
  864MPD2    C512736   2.888   0.224  16.783 -0.7471 -0.2540 -0.3221
  864MPD2     H12737   2.611   0.462  16.928  0.8148  0.6859 -0.7042
  864MPD2    H112738   2.970   0.399  16.695 -0.7007  0.4347 -0.8011
  864MPD2    H212739   2.771   0.062  16.860 -2.8895 -0.2056 -1.2092
  864MPD2    H312740   2.960   0.162  16.732 -2.0697 -0.4960 -1.9182
  864MPD2     N12741   2.789   0.575  16.746  0.1322  0.3644  0.4939
  864MPD2    H512742   2.866   0.598  16.685 -0.7608 -0.3547 -0.8984
  864MPD2    N112743   2.571   0.196  16.976 -0.2041 -0.5246 -0.4419
  864MPD2    H712744   2.572   0.096  16.960  0.3383 -0.4721 -0.7415
  865MPD2     C12745   2.427   1.244  16.196  0.0045  0.4535 -0.1780
  865MPD2    C112746   2.441   1.123  16.260  0.3408 -0.3294  0.2152
  865MPD2    C212747   2.485   1.122  16.398  0.1631  0.1854 -0.1333
  865MPD2    C312748   2.529   1.234  16.460 -0.2361 -0.7533  0.2894
  865MPD2    C412749   2.514   1.346  16.387  0.2279  0.5042  0.0573
  865MPD2    C512750   2.469   1.355  16.261  0.1376  0.1844 -0.0689
  865MPD2     H12751   2.478   1.031  16.457 -2.1739  0.4439 -0.0058
  865MPD2    H112752   2.544   1.437  16.436 -1.6188  1.2021 -0.1201
  865MPD2    H212753   2.381   1.257  16.099  0.0789  1.7128 -0.0443
  865MPD2    H312754   2.441   1.452  16.223 -1.5696 -0.8621 -1.4772
  865MPD2     N12755   2.565   1.240  16.603 -0.2790  0.3532  0.2378
  865MPD2    H512756   2.550   1.331  16.645  0.6203  0.9536 -0.7454
  865MPD2    N112757   2.419   1.005  16.189  0.6187 -0.5735 -0.0133
  865MPD2    H712758   2.424   1.016  16.089 -0.3429 -1.2719 -0.1364
  866MPD2     C12759   3.091   1.678  11.443  0.0880  0.2198  0.0652
  866MPD2    C112760   3.074   1.775  11.346 -1.0617  0.0572 -0.8658
  866MPD2    C212761   2.956   1.831  11.332 -0.0577  0.3207  0.0053
  866MPD2    C312762   2.846   1.792  11.401 -0.4310  0.3099  0.1579
  866MPD2    C412763   2.864   1.698  11.506  0.3431 -0.0530  0.2095
  866MPD2    C512764   2.984   1.632  11.520 -0.1493 -0.2530  0.5670
  866MPD2     H12765   2.949   1.897  11.247  2.3111  3.1515  1.9998
  866MPD2    H112766   2.788   1.666  11.577 -0.2210  1.3545  0.2321
  866MPD2    H212767   3.178   1.613  11.444 -0.3841 -0.4154  0.1341
  866MPD2    H312768   2.989   1.544  11.583  0.0552 -0.4638  0.2535
  866MPD2     N12769   2.717   1.845  11.385  0.4240 -0.8318 -0.6400
  866MPD2    H512770   2.641   1.798  11.433  1.5849 -1.8740  0.1812
  866MPD2    N112771   3.196   1.815  11.285 -0.4436  0.3358 -1.0725
  866MPD2    H712772   3.280   1.781  11.331 -1.3639 -0.9627 -0.3371
  867MPD2     C12773   1.551   0.955  16.935  0.1107  0.2523  0.1577
  867MPD2    C112774   1.460   0.908  17.027 -0.7106 -0.8609 -0.1707
  867MPD2    C212775   1.443   0.987  17.145  0.2023 -0.0703 -0.1828
  867MPD2    C312776   1.513   1.101  17.166 -1.0218  0.3386  0.5836
  867MPD2    C412777   1.612   1.141  17.072  0.3527 -0.3414  0.7859
  867MPD2    C512778   1.623   1.068  16.957  0.2524 -0.3656  0.1245
  867MPD2     H12779   1.380   0.950  17.225  2.1709 -1.0518  0.9189
  867MPD2    H112780   1.670   1.232  17.079 -1.6266  1.0109 -0.5382
  867MPD2    H212781   1.575   0.898  16.846  0.4825 -1.1334  1.1541
  867MPD2    H312782   1.677   1.114  16.875 -0.3185 -0.9780 -0.5923
  867MPD2     N12783   1.491   1.185  17.277 -0.4611 -0.3815  0.2329
  867MPD2    H512784   1.557   1.262  17.286 -1.8920  0.5655  2.6552
  867MPD2    N112785   1.411   0.774  17.022 -0.6077 -0.5802  0.4066
  867MPD2    H712786   1.449   0.718  16.946  1.1730 -0.6308  1.3388
  868MPD2     C12787   2.537   0.223  13.461 -0.3349  0.2350 -0.1410
  868MPD2    C112788   2.650   0.289  13.506 -0.2663 -0.2954 -0.4095
  868MPD2    C212789   2.637   0.360  13.622  0.3331  0.2780 -0.7677
  868MPD2    C312790   2.517   0.371  13.695 -1.1933  0.7559  0.4434
  868MPD2    C412791   2.405   0.322  13.633 -0.4048  0.4749  0.1528
  868MPD2    C512792   2.417   0.255  13.516  0.3699 -0.2408 -0.1355
  868MPD2     H12793   2.724   0.412  13.658  0.3800 -1.1876  1.2265
  868MPD2    H112794   2.305   0.334  13.674 -1.2755 -1.3445 -1.4566
  868MPD2    H212795   2.542   0.155  13.377  1.6797 -1.3591  1.2782
  868MPD2    H312796   2.322   0.220  13.475  0.8730 -0.4445 -1.1447
  868MPD2     N12797   2.514   0.422  13.822  0.6717 -0.6754  0.1795
  868MPD2    H512798   2.605   0.455  13.850  0.7794  0.5827 -1.6370
  868MPD2    N112799   2.775   0.265  13.438 -0.4335 -0.1799 -0.5572
  868MPD2    H712800   2.770   0.227  13.344  1.7916 -1.2595 -0.2472
  869MPD2     C12801   3.803   2.255   0.295 -0.2649  0.2870  0.1304
  869MPD2    C112802   3.671   2.248   0.318  0.2984 -0.4188 -0.3558
  869MPD2    C212803   3.610   2.354   0.381  0.6696  0.2146  0.5109
  869MPD2    C312804   3.678   2.465   0.416  0.1557  0.5032 -0.1168
  869MPD2    C412805   3.816   2.462   0.396 -0.2380  0.8104 -0.5437
  869MPD2    C512806   3.882   2.359   0.337  0.0258 -0.1624  1.1236
  869MPD2     H12807   3.502   2.362   0.375  0.6482 -0.6359 -0.2609
  869MPD2    H112808   3.875   2.548   0.428  0.0606  0.7461 -0.9126
  869MPD2    H212809   3.846   2.184   0.225 -0.3198  3.1679 -2.8243
  869MPD2    H312810   3.985   2.364   0.304 -0.6505  3.1579 -0.3895
  869MPD2     N12811   3.624   2.582   0.472  0.6691 -0.5851  0.1714
  869MPD2    H512812   3.686   2.656   0.503 -1.2383  0.9857  0.2651
  869MPD2    N112813   3.594   2.130   0.275 -0.0691 -0.2895 -0.0533
  869MPD2    H712814   3.639   2.061   0.217  0.6585  0.0896  0.0512
  870MPD2     C12815   1.902   1.891   1.017  0.3525 -0.7619 -0.1838
  870MPD2    C112816   2.032   1.891   0.966  0.7218 -0.8025  0.4359
  870MPD2    C212817   2.061   1.793   0.873  0.1440 -0.4267 -0.5861
  870MPD2    C312818   1.967   1.720   0.813 -0.8324  0.0838 -0.1567
  870MPD2    C412819   1.838   1.714   0.873  0.5404 -0.8011 -0.8772
  870MPD2    C512820   1.812   1.801   0.973  0.0031 -0.0948  0.1063
  870MPD2     H12821   2.158   1.794   0.824  0.7935  1.3273  0.7482
  870MPD2    H112822   1.763   1.638   0.852 -0.3788 -0.3991  0.9095
  870MPD2    H212823   1.868   1.971   1.081 -0.2851 -2.4628  1.5783
  870MPD2    H312824   1.709   1.815   1.002  0.0009  0.0017  0.0535
  870MPD2     N12825   2.021   1.626   0.717  0.0374  0.3315 -0.0736
  870MPD2    H512826   2.114   1.645   0.682  0.5598  0.6081  1.4265
  870MPD2    N112827   2.131   1.982   1.018 -0.3533  0.5656 -0.1696
  870MPD2    H712828   2.097   2.052   1.083 -2.3815  0.4265 -1.0698
  871MPD2     C12829   4.504   0.975  16.257 -0.0343 -0.3511 -0.6260
  871MPD2    C112830   4.439   0.925  16.369  0.1428 -0.1301  0.2218
  871MPD2    C212831   4.425   0.790  16.376  0.4413  0.2386  0.1037
  871MPD2    C312832   4.465   0.701  16.285  0.2704  0.4910 -0.1677
  871MPD2    C412833   4.509   0.750  16.169  0.3791  0.9542 -0.2927
  871MPD2    C512834   4.531   0.884  16.160 -0.1389 -0.1446 -0.1085
  871MPD2     H12835   4.366   0.744  16.454  0.0864 -1.7169 -1.3328
  871MPD2    H112836   4.515   0.685  16.082 -2.0530 -2.2745  1.9643
  871MPD2    H212837   4.521   1.082  16.251 -2.0802  0.1548  2.4208
  871MPD2    H312838   4.581   0.917  16.069 -1.8277  0.8527 -0.6908
  871MPD2     N12839   4.422   0.572  16.305 -0.3142  0.0324 -0.5235
  871MPD2    H512840   4.397   0.547  16.401 -0.9431 -2.4330 -1.3379
  871MPD2    N112841   4.407   1.010  16.473 -0.0457 -0.0249  0.3029
  871MPD2    H712842   4.440   1.104  16.457 -0.8857  0.0082 -1.1739
  872MPD2     C12843   0.545   3.384  13.755  0.3720 -0.3808  0.1896
  872MPD2    C112844   0.613   3.450  13.851 -0.0518 -0.0653  0.2391
  872MPD2    C212845   0.540   3.471  13.971 -0.5516 -0.0244  0.9356
  872MPD2    C312846   0.415   3.425  14.001 -0.3188  0.2788  0.1873
  872MPD2    C412847   0.352   3.369  13.896  0.3049  0.3864  0.1621
  872MPD2    C512848   0.415   3.346  13.782 -0.0469 -0.3577 -0.1167
  872MPD2     H12849   0.590   3.533  14.044  0.2156  0.6178 -0.1356
  872MPD2    H112850   0.249   3.335  13.906 -0.3380  1.8401 -1.4310
  872MPD2    H212851   0.592   3.355  13.661 -0.1137  0.7045 -0.3832
  872MPD2    H312852   0.357   3.294  13.707  1.8411  0.5476 -2.2037
  872MPD2     N12853   0.346   3.449  14.123 -0.7068 -0.0436 -0.1194
  872MPD2    H512854   0.255   3.404  14.132 -0.3775 -0.6254  0.3394
  872MPD2    N112855   0.743   3.501  13.837 -0.0678  0.3031 -0.0583
  872MPD2    H712856   0.782   3.557  13.912 -1.9601  0.9556  0.4398
  873MPD2     C12857   2.262   3.243   0.850  0.3306  0.0533 -0.3520
  873MPD2    C112858   2.138   3.216   0.902 -0.1417  0.4647  0.1013
  873MPD2    C212859   2.089   3.083   0.886  0.5131  0.2490  0.7231
  873MPD2    C312860   2.165   2.992   0.812  0.6108 -0.2162  0.0817
  873MPD2    C412861   2.284   3.028   0.755  0.4999  0.4540  0.3280
  873MPD2    C512862   2.335   3.148   0.785  0.1101 -0.5479 -0.3947
  873MPD2     H12863   1.995   3.059   0.933  0.4678 -1.0242 -0.0220
  873MPD2    H112864   2.337   2.972   0.680 -0.5121 -1.6634  1.1747
  873MPD2    H212865   2.314   3.338   0.859 -1.1518  0.8123  0.2136
  873MPD2    H312866   2.431   3.171   0.740 -0.2038  2.3402  0.4196
  873MPD2     N12867   2.109   2.868   0.775  0.1974  0.1155 -0.4332
  873MPD2    H512868   2.158   2.827   0.697  2.2372  0.6597  0.5701
  873MPD2    N112869   2.079   3.320   0.975  0.8251 -0.3180  0.2572
  873MPD2    H712870   2.139   3.401   0.989 -1.1328  1.0936  0.5433
  874MPD2     C12871   2.388   3.859  16.005 -0.0705 -0.0343 -1.0552
  874MPD2    C112872   2.389   3.849  16.140 -0.0044  0.7849  0.2963
  874MPD2    C212873   2.481   3.923  16.212  0.2009 -0.0122  0.1352
  874MPD2    C312874   2.579   3.997  16.149  0.4574 -0.6668  0.5064
  874MPD2    C412875   2.579   3.999  16.017  0.6356 -0.8027 -0.6122
  874MPD2    C512876   2.485   3.930  15.944  0.0275 -0.0737 -1.3890
  874MPD2     H12877   2.483   3.921  16.320 -1.7268 -0.0953  0.1590
  874MPD2    H112878   2.663   4.044  15.966  1.2637 -2.1354 -0.7635
  874MPD2    H212879   2.318   3.811  15.938 -0.6412 -0.0510 -0.4566
  874MPD2    H312880   2.487   3.922  15.836 -1.3217  0.7822 -1.4781
  874MPD2     N12881   2.673   4.073  16.231  0.1193 -0.1699  1.0941
  874MPD2    H512882   2.673   4.062  16.332  0.6933  1.4878  1.2850
  874MPD2    N112883   2.292   3.771  16.208 -0.0582  0.3967  0.4596
  874MPD2    H712884   2.216   3.724  16.161 -1.5289  1.8468  1.3773
  875MPD2     C12885   3.284   1.720  14.462 -0.2591  0.1531  0.1007
  875MPD2    C112886   3.160   1.775  14.447  0.3592  0.2670 -0.1211
  875MPD2    C212887   3.122   1.871  14.544  0.6919  0.3134 -0.2328
  875MPD2    C312888   3.203   1.909  14.643  0.5179  0.2595 -0.1229
  875MPD2    C412889   3.333   1.864  14.648 -0.2038 -0.1840  0.1581
  875MPD2    C512890   3.360   1.756  14.567  0.4263 -0.2434 -0.0167
  875MPD2     H12891   3.025   1.915  14.524  0.8035  0.6526 -0.0471
  875MPD2    H112892   3.392   1.889  14.736 -1.0101 -0.6722  0.8348
  875MPD2    H212893   3.328   1.645  14.398 -1.5501  0.6213 -1.3487
  875MPD2    H312894   3.459   1.713  14.579  1.3368  1.7476 -0.4499
  875MPD2     N12895   3.159   1.990  14.757  0.2908 -0.2224  0.3634
  875MPD2    H512896   3.230   2.025  14.820 -0.7413 -0.2831  1.5770
  875MPD2    N112897   3.068   1.741  14.349 -0.0362  0.3029 -0.3836
  875MPD2    H712898   2.989   1.805  14.339 -0.2783 -0.1274 -1.2406
  876MPD2     C12899   1.839   3.324  16.171 -0.1404  0.3202  0.6853
  876MPD2    C112900   1.973   3.311  16.168 -0.0136 -0.0458  0.3836
  876MPD2    C212901   2.037   3.212  16.235  0.2126  0.5580  0.4881
  876MPD2    C312902   1.966   3.117  16.299 -0.0504 -0.3137  0.2315
  876MPD2    C412903   1.834   3.141  16.313 -0.4680  0.0785 -0.7188
  876MPD2    C512904   1.764   3.242  16.249 -0.3730 -0.0235  0.2885
  876MPD2     H12905   2.144   3.201  16.250  0.1533  0.9911  1.2043
  876MPD2    H112906   1.768   3.085  16.378 -1.2632  0.8262 -0.8694
  876MPD2    H212907   1.786   3.406  16.123  0.4399 -0.2869 -0.9799
  876MPD2    H312908   1.659   3.259  16.270 -0.4182 -1.6590  1.4422
  876MPD2     N12909   2.031   3.010  16.365  0.0201 -0.1434  0.0394
  876MPD2    H512910   2.132   3.018  16.364 -0.0704  1.3470  2.1301
  876MPD2    N112911   2.051   3.404  16.095  0.4426  0.7223 -0.2222
  876MPD2    H712912   2.003   3.466  16.030 -1.5122  0.0619  0.6183
  877MPD2     C12913   1.957   3.505  15.439  0.0368 -0.6163  0.6431
  877MPD2    C112914   2.090   3.549  15.432 -0.2463  0.1539 -0.5745
  877MPD2    C212915   2.162   3.542  15.314  0.2352  0.3522  0.0052
  877MPD2    C312916   2.092   3.507  15.202  0.4199 -0.1854 -0.6497
  877MPD2    C412917   1.958   3.469  15.206 -0.2047  0.1742 -0.7104
  877MPD2    C512918   1.892   3.472  15.319  0.4465 -0.1119 -0.5624
  877MPD2     H12919   2.268   3.563  15.306  0.4533  0.0529  2.1368
  877MPD2    H112920   1.902   3.434  15.120  1.9564 -0.9073 -1.6656
  877MPD2    H212921   1.895   3.499  15.527  1.7780 -2.3841  1.7476
  877MPD2    H312922   1.789   3.437  15.324  0.6057 -0.7696 -1.8775
  877MPD2     N12923   2.149   3.490  15.074  0.5894 -0.1990  0.4867
  877MPD2    H512924   2.086   3.453  15.004  1.5184  1.1796 -1.0748
  877MPD2    N112925   2.163   3.588  15.547  0.0180 -0.0963  0.2836
  877MPD2    H712926   2.265   3.587  15.539  0.2252  1.6991  2.8452
  878MPD2     C12927   1.048   2.833  13.151 -0.7677 -0.8124 -0.2252
  878MPD2    C112928   1.181   2.857  13.106  0.3407 -0.2452  0.6091
  878MPD2    C212929   1.278   2.871  13.205 -0.3074  0.4013  0.0603
  878MPD2    C312930   1.250   2.873  13.339  0.3792  0.5566  0.1530
  878MPD2    C412931   1.118   2.857  13.378 -0.2181  0.3972  0.0012
  878MPD2    C512932   1.027   2.822  13.282 -0.0015 -0.2322  0.3982
  878MPD2     H12933   1.384   2.874  13.183 -0.7080 -2.2362 -2.1260
  878MPD2    H112934   1.082   2.851  13.481 -0.3318 -0.8396 -0.1031
  878MPD2    H212935   0.962   2.824  13.086 -0.4509  0.5496 -0.8308
  878MPD2    H312936   0.927   2.787  13.308 -0.3023  0.1536 -0.2509
  878MPD2     N12937   1.363   2.895  13.426  0.1339  0.8457 -0.2519
  878MPD2    H512938   1.451   2.911  13.378 -0.0480  1.0992 -0.4991
  878MPD2    N112939   1.197   2.874  12.967  0.2608  0.4271  0.6477
  878MPD2    H712940   1.110   2.877  12.916  0.8478  0.3271 -0.3553
  879MPD2     C12941   2.254   4.479  17.132 -0.0446  0.1345  0.4947
  879MPD2    C112942   2.308   4.369  17.200 -0.6699  0.1489 -0.7348
  879MPD2    C212943   2.278   4.242  17.149  0.7520 -0.1762  0.7161
  879MPD2    C312944   2.201   4.225  17.037 -0.4759 -0.1603  0.0576
  879MPD2    C412945   2.149   4.331  16.974 -0.2378  0.2436 -0.3948
  879MPD2    C512946   2.180   4.453  17.018  0.4724  0.4182  0.3221
  879MPD2     H12947   2.303   4.152  17.205 -0.7619 -0.4542  0.9259
  879MPD2    H112948   2.082   4.327  16.889  0.9409  0.3484 -1.3332
  879MPD2    H212949   2.269   4.583  17.159 -2.5579  0.5203  0.3945
  879MPD2    H312950   2.157   4.528  16.943 -0.7295  0.5623  0.8230
  879MPD2     N12951   2.173   4.098  16.975 -0.2884 -1.0439 -0.2514
  879MPD2    H512952   2.124   4.114  16.888  1.2669  3.0093 -0.4203
  879MPD2    N112953   2.390   4.391  17.311 -0.1799 -0.0450 -0.5850
  879MPD2    H712954   2.410   4.488  17.334  1.5661 -0.3234 -0.9413
  880MPD2     C12955   3.215   0.910   0.699 -0.1082  0.0813 -0.1435
  880MPD2    C112956   3.286   0.965   0.597  0.5108  0.0551 -0.6401
  880MPD2    C212957   3.423   0.933   0.592 -0.4262 -0.1272  0.3732
  880MPD2    C312958   3.483   0.858   0.694 -1.0776  0.3495 -0.7909
  880MPD2    C412959   3.405   0.796   0.792 -0.2591  0.2300 -0.3141
  880MPD2    C512960   3.272   0.825   0.791  0.4216  0.2606 -0.5017
  880MPD2     H12961   3.483   0.963   0.507 -2.6714  2.0609 -0.4451
  880MPD2    H112962   3.450   0.722   0.857  0.1760  0.9762  0.2320
  880MPD2    H212963   3.108   0.931   0.708  0.3100  1.7898  0.9424
  880MPD2    H312964   3.201   0.784   0.861  1.3450 -0.4492  0.0140
  880MPD2     N12965   3.624   0.836   0.689  0.5350  0.3352 -0.0993
  880MPD2    H512966   3.668   0.879   0.609 -0.1248 -0.6689 -1.0096
  880MPD2    N112967   3.216   1.050   0.503  0.1242  0.4275  0.6647
  880MPD2    H712968   3.121   1.070   0.531 -0.3389 -1.9192  0.7378
  881MPD2     C12969   3.094   1.768  17.404  0.4111  0.2347 -0.2748
  881MPD2    C112970   3.193   1.666  17.407 -0.5585  0.1401 -0.5417
  881MPD2    C212971   3.192   1.577  17.508 -0.5480 -0.9418 -0.3870
  881MPD2    C312972   3.100   1.589  17.611 -0.5810 -0.3498 -0.4208
  881MPD2    C412973   3.000   1.680  17.610  0.8075  0.3765  0.7794
  881MPD2    C512974   2.995   1.762  17.501  0.2319 -1.1669 -1.0383
  881MPD2     H12975   3.267   1.500  17.520 -0.4438 -1.0827 -1.9560
  881MPD2    H112976   2.916   1.687  17.677  0.1959 -2.4457  0.3012
  881MPD2    H212977   3.086   1.836  17.319  1.1672  0.0322 -0.5046
  881MPD2    H312978   2.906   1.820  17.482  0.1015 -0.7195  0.9282
  881MPD2     N12979   3.098   1.506  17.722  0.2508 -0.3720 -0.2091
  881MPD2    H512980   3.017   1.525   0.048  1.0188  0.6501  0.5400
  881MPD2    N112981   3.260   1.644  17.285  0.0004 -0.2233 -0.0006
  881MPD2    H712982   3.225   1.698  17.206 -0.9240  0.1877  0.6885
  882MPD2     C12983   2.177   3.507  14.233  0.3553  0.1053  0.3571
  882MPD2    C112984   2.127   3.546  14.356  0.3776 -0.2962 -1.0881
  882MPD2    C212985   2.000   3.519  14.395 -0.2590 -0.2580  0.2716
  882MPD2    C312986   1.917   3.449  14.309 -0.2204 -0.1969 -0.3871
  882MPD2    C412987   1.965   3.407  14.190 -0.3774 -0.5542 -0.4773
  882MPD2    C512988   2.097   3.434  14.153  0.0496 -0.6208 -0.3179
  882MPD2     H12989   1.972   3.527  14.499 -0.8741 -0.6413  0.1341
  882MPD2    H112990   1.898   3.350  14.127 -1.1175  0.0639 -0.2489
  882MPD2    H212991   2.275   3.533  14.193 -0.3456  0.8494 -0.8746
  882MPD2    H312992   2.131   3.394  14.059  1.9595 -2.2334  1.0629
  882MPD2     N12993   1.790   3.407  14.342  0.3681  0.2592  0.1127
  882MPD2    H512994   1.751   3.338  14.278 -0.2625  1.1908 -0.5209
  882MPD2    N112995   2.223   3.588  14.452 -0.4005  0.7971 -0.4289
  882MPD2    H712996   2.317   3.570  14.419  1.0748  2.0226  3.0829
  883MPD2     C12997   3.869   3.067  16.269 -0.1166  0.4970  0.0216
  883MPD2    C112998   3.921   3.184  16.209 -0.0391 -0.0099  0.2675
  883MPD2    C212999   4.035   3.238  16.257  0.7757  0.3967 -0.2682
  883MPD2    C313000   4.101   3.186  16.358 -0.5620 -0.0068 -0.7109
  883MPD2    C413001   4.053   3.077  16.420 -0.0662  0.3167  0.6227
  883MPD2    C513002   3.940   3.020  16.373 -0.2358  0.4027  0.1604
  883MPD2     H13003   4.066   3.326  16.201 -2.0629  1.7794  0.3328
  883MPD2    H113004   4.102   3.031  16.505 -1.3215 -2.0894  0.0442
  883MPD2    H213005   3.776   3.018  16.241  0.2048 -0.4709  0.6306
  883MPD2    H313006   3.900   2.932  16.423  0.1789 -0.6751 -1.4312
  883MPD2     N13007   4.224   3.245  16.386  0.1073  0.3696  0.2726
  883MPD2    H513008   4.258   3.320  16.327  1.5267 -0.3483  0.1767
  883MPD2    N113009   3.862   3.238  16.085 -0.0871  0.2267  0.4316
  883MPD2    H713010   3.896   3.329  16.054 -0.0647  0.9180  2.4620
  884MPD2     C13011   1.323   4.640  15.153  0.4041  0.1640  0.0288
  884MPD2    C113012   1.332   4.507  15.161 -0.3819 -0.0887  0.7177
  884MPD2    C213013   1.229   4.435  15.225  0.1910  0.2179 -0.0347
  884MPD2    C313014   1.131   4.505  15.289 -0.5947 -0.3016 -0.1720
  884MPD2    C413015   1.123   4.639  15.281  1.2177  0.1170  0.4002
  884MPD2    C513016   1.213   4.708  15.203 -1.2803  0.0978  0.1821
  884MPD2     H13017   1.240   4.327  15.222  1.4973  0.4320 -2.6121
  884MPD2    H113018   1.046   4.694  15.335  0.9753 -0.7300  0.9207
  884MPD2    H213019   1.397   4.704  15.106  1.3465  1.2954  3.0623
  884MPD2    H313020   1.213   0.083  15.202  1.0341  0.0840 -1.0653
  884MPD2     N13021   1.025   4.457  15.361  0.1637 -0.3202 -0.6544
  884MPD2    H513022   0.947   4.516  15.388  0.1319 -0.6560 -0.0099
  884MPD2    N113023   1.426   4.429  15.090  0.6426  0.3651 -0.6260
  884MPD2    H713024   1.423   4.330  15.112 -3.1330  0.4367 -0.6919
  885MPD2     C13025   4.021   4.644   0.127  0.1561 -0.0510 -0.0554
  885MPD2    C113026   4.092   4.529   0.089  0.3334 -0.0799  0.2772
  885MPD2    C213027   4.111   4.508  17.687  0.0743  0.0291 -0.5984
  885MPD2    C313028   4.038   4.578  17.591 -0.6286  0.3081  0.4026
  885MPD2    C413029   3.943   4.670  17.628  0.2189 -0.2302 -0.3441
  885MPD2    C513030   3.940   4.708   0.029 -0.3944  0.4848  0.0664
  885MPD2     H13031   4.155   4.413  17.659 -0.5593 -0.7615  1.0761
  885MPD2    H113032   3.883   4.727  17.558  0.1177 -0.8935 -0.7930
  885MPD2    H213033   4.021   4.666   0.233 -1.9770 -0.5817  0.0573
  885MPD2    H313034   3.869   0.044   0.073 -1.2393 -0.8213  0.7328
  885MPD2     N13035   4.063   4.550  17.457 -0.6931  0.2959 -0.2383
  885MPD2    H513036   4.127   4.473  17.441  1.0374  1.4773  1.0871
  885MPD2    N113037   4.148   4.448   0.192  0.6827  0.4727  0.3636
  885MPD2    H713038   4.147   4.494   0.282 -1.4206  0.4550  0.3500
  886MPD2     C13039   0.492   2.974  15.499  0.4373 -0.2104 -0.2812
  886MPD2    C113040   0.627   2.952  15.477 -0.5170 -0.0267 -0.7994
  886MPD2    C213041   0.704   3.059  15.440  0.1103  0.5000 -0.0898
  886MPD2    C313042   0.647   3.186  15.426 -0.3895 -0.6291  0.0247
  886MPD2    C413043   0.512   3.204  15.436 -0.8063  0.6710 -0.6828
  886MPD2    C513044   0.434   3.101  15.478 -0.4367 -0.6814  0.3089
  886MPD2     H13045   0.812   3.051  15.434 -0.0858 -2.2962  0.0686
  886MPD2    H113046   0.473   3.305  15.427 -0.2093  1.0285  0.8058
  886MPD2    H213047   0.426   2.902  15.547 -0.0395  0.8353  0.6344
  886MPD2    H313048   0.328   3.120  15.492 -0.7296 -3.2317  1.7089
  886MPD2     N13049   0.734   3.299  15.411 -0.4267 -0.0890  0.2456
  886MPD2    H513050   0.695   3.392  15.398 -0.3481  0.2648  2.6508
  886MPD2    N113051   0.675   2.818  15.504  0.4488  0.1244 -0.9304
  886MPD2    H713052   0.605   2.747  15.526  0.4200  0.2904 -0.4844
  887MPD2     C13053   1.425   2.605  15.771 -0.0100  0.7513 -0.4305
  887MPD2    C113054   1.311   2.685  15.760 -0.2599  0.2043 -0.0565
  887MPD2    C213055   1.324   2.818  15.798  0.2119 -0.5600 -0.5285
  887MPD2    C313056   1.448   2.871  15.847  0.1080 -0.5237  0.2044
  887MPD2    C413057   1.562   2.789  15.857  0.2681 -0.0856 -0.4632
  887MPD2    C513058   1.542   2.658  15.821 -0.4075 -0.1597 -0.0039
  887MPD2     H13059   1.236   2.882  15.791 -0.0014 -1.0701 -2.7658
  887MPD2    H113060   1.661   2.823  15.885 -0.0790 -0.9787  1.7906
  887MPD2    H213061   1.428   2.502  15.736  0.1874  0.5601  0.1396
  887MPD2    H313062   1.626   2.590  15.821  1.0090  1.6134  2.1108
  887MPD2     N13063   1.450   3.008  15.882 -0.5368  0.4032 -0.2293
  887MPD2    H513064   1.358   3.045  15.902 -0.8680 -0.9398  0.7196
  887MPD2    N113065   1.191   2.643  15.704  0.6264  0.6826  0.0938
  887MPD2    H713066   1.116   2.712  15.706  1.5253  1.6657 -0.6226
  888MPD2     C13067   3.281   2.903  14.660  0.0352 -0.2422  0.0000
  888MPD2    C113068   3.237   2.970  14.771 -0.4284 -0.3549 -0.5412
  888MPD2    C213069   3.292   3.093  14.796  0.3048  0.6863 -1.0528
  888MPD2    C313070   3.400   3.140  14.717  0.2644  0.1938  0.5155
  888MPD2    C413071   3.448   3.062  14.612  0.5536 -0.0766  0.3563
  888MPD2    C513072   3.375   2.951  14.582 -0.0956  0.0339 -0.0252
  888MPD2     H13073   3.247   3.163  14.865 -1.5617 -1.6867  0.1393
  888MPD2    H113074   3.523   3.088  14.537  1.8894 -0.8102  1.4366
  888MPD2    H213075   3.239   2.808  14.632 -1.5859  0.8385 -1.2207
  888MPD2    H313076   3.406   2.892  14.497 -1.5614 -0.6831 -0.0686
  888MPD2     N13077   3.452   3.262  14.762  0.4382  0.6533 -0.4482
  888MPD2    H513078   3.415   3.305  14.847 -0.9842  1.9541 -1.7323
  888MPD2    N113079   3.130   2.932  14.855 -0.4576  0.1032  0.1753
  888MPD2    H713080   3.119   2.983  14.942 -0.6042 -1.0964  0.8596
  889MPD2     C13081   2.229   2.912  13.025 -0.0264  0.3532 -0.2461
  889MPD2    C113082   2.288   2.877  13.146 -0.0062 -0.3292  0.4300
  889MPD2    C213083   2.247   2.932  13.262 -0.7024 -0.1456 -0.3407
  889MPD2    C313084   2.137   3.019  13.262  0.0635 -0.3211  0.2647
  889MPD2    C413085   2.086   3.066  13.142  0.0430  0.4402 -0.2003
  889MPD2    C513086   2.130   3.008  13.025  0.2600 -0.3024  0.2233
  889MPD2     H13087   2.295   2.896  13.352 -1.0137 -1.5357 -0.7305
  889MPD2    H113088   2.002   3.133  13.132 -1.4127 -1.6764 -2.2175
  889MPD2    H213089   2.259   2.863  12.933  3.2296 -1.4608  1.8074
  889MPD2    H313090   2.095   3.031  12.925 -0.7014 -0.5143  0.5091
  889MPD2     N13091   2.099   3.074  13.385  0.0692  0.3787  0.8939
  889MPD2    H513092   2.167   3.071  13.460  0.1778  0.2264  0.7885
  889MPD2    N113093   2.376   2.765  13.154 -0.0473  0.5853  0.0109
  889MPD2    H713094   2.386   2.707  13.237 -0.0327  0.2528 -0.2221
  890MPD2     C13095   2.120   4.197  14.589 -0.5231  0.3816 -0.4120
  890MPD2    C113096   2.222   4.217  14.683  0.0281 -0.0807 -0.2457
  890MPD2    C213097   2.216   4.131  14.792  0.0434  0.3286  0.2917
  890MPD2    C313098   2.115   4.035  14.802  0.4502  0.1628  0.6672
  890MPD2    C413099   2.031   4.011  14.698 -0.6469  0.0154  0.0932
  890MPD2    C513100   2.035   4.095  14.598  0.5775 -0.0737 -0.3062
  890MPD2     H13101   2.288   4.145  14.872  1.3053 -0.7162 -0.6557
  890MPD2    H113102   1.958   3.933  14.684 -0.0624 -0.2648 -1.4444
  890MPD2    H213103   2.119   4.262  14.502 -1.1051 -0.9691 -1.4157
  890MPD2    H313104   1.963   4.088  14.517 -0.1186  0.2654  0.2798
  890MPD2     N13105   2.103   3.964  14.927 -0.0969  0.7858  0.0371
  890MPD2    H513106   2.167   4.002  14.995  0.1216 -0.9597  0.8031
  890MPD2    N113107   2.306   4.325  14.667 -0.2898 -0.0804  0.3492
  890MPD2    H713108   2.291   4.375  14.580  1.0029 -0.4171 -0.0710
  891MPD2     C13109   0.122   2.841  16.815  0.4965 -0.0359  0.2669
  891MPD2    C113110   0.025   2.755  16.854  0.5410  0.4790  0.0543
  891MPD2    C213111   0.062   2.673  16.966 -0.3333 -0.3920 -0.6454
  891MPD2    C313112   0.179   2.687  17.034 -0.2324 -0.6445 -0.0733
  891MPD2    C413113   0.268   2.777  16.985 -0.5050 -0.6047  0.1008
  891MPD2    C513114   0.239   2.850  16.878 -0.5012  0.6836 -0.2212
  891MPD2     H13115   4.718   2.605  17.000 -0.5945 -0.1805 -0.8123
  891MPD2    H113116   0.374   2.772  17.007 -0.7679 -1.9850  1.0050
  891MPD2    H213117   0.103   2.904  16.728 -0.9740  0.0480  0.6576
  891MPD2    H313118   0.315   2.913  16.834 -0.4390  0.4733 -0.4167
  891MPD2     N13119   0.206   2.600  17.147  0.2202  0.9235 -0.1136
  891MPD2    H513120   0.139   2.530  17.177 -1.0236  2.2998  0.3750
  891MPD2    N113121   4.639   2.755  16.785 -0.2422 -0.2627  0.3873
  891MPD2    H713122   4.623   2.828  16.717  0.0858  0.6163  1.2692
  892MPD2     C13123   1.408   3.688  15.210  0.2926  0.6619 -0.6903
  892MPD2    C113124   1.322   3.681  15.102 -0.7965  0.3809  0.4915
  892MPD2    C213125   1.356   3.598  14.996 -0.8856 -0.3797  0.1197
  892MPD2    C313126   1.466   3.520  14.995 -0.2436  0.3129  0.6401
  892MPD2    C413127   1.554   3.540  15.095 -0.2749  0.7466  0.4325
  892MPD2    C513128   1.526   3.618  15.196 -0.1048  0.4619 -0.5010
  892MPD2     H13129   1.292   3.602  14.909  0.0561 -0.4739 -0.5804
  892MPD2    H113130   1.647   3.486  15.089 -0.6426  0.3259 -1.4171
  892MPD2    H213131   1.386   3.749  15.296  0.3885  0.8518 -0.8018
  892MPD2    H313132   1.592   3.628  15.281 -2.0321 -1.3947  1.1901
  892MPD2     N13133   1.505   3.444  14.882 -0.7390  0.8704 -0.0118
  892MPD2    H513134   1.598   3.408  14.868 -0.9021 -0.2251  1.6470
  892MPD2    N113135   1.205   3.755  15.083  0.2131  0.6389 -0.1737
  892MPD2    H713136   1.143   3.731  15.006 -0.5935  0.7136  0.4560
  893MPD2     C13137   2.337   2.414   0.966 -0.0348  0.6106 -0.3374
  893MPD2    C113138   2.437   2.481   1.031 -0.3799  0.6200 -0.1682
  893MPD2    C213139   2.399   2.560   1.143  0.2535 -0.2297 -0.1792
  893MPD2    C313140   2.264   2.576   1.176 -0.0711  0.6558  1.1562
  893MPD2    C413141   2.167   2.507   1.105  0.2198  0.0116  0.0694
  893MPD2    C513142   2.205   2.430   0.997 -0.1913  1.0808 -0.3326
  893MPD2     H13143   2.477   2.615   1.195 -0.0090  1.2018 -1.3081
  893MPD2    H113144   2.065   2.513   1.141  0.0904 -0.1010 -0.2801
  893MPD2    H213145   2.361   2.341   0.890 -1.6035  1.7994 -1.9637
  893MPD2    H313146   2.130   2.359   0.963  0.9619 -0.7102  0.8634
  893MPD2     N13147   2.217   2.652   1.286 -0.0274  0.1239  0.2393
  893MPD2    H513148   2.119   2.681   1.285  0.0387  0.3611  0.9264
  893MPD2    N113149   2.574   2.462   0.990 -0.1146  0.4927 -0.1928
  893MPD2    H713150   2.587   2.413   0.903 -0.0380 -0.0770  0.1418
  894MPD2     C13151   0.445   4.443   1.370  0.2427  0.7426 -0.6605
  894MPD2    C113152   0.561   4.516   1.338  0.0956  0.6380 -0.1535
  894MPD2    C213153   0.566   4.571   1.209  1.4097  0.1327  0.0728
  894MPD2    C313154   0.477   4.546   1.109 -0.7659  0.4154 -0.3625
  894MPD2    C413155   0.374   4.470   1.141 -0.2352 -0.0458 -0.3304
  894MPD2    C513156   0.368   4.414   1.263  0.3510  0.0751  0.2495
  894MPD2     H13157   0.659   4.619   1.180  1.6389 -1.2344 -1.4544
  894MPD2    H113158   0.295   4.449   1.070  0.7040 -1.1715 -1.0480
  894MPD2    H213159   0.427   4.405   1.470 -1.7519 -2.1589 -2.1141
  894MPD2    H313160   0.286   4.348   1.289 -0.2118  0.1109 -1.4022
  894MPD2     N13161   0.490   4.607   0.978 -0.3713  0.5254 -0.2296
  894MPD2    H513162   0.404   4.624   0.928 -1.3917 -0.3596  1.2112
  894MPD2    N113163   0.647   4.562   1.447 -0.1110 -0.3839  0.6160
  894MPD2    H713164   0.711   4.632   1.409  0.1374 -0.5349  0.7529
  895MPD2     C13165   0.306   3.137  14.196  1.0049 -0.6268 -0.4927
  895MPD2    C113166   0.258   3.077  14.073 -0.1012  0.2318 -0.1389
  895MPD2    C213167   0.338   2.986  14.015  0.6604 -0.1210  0.1273
  895MPD2    C313168   0.453   2.938  14.080  0.5110  0.7422 -0.4199
  895MPD2    C413169   0.498   2.998  14.193  0.0866 -0.3946  0.3415
  895MPD2    C513170   0.427   3.102  14.249  0.2896  0.7577  0.5718
  895MPD2     H13171   0.304   2.928  13.929 -0.8853 -0.1523  0.7693
  895MPD2    H113172   0.590   2.962  14.238 -0.5502  0.5439  2.3988
  895MPD2    H213173   0.247   3.212  14.248 -0.4282 -2.9177  1.1858
  895MPD2    H313174   0.462   3.147  14.341  0.5531  1.3077  0.1993
  895MPD2     N13175   0.506   2.825  14.024  0.2808  0.1895 -0.3401
  895MPD2    H513176   0.461   2.800  13.937  2.4035  0.7116 -1.5949
  895MPD2    N113177   0.125   3.104  14.023 -0.5001  0.4651  0.8065
  895MPD2    H713178   0.099   3.041  13.947 -0.1988 -1.0804  1.9840
  896MPD2     C13179   1.958   1.066   1.664 -0.0361 -0.0377  0.3063
  896MPD2    C113180   1.976   0.979   1.561  0.1892 -0.3312 -0.9150
  896MPD2    C213181   1.874   0.905   1.514  0.1262  0.6400 -0.7958
  896MPD2    C313182   1.748   0.898   1.579 -0.5013  0.4722  0.0289
  896MPD2    C413183   1.727   0.981   1.683 -0.1509 -0.4688 -0.0980
  896MPD2    C513184   1.832   1.061   1.726  0.0006  0.6144 -0.0580
  896MPD2     H13185   1.890   0.839   1.429  0.4626 -0.1879 -0.0918
  896MPD2    H113186   1.635   0.980   1.741  1.3082  2.9307  2.2508
  896MPD2    H213187   2.037   1.129   1.702  0.4615 -0.2710 -0.3466
  896MPD2    H313188   1.818   1.116   1.818 -4.6555 -1.4663  0.5048
  896MPD2     N13189   1.650   0.823   1.517  0.1733  0.0766 -0.2207
  896MPD2    H513190   1.681   0.754   1.449  0.6386  0.0262  0.0447
  896MPD2    N113191   2.097   1.004   1.488 -0.6476 -0.3960 -0.5800
  896MPD2    H713192   2.164   1.064   1.534  1.0012 -1.8799 -1.0717
  897MPD2     C13193   3.195   2.321  10.859  0.2775  0.6888  0.2485
  897MPD2    C113194   3.216   2.453  10.865 -0.1943  0.3887 -0.3876
  897MPD2    C213195   3.107   2.538  10.892  0.4782 -0.6105 -0.4635
  897MPD2    C313196   2.983   2.491  10.923  0.4029  0.2281 -0.1999
  897MPD2    C413197   2.960   2.355  10.930 -0.4426  0.2377 -0.0300
  897MPD2    C513198   3.066   2.278  10.892 -0.2870  0.1327 -0.2383
  897MPD2     H13199   3.120   2.642  10.919 -1.7575 -0.0844 -1.4230
  897MPD2    H113200   2.868   2.307  10.962 -0.5143  0.0822 -0.4692
  897MPD2    H213201   3.270   2.246  10.832  2.1981  2.0278  1.8942
  897MPD2    H313202   3.051   2.170  10.892 -0.1986  0.1236  2.0805
  897MPD2     N13203   2.888   2.585  10.965  0.0646 -0.0375  0.4576
  897MPD2    H513204   2.923   2.672  11.004 -0.3981  0.0431  0.6945
  897MPD2    N113205   3.343   2.498  10.822 -0.3521  0.1140 -0.2513
  897MPD2    H713206   3.414   2.426  10.809 -1.5354 -1.1760  0.4615
  898MPD2     C13207   0.465   2.995   0.245 -0.7334 -0.6658  0.3779
  898MPD2    C113208   0.590   3.060   0.252 -0.3062  0.4902 -0.2314
  898MPD2    C213209   0.627   3.150   0.155 -0.1461  0.0390 -1.1006
  898MPD2    C313210   0.544   3.178   0.056  0.1499  0.3003 -0.2142
  898MPD2    C413211   0.425   3.107   0.039  0.1199  0.0974  0.1019
  898MPD2    C513212   0.381   3.020   0.137  0.3065  0.1360 -0.3004
  898MPD2     H13213   0.722   3.201   0.160 -0.6825  0.9371 -0.0669
  898MPD2    H113214   0.372   3.122  17.678  0.0572 -0.3879  0.0603
  898MPD2    H213215   0.428   2.920   0.314 -1.5890 -0.6376 -0.0473
  898MPD2    H313216   0.296   2.954   0.127  1.4579 -1.2088 -1.3367
  898MPD2     N13217   0.594   3.272  17.703 -0.5036  0.0128 -0.1016
  898MPD2    H513218   0.673   3.325   0.006  0.4500 -0.5613 -1.3757
  898MPD2    N113219   0.687   3.032   0.353  0.0350 -0.0368  0.2598
  898MPD2    H713220   0.771   3.087   0.341  0.6194 -0.4953  2.1562
  899MPD2     C13221   2.133   3.706  17.709 -0.1981 -0.0936 -0.3449
  899MPD2    C113222   2.098   3.821   0.043 -0.1092 -0.3473  0.4604
  899MPD2    C213223   2.041   3.814   0.165  0.3976  0.2572  0.0641
  899MPD2    C313224   1.991   3.689   0.208  0.4852  0.0690  0.1359
  899MPD2    C413225   2.005   3.577   0.127  0.3303 -0.2352 -0.4046
  899MPD2    C513226   2.088   3.581   0.019 -0.7821 -0.2452 -0.3837
  899MPD2     H13227   2.004   3.900   0.219  0.7004  0.8869 -0.7477
  899MPD2    H113228   1.970   3.478   0.156  0.8318  0.1651  1.5565
  899MPD2    H213229   2.187   3.729  17.618  2.0979  0.8324  1.2380
  899MPD2    H313230   2.105   3.489  17.696  0.2111 -0.4604  0.2712
  899MPD2     N13231   1.908   3.679   0.327 -0.1192 -0.1882 -0.0474
  899MPD2    H513232   1.855   3.593   0.333 -2.0165  0.8889 -1.3445
  899MPD2    N113233   2.119   3.943  17.703  0.2361  0.3157  0.3376
  899MPD2    H713234   2.171   3.950  17.616 -0.1747 -2.2905 -0.1068
  900MPD2     C13235   1.448   0.878  12.262  0.3314  0.5421  0.4514
  900MPD2    C113236   1.356   0.801  12.332  0.4390 -0.2207  0.6094
  900MPD2    C213237   1.217   0.826  12.305  0.0603 -0.3702  0.0704
  900MPD2    C313238   1.179   0.925  12.213  0.0738 -0.4010  0.1780
  900MPD2    C413239   1.275   1.001  12.143 -0.3022  0.1025  0.0899
  900MPD2    C513240   1.409   0.971  12.166 -0.0363  0.6528 -0.6803
  900MPD2     H13241   1.145   0.767  12.360 -0.0833 -0.5677 -0.3284
  900MPD2    H113242   1.254   1.076  12.067 -1.6348  0.5076  0.8563
  900MPD2    H213243   1.553   0.855  12.276  0.3004 -0.5914 -1.2311
  900MPD2    H313244   1.482   1.027  12.108 -0.6910  0.7913 -1.3803
  900MPD2     N13245   1.041   0.939  12.186 -0.4405 -0.1213  0.4568
  900MPD2    H513246   0.979   0.898  12.255 -2.0664  0.3583 -0.7294
  900MPD2    N113247   1.405   0.716  12.437  0.1765  0.5104 -0.0910
  900MPD2    H713248   1.504   0.700  12.448  0.2144 -0.2925 -1.4992
  901MPD2     C13249   1.123   4.552  12.858  0.8048 -0.2736  0.2335
  901MPD2    C113250   1.256   4.559  12.806 -0.3473 -0.0886  0.4153
  901MPD2    C213251   1.324   4.684  12.795  0.4348 -0.2854  0.1421
  901MPD2    C313252   1.252   0.066  12.824  0.2559 -0.7238 -0.2621
  901MPD2    C413253   1.117   0.047  12.858  0.0883 -0.6970  0.4888
  901MPD2    C513254   1.052   4.661  12.887  0.2463 -0.1123  0.2572
  901MPD2     H13255   1.427   4.681  12.762  0.6869  2.2946  0.6701
  901MPD2    H113256   1.060   0.139  12.854  0.4969 -0.4826 -0.5039
  901MPD2    H213257   1.084   4.452  12.872 -0.2452  0.5245  2.9576
  901MPD2    H313258   0.945   4.657  12.907  0.3555 -0.3726  0.7930
  901MPD2     N13259   1.311   0.192  12.802  0.5152 -0.0315 -0.3662
  901MPD2    H513260   1.409   0.191  12.775  0.7643 -0.9301  0.5549
  901MPD2    N113261   1.318   4.427  12.786  0.2351 -0.2552 -0.2484
  901MPD2    H713262   1.259   4.350  12.817  0.9366 -1.2454 -1.3454
  902MPD2     C13263   0.390   3.870  12.788 -0.5070 -0.1769  0.6736
  902MPD2    C113264   0.361   3.913  12.661  0.6677 -0.0016 -0.9727
  902MPD2    C213265   0.364   3.822  12.556 -0.1584  0.3482  0.2945
  902MPD2    C313266   0.385   3.686  12.589 -0.3103 -0.0662  0.1130
  902MPD2    C413267   0.440   3.655  12.713 -0.4266 -0.3465 -0.0713
  902MPD2    C513268   0.438   3.747  12.813 -0.4326 -1.1718  0.2578
  902MPD2     H13269   0.348   3.840  12.450  0.6975  0.1636  0.1390
  902MPD2    H113270   0.474   3.554  12.731  0.2501 -0.2741 -0.9211
  902MPD2    H213271   0.386   3.943  12.868  2.1884 -0.5579  1.1582
  902MPD2    H313272   0.465   3.721  12.915  1.4487 -1.7958 -0.4078
  902MPD2     N13273   0.392   3.603  12.480  0.0554  0.5455 -0.1379
  902MPD2    H513274   0.350   3.634  12.393 -0.9802  0.6781  0.3996
  902MPD2    N113275   0.327   4.050  12.658 -0.5884 -0.1466 -0.0022
  902MPD2    H713276   0.331   4.099  12.748  1.6084 -0.5370  0.1189
  903MPD2     C13277   0.210   3.699  11.763 -0.2462  0.1933  0.0830
  903MPD2    C113278   0.217   3.723  11.897 -0.0655 -0.4642 -0.0165
  903MPD2    C213279   0.107   3.764  11.973  0.4892 -0.3274  0.9936
  903MPD2    C313280   4.717   3.767  11.912  0.3026 -0.3625  0.0195
  903MPD2    C413281   4.708   3.752  11.775 -0.5704 -1.2475  0.7489
  903MPD2    C513282   0.091   3.728  11.702 -0.8187  0.6199  0.1569
  903MPD2     H13283   0.116   3.791  12.077 -1.8131  2.9341  0.3394
  903MPD2    H113284   4.612   3.760  11.726  0.3260 -1.5345 -1.0290
  903MPD2    H213285   0.300   3.681  11.706 -0.4097 -2.0576  0.5341
  903MPD2    H313286   0.096   3.718  11.595 -3.1090  2.3237 -0.1101
  903MPD2     N13287   4.606   3.779  12.002 -0.4634  0.0944 -0.0786
  903MPD2    H513288   4.636   3.779  12.099 -2.0928 -1.7087  0.4096
  903MPD2    N113289   0.338   3.685  11.960 -0.6630 -0.2263  0.2840
  903MPD2    H713290   0.410   3.642  11.903  1.5463  3.0011  0.6411
  904MPD2     C13291   0.160   2.613  14.276  0.0975 -0.3814 -0.5950
  904MPD2    C113292   0.167   2.520  14.377 -0.5242  0.1480 -0.8503
  904MPD2    C213293   0.280   2.507  14.458  0.7658 -0.4192  0.7141
  904MPD2    C313294   0.380   2.600  14.441  0.0927  0.0013  0.4651
  904MPD2    C413295   0.352   2.712  14.362 -0.0829  0.7274  0.1603
  904MPD2    C513296   0.245   2.719  14.279  0.1147 -0.4850 -0.0685
  904MPD2     H13297   0.293   2.413  14.511  0.2394  0.3510  2.2221
  904MPD2    H113298   0.420   2.796  14.366 -1.2376  1.5763  1.8415
  904MPD2    H213299   0.083   2.614  14.200 -0.1681 -2.5812 -0.3440
  904MPD2    H313300   0.239   2.799  14.205 -0.0885 -0.8708 -0.4628
  904MPD2     N13301   0.496   2.579  14.523 -0.1972  0.3263  0.2307
  904MPD2    H513302   0.514   2.486  14.558 -1.0763  0.2077  0.3877
  904MPD2    N113303   0.068   2.418  14.403  0.1657  0.2819 -0.1705
  904MPD2    H713304   0.096   2.345  14.468  1.1435 -0.4419 -1.4088
  905MPD2     C13305   4.627   2.437  13.660  0.0158 -0.0331  0.4292
  905MPD2    C113306   4.674   2.517  13.763 -0.5227 -0.1808 -0.6400
  905MPD2    C213307   0.078   2.552  13.769 -0.4012 -0.0939 -0.0999
  905MPD2    C313308   0.168   2.509  13.674 -0.1658  0.9552 -0.7250
  905MPD2    C413309   0.119   2.430  13.570 -0.7988  0.0345 -0.1959
  905MPD2    C513310   4.717   2.392  13.566 -0.0881  0.1143 -0.1016
  905MPD2     H13311   0.114   2.610  13.853 -1.7580  0.2423  0.2561
  905MPD2    H113312   0.182   2.382  13.496  0.5822  1.0842  0.2963
  905MPD2    H213313   4.526   2.397  13.661  0.9758 -2.5126 -0.8343
  905MPD2    H313314   4.685   2.313  13.499 -1.7886  1.9206 -1.3959
  905MPD2     N13315   0.305   2.526  13.691 -0.0733  0.2471 -0.0799
  905MPD2    H513316   0.367   2.469  13.633  0.5517 -1.0492  1.8806
  905MPD2    N113317   4.584   2.556  13.867  0.4377  0.0568 -0.0818
  905MPD2    H713318   4.490   2.523  13.850  0.6234  0.6972 -2.4535
  906MPD2     C13319   1.345   2.380  11.498 -0.3522  0.1138 -0.4259
  906MPD2    C113320   1.389   2.317  11.380 -0.4737  0.0520 -0.3118
  906MPD2    C213321   1.368   2.174  11.377 -0.0665  0.3858 -0.5234
  906MPD2    C313322   1.307   2.110  11.482 -0.2628 -0.3892  0.4466
  906MPD2    C413323   1.261   2.173  11.599 -0.6150  0.1702 -0.3198
  906MPD2    C513324   1.287   2.309  11.605 -0.3186  0.0850 -0.1452
  906MPD2     H13325   1.405   2.122  11.290  1.1559 -2.6045  1.7699
  906MPD2    H113326   1.214   2.132  11.688 -0.9077  0.6012 -0.2769
  906MPD2    H213327   1.337   2.487  11.512  0.8738  0.0401  0.8243
  906MPD2    H313328   1.260   2.373  11.688 -0.9272  1.0752 -1.1127
  906MPD2     N13329   1.284   1.972  11.480 -0.8138 -0.0358 -0.4655
  906MPD2    H513330   1.224   1.943  11.556  0.6990  1.9149  1.4824
  906MPD2    N113331   1.443   2.382  11.267 -0.0038 -0.0168  0.1011
  906MPD2    H713332   1.468   2.319  11.191 -0.5475 -0.6958  0.4802
  907MPD2     C13333   1.027   1.548  15.680  1.0343  0.0741 -0.2313
  907MPD2    C113334   1.101   1.434  15.653 -0.4676  0.4959 -0.1749
  907MPD2    C213335   1.144   1.360  15.762 -0.3404 -0.6516  0.3747
  907MPD2    C313336   1.120   1.403  15.893 -0.6350  0.0571 -0.0515
  907MPD2    C413337   1.042   1.513  15.911  0.3006 -0.8110 -0.5308
  907MPD2    C513338   0.994   1.584  15.804  0.1592 -0.2332  0.0574
  907MPD2     H13339   1.181   1.258  15.759  0.3907 -0.3878  0.5206
  907MPD2    H113340   1.030   1.556  16.010 -0.2613  0.5732 -1.1970
  907MPD2    H213341   0.989   1.606  15.596  0.5540 -0.1180 -0.1478
  907MPD2    H313342   0.954   1.682  15.826  0.3508  0.0770 -0.9679
  907MPD2     N13343   1.167   1.342  16.015 -0.0687 -0.0463  0.2490
  907MPD2    H513344   1.141   1.383  16.104 -0.5088 -0.1167  0.1515
  907MPD2    N113345   1.106   1.371  15.529 -0.1301  0.5073  0.2887
  907MPD2    H713346   1.148   1.279  15.533 -2.6151 -0.7043 -1.0883
  908MPD2     C13347   3.776   2.169  10.179  0.3753 -0.0620 -0.3508
  908MPD2    C113348   3.717   2.128  10.294 -0.5652  0.2479 -0.0818
  908MPD2    C213349   3.661   2.216  10.381  0.4239  0.3341 -0.1038
  908MPD2    C313350   3.674   2.350  10.353  0.1765 -0.0905  0.1444
  908MPD2    C413351   3.735   2.394  10.235 -0.1002  0.3557  0.2463
  908MPD2    C513352   3.783   2.302  10.149 -0.2781 -0.8716  0.0879
  908MPD2     H13353   3.602   2.186  10.467  3.7147 -0.4189  1.8697
  908MPD2    H113354   3.764   2.495  10.207 -2.0744  1.0605  0.7484
  908MPD2    H213355   3.820   2.101  10.107 -0.1912 -0.8932  0.0826
  908MPD2    H313356   3.820   2.343  10.056  0.2777 -0.4457  0.4972
  908MPD2     N13357   3.625   2.448  10.448 -0.0996  0.5633  0.4274
  908MPD2    H513358   3.563   2.421  10.524  0.1364 -1.8726 -0.2653
  908MPD2    N113359   3.702   1.990  10.303  0.3552  0.3572 -0.3408
  908MPD2    H713360   3.731   1.938  10.221  0.7416  1.5329 -0.9320
  909MPD2     C13361   3.803   0.323  12.001 -0.1239 -0.2484 -0.7025
  909MPD2    C113362   3.757   0.420  11.919 -0.6562  0.0860 -0.5635
  909MPD2    C213363   3.675   0.514  11.964 -0.2766  0.2356  0.5756
  909MPD2    C313364   3.628   0.513  12.095 -0.7325  0.0539 -0.6780
  909MPD2    C413365   3.681   0.418  12.181 -0.6048 -0.2392  0.1479
  909MPD2    C513366   3.756   0.316  12.132 -0.3066  0.0258  0.8921
  909MPD2     H13367   3.620   0.586  11.903  0.1689  0.8062  0.8512
  909MPD2    H113368   3.660   0.429  12.287  0.3839  1.4656  0.1618
  909MPD2    H213369   3.886   0.256  11.982  2.1815  1.6541  2.5745
  909MPD2    H313370   3.787   0.238  12.200  0.5265 -0.6718 -0.2679
  909MPD2     N13371   3.528   0.616  12.144 -0.5060 -0.1126  0.3772
  909MPD2    H513372   3.495   0.685  12.077  1.3668  1.2252  0.8165
  909MPD2    N113373   3.800   0.418  11.783  0.1449 -0.1706 -0.1407
  909MPD2    H713374   3.796   0.505  11.730  0.0666  0.2742  0.5936
  910MPD2     C13375   0.832   1.806  16.105  0.9441  0.5768  0.3796
  910MPD2    C113376   0.722   1.733  16.050  0.2283 -0.4461 -0.4676
  910MPD2    C213377   0.662   1.788  15.938  0.1383  0.0903 -0.2699
  910MPD2    C313378   0.683   1.915  15.900  0.1075  0.1270 -0.7656
  910MPD2    C413379   0.788   1.981  15.952  0.3981 -0.1730  0.4768
  910MPD2    C513380   0.862   1.930  16.051  0.3760 -0.4674 -0.1849
  910MPD2     H13381   0.578   1.728  15.903  0.8125 -3.1144  3.5992
  910MPD2    H113382   0.816   2.081  15.922  0.2015 -0.1772  0.2815
  910MPD2    H213383   0.900   1.763  16.178 -0.0294 -0.4667  0.6666
  910MPD2    H313384   0.949   1.979  16.092  0.6841 -1.9619  0.9439
  910MPD2     N13385   0.616   1.972  15.788  0.5134  0.9453 -0.0314
  910MPD2    H513386   0.651   2.057  15.745  2.4760  1.0166  1.7246
  910MPD2    N113387   0.702   1.600  16.085 -0.4862 -0.5841  0.3808
  910MPD2    H713388   0.643   1.538  16.031  2.4345 -2.0076 -1.2015
  911MPD2     C13389   3.149   2.694  16.118 -0.4805 -0.2620 -0.0547
  911MPD2    C113390   3.182   2.683  16.256 -0.1301  0.2232  0.0112
  911MPD2    C213391   3.154   2.799  16.332 -0.2602 -0.3266 -0.7362
  911MPD2    C313392   3.064   2.894  16.277  0.2978 -0.4897  0.2554
  911MPD2    C413393   3.027   2.892  16.142  0.0769  0.6513 -1.1175
  911MPD2    C513394   3.075   2.797  16.059  0.0095  0.2519  0.2814
  911MPD2     H13395   3.171   2.814  16.438  2.1705 -0.1533 -1.1389
  911MPD2    H113396   2.953   2.961  16.103  0.8338  1.1960 -1.5757
  911MPD2    H213397   3.156   2.608  16.053  1.6549  1.5913 -2.3075
  911MPD2    H313398   3.044   2.776  15.957  0.3893  0.4357  0.1233
  911MPD2     N13399   3.012   3.001  16.348 -0.3041 -0.4801 -0.3145
  911MPD2    H513400   2.928   3.046  16.314 -0.6279  0.3918  1.6787
  911MPD2    N113401   3.246   2.568  16.304  0.5938  0.2378 -0.4857
  911MPD2    H713402   3.262   2.493  16.239 -0.4685 -0.4491  0.0519
  912MPD2     C13403   2.815   3.247  15.877 -0.4730  0.6397  0.0499
  912MPD2    C113404   2.755   3.200  15.993  0.6945  0.4061 -0.0124
  912MPD2    C213405   2.712   3.071  15.991 -1.2851  0.0244 -0.0443
  912MPD2    C313406   2.734   2.983  15.883  0.7133 -0.1546 -0.1956
  912MPD2    C413407   2.800   3.032  15.776  0.7963 -0.6565  0.1118
  912MPD2    C513408   2.843   3.160  15.775  0.6310  0.1237  0.0821
  912MPD2     H13409   2.645   3.041  16.071 -0.1713 -1.5887  0.2812
  912MPD2    H113410   2.821   2.967  15.691 -1.1232  0.7785 -1.4472
  912MPD2    H213411   2.853   3.348  15.865  1.9479 -0.1503  1.0925
  912MPD2    H313412   2.873   3.194  15.676  1.4943 -2.3111 -0.4776
  912MPD2     N13413   2.703   2.852  15.915  0.2113 -0.1574  0.2056
  912MPD2    H513414   2.678   2.831  16.011 -1.3902 -0.2784 -0.2266
  912MPD2    N113415   2.755   3.274  16.114  0.9859  0.1567  0.7369
  912MPD2    H713416   2.788   3.369  16.112 -1.8570  1.1188 -0.9702
  913MPD2     C13417   2.960   4.104  10.841  0.5459 -0.4656  0.0860
  913MPD2    C113418   3.032   4.187  10.925  0.5498  0.9169  0.1971
  913MPD2    C213419   3.148   4.256  10.874 -0.0113 -0.0828  0.0320
  913MPD2    C313420   3.188   4.218  10.744 -0.5928  0.2536  0.1030
  913MPD2    C413421   3.114   4.127  10.671  0.2011  0.1767  0.2497
  913MPD2    C513422   2.996   4.074  10.712 -0.8495  0.7409  0.5405
  913MPD2     H13423   3.188   4.340  10.930  2.1591 -1.9037  1.1950
  913MPD2    H113424   3.143   4.097  10.570  0.8174 -0.5951  0.6554
  913MPD2    H213425   2.876   4.048  10.882  1.0328 -2.2062 -1.2638
  913MPD2    H313426   2.932   4.015  10.648 -0.1589  0.5131  0.0541
  913MPD2     N13427   3.284   4.292  10.672  0.5605  0.5595  0.0157
  913MPD2    H513428   3.273   4.279  10.572 -0.0835 -0.2915  0.1939
  913MPD2    N113429   2.997   4.193  11.057 -0.3038  0.4397  0.4447
  913MPD2    H713430   2.906   4.149  11.071  0.1998 -1.2370 -1.5739
  914MPD2     C13431   1.751   3.979  11.977  0.1556  0.0178  0.4738
  914MPD2    C113432   1.661   4.087  11.984 -0.2848  0.3228 -0.0087
  914MPD2    C213433   1.609   4.118  12.111  0.0475  0.4061 -0.0628
  914MPD2    C313434   1.623   4.042  12.224  0.0393 -0.6168 -0.0353
  914MPD2    C413435   1.700   3.931  12.211  0.9604 -0.0386  0.3062
  914MPD2    C513436   1.771   3.904  12.096 -0.2951 -0.0134  0.4550
  914MPD2     H13437   1.580   4.221  12.131  1.1482  0.8712 -0.8047
  914MPD2    H113438   1.704   3.865  12.297 -0.5146 -0.3102  0.1572
  914MPD2    H213439   1.805   3.949  11.888 -1.2196 -1.2884  0.0715
  914MPD2    H313440   1.839   3.821  12.092  0.6653  0.7785  0.3699
  914MPD2     N13441   1.572   4.076  12.349  0.0950  0.1707 -0.3904
  914MPD2    H513442   1.508   4.154  12.345  0.5104  0.4012 -2.6596
  914MPD2    N113443   1.631   4.162  11.867  0.9813  0.6750  0.1924
  914MPD2    H713444   1.693   4.134  11.791  0.5090  2.6611 -0.9262
  915MPD2     C13445   4.381   4.087  15.726 -0.0150 -0.2359  0.3143
  915MPD2    C113446   4.258   4.127  15.675  0.2298  0.1587 -0.0571
  915MPD2    C213447   4.175   4.192  15.764 -0.4848 -0.1702 -0.1027
  915MPD2    C313448   4.212   4.221  15.895 -0.5063  0.3594  0.5775
  915MPD2    C413449   4.345   4.189  15.936  0.3140 -0.1419  0.6495
  915MPD2    C513450   4.426   4.124  15.846 -0.4085 -0.4899  0.8972
  915MPD2     H13451   4.076   4.221  15.730  0.0432  0.2419 -1.2902
  915MPD2    H113452   4.380   4.217  16.034  0.6803  1.5840  0.0329
  915MPD2    H213453   4.451   4.032  15.663  0.3675 -0.0137  0.5458
  915MPD2    H313454   4.532   4.124  15.866 -0.3174  1.2761  0.4429
  915MPD2     N13455   4.118   4.269  15.982 -0.3414  0.3202  0.3012
  915MPD2    H513456   4.029   4.290  15.940 -0.9016 -1.1857  0.7134
  915MPD2    N113457   4.225   4.093  15.538  0.1189 -0.5063 -0.4979
  915MPD2    H713458   4.288   4.038  15.482  1.5894 -1.7875  2.4203
  916MPD2     C13459   2.325   2.925  15.991  0.9307 -0.7322  0.1523
  916MPD2    C113460   2.334   2.801  16.061 -0.3181  0.2450  0.6653
  916MPD2    C213461   2.356   2.683  15.996 -0.4331  0.8046  0.1925
  916MPD2    C313462   2.363   2.683  15.860 -0.3076 -0.7095 -0.2172
  916MPD2    C413463   2.361   2.802  15.789  0.6079 -0.5899  0.2234
  916MPD2    C513464   2.342   2.922  15.856 -0.1041 -0.0944  0.4351
  916MPD2     H13465   2.340   2.587  16.044  0.5697  0.5945  0.1175
  916MPD2    H113466   2.366   2.819  15.682 -0.5074  0.2157  0.2938
  916MPD2    H213467   2.315   3.018  16.045  0.3242 -0.2149 -0.8548
  916MPD2    H313468   2.342   3.016  15.802 -0.3175  0.2430  1.0224
  916MPD2     N13469   2.372   2.558  15.795  0.2191  0.2191 -0.1669
  916MPD2    H513470   2.360   2.480  15.859 -1.6128  0.7248  0.1054
  916MPD2    N113471   2.324   2.806  16.203  0.6118 -0.0189  0.3747
  916MPD2    H713472   2.281   2.891  16.238  2.1945  0.4294  1.2340
  917MPD2     C13473   2.480   4.458  11.405  0.6487  0.4778  0.4562
  917MPD2    C113474   2.461   4.550  11.503 -0.0139 -0.4492 -0.2762
  917MPD2    C213475   2.520   4.672  11.489 -0.8930 -0.4631  0.1534
  917MPD2    C313476   2.594   4.704  11.370 -0.2329  0.3725  0.2414
  917MPD2    C413477   2.589   4.616  11.264 -0.2296 -0.4230  0.0191
  917MPD2    C513478   2.532   4.493  11.284 -0.4051  0.7592 -0.6059
  917MPD2     H13479   2.531   4.732  11.578  1.4232 -0.2211 -0.3012
  917MPD2    H113480   2.620   4.644  11.164 -0.9438 -2.0693 -0.6599
  917MPD2    H213481   2.436   4.359  11.403  1.5455  0.1409 -1.9839
  917MPD2    H313482   2.534   4.431  11.195 -0.0701 -1.6177  1.0751
  917MPD2     N13483   2.668   0.091  11.343  0.3508 -0.0355 -0.0307
  917MPD2    H513484   2.712   0.101  11.252  1.6360  1.1952  0.7395
  917MPD2    N113485   2.383   4.515  11.618  0.3542  0.4269  0.1412
  917MPD2    H713486   2.358   4.417  11.623 -0.1939  0.6461  1.6546
  918MPD2     C13487   2.121   0.279  12.401  0.7494  0.1716 -0.0346
  918MPD2    C113488   2.227   0.263  12.316  0.8200  0.3678  0.3305
  918MPD2    C213489   2.223   0.170  12.208 -0.0359  0.1012  0.0656
  918MPD2    C313490   2.106   0.099  12.183  0.3390  0.0841 -0.0492
  918MPD2    C413491   1.999   0.124  12.268  0.2301 -0.7700  0.5297
  918MPD2    C513492   2.008   0.207  12.377 -0.0333  0.1107 -0.2203
  918MPD2     H13493   2.312   0.148  12.149 -0.9331  1.1809 -1.6840
  918MPD2    H113494   1.893   0.111  12.245  0.4227 -1.1317 -0.1616
  918MPD2    H213495   2.128   0.350  12.483  0.2480 -0.7714  0.8354
  918MPD2    H313496   1.919   0.227  12.434  1.3977  0.2446  1.9431
  918MPD2     N13497   2.102   0.022  12.064  0.8581  0.5399 -0.2738
  918MPD2    H513498   2.180   0.017  11.999  3.0587 -0.4327  2.4832
  918MPD2    N113499   2.347   0.336  12.345  0.2672  0.0897 -0.2269
  918MPD2    H713500   2.355   0.376  12.438  1.4015  0.1685 -0.3607
  919MPD2     C13501   3.512   4.190  11.666  0.6901 -0.3930  0.1635
  919MPD2    C113502   3.463   4.066  11.704  0.7017  0.6069  0.6857
  919MPD2    C213503   3.377   3.997  11.629  0.8896  0.8183  0.2077
  919MPD2    C313504   3.361   4.040  11.502  0.2860  0.0726  0.0678
  919MPD2    C413505   3.414   4.158  11.457  0.2931 -0.4155  0.0123
  919MPD2    C513506   3.498   4.232  11.538  0.1948 -0.0244 -0.2362
  919MPD2     H13507   3.344   3.901  11.666 -1.2635  0.8696 -1.5545
  919MPD2    H113508   3.396   4.192  11.356 -0.4924 -3.8178 -0.9937
  919MPD2    H213509   3.568   4.257  11.731  0.1603  1.5643 -1.4058
  919MPD2    H313510   3.530   4.331  11.508 -0.8484  0.3881  0.0345
  919MPD2     N13511   3.292   3.965  11.398 -0.1061  0.4092 -0.0718
  919MPD2    H513512   3.291   4.013  11.309 -1.7232 -0.0941 -0.3302
  919MPD2    N113513   3.483   4.014  11.834  0.4748 -0.0723  0.0134
  919MPD2    H713514   3.437   3.925  11.854 -0.0505  0.5328  1.4404
  920MPD2     C13515   2.385   3.783  10.960 -0.1774 -0.1972 -1.6108
  920MPD2    C113516   2.464   3.729  10.862  0.2480  0.2450  0.0874
  920MPD2    C213517   2.600   3.735  10.876 -0.5209 -0.3206 -0.4046
  920MPD2    C313518   2.658   3.783  10.990 -0.0832  0.5412 -0.1591
  920MPD2    C413519   2.577   3.847  11.085  0.6331 -0.4475  0.1901
  920MPD2    C513520   2.444   3.849  11.061  0.5212 -0.0298 -0.3251
  920MPD2     H13521   2.663   3.702  10.795  0.9469  0.6247  0.3639
  920MPD2    H113522   2.611   3.874  11.185  0.6310  3.8343 -0.9773
  920MPD2    H213523   2.276   3.786  10.957 -0.1844  0.5829 -0.4323
  920MPD2    H313524   2.387   3.888  11.144 -0.1874  0.8144 -1.2221
  920MPD2     N13525   2.799   3.774  11.011  0.3720  0.4277  0.7260
  920MPD2    H513526   2.844   3.710  10.946 -2.7764 -2.2298  1.1941
  920MPD2    N113527   2.414   3.681  10.740  0.1314  0.3296  0.1334
  920MPD2    H713528   2.474   3.687  10.658 -0.5788  2.0773 -0.2771
  921MPD2     C13529   3.865   2.559  17.013 -0.3370  0.0604  0.1569
  921MPD2    C113530   3.893   2.555  16.878  0.5502 -0.3818  0.4009
  921MPD2    C213531   3.797   2.490  16.796  0.7130 -0.1091  0.3658
  921MPD2    C313532   3.684   2.439  16.850  0.0546 -0.0687 -0.4725
  921MPD2    C413533   3.664   2.444  16.989  0.2768  0.1361 -0.2030
  921MPD2    C513534   3.751   2.504  17.067 -0.1111  0.5041 -0.8466
  921MPD2     H13535   3.810   2.484  16.688 -1.8564 -0.2810  0.0688
  921MPD2    H113536   3.581   2.387  17.030  0.5023  0.2287  0.3841
  921MPD2    H213537   3.931   2.607  17.085  0.4267 -1.2848  0.3470
  921MPD2    H313538   3.735   2.508  17.174  2.5063 -0.2730 -0.4099
  921MPD2     N13539   3.586   2.376  16.770 -0.4430 -0.0437  0.3174
  921MPD2    H513540   3.493   2.360  16.806  0.4079  0.0158  2.5031
  921MPD2    N113541   4.018   2.605  16.831 -0.2013 -0.2765 -0.7840
  921MPD2    H713542   4.077   2.654  16.898 -1.4552 -0.0219  0.1361
  922MPD2     C13543   0.137   0.429  16.837 -0.5952 -0.2189 -0.5189
  922MPD2    C113544   0.092   0.531  16.917  0.4555  0.0372  0.2241
  922MPD2    C213545   0.003   0.505  17.020 -0.7289 -1.2474 -0.2528
  922MPD2    C313546   4.683   0.380  17.033  0.2086 -0.0483  0.6549
  922MPD2    C413547   4.731   0.278  16.951  0.1250 -0.0375 -0.3801
  922MPD2    C513548   0.092   0.301  16.854  0.0704  0.0497 -0.2575
  922MPD2     H13549   4.708   0.588  17.084  1.2586  0.4942 -1.6064
  922MPD2    H113550   4.691   0.178  16.951 -0.0717  0.0409 -0.3723
  922MPD2    H213551   0.212   0.458  16.765 -0.2272 -3.1306 -1.2772
  922MPD2    H313552   0.128   0.217  16.796  0.8019  0.4855 -0.4437
  922MPD2     N13553   4.583   0.352  17.135  0.2661  0.1073  0.3087
  922MPD2    H513554   4.561   0.421  17.207 -0.6138  1.1150 -0.9227
  922MPD2    N113555   0.146   0.664  16.907  0.4608 -0.0622  0.3447
  922MPD2    H713556   0.113   0.729  16.978 -0.7388 -1.0814  0.7065
  923MPD2     C13557   1.129   2.449   9.206  0.8012 -0.0566 -0.1781
  923MPD2    C113558   1.153   2.566   9.268  0.1254  0.3626 -0.1871
  923MPD2    C213559   1.228   2.577   9.384  0.2105 -0.8430 -0.2107
  923MPD2    C313560   1.287   2.465   9.433  0.2395 -0.2015 -0.7247
  923MPD2    C413561   1.279   2.348   9.356 -0.0516 -0.0041 -0.0528
  923MPD2    C513562   1.184   2.334   9.255 -0.1014 -0.3465 -0.1328
  923MPD2     H13563   1.221   2.670   9.439  0.9534 -1.2608  0.6069
  923MPD2    H113564   1.324   2.256   9.389 -1.1258 -0.3314  0.4926
  923MPD2    H213565   1.071   2.441   9.114 -0.1295  1.0664  0.3048
  923MPD2    H313566   1.163   2.240   9.205  1.0426 -1.7141  1.9499
  923MPD2     N13567   1.390   2.468   9.534 -0.0107  0.1051  0.2002
  923MPD2    H513568   1.452   2.390   9.553 -0.1981 -0.6309 -2.2516
  923MPD2    N113569   1.081   2.677   9.214 -0.3741 -0.2836 -0.5413
  923MPD2    H713570   1.015   2.657   9.139  0.4528 -2.0201 -0.8124
  924MPD2     C13571   1.706   0.628  16.022 -0.0699  0.3004 -0.0466
  924MPD2    C113572   1.624   0.633  16.135 -0.3164 -0.1336  0.2998
  924MPD2    C213573   1.613   0.752  16.203 -0.7681 -0.1210  0.5288
  924MPD2    C313574   1.681   0.867  16.166  0.7106  0.3998  0.4309
  924MPD2    C413575   1.762   0.858  16.053  0.0821  0.3475  0.6952
  924MPD2    C513576   1.773   0.740  15.981 -0.3184 -0.2741  0.0550
  924MPD2     H13577   1.543   0.755  16.285 -1.8417 -1.0626 -0.3630
  924MPD2    H113578   1.808   0.953  16.028 -1.3624  1.1698  1.1915
  924MPD2    H213579   1.730   0.533  15.977 -1.3861 -1.7226  3.4898
  924MPD2    H313580   1.845   0.733  15.899  0.0685  0.3548  0.3404
  924MPD2     N13581   1.641   0.996  16.203  0.4553  0.1420 -0.7632
  924MPD2    H513582   1.665   1.073  16.142 -0.6235  0.6576 -0.5310
  924MPD2    N113583   1.545   0.525  16.175  0.5618 -0.3489 -0.0084
  924MPD2    H713584   1.543   0.444  16.114  1.5053  0.5347 -1.2310
  925MPD2     C13585   0.441   3.611  14.992  0.7774 -0.0477  0.1542
  925MPD2    C113586   0.323   3.567  14.955  0.7386  0.0500 -0.1132
  925MPD2    C213587   0.233   3.529  15.051  0.4554 -0.6024  0.5934
  925MPD2    C313588   0.257   3.538  15.185 -0.1683 -0.1686 -0.5064
  925MPD2    C413589   0.385   3.585  15.221  1.0726 -0.0021 -0.2208
  925MPD2    C513590   0.474   3.618  15.124 -0.6934 -0.0940 -0.1589
  925MPD2     H13591   0.140   3.480  15.023 -0.5832  1.7402 -0.0088
  925MPD2    H113592   0.409   3.603  15.326 -0.3560 -0.6215  0.2088
  925MPD2    H213593   0.519   3.629  14.918  0.8286 -0.7673  0.0412
  925MPD2    H313594   0.576   3.651  15.136  0.0422 -2.1339 -0.8558
  925MPD2     N13595   0.164   3.491  15.281 -0.2727 -0.0424  0.0517
  925MPD2    H513596   0.073   3.459  15.248 -0.2550 -1.6723  1.5728
  925MPD2    N113597   0.283   3.541  14.826  0.0338  0.0246  0.5079
  925MPD2    H713598   0.201   3.481  14.820  0.2528 -0.5358  3.1252
  926MPD2     C13599   2.777   1.746  13.003 -0.1759  0.0767 -0.2991
  926MPD2    C113600   2.885   1.828  13.020  0.5105 -0.2984 -0.4499
  926MPD2    C213601   2.937   1.892  12.912  0.1813  0.5232  1.0336
  926MPD2    C313602   2.865   1.900  12.797 -0.3573  0.0337  0.1311
  926MPD2    C413603   2.751   1.829  12.790  0.3256  0.4017  0.8861
  926MPD2    C513604   2.712   1.747  12.888 -0.4591 -0.3986  0.8327
  926MPD2     H13605   3.024   1.953  12.936  0.3086  0.2464  1.2879
  926MPD2    H113606   2.689   1.849  12.704 -1.4877  1.3513  2.4139
  926MPD2    H213607   2.727   1.696  13.084 -2.5543  2.9608 -0.0035
  926MPD2    H313608   2.618   1.698  12.869  0.3575 -1.2639 -0.9746
  926MPD2     N13609   2.886   1.998  12.694 -0.2294 -0.1970 -0.3768
  926MPD2    H513610   2.824   2.005  12.614 -0.4871 -0.0793 -0.1658
  926MPD2    N113611   2.947   1.852  13.142  0.0948  0.5163 -0.7928
  926MPD2    H713612   3.014   1.929  13.148 -1.1560  1.6108 -0.8567
  927MPD2     C13613   3.715   3.870   0.356  0.4733  0.6180  0.2681
  927MPD2    C113614   3.656   3.958   0.263  0.1299 -0.3003  0.3210
  927MPD2    C213615   3.718   3.962   0.139  0.2031 -0.6960  0.4924
  927MPD2    C313616   3.816   3.871   0.104 -0.7434  0.3313  0.1479
  927MPD2    C413617   3.863   3.780   0.191 -0.0802 -0.7105 -0.4436
  927MPD2    C513618   3.807   3.778   0.310 -0.6724  0.4188 -0.1986
  927MPD2     H13619   3.696   4.033   0.060  1.5100 -0.5435  0.2633
  927MPD2    H113620   3.935   3.701   0.172 -0.4729 -1.0958 -0.3457
  927MPD2    H213621   3.680   3.861   0.458 -0.8219 -0.7917 -0.3009
  927MPD2    H313622   3.834   3.697   0.377  1.7959 -0.4243 -2.2038
  927MPD2     N13623   3.865   3.882  17.712 -0.2766  0.4619  0.6255
  927MPD2    H513624   3.838   3.968  17.666 -0.5407  1.0021  1.7963
  927MPD2    N113625   3.576   4.059   0.310  0.0604 -0.0961  0.9710
  927MPD2    H713626   3.555   4.054   0.409  1.9391  1.3136  1.4539
  928MPD2     C13627   0.622   2.590   0.251 -0.2116 -0.8355  1.0777
  928MPD2    C113628   0.695   2.583   0.366 -0.2662 -0.0505 -0.0163
  928MPD2    C213629   0.834   2.588   0.369 -0.0887  0.0501  0.3532
  928MPD2    C313630   0.901   2.566   0.251 -0.9093  0.4814  0.3043
  928MPD2    C413631   0.830   2.559   0.134 -0.0394  0.3924  1.0655
  928MPD2    C513632   0.691   2.564   0.130  0.2715 -0.0415 -0.0476
  928MPD2     H13633   0.881   2.624   0.460  1.3394 -0.4198 -0.2100
  928MPD2    H113634   0.881   2.537   0.042  0.6688 -0.0648  1.5693
  928MPD2    H213635   0.514   2.582   0.256 -0.2619  0.0849  1.5285
  928MPD2    H313636   0.642   2.552   0.034 -0.7565  0.5788  0.3926
  928MPD2     N13637   1.041   2.570   0.241  0.4304 -0.0416  0.3227
  928MPD2    H513638   1.085   2.558   0.150  0.6471 -1.0075  0.5561
  928MPD2    N113639   0.616   2.596   0.482  0.1662  0.0775  0.0964
  928MPD2    H713640   0.516   2.608   0.469  0.4268  1.1638 -0.8315
  929MPD2     C13641   1.134   2.327  10.756 -0.2616  0.6073 -0.2005
  929MPD2    C113642   1.032   2.247  10.708 -0.6362 -0.0527  0.2876
  929MPD2    C213643   0.967   2.280  10.589 -0.2223 -0.0365 -0.0925
  929MPD2    C313644   1.004   2.399  10.521  0.1108  0.0085  0.2706
  929MPD2    C413645   1.096   2.481  10.582 -0.0665 -0.0339  0.4354
  929MPD2    C513646   1.158   2.448  10.700 -0.0737  0.4526 -0.5274
  929MPD2     H13647   0.883   2.222  10.551 -0.8474  0.4046  0.5934
  929MPD2    H113648   1.129   2.576  10.542  0.9256 -1.1749 -1.4604
  929MPD2    H213649   1.185   2.302  10.848  0.5085 -1.4924 -1.1946
  929MPD2    H313650   1.229   2.522  10.734 -1.5226  1.3972  0.3965
  929MPD2     N13651   0.942   2.445  10.405 -0.2068  0.0713  0.5834
  929MPD2    H513652   0.952   2.544  10.383 -1.4239 -0.1359 -0.9124
  929MPD2    N113653   1.011   2.128  10.780 -0.9147 -0.2315  0.2238
  929MPD2    H713654   1.080   2.110  10.853 -1.0981  0.2416  0.5138
  930MPD2     C13655   3.628   4.515  13.956 -0.3239 -0.0127 -0.1825
  930MPD2    C113656   3.626   4.639  13.897  0.2450 -0.0936 -0.1513
  930MPD2    C213657   3.643   4.652  13.761  0.2039  0.3320 -0.4691
  930MPD2    C313658   3.649   4.544  13.680 -0.4294  0.1570 -0.1501
  930MPD2    C413659   3.650   4.416  13.744  0.0480  0.6349  1.1401
  930MPD2    C513660   3.638   4.406  13.880 -0.2190 -0.6224 -0.3299
  930MPD2     H13661   3.646   0.014  13.708  2.2762  1.5105  1.7776
  930MPD2    H113662   3.650   4.328  13.680  0.1360  1.2484  0.2822
  930MPD2    H213663   3.600   4.501  14.060  0.3460 -3.5920 -0.4792
  930MPD2    H313664   3.628   4.305  13.917 -1.6065 -0.5831 -0.5879
  930MPD2     N13665   3.660   4.567  13.548  0.3151  0.2646 -0.7132
  930MPD2    H513666   3.653   4.662  13.515 -0.7125  0.2047 -0.6508
  930MPD2    N113667   3.614   0.025  13.966  0.0475  0.5890  0.4587
  930MPD2    H713668   3.599   0.103  13.902 -1.1216 -0.2780 -0.3209
  931MPD2     C13669   3.090   4.350   0.916 -0.0999 -0.6412  0.5267
  931MPD2    C113670   3.133   4.241   0.841 -0.6122  0.2835 -0.3133
  931MPD2    C213671   3.114   4.116   0.901 -0.0226 -1.0817 -0.2751
  931MPD2    C313672   3.088   4.102   1.035 -0.1342 -0.1259  0.4236
  931MPD2    C413673   3.059   4.219   1.106  0.1600  0.3373 -0.0874
  931MPD2    C513674   3.045   4.346   1.047 -0.0068  0.2712 -0.5409
  931MPD2     H13675   3.137   4.025   0.848  4.8013  0.1087 -0.2301
  931MPD2    H113676   3.045   4.224   1.213  5.2264 -1.9028  0.6577
  931MPD2    H213677   3.077   4.446   0.867  0.1503 -2.9206 -4.0444
  931MPD2    H313678   2.997   4.423   1.106 -1.4479  0.4315 -1.9071
  931MPD2     N13679   3.061   3.978   1.095  0.6194  0.5147 -0.0785
  931MPD2    H513680   2.996   3.980   1.173 -0.2244  1.0445 -0.8058
  931MPD2    N113681   3.183   4.276   0.707 -0.7431 -0.1817 -0.4375
  931MPD2    H713682   3.169   4.371   0.674 -1.2507  0.2525  0.9974
  932MPD2     C13683   4.576   3.949  11.428 -0.6688 -0.2313 -0.2939
  932MPD2    C113684   4.670   3.898  11.345 -0.1371  0.9472 -0.1521
  932MPD2    C213685   4.647   3.775  11.283 -0.1253  0.5463  0.1875
  932MPD2    C313686   4.550   3.691  11.344  0.1563  0.0227  0.4287
  932MPD2    C413687   4.475   3.738  11.449  0.2944 -0.6294 -0.5639
  932MPD2    C513688   4.482   3.867  11.485 -0.4319  0.3134 -0.1283
  932MPD2     H13689   4.723   3.728  11.221 -2.2675 -2.0082 -0.5036
  932MPD2    H113690   4.391   3.684  11.493  0.6226 -1.4557 -0.9506
  932MPD2    H213691   4.567   4.050  11.466  2.7901 -0.3147  0.7659
  932MPD2    H313692   4.407   3.902  11.555 -0.8734 -0.8828  0.0030
  932MPD2     N13693   4.535   3.555  11.324  0.2173  0.2298 -0.1940
  932MPD2    H513694   4.487   3.499  11.394  1.2234 -2.3743 -1.6135
  932MPD2    N113695   0.051   3.972  11.302 -0.7118 -0.2293 -0.0943
  932MPD2    H713696   0.114   3.924  11.238  0.4990 -0.9775  1.6659
  933MPD2     C13697   4.718   2.634   0.568 -0.3092 -0.0281 -0.5532
  933MPD2    C113698   0.036   2.707   0.673 -0.5624 -0.9346 -0.5870
  933MPD2    C213699   4.679   2.781   0.753 -0.2206 -0.6577 -0.4061
  933MPD2    C313700   4.543   2.772   0.745  0.6556 -0.1389  0.1913
  933MPD2    C413701   4.492   2.697   0.638 -0.0657 -0.1282 -0.0414
  933MPD2    C513702   4.580   2.632   0.551 -0.2318  0.4494 -0.5682
  933MPD2     H13703   4.722   2.855   0.819  3.5747 -1.6072 -1.7735
  933MPD2    H113704   4.387   2.695   0.613  0.2247  1.3280 -1.3644
  933MPD2    H213705   0.055   2.582   0.504  0.6922  0.4579  0.1732
  933MPD2    H313706   4.551   2.573   0.464 -1.7822 -0.3579  0.4952
  933MPD2     N13707   4.466   2.861   0.829  0.1470  0.3378  0.0534
  933MPD2    H513708   4.515   2.903   0.907  0.4299  0.5640 -0.2468
  933MPD2    N113709   0.176   2.707   0.688 -0.5598 -0.3051  0.8142
  933MPD2    H713710   0.227   2.642   0.630 -1.9883  0.0718 -0.8967
  934MPD2     C13711   1.583   0.788   1.917  0.8206 -0.1257 -0.0647
  934MPD2    C113712   1.661   0.684   1.864 -0.0074  0.3167  0.4669
  934MPD2    C213713   1.596   0.571   1.813 -0.2356 -0.7760  0.7765
  934MPD2    C313714   1.458   0.569   1.805  0.4219  0.1580  0.1083
  934MPD2    C413715   1.381   0.677   1.849 -0.3508  0.1229  0.0025
  934MPD2    C513716   1.442   0.785   1.908  0.0371 -0.2254  0.6083
  934MPD2     H13717   1.646   0.479   1.784  2.7762  0.7010  1.2363
  934MPD2    H113718   1.273   0.680   1.842 -0.4443  1.0134  1.7309
  934MPD2    H213719   1.635   0.877   1.950 -0.9729  0.2484  1.7166
  934MPD2    H313720   1.384   0.870   1.943  0.8514  1.0852 -1.2088
  934MPD2     N13721   1.392   0.463   1.741  0.5411  0.0329 -0.3183
  934MPD2    H513722   1.292   0.479   1.727  0.9037  3.4097  0.8806
  934MPD2    N113723   1.803   0.692   1.861  0.1940 -0.0992  0.0342
  934MPD2    H713724   1.851   0.758   1.921  0.1381  1.3232 -1.5140
  935MPD2     C13725   1.338   4.232   1.968 -0.5199  0.5489  0.2516
  935MPD2    C113726   1.385   4.270   1.841 -0.4876 -0.6217 -0.9889
  935MPD2    C213727   1.328   4.387   1.792  0.1856  0.4774  0.3609
  935MPD2    C313728   1.260   4.481   1.869 -1.1173  0.4399 -0.6496
  935MPD2    C413729   1.217   4.438   1.992  0.5610 -0.1883  0.4256
  935MPD2    C513730   1.263   4.317   2.041 -0.1635  0.0771  0.1053
  935MPD2     H13731   1.359   4.415   1.692 -0.4891  0.2772  0.0939
  935MPD2    H113732   1.160   4.501   2.059 -2.6445  0.8235 -3.2703
  935MPD2    H213733   1.373   4.140   2.014 -2.4545 -0.3304 -0.0371
  935MPD2    H313734   1.230   4.284   2.139 -0.7543  1.4768  0.3832
  935MPD2     N13735   1.229   4.606   1.827 -0.0714 -0.1147 -0.4301
  935MPD2    H513736   1.188   4.672   1.893  1.3252  1.0918 -0.7598
  935MPD2    N113737   1.473   4.189   1.759 -0.3518 -0.3800  0.0643
  935MPD2    H713738   1.484   4.223   1.664 -1.9428  0.3112  0.1331
  936MPD2     C13739   0.244   1.864  12.929 -0.6667 -0.1948 -0.1095
  936MPD2    C113740   0.233   1.971  13.014  0.3236  0.8858 -0.0093
  936MPD2    C213741   0.156   2.075  12.979  0.2336  0.7430  0.4208
  936MPD2    C313742   0.102   2.089  12.855 -0.0229  0.7408  0.0616
  936MPD2    C413743   0.115   1.978  12.769 -0.7281 -0.2574 -0.1305
  936MPD2    C513744   0.179   1.864  12.811 -0.3802 -0.5587 -0.2370
  936MPD2     H13745   0.143   2.158  13.047  0.3713  1.9720 -1.0769
  936MPD2    H113746   0.070   1.977  12.671  0.5785 -0.6334 -0.7237
  936MPD2    H213747   0.300   1.772  12.946  0.9741  0.6239 -1.0517
  936MPD2    H313748   0.191   1.782  12.741 -0.0145  0.4053 -1.2888
  936MPD2     N13749   0.031   2.202  12.828 -0.2101 -0.7604  0.7244
  936MPD2    H513750   0.030   2.271  12.903 -0.4823  1.4526 -1.2953
  936MPD2    N113751   0.289   1.978  13.149 -0.8115 -0.0676  0.5258
  936MPD2    H713752   0.251   2.054  13.203 -0.4647  1.0919 -0.8634
  937MPD2     C13753   3.624   3.402  11.877 -0.1433 -0.0011  0.9970
  937MPD2    C113754   3.710   3.510  11.870 -0.3584  0.0223  0.3202
  937MPD2    C213755   3.777   3.526  11.746 -0.5493  0.2998  0.5729
  937MPD2    C313756   3.774   3.427  11.652 -0.2723  0.6520  0.2180
  937MPD2    C413757   3.699   3.314  11.664 -0.4878  0.2515  0.1149
  937MPD2    C513758   3.627   3.299  11.780  0.3871  1.0962 -0.5038
  937MPD2     H13759   3.836   3.616  11.727 -1.5196  0.9577  0.6597
  937MPD2    H113760   3.682   3.229  11.598 -1.4851  0.2410  0.3837
  937MPD2    H213761   3.555   3.392  11.960 -1.3200 -0.5298 -0.0356
  937MPD2    H313762   3.570   3.210  11.801  1.4920  0.5652  0.2778
  937MPD2     N13763   3.840   3.462  11.528  0.4008  0.0633  0.1795
  937MPD2    H513764   3.886   3.551  11.517 -1.2774  1.0618  1.2352
  937MPD2    N113765   3.698   3.624  11.953  0.2640  0.5962 -0.1206
  937MPD2    H713766   3.745   3.709  11.926  0.6760  0.3805 -0.0837
  938MPD2     C13767   1.164   4.070   0.697  0.3611  0.3893  0.0257
  938MPD2    C113768   1.093   4.155   0.782 -0.7734  0.7638 -0.4932
  938MPD2    C213769   1.013   4.102   0.879  0.1168  0.8132  0.3437
  938MPD2    C313770   1.025   3.965   0.901 -0.2822 -0.0141 -0.0684
  938MPD2    C413771   1.105   3.884   0.823 -0.1925 -0.2577 -0.1010
  938MPD2    C513772   1.175   3.936   0.720  0.3053  0.8284 -0.8131
  938MPD2     H13773   0.946   4.166   0.935  0.2362  1.9209 -0.7794
  938MPD2    H113774   1.112   3.779   0.847  1.2990 -0.1589 -0.1013
  938MPD2    H213775   1.228   4.110   0.620  1.8822 -1.6789  0.2322
  938MPD2    H313776   1.234   3.868   0.660  0.4681  0.7624 -0.5803
  938MPD2     N13777   0.967   3.908   1.019 -0.3651  0.0569 -0.7615
  938MPD2    H513778   0.999   3.815   1.042  1.6527  0.4950 -1.7474
  938MPD2    N113779   1.085   4.291   0.761 -0.1082  0.4406 -0.3401
  938MPD2    H713780   1.026   4.344   0.824 -1.2025  0.3368 -1.2845
  939MPD2     C13781   2.007   0.892   0.644 -0.1178 -0.1890  0.0843
  939MPD2    C113782   2.102   0.990   0.686  0.1748 -0.0951 -0.1560
  939MPD2    C213783   2.225   0.991   0.624 -0.1650  0.2384  0.8387
  939MPD2    C313784   2.257   0.889   0.536  0.0257 -0.6029 -0.5800
  939MPD2    C413785   2.167   0.790   0.501  0.4115  0.3901  0.2318
  939MPD2    C513786   2.042   0.803   0.554  0.0270 -0.3808 -0.0923
  939MPD2     H13787   2.297   1.068   0.651  0.8100 -0.5327  0.4557
  939MPD2    H113788   2.186   0.709   0.431  0.7894  0.5363  0.1690
  939MPD2    H213789   1.900   0.887   0.663  0.0252  2.4890  1.6117
  939MPD2    H313790   1.961   0.733   0.536 -0.9923  0.9026 -0.5291
  939MPD2     N13791   2.391   0.897   0.482 -0.0756 -0.1367  0.0226
  939MPD2    H513792   2.448   0.978   0.506 -1.0286  0.9198 -1.2895
  939MPD2    N113793   2.067   1.089   0.785  0.2315 -0.2751 -0.4385
  939MPD2    H713794   1.976   1.069   0.823 -0.9296  1.4715 -2.3257
  940MPD2     C13795   1.693   2.327  12.996 -0.9464 -0.4407 -0.8289
  940MPD2    C113796   1.574   2.256  13.032  0.0949  0.7066  0.0586
  940MPD2    C213797   1.501   2.208  12.929  0.0019 -0.1391  0.0179
  940MPD2    C313798   1.528   2.225  12.796 -0.0809 -0.5413 -0.5294
  940MPD2    C413799   1.637   2.299  12.758 -0.2079  0.4042  0.2115
  940MPD2    C513800   1.716   2.346  12.862 -0.1572  0.1234  0.0613
  940MPD2     H13801   1.411   2.153  12.953 -0.2657  0.2327 -0.1268
  940MPD2    H113802   1.671   2.321  12.657  1.8297 -1.7547  0.4222
  940MPD2    H213803   1.754   2.381  13.067 -1.1587  0.3355 -1.2291
  940MPD2    H313804   1.796   2.409  12.827  0.9308 -0.3996  1.6434
  940MPD2     N13805   1.458   2.155  12.688  0.4657  0.1919  0.4070
  940MPD2    H513806   1.496   2.157  12.594  2.1235  1.5698  1.1077
  940MPD2    N113807   1.538   2.229  13.166  0.5330 -0.0682 -0.0585
  940MPD2    H713808   1.451   2.181  13.187  0.5305 -0.1307 -0.2059
  941MPD2     C13809   0.446   0.739   9.500 -0.5237 -0.1080  0.1950
  941MPD2    C113810   0.546   0.824   9.519  0.7052  0.0635  0.1713
  941MPD2    C213811   0.679   0.776   9.498  0.5074  0.1595  0.2423
  941MPD2    C313812   0.701   0.647   9.452  0.6250  0.1335  0.0279
  941MPD2    C413813   0.595   0.565   9.428  0.8060  0.2153  0.6244
  941MPD2    C513814   0.467   0.605   9.465 -0.2467 -0.3808 -0.0653
  941MPD2     H13815   0.759   0.843   9.528 -3.3067  3.4289  2.9878
  941MPD2    H113816   0.616   0.465   9.392 -0.2815  0.8785 -1.8348
  941MPD2    H213817   0.343   0.767   9.518 -0.7356 -0.9919  0.3099
  941MPD2    H313818   0.379   0.543   9.456 -1.3628  1.7467 -3.8111
  941MPD2     N13819   0.830   0.597   9.422  0.7002  0.0560  0.6419
  941MPD2    H513820   0.827   0.496   9.417  1.1039  0.1852 -2.3264
  941MPD2    N113821   0.539   0.953   9.589 -0.3016  0.1336 -0.1577
  941MPD2    H713822   0.625   1.000   9.615 -0.0373  0.3494 -1.4496
  942MPD2     C13823   0.051   3.448   9.749  0.0313 -0.0684  0.0854
  942MPD2    C113824   4.706   3.334   9.724 -0.5735 -0.2538 -0.6723
  942MPD2    C213825   0.010   3.255   9.618  0.6612 -0.5303  0.7424
  942MPD2    C313826   0.115   3.287   9.539 -0.7971 -0.6034 -0.3280
  942MPD2    C413827   0.191   3.396   9.559  0.2247 -0.1471  0.1199
  942MPD2    C513828   0.154   3.476   9.663 -0.4784 -0.2059 -0.3529
  942MPD2     H13829   4.682   3.169   9.594 -0.1592 -0.3381  2.1588
  942MPD2    H113830   0.272   3.427   9.494 -0.9294  0.2743 -1.1251
  942MPD2    H213831   0.041   3.517   9.832  3.0952 -0.6700  0.9520
  942MPD2    H313832   0.223   3.559   9.667 -1.1555  0.3693 -0.8007
  942MPD2     N13833   0.149   3.213   9.423  0.5700 -0.3569  0.0777
  942MPD2    H513834   0.238   3.237   9.379  0.2957 -1.9397 -1.3200
  942MPD2    N113835   4.614   3.293   9.832 -0.6521 -0.3511 -0.4530
  942MPD2    H713836   4.605   3.358   9.909 -2.0852 -0.1542 -0.7934
  943MPD2     C13837   4.079   1.292  11.134 -0.8137 -0.5715 -0.6065
  943MPD2    C113838   4.001   1.177  11.146 -0.4748  0.3500  0.4339
  943MPD2    C213839   3.880   1.175  11.200  0.3568  0.4357  0.1271
  943MPD2    C313840   3.829   1.292  11.260  0.3670 -0.0466  0.5696
  943MPD2    C413841   3.913   1.405  11.266 -0.6158  0.4236  0.4372
  943MPD2    C513842   4.033   1.401  11.200 -0.2735 -0.0497  0.2608
  943MPD2     H13843   3.823   1.083  11.201  0.5654  0.3192  1.8883
  943MPD2    H113844   3.890   1.500  11.314  1.7611  1.6281 -0.7965
  943MPD2    H213845   4.166   1.303  11.071  1.4324  0.4563  2.6720
  943MPD2    H313846   4.090   1.493  11.198 -0.2621 -0.0390  1.5418
  943MPD2     N13847   3.706   1.291  11.324  0.5458  0.5353 -0.2354
  943MPD2    H513848   3.684   1.369  11.386 -0.2380  0.0665  0.0783
  943MPD2    N113849   4.038   1.062  11.065  0.2890  0.0495  0.5967
  943MPD2    H713850   4.097   1.080  10.984  0.3084  1.2180  0.8804
  944MPD2     C13851   3.684   4.698  11.379  0.2525 -0.4794 -0.1484
  944MPD2    C113852   3.735   0.070  11.308 -0.2586 -0.1991  0.1885
  944MPD2    C213853   3.707   0.201  11.351 -0.3055  0.2437 -0.8199
  944MPD2    C313854   3.621   0.223  11.457  0.3428 -0.1146 -0.0020
  944MPD2    C413855   3.566   0.112  11.519 -0.5462 -0.2980  0.3507
  944MPD2    C513856   3.597   4.723  11.480 -0.6750  0.3989 -0.0163
  944MPD2     H13857   3.754   0.283  11.297  0.6179 -0.8981 -1.7338
  944MPD2    H113858   3.503   0.122  11.606  0.8737 -1.0628  1.4585
  944MPD2    H213859   3.710   4.599  11.346 -1.8318 -1.2717  0.5797
  944MPD2    H313860   3.569   4.644  11.548  2.0533  0.0395  0.6942
  944MPD2     N13861   3.585   0.357  11.493  0.2705 -0.3228 -0.0081
  944MPD2    H513862   3.609   0.428  11.424  0.9887  0.0188  0.5948
  944MPD2    N113863   3.803   0.046  11.191  0.4291 -0.3407 -0.5511
  944MPD2    H713864   3.804   4.680  11.169  3.8463 -0.5502  0.6030
    1TMC1    C113865   1.555   1.192  14.250  0.4859 -0.9247 -0.5362
    1TMC1    C213866   1.574   1.169  14.385 -0.5076 -0.2477  0.5436
    1TMC1    C313867   1.495   1.080  14.446 -0.0638 -0.7169 -0.1256
    1TMC1    C413868   1.464   1.122  14.174 -0.4326 -0.6847 -0.3510
    1TMC1    C513869   1.393   1.023  14.240 -0.1800 -0.7992 -0.2034
    1TMC1    C613870   1.408   0.999  14.374 -1.3693 -0.4347 -0.5876
    1TMC1     C13871   1.612   1.308  14.185  0.1529  0.1644  0.7680
    1TMC1     O13872   1.545   1.349  14.098 -0.2005  0.0936  0.1732
    1TMC1     H13873   1.625   1.240  14.449 -1.6859  2.0501 -1.0770
    1TMC1    H113874   1.441   1.147  14.071  1.4352 -0.0424 -0.6004
    1TMC1    H213875   1.356   0.920  14.426  1.0258 -2.8372 -1.8105
    1TMC1    C713876   1.293   0.951  14.162 -0.1341 -0.2706 -0.5672
    1TMC1    C813877   1.483   1.083  14.588  0.1343 -0.0390 -0.5225
    1TMC1    O113878   1.223   1.002  14.079 -0.1711  0.3492  0.4305
    1TMC1    O213879   1.576   1.106  14.664  0.4611 -0.1810  0.1667
    1TMC1    O313880   1.291   0.825  14.216  0.0984 -0.0568 -0.4176
    1TMC1    H313881   1.381   0.803  14.249  0.4302  2.3373  0.2357
    1TMC1    O513882   1.363   1.142  14.606  0.3991 -0.2157  0.0770
    1TMC1    H513883   1.288   1.109  14.552 -0.6335  1.6378  0.3999
    2MPD2     C13884   1.923   1.703  14.129  0.4227 -0.5820  0.9298
    2MPD2    C113885   1.993   1.609  14.202 -0.1822  0.7727 -0.2621
    2MPD2    C213886   1.929   1.493  14.237  0.9776 -0.2163  0.1373
    2MPD2    C313887   1.796   1.464  14.192 -0.3002  0.4778  0.1634
    2MPD2    C413888   1.726   1.575  14.138  0.3034  0.5489  0.2221
    2MPD2    C513889   1.798   1.685  14.096 -0.0278  0.8103 -0.2700
    2MPD2     H13890   1.988   1.424  14.296  0.6492 -0.0986  0.6009
    2MPD2    H113891   1.619   1.572  14.118  0.7708 -0.0655 -2.2189
    2MPD2    H213892   1.976   1.795  14.108 -0.2761 -1.0815 -2.9624
    2MPD2    H313893   1.740   1.762  14.047 -1.0500  0.5453  0.5189
    2MPD2     N13894   1.730   1.347  14.238  0.1121  0.4063 -0.0301
    2MPD2    H513895   1.790   1.275  14.277  0.6167  1.5303  1.2893
    2MPD2    N113896   2.120   1.643  14.228  0.4904 -0.2132  0.1377
    2MPD2    H713897   2.157   1.727  14.184 -0.2482 -0.8253 -1.6340
    3TMC2    C113898   2.334   1.621  14.326  0.0611 -0.2281  0.1363
    3TMC2    C213899   2.427   1.545  14.394 -0.5483 -0.0042 -0.3249
    3TMC2    C313900   2.543   1.606  14.435  0.8884  0.0318 -0.0728
    3TMC2    C413901   2.351   1.757  14.313  0.4139  0.7858 -0.3688
    3TMC2    C513902   2.472   1.810  14.347 -0.2843  0.1819 -0.3124
    3TMC2    C613903   2.564   1.738  14.415 -0.5505 -0.1263  0.3205
    3TMC2     C13904   2.203   1.560  14.301  0.1589 -0.5628  0.1074
    3TMC2     O13905   2.196   1.440  14.324 -0.3851 -0.0651  0.3172
    3TMC2     H13906   2.413   1.438  14.400 -0.8728  0.0304 -0.4579
    3TMC2    H113907   2.273   1.827  14.283  0.9624  1.2874 -0.6336
    3TMC2    H213908   2.654   1.794  14.439 -1.0563  0.1163  1.6056
    3TMC2    C713909   2.510   1.949  14.325  0.1381  0.4729  0.5398
    3TMC2    C813910   2.647   1.519  14.489  0.1349  0.3948  0.0393
    3TMC2    O113911   2.603   1.995  14.386 -0.2495 -0.6204 -0.0923
    3TMC2    O213912   2.645   1.397  14.474 -0.8337  0.1728  0.2006
    3TMC2    O513913   2.754   1.601  14.484 -0.0400  0.5320  0.2432
    3TMC2    H513914   2.752   1.678  14.545  1.2984 -0.3868  1.4479
    4TMC2    C113915   1.999   2.474  13.620  0.2846 -0.1026 -0.8127
    4TMC2    C213916   2.079   2.550  13.548  0.1074 -0.3586  0.4681
    4TMC2    C313917   2.214   2.553  13.569  0.2296 -0.1814  0.5493
    4TMC2    C413918   2.065   2.397  13.712  0.0193 -0.0956  0.1219
    4TMC2    C513919   2.199   2.398  13.735 -0.3287  0.3530  0.6496
    4TMC2    C613920   2.280   2.478  13.661  0.1202 -0.2945 -0.1950
    4TMC2     C13921   1.870   2.533  13.658 -0.4711 -0.0130 -0.9015
    4TMC2     O13922   1.826   2.509  13.771  0.3948 -0.3384 -0.0826
    4TMC2     H13923   2.035   2.618  13.476  0.1689 -2.4111 -1.5002
    4TMC2    H113924   2.003   2.334  13.775  3.0292 -2.6101  0.5548
    4TMC2    H213925   2.388   2.473  13.667  0.3885  3.6083 -2.1624
    4TMC2    C713926   2.260   2.315  13.840 -0.0432  0.1349 -0.1569
    4TMC2    C813927   2.286   2.601  13.457  0.2530  0.1454 -0.6068
    4TMC2    O113928   2.200   2.210  13.862  0.4635 -0.0999  0.2394
    4TMC2    O213929   2.377   2.685  13.455  0.4294 -0.2973 -0.1959
    4TMC2    O513930   2.262   2.505  13.368  0.4367  0.1275  0.2835
    4TMC2    H513931   2.207   2.431  13.403 -1.8210  0.6851 -2.0702
    5MPD2     C13932   1.397   2.577  13.501 -0.2981  0.3022 -0.5513
    5MPD2    C113933   1.477   2.575  13.385 -0.2024 -0.8175  0.0487
    5MPD2    C213934   1.611   2.602  13.407 -0.4882 -0.5966 -0.2839
    5MPD2    C313935   1.663   2.596  13.534 -0.0118  0.7225 -0.4061
    5MPD2    C413936   1.577   2.598  13.650 -0.3610 -0.0445  0.3966
    5MPD2    C513937   1.448   2.589  13.620 -0.0788 -0.2199  0.5819
    5MPD2     H13938   1.669   2.606  13.315  2.0321  0.3899  1.3300
    5MPD2    H113939   1.605   2.612  13.754  0.4441 -0.3186  0.2140
    5MPD2    H213940   1.289   2.585  13.490 -0.5187 -1.5226  0.4216
    5MPD2    H313941   1.384   2.593  13.708 -0.0071 -0.3683  0.6399
    5MPD2     N13942   1.802   2.572  13.539  0.4355  0.2432 -0.1820
    5MPD2    H513943   1.857   2.565  13.453 -0.7851  0.1749 -0.9557
    5MPD2    N113944   1.415   2.577  13.257 -0.4208 -0.1510  0.4934
    5MPD2    H713945   1.319   2.545  13.259  0.1366 -1.8859 -0.9969
    6MPD1     C13946   4.634   2.966  12.138  0.0469  0.1870 -0.7749
    6MPD1    C113947   4.630   2.986  12.273  0.0566  0.7099 -0.2721
    6MPD1    C213948   0.014   2.989  12.349  0.3370 -0.2347 -0.4785
    6MPD1    C313949   0.133   2.992  12.287  0.0616  0.9288  0.0609
    6MPD1    C413950   0.139   2.979  12.150  0.3173  0.0772  0.3703
    6MPD1    C513951   0.024   2.970  12.079 -0.0829 -0.4816  0.4412
    6MPD1     H13952   4.728   2.999  12.455 -0.0534  0.1326 -0.5824
    6MPD1    H113953   0.234   2.971  12.098  0.0625 -2.6556  0.2869
    6MPD1    H213954   4.550   2.949  12.073 -0.2835  1.0926 -0.5793
    6MPD1    H313955   0.023   2.960  11.971 -0.4200  0.5567  0.3445
    6MPD1     N13956   0.249   2.991  12.359 -0.0956 -0.1799 -0.1672
    6MPD1    H513957   0.332   2.963  12.307 -1.1986  0.0736 -2.0462
    6MPD1    N113958   4.505   2.963  12.336 -0.0996 -0.1857  0.4980
    6MPD1    H613959   4.428   3.003  12.283  0.4703  1.4553  0.8933
    6MPD1    H713960   4.492   2.984  12.434 -2.2820  1.4059 -0.1424
    7MPD2     C13961   0.632   2.651  13.106  0.5817 -0.6445 -0.3574
    7MPD2    C113962   0.678   2.651  12.975  0.7142 -0.2129  0.1697
    7MPD2    C213963   0.803   2.590  12.954  1.0494 -0.1914 -0.3667
    7MPD2    C313964   0.870   2.521  13.056  0.0174  0.3070 -0.8063
    7MPD2    C413965   0.817   2.523  13.181 -0.7123 -0.8129  0.2304
    7MPD2    C513966   0.704   2.598  13.215  0.3014 -0.8913 -0.1636
    7MPD2     H13967   0.849   2.605  12.857 -0.0666  0.7972 -0.7391
    7MPD2    H113968   0.878   2.474  13.256 -0.9353 -1.3038  0.0897
    7MPD2    H213969   0.547   2.710  13.139  0.0036 -1.0894 -1.0601
    7MPD2    H313970   0.668   2.603  13.317 -0.4777 -1.9664 -0.3796
    7MPD2     N13971   1.001   2.467  13.042 -0.0025 -0.3141 -0.0349
    7MPD2    H513972   1.056   2.446  13.125  1.4818  0.3551 -0.8503
    7MPD2    N113973   0.626   2.720  12.861 -0.1073  0.0115  0.6646
    7MPD2    H713974   0.676   2.706  12.774 -1.3019 -0.6692  0.0836
    8TMC3    C113975   1.205   2.427  12.938  0.1888 -0.8080 -0.7921
    8TMC3    C213976   1.274   2.490  13.045 -0.2406  0.4729  0.7610
    8TMC3    C313977   1.393   2.563  13.022  0.1228 -0.0124 -0.3894
    8TMC3    C413978   1.262   2.447  12.815 -0.3263  0.1883  0.7047
    8TMC3    C513979   1.373   2.529  12.796 -0.5594  0.7149 -0.4168
    8TMC3    C613980   1.447   2.582  12.900 -0.9213 -0.1687  0.6948
    8TMC3     C13981   1.072   2.461  12.923  0.5735 -0.0074 -0.7971
    8TMC3     O13982   1.042   2.497  12.812 -0.0370 -0.6479  0.4247
    8TMC3     H13983   1.251   2.457  13.146 -3.4980 -0.3868 -0.2508
    8TMC3    H113984   1.217   2.394  12.732  4.5161  0.5823 -2.1988
    8TMC3    H213985   1.545   2.628  12.886 -0.4530 -0.6984  2.2979
    8TMC3    C713986   1.354   2.626  12.678 -0.3711 -0.8089  0.0608
    8TMC3    C813987   1.470   2.602  13.138 -0.0660  0.1427  1.3356
    8TMC3    O113988   1.452   2.690  12.635  0.0027 -0.1871 -0.0283
    8TMC3    O213989   1.580   2.656  13.116 -0.1323 -0.4343 -0.3730
    9TMC3    C113990   0.382   2.958  12.542 -0.0992  0.0649  0.1071
    9TMC3    C213991   0.485   2.952  12.454 -0.0448 -0.1868  0.4528
    9TMC3    C313992   0.605   2.891  12.502  0.2777  0.4117 -0.4600
    9TMC3    C413993   0.388   2.915  12.672 -0.0238  0.3615 -0.2163
    9TMC3    C513994   0.508   2.858  12.713  0.5531 -0.0380  0.1701
    9TMC3    C613995   0.614   2.852  12.630  0.0836 -0.1966  0.0371
    9TMC3     C13996   0.256   3.011  12.495  0.1024 -0.0405  0.7948
    9TMC3     O13997   0.182   3.067  12.571 -0.0876 -0.4637  0.2472
    9TMC3     H13998   0.496   3.003  12.359  0.1719  1.3914  1.3159
    9TMC3    H113999   0.305   2.910  12.742  1.8400 -2.2188  1.7880
    9TMC3    H214000   0.711   2.838  12.676 -0.6325 -0.1289  1.5518
    9TMC3    C714001   0.512   2.796  12.845 -0.5822 -0.6332  0.1074
    9TMC3    C814002   0.731   2.894  12.430 -0.1757 -0.4371  0.3288
    9TMC3    O114003   0.415   2.815  12.921  0.2854 -0.0983 -0.3606
    9TMC3    O214004   0.754   2.992  12.359 -0.0146  0.0761  0.2270
   10MPD2     C14005   1.228   2.796  12.469 -0.1568 -0.3146  0.1458
   10MPD2    C114006   1.155   2.707  12.542 -0.1321 -0.2559 -0.2277
   10MPD2    C214007   1.015   2.698  12.531  0.5462 -0.2180  0.1494
   10MPD2    C314008   0.955   2.802  12.463  0.1811 -0.4903  0.5407
   10MPD2    C414009   1.031   2.898  12.397 -0.2393  0.3210  0.2786
   10MPD2    C514010   1.166   2.889  12.391  0.8138 -0.6253 -0.1066
   10MPD2     H14011   0.952   2.628  12.584 -0.1269  0.4535  0.2371
   10MPD2    H114012   0.977   2.977  12.347 -0.4387 -2.3584 -3.8194
   10MPD2    H214013   1.335   2.804  12.460  0.2329 -2.7656  2.7134
   10MPD2    H314014   1.223   2.963  12.336 -0.1416  0.2933  0.1284
   10MPD2     N14015   0.818   2.799  12.478 -0.3441 -0.4809  0.3284
   10MPD2    H514016   0.771   2.715  12.508  1.4430 -1.8325 -0.6959
   10MPD2    N114017   1.223   2.621  12.631 -0.5597 -0.3654 -0.2951
   10MPD2    H714018   1.166   2.571  12.698  1.3374 -1.5037  0.4671
   11MPD2     C14019   2.580   2.217  14.216 -0.4459 -0.3262 -0.4670
   11MPD2    C114020   2.473   2.141  14.174 -0.6769  0.1379 -0.1773
   11MPD2    C214021   2.409   2.190  14.063 -0.3081 -0.4411 -0.1838
   11MPD2    C314022   2.450   2.306  14.003  0.4372  0.7388 -0.1805
   11MPD2    C414023   2.552   2.378  14.047 -0.2397 -0.0488  0.1101
   11MPD2    C514024   2.621   2.327  14.150  0.2534  0.2763 -0.3111
   11MPD2     H14025   2.334   2.116  14.038 -2.7078  2.1727 -0.6714
   11MPD2    H114026   2.583   2.468  13.994  0.1578  0.1610  0.6991
   11MPD2    H214027   2.653   2.192  14.291 -0.1671  0.8689 -0.3366
   11MPD2    H314028   2.712   2.379  14.179  0.1607  1.1003 -1.4738
   11MPD2     N14029   2.369   2.369  13.900  0.8375 -0.4252  0.8647
   11MPD2    H514030   2.397   2.458  13.861 -2.5165 -0.2061 -0.9900
   11MPD2    N114031   2.437   2.014  14.226  0.1456 -0.4802 -0.7878
   11MPD2    H714032   2.372   1.954  14.176 -0.7077 -1.0092  0.9485
    1MPD1     C14033   4.079   2.606  17.384 -0.2238 -0.1877  0.6589
    1MPD1    C114034   4.042   2.683  17.492  0.3488  0.2989 -0.7568
    1MPD1    C214035   4.143   2.733  17.571 -0.0753  0.5400 -0.0155
    1MPD1    C314036   4.274   2.703  17.549 -1.0638 -0.2442 -0.4771
    1MPD1    C414037   4.308   2.631  17.436 -0.5018  0.0460 -0.1366
    1MPD1    C514038   4.211   2.573  17.357 -0.5707 -0.4667 -0.0978
    1MPD1     H14039   4.110   2.802  17.649 -3.8734 -0.5807 -0.6486
    1MPD1    H114040   4.410   2.600  17.419 -0.6736 -0.3774 -0.3832
    1MPD1    H214041   3.998   2.571  17.322 -0.8428  3.4093 -0.5564
    1MPD1    H314042   4.235   2.510  17.272 -3.8519  0.2440 -1.5369
    1MPD1     N14043   4.379   2.746  17.641  0.2877 -0.2327  0.4254
    1MPD1    H514044   4.472   2.717  17.614  1.3448  1.9102  1.6961
    1MPD1    N114045   3.905   2.729  17.495  0.3306  0.3839  0.1616
    1MPD1    H614046   3.847   2.648  17.477 -0.8317  1.6667 -1.7762
    1MPD1    H714047   3.882   2.753  17.591 -1.9056 -2.3986  0.2977
    2MPD1     C14048   4.717   3.237   0.876  0.2082  0.7395  0.0278
    2MPD1    C114049   0.084   3.164   0.817 -0.5203 -0.9066 -0.3699
    2MPD1    C214050   0.052   3.096   0.698 -0.7280 -0.8305 -0.3738
    2MPD1    C314051   4.661   3.094   0.646  0.0704  0.2729  0.4127
    2MPD1    C414052   4.557   3.158   0.713 -0.0865 -0.1025 -0.1843
    2MPD1    C514053   4.590   3.229   0.826  0.2281  0.2289 -0.0680
    2MPD1     H14054   0.133   3.041   0.651  1.6626  2.9046 -0.6431
    2MPD1    H114055   4.456   3.155   0.675  0.0818 -0.1340 -0.6334
    2MPD1    H214056   4.729   3.300   0.964 -2.2986  0.2351  0.7170
    2MPD1    H314057   4.517   3.286   0.883  0.5302 -0.1839  0.7349
    2MPD1     N14058   4.650   3.036   0.511 -0.1025  0.2956 -0.2343
    2MPD1    H514059   0.001   2.999   0.468  2.2054  1.7854  3.0019
    2MPD1    N114060   0.215   3.174   0.877 -0.3847 -0.0916 -0.5959
    2MPD1    H614061   0.292   3.134   0.823 -2.2284 -3.2898 -0.8160
    2MPD1    H714062   0.249   3.266   0.907  0.5220 -0.5445 -0.2323
    3TMC3    C114063   4.555   2.935   0.318 -0.0127  0.1170 -0.7329
    3TMC3    C214064   4.675   2.871   0.300  0.2625 -0.0818  0.4054
    3TMC3    C314065   4.692   2.791   0.189 -0.1868  0.0843 -0.2944
    3TMC3    C414066   4.449   2.896   0.238 -0.2828  0.2033 -0.3458
    3TMC3    C514067   4.471   2.818   0.131  0.6142 -0.4072 -0.4865
    3TMC3    C614068   4.591   2.767   0.098  0.2632  0.4170 -0.0387
    3TMC3     C14069   4.533   3.024   0.436 -0.2010 -0.1555 -0.3467
    3TMC3     O14070   4.421   3.069   0.455  0.5467  0.3642  0.0175
    3TMC3     H14071   0.031   2.886   0.360  0.5842  2.6563 -0.7990
    3TMC3    H114072   4.349   2.926   0.268 -0.8982 -2.8837  0.6528
    3TMC3    H214073   4.605   2.703   0.011 -0.8811  0.5303 -0.3041
    3TMC3    C714074   4.356   2.787   0.042  1.1365 -0.8290 -0.0589
    3TMC3    C814075   0.094   2.765   0.143 -0.6300  0.4333  0.2238
    3TMC3    O114076   4.248   2.793   0.102 -0.0026 -0.3756 -0.1833
    3TMC3    O214077   0.183   2.744   0.223 -0.4285 -0.1660  0.5307
    4MPD1     C14078   0.459   2.820  17.524 -0.0021  0.0802  0.3567
    4MPD1    C114079   0.334   2.846  17.463  0.6287 -0.3033  0.3289
    4MPD1    C214080   0.220   2.834  17.541 -0.1339  0.2026  0.6706
    4MPD1    C314081   0.227   2.786  17.669 -0.2292 -0.1029 -0.1789
    4MPD1    C414082   0.345   2.747  17.725 -0.1618 -0.4654 -0.4775
    4MPD1    C514083   0.457   2.774  17.656  0.0231  0.4293 -0.2802
    4MPD1     H14084   0.121   2.851  17.501  0.7462  3.6452 -0.0719
    4MPD1    H114085   0.357   2.720   0.097  0.5405  2.8602  0.2982
    4MPD1    H214086   0.554   2.843  17.476  0.2464 -0.9909  0.3412
    4MPD1    H314087   0.550   2.751  17.706 -1.1847 -0.7993  1.3976
    4MPD1     N14088   0.100   2.784   0.005 -0.7578 -0.4750  0.9326
    4MPD1    H514089   0.014   2.795  17.685 -0.2637 -1.0730 -0.0100
    4MPD1    N114090   0.328   2.892  17.329  0.2322 -0.3189 -0.1792
    4MPD1    H614091   0.250   2.873  17.266  1.2040 -1.0435 -1.1825
    4MPD1    H714092   0.407   2.859  17.274  0.2885  0.1681 -0.3872
    1TCq1    O114093   0.870   3.018  11.288 -0.6987  0.4260 -0.4963
    1TCq1    C114094   0.761   2.949  11.240  0.2263  0.1590  0.0854
    1TCq1    O214095   0.766   2.876  11.142  0.5092 -1.1613  0.3239
    1TCq1    C214096   0.636   3.002  11.288  0.8744  0.4887 -0.2823
    1TCq1    C314097   0.531   2.916  11.275  0.0662  0.2386  0.6510
    1TCq1    C414098   0.409   2.959  11.314  0.1130 -0.2013  0.0266
    1TCq1    C514099   0.384   3.091  11.315 -0.2754 -0.2413  0.4978
    1TCq1    C614100   0.491   3.175  11.335 -0.0550 -1.1385 -0.3058
    1TCq1    C714101   0.623   3.132  11.328  0.4082 -0.2605  0.1128
    1TCq1    C814102   0.468   3.318  11.364 -0.5187 -0.7814 -0.6364
    1TCq1    O414103   0.569   3.364  11.417 -0.5707 -0.2414  0.6836
    1TCq1    C914104   0.292   2.882  11.290 -0.1824  0.6220  0.9026
    1TCq1    O514105   0.314   2.763  11.261  0.1531 -0.0742 -0.3851
    1TCq1    O614106   0.181   2.931  11.324 -0.1994 -0.1526 -0.2037
    1TCq1    H114107   0.858   3.043  11.382  0.7892  1.0310 -0.4705
    1TCq1    H214108   0.552   2.810  11.270 -0.7228  0.2059 -1.8083
    1TCq1    H314109   0.284   3.134  11.313 -0.7635 -1.3284  1.3569
    1TCq1    H414110   0.711   3.190  11.354  1.1098 -1.3809  0.2354
    2MPD1     C14111   0.335   3.797  11.285  0.2190 -0.1140  0.5331
    2MPD1    C114112   0.260   3.715  11.199  0.1920  0.2069  0.3419
    2MPD1    C214113   0.253   3.575  11.213  0.0553 -0.0346  0.2087
    2MPD1    C314114   0.338   3.522  11.310 -0.0756 -0.3880 -0.4266
    2MPD1    C414115   0.407   3.609  11.394 -0.5088  0.0458  0.2362
    2MPD1    C514116   0.406   3.742  11.389  0.0472 -0.6833 -0.0137
    2MPD1     H14117   0.197   3.512  11.146  3.8378 -0.9396 -2.0952
    2MPD1    H114118   0.469   3.568  11.473 -0.7332 -0.2209  0.2770
    2MPD1    H214119   0.346   3.905  11.277  1.4467 -0.3615 -0.9884
    2MPD1    H314120   0.466   3.803  11.456  0.9027 -2.0890  0.5036
    2MPD1     N14121   0.361   3.382  11.304 -0.5299 -0.7843 -0.0340
    2MPD1    H514122   0.303   3.326  11.242 -0.1779 -0.5721 -0.5566
    2MPD1    N114123   0.191   3.776  11.089  0.1827 -0.0094  1.1922
    2MPD1    H614124   0.147   3.715  11.021 -0.1892  2.1486 -0.5175
    2MPD1    H714125   0.249   3.851  11.052  0.9436 -1.9738 -1.5532
    1TMC1    C114126   3.806   3.002   1.285  0.5242  0.4979 -0.0060
    1TMC1    C214127   3.897   2.960   1.198  0.0401 -0.6683  0.2560
    1TMC1    C314128   3.915   2.827   1.184 -0.0758 -0.1245  0.1544
    1TMC1    C414129   3.723   2.915   1.350 -0.1632  0.3987  0.0485
    1TMC1    C514130   3.746   2.780   1.331 -0.0182 -0.8967  0.1881
    1TMC1    C614131   3.846   2.734   1.251 -0.0624  0.1396 -0.1477
    1TMC1     C14132   3.791   3.149   1.299  0.4027  1.4094 -0.5750
    1TMC1     O14133   3.850   3.211   1.211  0.0758  0.0527 -0.7682
    1TMC1     H14134   3.957   3.031   1.143  0.7886 -1.8474 -0.4430
    1TMC1    H114135   3.650   2.941   1.425 -1.6493 -2.8983 -0.2500
    1TMC1    H214136   3.876   2.632   1.229  0.5752  0.3638 -0.3403
    1TMC1    C714137   3.672   2.698   1.417 -0.0508  0.6564 -0.1399
    1TMC1    C814138   4.002   2.784   1.080 -0.3174 -0.4320  0.4214
    1TMC1    O114139   3.550   2.690   1.393 -0.0243  0.1971 -0.1954
    1TMC1    O214140   3.972   2.688   1.011  0.2355 -0.4563 -0.7991
    1TMC1    O314141   3.752   2.588   1.438  0.2626  0.2857 -0.5080
    1TMC1    H314142   3.845   2.618   1.450  0.0107  0.4938  0.8924
    1TMC1    O514143   4.117   2.790   1.147  0.3007 -0.4372 -0.0125
    1TMC1    H514144   4.118   2.857   1.219  3.3403 -0.8110  0.3090
    2MPD1     C14145   3.668   3.590   1.529  0.0803 -0.5698 -0.6927
    2MPD1    C114146   3.630   3.483   1.607  0.0477 -0.1874 -0.7196
    2MPD1    C214147   3.662   3.355   1.570 -0.6625  0.1354 -0.5519
    2MPD1    C314148   3.717   3.329   1.445 -0.5373  0.0760 -0.5138
    2MPD1    C414149   3.733   3.440   1.356  0.1221 -0.2269 -0.1512
    2MPD1    C514150   3.714   3.570   1.405  0.0051 -0.1873  0.1930
    2MPD1     H14151   3.651   3.267   1.633 -0.4937  1.6566  1.6108
    2MPD1    H114152   3.763   3.429   1.253 -1.2858 -1.3331 -0.4510
    2MPD1    H214153   3.656   3.695   1.556  0.0381 -0.9574  0.8192
    2MPD1    H314154   3.736   3.658   1.345  1.6460  0.6812  2.0818
    2MPD1     N14155   3.735   3.196   1.415 -0.0943  0.4665 -0.4674
    2MPD1    H514156   3.702   3.131   1.486  0.9467 -2.4502 -2.6854
    2MPD1    N114157   3.594   3.496   1.738  0.3140 -0.0419 -0.1952
    2MPD1    H614158   3.518   3.431   1.757 -0.9819  1.4908 -0.1415
    2MPD1    H714159   3.552   3.589   1.748  0.1925 -0.0204 -0.9088
    1MPD1     C14160   2.162   1.810  12.355 -0.3397  0.0855  0.0669
    1MPD1    C114161   2.300   1.840  12.346  0.0216  0.1986 -0.2894
    1MPD1    C214162   2.338   1.959  12.403  0.8519 -0.0342 -0.7357
    1MPD1    C314163   2.253   2.052  12.465 -0.7053 -0.4976 -0.0350
    1MPD1    C414164   2.120   2.018  12.459  0.1660  0.1639 -0.2441
    1MPD1    C514165   2.073   1.900  12.405 -0.2400  0.5891 -0.8717
    1MPD1     H14166   2.442   1.988  12.395  1.0442 -0.5940 -0.1989
    1MPD1    H114167   2.035   2.083  12.475 -1.7252 -2.3143 -0.1000
    1MPD1    H214168   2.116   1.715  12.331  0.0219  0.1447 -0.8562
    1MPD1    H314169   1.968   1.876  12.406 -0.2200  0.5875  1.2970
    1MPD1     N14170   2.302   2.173  12.524  0.3892  0.2635  0.3560
    1MPD1    H514171   2.401   2.191  12.533  0.6236 -0.3700 -0.9401
    1MPD1    N114172   2.387   1.731  12.322 -0.1147  0.1920 -0.6883
    1MPD1    H614173   2.478   1.756  12.283  1.1727  0.4869  2.5336
    1MPD1    H714174   2.341   1.672  12.253  3.8701 -1.4617 -1.8815
    2MPD1     C14175   0.978   3.370  11.411  0.7376 -0.2188  0.9406
    2MPD1    C114176   1.072   3.438  11.486  0.9363 -0.0357  0.1188
    2MPD1    C214177   1.209   3.430  11.447 -0.0650 -0.0551  0.1794
    2MPD1    C314178   1.249   3.373  11.333  0.7873 -0.0663  0.3724
    2MPD1    C414179   1.151   3.316  11.254 -0.1515  0.1329  0.3850
    2MPD1    C514180   1.018   3.325  11.288  0.3844 -0.5293 -0.0227
    2MPD1     H14181   1.283   3.479  11.510  0.4592 -1.6392  0.7996
    2MPD1    H114182   1.191   3.275  11.162  1.5749 -0.4358  1.3836
    2MPD1    H214183   0.877   3.355  11.447  0.3664  0.7629  0.2983
    2MPD1    H314184   0.941   3.273  11.232  0.8878 -0.1627 -1.0635
    2MPD1     N14185   1.383   3.366  11.290 -0.5694 -0.0966  0.1256
    2MPD1    H514186   1.411   3.355  11.193 -1.1857  2.9911 -0.3897
    2MPD1    N114187   1.028   3.499  11.604 -0.4145  0.2295 -0.4753
    2MPD1    H614188   1.092   3.565  11.650 -0.0005 -0.9273  0.6167
    2MPD1    H714189   0.932   3.532  11.607 -0.9828 -1.4687 -0.3893
    3MPD1     C14190   1.631   2.958  10.610  0.0224  0.3317 -0.2063
    3MPD1    C114191   1.537   2.937  10.712  0.0482  0.7884 -0.4463
    3MPD1    C214192   1.561   3.003  10.833  0.8293 -0.5138  0.1912
    3MPD1    C314193   1.664   3.089  10.850 -0.1248 -0.2560  0.3145
    3MPD1    C414194   1.750   3.108  10.741  1.1305 -0.0512 -0.4264
    3MPD1    C514195   1.741   3.033  10.626  0.6406 -0.6703  0.6164
    3MPD1     H14196   1.495   2.978  10.915  0.7387  0.5717  0.4444
    3MPD1    H114197   1.828   3.183  10.744  0.3133  0.6582  3.0741
    3MPD1    H214198   1.631   2.894  10.523  0.9122  0.8300 -0.5756
    3MPD1    H314199   1.800   3.045  10.536  1.1783 -2.0611  0.7832
    3MPD1     N14200   1.670   3.157  10.972  0.2056 -0.4318 -0.8404
    3MPD1    H514201   1.608   3.125  11.046  0.2870 -0.0282 -0.6021
    3MPD1    N114202   1.451   2.827  10.702 -0.2644  0.1093  0.2427
    3MPD1    H614203   1.388   2.836  10.782 -1.5040 -0.0494 -0.7107
    3MPD1    H714204   1.397   2.829  10.615 -2.0748  0.9348  1.3787
    4MPD2     C14205   2.054   2.940  12.633 -0.8676 -0.4229 -0.6918
    4MPD2    C114206   2.174   2.897  12.591  0.2581 -0.4878 -0.3439
    4MPD2    C214207   2.244   2.976  12.499  1.0751  0.1516  0.3709
    4MPD2    C314208   2.174   3.076  12.429 -0.3412  0.0530  0.1875
    4MPD2    C414209   2.049   3.109  12.466  0.5518 -0.2324  0.4761
    4MPD2    C514210   1.991   3.040  12.568 -0.4396  0.6252  0.7123
    4MPD2     H14211   2.345   2.947  12.473  0.4175  0.0413 -2.0360
    4MPD2    H114212   1.986   3.186  12.424 -0.7766 -2.1689 -1.0644
    4MPD2    H214213   1.996   2.889  12.709  0.6765  0.7475  1.2889
    4MPD2    H314214   1.885   3.044  12.589 -0.6434  0.1482 -0.2055
    4MPD2     N14215   2.239   3.128  12.311 -0.6275 -0.2564 -0.3912
    4MPD2    H514216   2.337   3.106  12.295 -0.0042  1.4329  1.0443
    4MPD2    N114217   2.238   2.790  12.644 -0.7170  0.5813 -0.3004
    4MPD2    H714218   2.332   2.772  12.611 -0.5861 -0.2863  0.5243
    5TMC3    C114219   2.289   2.581  12.734  0.3057 -0.2141  0.7438
    5TMC3    C214220   2.233   2.465  12.710 -0.1284 -0.2006 -0.6989
    5TMC3    C314221   2.293   2.383  12.619 -0.1784  0.0831  0.0765
    5TMC3    C414222   2.409   2.608  12.667 -0.4065 -0.4693  0.8833
    5TMC3    C514223   2.468   2.528  12.570 -0.1300  0.7456 -0.0451
    5TMC3    C614224   2.407   2.413  12.547 -0.3729 -0.1620  0.1182
    5TMC3     C14225   2.190   2.690  12.727 -0.2389 -0.7303 -0.5382
    5TMC3     O14226   2.074   2.669  12.764 -0.2587  0.4814  0.1939
    5TMC3     H14227   2.138   2.439  12.754  0.8004 -0.4314  1.1624
    5TMC3    H114228   2.460   2.698  12.702  0.4032 -1.1854  1.5793
    5TMC3    H214229   2.398   2.378  12.445  1.7714  1.8084 -0.7530
    5TMC3    C714230   2.497   2.612  12.457  0.4814  0.1795 -0.1471
    5TMC3    C814231   2.217   2.266  12.571  0.3587 -0.2794 -0.6319
    5TMC3    O114232   2.438   2.722  12.458  0.0405 -0.3696  0.1938
    5TMC3    O214233   2.097   2.275  12.563 -0.5343 -0.8118 -0.5510
    6TMC3    C114234   1.608   3.416  11.288 -0.2253 -0.2501 -0.3145
    6TMC3    C214235   1.624   3.345  11.171 -0.2647  0.4935  0.2489
    6TMC3    C314236   1.750   3.325  11.124  0.1674  0.1740  0.5246
    6TMC3    C414237   1.725   3.471  11.351  0.4202  0.9716  0.2641
    6TMC3    C514238   1.846   3.474  11.282 -0.7202  1.1029 -0.1346
    6TMC3    C614239   1.861   3.397  11.166  0.9120  0.2679 -0.0994
    6TMC3     C14240   1.490   3.404  11.364  0.6197 -0.1007 -0.0911
    6TMC3     O14241   1.504   3.421  11.487  0.0691 -0.4742 -0.3091
    6TMC3     H14242   1.542   3.287  11.132  1.6276 -0.5348 -2.1622
    6TMC3    H114243   1.717   3.527  11.443 -0.3699  1.2495  0.0289
    6TMC3    H214244   1.953   3.406  11.110  0.5723 -0.3607 -0.7569
    6TMC3    C714245   1.955   3.503  11.374 -0.1673  0.7905 -0.0783
    6TMC3    C814246   1.766   3.247  10.997 -0.3172  0.4541 -0.4317
    6TMC3    O114247   1.926   3.541  11.489 -0.0024  0.0294 -0.1762
    6TMC3    O214248   1.862   3.290  10.931 -0.3479 -0.2181  0.1154
    7MPD2     C14249   2.542   2.674  11.949 -1.0169  0.2851 -0.0501
    7MPD2    C114250   2.529   2.766  12.050  0.1871 -0.8596 -0.1013
    7MPD2    C214251   2.538   2.717  12.180 -0.6911 -0.6835  0.5052
    7MPD2    C314252   2.552   2.586  12.217 -0.3739  0.2757  0.3699
    7MPD2    C414253   2.581   2.500  12.114 -0.1388  0.1112  0.1774
    7MPD2    C514254   2.568   2.545  11.986  0.5476  0.3201  0.0122
    7MPD2     H14255   2.505   2.784  12.258  0.0452  0.1739  0.0767
    7MPD2    H114256   2.579   2.393  12.130 -0.2803  0.3900  1.9851
    7MPD2    H214257   2.529   2.683  11.841  0.2240  0.7034 -0.1626
    7MPD2    H314258   2.576   2.471  11.907  1.0533 -0.7027  1.0211
    7MPD2     N14259   2.541   2.540  12.348  0.3323 -0.1303 -0.5184
    7MPD2    H514260   2.578   2.449  12.373 -0.6552 -0.6783 -1.0345
    7MPD2    N114261   2.497   2.905  12.043  0.1448 -0.1592  0.1179
    7MPD2    H714262   2.491   2.957  12.129 -0.5715  1.5652 -0.9842
    8TMC3    C114263   2.399   3.094  11.965  0.2988  0.2448  1.1255
    8TMC3    C214264   2.399   3.197  11.878  0.1950 -0.7557 -0.1771
    8TMC3    C314265   2.342   3.315  11.912  0.4997  0.3433  0.3613
    8TMC3    C414266   2.331   3.090  12.079 -0.3414 -0.0971 -0.4001
    8TMC3    C514267   2.261   3.205  12.102 -0.2826 -0.1805  0.5846
    8TMC3    C614268   2.266   3.319  12.021  0.2974 -0.4556 -0.1112
    8TMC3     C14269   2.460   2.970  11.927  0.6662  0.1411 -0.3568
    8TMC3     O14270   2.485   2.938  11.810 -0.1841 -0.5326  0.0947
    8TMC3     H14271   2.442   3.189  11.779  0.7437 -1.9278  0.1653
    8TMC3    H114272   2.302   2.993  12.119 -0.8450 -0.8334 -2.5089
    8TMC3    H214273   2.221   3.416  12.042 -1.9697 -1.4172 -0.6091
    8TMC3    C714274   2.182   3.210  12.219 -0.0145 -0.2877  0.3321
    8TMC3    C814275   2.290   3.395  11.802 -0.4390  0.2163 -0.1603
    8TMC3    O114276   2.066   3.248  12.213  0.5272  0.2008 -0.2370
    8TMC3    O214277   2.174   3.439  11.815  0.5660  0.3781 -0.0383
    9MPD2     C14278   2.452   3.451  11.474  0.1242  0.5143  0.6326
    9MPD2    C114279   2.346   3.446  11.562 -0.8111 -0.4073 -0.3517
    9MPD2    C214280   2.222   3.465  11.505  0.6720  1.4190  0.2117
    9MPD2    C314281   2.208   3.501  11.371 -0.8602  0.2949  0.5294
    9MPD2    C414282   2.315   3.521  11.284  0.3142 -0.3035  0.5735
    9MPD2    C514283   2.435   3.489  11.342 -0.7911  0.0143 -0.2894
    9MPD2     H14284   2.133   3.451  11.566  0.8637 -1.9974 -0.3158
    9MPD2    H114285   2.306   3.552  11.181 -0.9245 -1.8853  0.2013
    9MPD2    H214286   2.553   3.422  11.498  0.1730 -0.9871 -1.4331
    9MPD2    H314287   2.525   3.489  11.283 -0.7378 -0.0492 -0.2080
    9MPD2     N14288   2.078   3.499  11.307 -0.7601 -0.0761 -0.1340
    9MPD2    H514289   2.077   3.505  11.205 -0.4181  1.3169 -0.0604
    9MPD2    N114290   2.373   3.401  11.699  0.0472 -0.7717 -0.9976
    9MPD2    H714291   2.469   3.370  11.702  0.4411  0.3527 -1.9607
    1MPD1     C14292   1.748   2.074  16.243  0.3619 -0.3267  0.1694
    1MPD1    C114293   1.828   2.189  16.247 -1.1792  0.2380 -0.1139
    1MPD1    C214294   1.772   2.315  16.223 -0.4025  0.0477 -0.0008
    1MPD1    C314295   1.627   2.322  16.220  0.1427  0.0572 -0.0717
    1MPD1    C414296   1.546   2.209  16.214 -0.2831 -0.3942 -0.4882
    1MPD1    C514297   1.611   2.092  16.230 -0.2774 -0.4042  0.3796
    1MPD1     H14298   1.835   2.402  16.207 -1.5815  0.9511  0.3189
    1MPD1    H114299   1.438   2.213  16.210 -0.2268  0.5374 -1.1446
    1MPD1    H214300   1.791   1.976  16.261  0.6577 -0.3891 -0.8888
    1MPD1    H314301   1.550   2.002  16.228  0.1019 -0.6388 -0.5107
    1MPD1     N14302   1.556   2.445  16.223 -0.4669  0.1685  0.4952
    1MPD1    H514303   1.457   2.426  16.211 -0.2032  0.6983 -2.5478
    1MPD1    N114304   1.968   2.183  16.255  0.2767  0.4574  0.3445
    1MPD1    H614305   1.988   2.241  16.336 -0.5771 -0.4916  1.2321
    1MPD1    H714306   1.989   2.087  16.281 -1.8532 -0.8436 -2.7565
    2TMC2    C114307   1.477   2.881  16.400  0.5548  0.0418  0.4434
    2TMC2    C214308   1.368   2.910  16.318  0.3553 -0.2123  0.0015
    2TMC2    C314309   1.335   2.809  16.227 -0.0387  0.5723  0.0107
    2TMC2    C414310   1.554   2.764  16.391 -0.0669  0.9575 -0.0004
    2TMC2    C514311   1.516   2.670  16.302  0.2548  0.1263 -0.0114
    2TMC2    C614312   1.413   2.693  16.216  0.1407  0.4970  0.0968
    2TMC2     C14313   1.521   2.990  16.479 -0.1095  0.2488 -0.3719
    2TMC2     O14314   1.471   3.095  16.461  0.7711  0.5287  0.3741
    2TMC2     H14315   1.305   2.994  16.346  2.4936  0.7050  2.0751
    2TMC2    H114316   1.643   2.737  16.447  1.5068  0.9285 -2.5546
    2TMC2    H214317   1.391   2.623  16.136 -1.3091 -0.7305  1.5763
    2TMC2    C714318   1.616   2.567  16.268 -0.1499 -0.3927  0.7877
    2TMC2    C814319   1.210   2.792  16.156 -0.3613 -0.1818  0.4429
    2TMC2    O114320   1.728   2.598  16.294  0.3772 -0.5402 -0.4557
    2TMC2    O214321   1.162   2.681  16.139 -0.0990  0.2428  0.0506
    2TMC2    O514322   1.138   2.903  16.149 -0.1057  0.3897 -0.1383
    2TMC2    H514323   1.180   2.988  16.174 -0.8207  0.8747 -0.5963
    3MPD1     C14324   1.834   3.205  16.849 -0.5432 -0.1275  0.0289
    3MPD1    C114325   1.818   3.070  16.879  0.8985 -0.3799 -0.1739
    3MPD1    C214326   1.732   2.999  16.790 -0.3366 -0.3323 -0.3134
    3MPD1    C314327   1.670   3.048  16.673 -0.1272 -0.3388 -0.5178
    3MPD1    C414328   1.692   3.185  16.651 -0.0044 -0.4406 -0.7734
    3MPD1    C514329   1.768   3.257  16.737  0.1058 -0.2461  0.4993
    3MPD1     H14330   1.709   2.894  16.806  0.7254 -0.8263 -1.9798
    3MPD1    H114331   1.654   3.240  16.565 -0.5624  0.7908  0.2627
    3MPD1    H214332   1.888   3.273  16.914 -0.6455  0.4622 -0.4997
    3MPD1    H314333   1.782   3.364  16.720 -0.1731 -0.0441  1.5544
    3MPD1     N14334   1.603   2.956  16.586  0.3297  0.1555  0.3453
    3MPD1    H514335   1.610   2.857  16.608  1.5904  0.4507  1.2740
    3MPD1    N114336   1.873   3.010  16.995 -0.2191 -0.0873  0.0972
    3MPD1    H614337   1.889   2.910  17.003  1.2858  0.0319 -1.3455
    3MPD1    H714338   1.947   3.065  17.037  1.1048 -0.9348 -1.1103
    1TMC1    C114339   4.521   1.478  13.274  0.6648  0.2516 -0.0027
    1TMC1    C214340   4.496   1.610  13.241  0.0425 -0.2592  0.0942
    1TMC1    C314341   4.378   1.673  13.282  0.0336  0.1361 -0.4629
    1TMC1    C414342   4.431   1.403  13.342  0.6255 -0.5580  0.3906
    1TMC1    C514343   4.315   1.467  13.379 -0.1599  0.4593  0.0905
    1TMC1    C614344   4.285   1.599  13.354  0.8747 -0.1090  0.2983
    1TMC1     C14345   4.611   1.404  13.192  0.1377  0.0215  0.0378
    1TMC1     O14346   4.578   1.295  13.159 -0.4172  0.2091  0.6224
    1TMC1     H14347   4.556   1.664  13.168 -2.1583  2.4126  0.2702
    1TMC1    H114348   4.449   1.298  13.363  2.6279 -0.8026 -2.4540
    1TMC1    H214349   4.186   1.644  13.366  0.9299  0.1692 -0.2920
    1TMC1    C714350   4.216   1.380  13.425 -0.1694  0.3391 -0.7556
    1TMC1    C814351   4.377   1.817  13.265 -0.3946 -0.6134 -0.0714
    1TMC1    O114352   4.138   1.408  13.514 -0.3324  0.3712  0.5845
    1TMC1    O214353   4.480   1.877  13.242 -0.3169  0.5968 -0.0481
    1TMC1    O314354   4.217   1.261  13.356 -0.3219 -0.4911 -0.1121
    1TMC1    H314355   4.269   1.276  13.274 -0.1187  1.2104  0.3371
    1TMC1    O514356   4.246   1.850  13.230 -0.4424  0.4406 -0.6585
    1TMC1    H514357   4.189   1.774  13.204 -0.6281  0.1127  0.7131
    2MPD2     C14358   0.094   1.329  12.996 -0.1097  0.5545  0.4497
    2MPD2    C114359   0.101   1.435  13.084 -0.2909  0.6683  0.3815
    2MPD2    C214360   0.214   1.515  13.083 -0.9527 -0.7013 -0.8848
    2MPD2    C314361   0.316   1.487  12.996  0.3425  0.1117 -0.1868
    2MPD2    C414362   0.306   1.385  12.901  0.1871  0.8882  0.6776
    2MPD2    C514363   0.199   1.302  12.913  0.0883 -0.8163 -0.0838
    2MPD2     H14364   0.233   1.599  13.149  0.3984  0.0535 -2.2491
    2MPD2    H114365   0.386   1.354  12.835 -0.7658 -0.5400  0.1888
    2MPD2    H214366   0.015   1.255  12.994  2.1569 -1.8143 -0.7554
    2MPD2    H314367   0.185   1.219  12.844 -0.5641  1.8490 -3.1460
    2MPD2     N14368   0.441   1.558  13.014 -0.1833  0.4929  0.2270
    2MPD2    H514369   0.436   1.623  13.092 -0.2780  0.1212  0.5348
    2MPD2    N114370   4.720   1.476  13.160 -0.1818 -0.2414 -0.2866
    2MPD2    H714371   0.001   1.565  13.207 -0.4079  0.6378 -1.8815
    3TCq1    O114372   1.073   1.796  12.913 -0.0532  0.4264 -0.0942
    3TCq1    C114373   0.953   1.779  12.868 -0.3394 -0.0250 -0.8258
    3TCq1    O214374   0.910   1.812  12.758 -0.1071 -0.6730  0.1689
    3TCq1    C214375   0.865   1.719  12.965  0.0441 -0.0552  0.2153
    3TCq1    C314376   0.879   1.734  13.099  0.7949  0.5981 -0.9591
    3TCq1    C414377   0.785   1.679  13.177  0.1976 -0.1825 -0.2875
    3TCq1    C514378   0.683   1.609  13.124  0.1204 -0.6667  0.0352
    3TCq1    C614379   0.672   1.602  12.991 -0.2369 -0.7274  0.2523
    3TCq1    C714380   0.759   1.662  12.902 -0.8087 -0.6715  0.0667
    3TCq1    C814381   0.556   1.542  12.939 -1.0718 -0.4740 -0.2406
    3TCq1    O414382   0.558   1.496  12.824  0.0229  0.8507  0.0739
    3TCq1    C914383   0.797   1.685  13.318  0.1751  0.0649 -0.0390
    3TCq1    O514384   0.861   1.780  13.366  0.0933 -0.0318 -0.0166
    3TCq1    O614385   0.741   1.592  13.389 -0.5366 -0.1685 -0.2584
    3TCq1    H114386   1.100   1.734  12.983  2.8696  1.4255 -0.3225
    3TCq1    H214387   0.961   1.788  13.144 -0.3871  1.3876  0.2542
    3TCq1    H314388   0.620   1.564  13.199 -2.7087  0.9187 -1.3794
    3TCq1    H414389   0.742   1.665  12.795  1.9519 -0.5806 -0.3880
    1MPD2     C14390   0.379   2.025  14.720 -0.3832  0.2847 -0.2388
    1MPD2    C114391   0.290   1.926  14.772  0.5292  0.0682  0.2176
    1MPD2    C214392   0.336   1.798  14.781 -0.0159  0.6571  0.0984
    1MPD2    C314393   0.462   1.766  14.735 -1.2266  0.3488 -0.1447
    1MPD2    C414394   0.553   1.867  14.697 -0.0845 -0.4016  0.0076
    1MPD2    C514395   0.505   1.991  14.690  0.2629 -0.4904  0.1705
    1MPD2     H14396   0.267   1.722  14.814 -2.2475  2.7057  0.1163
    1MPD2    H114397   0.657   1.855  14.669 -0.5319 -1.2888 -1.2848
    1MPD2    H214398   0.344   2.126  14.702  1.6909  0.6478 -2.1535
    1MPD2    H314399   0.559   2.079  14.655 -0.1791 -0.5095 -0.5510
    1MPD2     N14400   0.506   1.628  14.729 -0.6021  0.0600 -0.5625
    1MPD2    H514401   0.605   1.612  14.717 -1.1847 -2.7543 -1.5725
    1MPD2    N114402   0.155   1.964  14.801  0.6285 -0.7349  0.1703
    1MPD2    H714403   0.127   2.061  14.792 -0.9418 -1.3196 -1.3916
    2TMC3    C114404   4.660   1.934  14.873 -0.0833  0.0416 -0.4484
    2TMC3    C214405   4.585   1.834  14.924  0.0873  0.3515  0.4183
    2TMC3    C314406   4.458   1.810  14.873 -0.2281 -0.6591  0.0475
    2TMC3    C414407   4.606   2.022  14.777 -0.0165 -0.4077 -0.2811
    2TMC3    C514408   4.476   1.993  14.734  0.7456 -0.1472 -0.5981
    2TMC3    C614409   4.407   1.879  14.770  0.0073  1.0532  0.4360
    2TMC3     C14410   0.056   1.883  14.842 -0.1706 -0.1324 -0.1729
    2TMC3     O14411   0.047   1.764  14.856  0.2066 -0.5474 -0.3860
    2TMC3     H14412   4.624   1.768  15.001 -1.5726  1.3974  2.1667
    2TMC3    H114413   4.675   2.084  14.722  0.1986 -1.9527 -1.7684
    2TMC3    H214414   4.315   1.857  14.717 -0.6363  1.1330  1.5335
    2TMC3    C714415   4.415   2.107  14.658  0.7184 -0.0974  0.3538
    2TMC3    C814416   4.432   1.665  14.876 -0.1606 -0.1807  0.1467
    2TMC3    O114417   4.334   2.086  14.575  0.2900 -0.2618  0.0981
    2TMC3    O214418   4.316   1.620  14.883  0.0540  0.4425 -0.4115
    3TCq1    O114419   0.093   3.307  14.857  0.2194  0.0099 -0.7310
    3TCq1    C114420   4.699   3.259  14.855  0.4862  0.4168  0.2150
    3TCq1    O214421   4.610   3.323  14.805 -0.1824  0.1379 -0.1313
    3TCq1    C214422   4.698   3.113  14.879 -0.2853  0.7667  0.3183
    3TCq1    C314423   0.043   3.048  14.971 -0.4420  0.2973  0.1690
    3TCq1    C414424   0.036   2.911  14.981  0.6197  1.0767 -0.5246
    3TCq1    C514425   4.694   2.837  14.895  0.2577 -0.0182  0.1265
    3TCq1    C614426   4.618   2.906  14.800 -0.1675  0.9958  0.0205
    3TCq1    C714427   4.619   3.042  14.791  0.4693  0.0272 -0.6434
    3TCq1    C814428   4.530   2.829  14.718  0.2419  0.4946  0.4913
    3TCq1    O414429   4.436   2.885  14.671  0.0735  0.6412  0.4193
    3TCq1    C914430   0.129   2.843  15.075 -0.0585  0.0438  0.1002
    3TCq1    O514431   0.118   2.717  15.073  0.6694 -0.2151 -0.7164
    3TCq1    O614432   0.171   2.915  15.170  0.0249 -0.5309  0.2719
    3TCq1    H114433   0.157   3.241  14.891  2.2342 -0.4642 -5.4264
    3TCq1    H214434   0.098   3.104  15.045  3.5296 -0.7781 -1.9820
    3TCq1    H314435   4.695   2.729  14.907  1.5541 -0.0970 -0.5947
    3TCq1    H414436   4.565   3.093  14.711 -1.0334 -0.3984  0.1018
    4MPD2     C14437   4.350   2.616  14.597  0.2134  0.0894  0.5399
    4MPD2    C114438   4.466   2.596  14.670 -0.1957 -0.1584 -0.5419
    4MPD2    C214439   4.501   2.465  14.701 -0.3075 -0.2937  0.1703
    4MPD2    C314440   4.432   2.354  14.667  0.5461  0.0846 -0.1784
    4MPD2    C414441   4.310   2.383  14.603 -0.3535 -0.1819 -1.0232
    4MPD2    C514442   4.276   2.509  14.566  0.3007 -0.8180 -0.8100
    4MPD2     H14443   4.590   2.448  14.761  1.0927 -1.4936 -2.2422
    4MPD2    H114444   4.241   2.302  14.581 -0.2864  0.0099 -1.9585
    4MPD2    H214445   4.308   2.713  14.576  1.0702  0.2390 -0.4543
    4MPD2    H314446   4.177   2.523  14.523 -0.1027  0.2247  0.4869
    4MPD2     N14447   4.470   2.227  14.711 -0.0158 -0.0309  0.1390
    4MPD2    H514448   4.544   2.219  14.780  0.6160 -1.1988 -0.6561
    4MPD2    N114449   4.551   2.695  14.721 -0.1570 -0.3085  0.6050
    4MPD2    H714450   4.637   2.667  14.767  0.2932  0.2868  0.1124
    5TMC2    C114451   0.363   1.192  14.821 -0.5712 -0.5199  0.4019
    5TMC2    C214452   0.464   1.163  14.907  0.1718 -0.5699  0.1588
    5TMC2    C314453   0.559   1.259  14.920  0.7137 -0.5017  0.8151
    5TMC2    C414454   0.371   1.300  14.739 -0.0821 -0.5027  0.6328
    5TMC2    C514455   0.472   1.390  14.743 -0.4756  0.2005 -0.8611
    5TMC2    C614456   0.572   1.367  14.835  0.5290  0.0702 -0.1442
    5TMC2     C14457   0.236   1.170  14.876 -0.0087  0.4510 -0.0882
    5TMC2     O14458   0.221   1.085  14.962  0.5120  0.3155  0.5321
    5TMC2     H14459   0.482   1.070  14.961  2.1478  0.1179  0.6993
    5TMC2    H114460   0.293   1.314  14.665 -0.6312 -1.7223  0.9764
    5TMC2    H214461   0.655   1.437  14.841 -1.1445  2.1079 -1.0925
    5TMC2    C714462   0.421   1.525  14.750  0.3673 -0.1465  0.3478
    5TMC2    C814463   0.677   1.230  15.008  0.2065  0.3140  0.3908
    5TMC2    O114464   0.298   1.521  14.734 -0.1129  0.4911 -0.5677
    5TMC2    O214465   0.795   1.252  14.983 -0.2116  0.2279 -0.0219
    5TMC2    O514466   0.621   1.230  15.126 -0.3173  0.5962  0.3218
    5TMC2    H514467   0.525   1.249  15.115 -0.1462  1.7253  0.7629
    6MPD2     C14468   4.485   1.365  14.906 -0.4510 -0.1728  0.6525
    6MPD2    C114469   4.579   1.461  14.871 -0.5230  0.8570  0.6712
    6MPD2    C214470   4.713   1.430  14.851  1.2020  0.7459  0.9175
    6MPD2    C314471   0.025   1.306  14.878  0.0059 -0.2541  0.5614
    6MPD2    C414472   4.672   1.211  14.926  0.3131 -0.6688  0.1209
    6MPD2    C514473   4.534   1.235  14.937  1.3826  0.6852 -0.3152
    6MPD2     H14474   0.050   1.501  14.810  1.9188 -0.2168  0.4674
    6MPD2    H114475   4.708   1.112  14.949  1.0157 -0.3183  0.5232
    6MPD2    H214476   4.383   1.393  14.928 -0.3580  1.1419 -0.6065
    6MPD2    H314477   4.465   1.155  14.963 -0.3116  3.0267  2.3629
    6MPD2     N14478   0.162   1.282  14.856 -0.4782 -0.1574 -0.0706
    6MPD2    H514479   0.208   1.356  14.804  1.5688 -2.5556 -1.6522
    6MPD2    N114480   4.551   1.596  14.853  0.0762  0.2317 -0.1212
    6MPD2    H714481   4.628   1.660  14.835  0.7145 -0.7973 -0.9850
  945NH3     N114482   1.766   1.100   2.103 -0.4588 -0.6109 -0.4683
  945NH3     H214483   1.708   1.032   2.153 -0.3613  1.4798  2.4997
  945NH3     H314484   1.805   1.170   2.165  1.1388  0.3665 -2.5999
  945NH3     H414485   1.692   1.159   2.066 -1.1389 -0.7367  0.6843
  946SOD     NA14486   1.558   1.901  14.478 -0.1208 -0.3629 -0.7202
  947SOD     NA14487   0.423   2.580  11.299 -0.1747  0.0434 -0.4502
  948SOD     NA14488   4.274   4.672   4.962 -0.5437 -0.1478 -0.3020
  949SOD     NA14489   0.200   2.998   1.028  0.4360  0.1177  0.1524
  950SOD     NA14490   1.776   2.752  13.060  0.3318 -0.2397 -0.0100
  951SOD     NA14491   2.938   2.007   5.962  0.2069  0.3845 -0.5535
  952SOD     NA14492   4.267   4.096  16.819 -0.0119  0.4916 -0.1398
  953SOD     NA14493   4.197   0.815  15.426  0.2643  0.1511 -0.0271
  954SOL     OW14494   2.737   4.259   3.531 -0.3894  0.0669  0.5189
  954SOL    HW114495   2.649   4.224   3.516  0.9581 -3.2199  0.4584
  954SOL    HW214496   2.708   4.349   3.546 -1.3548 -0.6135  2.7878
  955SOL     OW14497   0.378   0.103   9.570  0.2398 -0.0196 -0.1021
  955SOL    HW114498   0.470   0.115   9.592 -0.0156  0.2749  0.7917
  955SOL    HW214499   0.364   0.017   9.529  0.9003 -0.5571  0.7975
  956SOL     OW14500   3.522   3.821   4.516 -0.5624  0.0260  0.1059
  956SOL    HW114501   3.569   3.739   4.501  0.9417  0.8927  0.1218
  956SOL    HW214502   3.529   3.814   4.611  0.9107 -0.6578 -0.0590
  957SOL     OW14503   0.289   0.275   3.762 -0.3684 -0.0204  0.4712
  957SOL    HW114504   0.291   0.308   3.672 -1.5782  1.8365  1.1171
  957SOL    HW214505   0.235   0.199   3.741  2.6937 -2.0272 -0.1398
  958SOL     OW14506   1.520   2.215   8.492 -0.2248  0.1142  0.1652
  958SOL    HW114507   1.562   2.248   8.571 -0.7810  0.7241  0.1996
  958SOL    HW214508   1.437   2.259   8.507 -0.2460  1.1445 -3.1212
  959SOL     OW14509   4.645   1.778   4.109  0.0984 -0.5730  0.3692
  959SOL    HW114510   4.609   1.730   4.184 -0.0087 -0.5531  0.3314
  959SOL    HW214511   4.589   1.755   4.035 -0.6078 -0.6394  0.9225
  960SOL     OW14512   2.259   4.423  14.384 -0.4624  0.6517  0.4545
  960SOL    HW114513   2.193   4.484  14.416 -2.5016 -2.2992  1.8869
  960SOL    HW214514   2.247   4.438  14.290 -0.5861 -1.0172  0.2037
  961SOL     OW14515   1.804   1.965  11.852  0.0619 -0.2795 -0.6179
  961SOL    HW114516   1.772   1.986  11.765  0.1473  0.1141 -0.5570
  961SOL    HW214517   1.877   1.906  11.833 -0.2481 -0.5218 -1.0305
  962SOL     OW14518   4.683   3.831   6.904  0.2373 -0.2985 -0.0921
  962SOL    HW114519   4.732   3.751   6.887  2.2135  1.1029 -0.9961
  962SOL    HW214520   4.700   3.843   6.997 -0.7550 -0.1123  0.0640
  963SOL     OW14521   2.291   0.988   4.545  0.2765  0.1181  0.6677
  963SOL    HW114522   2.235   1.064   4.561 -1.6626 -0.8016 -1.7595
  963SOL    HW214523   2.320   0.970   4.634  3.2221  1.6952  0.0649
  964SOL     OW14524   4.390   3.013   5.339  0.2166  0.0371 -0.0769
  964SOL    HW114525   4.475   3.024   5.382  0.3589 -0.5619 -0.2054
  964SOL    HW214526   4.344   3.071   5.399 -0.5228  0.5783 -1.1661
  965SOL     OW14527   2.137   3.341   5.568  0.2847 -0.0549  0.6499
  965SOL    HW114528   2.170   3.251   5.573 -0.1760 -0.2468  0.2303
  965SOL    HW214529   2.171   3.365   5.482  0.8357  2.9642  1.7304
  966SOL     OW14530   2.923   1.097   0.801  0.3829 -0.7335  0.2056
  966SOL    HW114531   3.001   1.126   0.848 -1.3528  1.2144  1.9358
  966SOL    HW214532   2.861   1.109   0.873 -0.5770 -2.7568 -0.2934
  967SOL     OW14533   2.497   0.286   2.571  0.1507  0.1790 -0.1421
  967SOL    HW114534   2.590   0.276   2.591  0.2517 -0.1025 -0.7478
  967SOL    HW214535   2.473   0.195   2.588  0.8399 -0.3951 -2.2662
  968SOL     OW14536   2.468   3.053   8.336 -0.3885 -0.5491 -0.6292
  968SOL    HW114537   2.466   3.149   8.330 -0.1751 -0.4664  0.7041
  968SOL    HW214538   2.376   3.033   8.354 -0.2282 -0.4259  0.3577
  969SOL     OW14539   2.469   2.167   2.761 -0.4796 -0.4950  0.2291
  969SOL    HW114540   2.381   2.203   2.751 -1.3260 -1.9890  2.2886
  969SOL    HW214541   2.504   2.224   2.829  0.3273  0.1949 -0.7688
  970SOL     OW14542   1.217   1.338   5.702  0.1800 -0.7292 -0.2626
  970SOL    HW114543   1.188   1.249   5.724  0.6010 -0.1572  2.6432
  970SOL    HW214544   1.172   1.387   5.770 -2.5421 -0.1744 -2.4772
  971SOL     OW14545   1.416   3.303  11.722  0.3848  0.4703  0.8349
  971SOL    HW114546   1.438   3.361  11.649 -2.9031  0.1444 -0.4322
  971SOL    HW214547   1.501   3.302  11.766  0.4932 -1.1601  0.5919
  972SOL     OW14548   4.064   1.308  15.447 -0.9720  0.6432  0.0307
  972SOL    HW114549   4.134   1.316  15.381 -1.4992  2.6750 -0.2823
  972SOL    HW214550   4.111   1.273  15.523  0.0354  1.9120 -0.0065
  973SOL     OW14551   0.994   4.614  13.327  0.0567  0.7732  0.0051
  973SOL    HW114552   1.020   4.555  13.397  1.4220  0.0051 -1.1667
  973SOL    HW214553   1.075   4.650  13.290  1.1451 -0.1172  1.5281
  974SOL     OW14554   4.238   3.330   6.277  0.4648  0.0893 -0.4916
  974SOL    HW114555   4.279   3.243   6.277  1.6084  0.6308 -0.0868
  974SOL    HW214556   4.147   3.310   6.299 -0.0076  0.4134 -2.1660
  975SOL     OW14557   0.948   4.067   4.889  0.4367 -0.2466 -0.7046
  975SOL    HW114558   1.010   4.059   4.961  1.6132 -0.7020 -1.7651
  975SOL    HW214559   0.976   4.146   4.843  1.4046  0.3289  0.8622
  976SOL     OW14560   3.474   3.599   3.113  0.2071  0.6829 -0.0322
  976SOL    HW114561   3.446   3.533   3.176  0.6208 -0.1387 -0.7159
  976SOL    HW214562   3.461   3.684   3.156  0.0029  0.7868 -0.3001
  977SOL     OW14563   2.742   1.023   6.089  0.5432 -0.6045  0.2275
  977SOL    HW114564   2.712   1.052   6.175  1.1531 -2.7388  1.1629
  977SOL    HW214565   2.666   1.037   6.032  0.0415  4.3704  2.1561
  978SOL     OW14566   3.892   4.000   6.053 -0.2579  0.3619  0.3246
  978SOL    HW114567   3.801   3.992   6.082 -0.9320  0.4815 -1.7998
  978SOL    HW214568   3.901   3.908   6.026 -2.9414 -0.0845  0.9327
  979SOL     OW14569   4.223   0.273   9.818  0.6717 -0.4907  0.1464
  979SOL    HW114570   4.241   0.215   9.744  1.0126  1.8293 -1.5929
  979SOL    HW214571   4.147   0.226   9.851  0.2563 -0.7134 -1.1153
  980SOL     OW14572   3.912   0.115   4.788  0.2442 -0.5140  0.2597
  980SOL    HW114573   3.997   0.075   4.805  0.3551 -0.0921  0.6955
  980SOL    HW214574   3.930   0.206   4.810  3.4613 -1.3664  1.0778
  981SOL     OW14575   0.551   0.272   7.037 -0.5909  0.3097  0.1049
  981SOL    HW114576   0.511   0.358   7.031  0.4708  0.9520  2.2794
  981SOL    HW214577   0.624   0.281   7.098  0.5925  0.2322 -1.2864
  982SOL     OW14578   2.627   3.154  11.499  0.1818 -0.1861 -0.1165
  982SOL    HW114579   2.663   3.066  11.490  1.8786  0.7177 -1.9688
  982SOL    HW214580   2.584   3.164  11.414  0.5147  0.8937 -0.1526
  983SOL     OW14581   2.177   0.667  12.654 -0.3836 -0.4991  0.3808
  983SOL    HW114582   2.088   0.676  12.618  0.7796 -0.1897 -2.3749
  983SOL    HW214583   2.218   0.753  12.644 -1.5096  0.1381  1.1117
  984SOL     OW14584   0.812   2.189   7.224  0.2349 -0.3767  0.5230
  984SOL    HW114585   0.724   2.215   7.196 -0.4463 -4.2925 -1.1081
  984SOL    HW214586   0.829   2.126   7.153 -0.1976  0.2384 -0.1217
  985SOL     OW14587   2.686   4.144  13.044 -0.2387 -0.1845 -0.5849
  985SOL    HW114588   2.660   4.134  13.136  0.8130  0.1741 -0.2582
  985SOL    HW214589   2.713   4.052  13.036 -1.0720 -0.4961  0.1646
  986SOL     OW14590   2.247   4.694   8.002 -0.0852 -0.0545  0.3564
  986SOL    HW114591   2.247   4.728   8.092 -0.5836  1.9417 -0.3928
  986SOL    HW214592   2.318   0.013   7.965  0.1854 -0.8479 -0.2207
  987SOL     OW14593   2.592   1.083  13.197  0.2544  0.6152 -0.1670
  987SOL    HW114594   2.549   1.108  13.279  1.6749 -0.0799  0.7991
  987SOL    HW214595   2.591   0.988  13.209 -0.1594  0.6109 -0.2171
  988SOL     OW14596   4.323   2.751   9.493  0.9363  0.3253 -0.2050
  988SOL    HW114597   4.324   2.703   9.576 -0.1389  0.5659 -0.0575
  988SOL    HW214598   4.414   2.775   9.477  1.1394  0.4864  1.2247
  989SOL     OW14599   4.679   1.620   6.600 -0.0978 -0.3881  0.3044
  989SOL    HW114600   0.030   1.582   6.625  0.5917  0.6163 -0.4505
  989SOL    HW214601   4.628   1.602   6.679 -0.6392 -0.4821 -0.0675
  990SOL     OW14602   4.316   1.481   4.751 -0.6051  0.4118 -0.4020
  990SOL    HW114603   4.234   1.493   4.702 -1.2202 -0.8685  0.3105
  990SOL    HW214604   4.353   1.403   4.710 -0.0802 -0.4271  1.6592
  991SOL     OW14605   3.264   2.376  15.984  0.0529 -0.3633  0.1694
  991SOL    HW114606   3.336   2.313  15.984  1.1639  0.9396 -3.5066
  991SOL    HW214607   3.197   2.342  16.043  0.0232 -2.5772 -1.1322
  992SOL     OW14608   1.220   1.845  11.755 -0.2856 -0.2545  0.1197
  992SOL    HW114609   1.170   1.812  11.829  0.2150 -2.5425 -0.5547
  992SOL    HW214610   1.246   1.932  11.785  0.6443 -0.2292 -0.7464
  993SOL     OW14611   1.620   1.137  11.857  0.3035 -0.0230 -0.7396
  993SOL    HW114612   1.656   1.153  11.770 -0.2438 -0.4497 -1.0518
  993SOL    HW214613   1.623   1.042  11.867 -0.4075 -0.0624 -0.8641
  994SOL     OW14614   0.048   3.677   8.670  0.1419  0.1088 -0.0100
  994SOL    HW114615   0.136   3.641   8.652  0.6006  1.3813 -0.2936
  994SOL    HW214616   0.026   3.634   8.752  0.2514 -0.1457 -0.1126
  995SOL     OW14617   0.237   0.775   9.790 -0.1766 -0.5549  0.0679
  995SOL    HW114618   0.259   0.844   9.728 -1.8209 -0.4461 -0.3899
  995SOL    HW214619   0.317   0.724   9.782 -1.3198 -1.9098 -2.7111
  996SOL     OW14620   0.441   3.949  11.865  0.5516  0.0917 -0.5769
  996SOL    HW114621   0.388   3.995  11.930  1.9383 -0.5233  0.9775
  996SOL    HW214622   0.495   3.894  11.922  1.7804  1.0361 -0.8424
  997SOL     OW14623   0.717   0.933  15.791  0.4810  0.2976 -0.0160
  997SOL    HW114624   0.740   0.915  15.700  0.6692  0.9428 -0.0942
  997SOL    HW214625   0.781   1.000  15.818  1.8623 -1.7336  1.8023
  998SOL     OW14626   3.125   4.022  14.429 -0.2265  0.3932 -0.2097
  998SOL    HW114627   3.187   4.040  14.358 -0.3228 -1.0578 -0.6538
  998SOL    HW214628   3.052   4.078  14.401 -0.2610 -0.0755 -1.0577
  999SOL     OW14629   4.127   1.591   8.884  0.1738  0.5142  0.1971
  999SOL    HW114630   4.080   1.658   8.835 -1.2697 -1.4255 -1.0990
  999SOL    HW214631   4.176   1.643   8.948  0.4864 -1.3471  1.4669
 1000SOL     OW14632   1.178   4.001  16.559  0.2800 -0.3858  0.0989
 1000SOL    HW114633   1.242   3.930  16.551  1.3534  0.3467  2.2296
 1000SOL    HW214634   1.239   4.067  16.526 -1.2836  0.7570 -0.4907
 1001SOL     OW14635   3.970   0.544   8.572  0.0322  0.3823 -0.2953
 1001SOL    HW114636   4.015   0.542   8.656 -2.7062  0.1808  1.1572
 1001SOL    HW214637   3.990   0.633   8.542  0.8346  1.0687  2.3304
 1002SOL     OW14638   4.592   1.143   9.154  0.3121  0.6935 -0.2468
 1002SOL    HW114639   4.553   1.118   9.070 -0.8862 -2.4181  1.2425
 1002SOL    HW214640   4.533   1.096   9.212  0.1651 -1.0091 -1.7647
 1003SOL     OW14641   2.878   3.756   3.442  1.0201 -0.3706 -0.1443
 1003SOL    HW114642   2.936   3.828   3.469 -0.8085  1.6385 -1.5495
 1003SOL    HW214643   2.858   3.778   3.351  0.2444 -1.1566 -0.1601
 1004SOL     OW14644   0.860   3.577   9.143 -0.2140  0.5481 -0.2226
 1004SOL    HW114645   0.941   3.528   9.129 -0.3364  0.8921 -2.0550
 1004SOL    HW214646   0.884   3.627   9.221  1.5726 -1.2844  0.4158
 1005SOL     OW14647   2.584   4.024   6.385  0.5398 -0.1845 -0.1919
 1005SOL    HW114648   2.607   4.089   6.452  2.5983 -2.6657  1.4974
 1005SOL    HW214649   2.507   4.061   6.343  0.9667  1.4870  0.4934
 1006SOL     OW14650   2.878   4.496   0.645 -0.1163 -0.1067  0.3555
 1006SOL    HW114651   2.816   4.536   0.583  1.1297 -0.1020 -0.9029
 1006SOL    HW214652   2.875   4.567   0.708 -1.5509  1.0794 -1.0317
 1007SOL     OW14653   4.665   4.101  16.155  0.0276 -0.0816 -0.1279
 1007SOL    HW114654   4.667   4.192  16.184  2.2981 -0.1425 -0.0831
 1007SOL    HW214655   0.003   4.114  16.092  0.2504 -3.1400 -0.4925
 1008SOL     OW14656   2.109   3.770   5.828  0.6354 -0.1709  0.3505
 1008SOL    HW114657   2.092   3.812   5.744  2.0782  1.6395  0.9563
 1008SOL    HW214658   2.138   3.684   5.800 -1.6589 -0.3340 -1.5035
 1009SOL     OW14659   1.442   2.804   3.480  0.2037  0.2786 -0.1097
 1009SOL    HW114660   1.456   2.737   3.547 -0.3838 -0.7842 -1.0320
 1009SOL    HW214661   1.457   2.883   3.532  0.7784 -1.2345  2.0002
 1010SOL     OW14662   1.224   1.952   3.521  0.4836  0.0091  0.1531
 1010SOL    HW114663   1.295   2.016   3.528  0.0335  0.8071 -2.8802
 1010SOL    HW214664   1.265   1.893   3.457 -0.6604  0.1864 -0.7396
 1011SOL     OW14665   2.762   4.472  10.350 -0.5456 -0.1420  0.1641
 1011SOL    HW114666   2.733   4.546  10.403 -0.4986 -1.0234  1.4238
 1011SOL    HW214667   2.694   4.406  10.367 -0.0679 -1.3973 -2.6983
 1012SOL     OW14668   1.108   1.148   4.252 -0.3375 -0.2743 -0.0100
 1012SOL    HW114669   1.146   1.228   4.289 -1.3245 -0.1131  0.6530
 1012SOL    HW214670   1.016   1.174   4.245 -0.3084 -0.6932 -2.0884
 1013SOL     OW14671   3.937   0.947  12.576 -0.1665  0.0583  0.0952
 1013SOL    HW114672   3.943   1.024  12.520  0.3998 -1.0512 -1.3434
 1013SOL    HW214673   3.993   0.970  12.650 -0.1144 -1.7647  0.6182
 1014SOL     OW14674   3.647   4.524   0.210  0.1747  0.3354 -0.0373
 1014SOL    HW114675   3.672   4.451   0.153 -0.9029  0.3966 -0.5764
 1014SOL    HW214676   3.665   4.488   0.296 -2.3466 -1.5433 -0.3134
 1015SOL     OW14677   3.721   3.266  15.191 -0.1874 -0.6337  0.7749
 1015SOL    HW114678   3.733   3.255  15.286 -3.3341  0.0427  1.2425
 1015SOL    HW214679   3.809   3.239  15.165  0.5627  4.1230 -1.4843
 1016SOL     OW14680   3.992   1.639   1.913 -0.5794 -0.0433  0.0594
 1016SOL    HW114681   3.994   1.614   1.821 -0.2461 -0.0255  0.0620
 1016SOL    HW214682   4.023   1.560   1.957  0.4795  0.7735  0.8083
 1017SOL     OW14683   4.039   0.498   5.188 -0.1871 -0.3940  0.4213
 1017SOL    HW114684   3.985   0.419   5.198 -2.2534  0.9334 -0.2806
 1017SOL    HW214685   3.967   0.560   5.177  2.0906  2.1018 -0.2713
 1018SOL     OW14686   1.798   2.876   4.939  0.9501  0.2131  0.5052
 1018SOL    HW114687   1.796   2.961   4.895 -0.3912 -0.6408 -1.0969
 1018SOL    HW214688   1.835   2.812   4.879 -1.3053 -0.4542 -0.1583
 1019SOL     OW14689   2.701   2.704   7.473 -0.0656 -0.2933 -0.4218
 1019SOL    HW114690   2.663   2.745   7.395  0.2786 -1.4605 -1.1997
 1019SOL    HW214691   2.631   2.650   7.509  0.1969  0.6241  1.4630
 1020SOL     OW14692   1.413   0.282   7.362 -0.5527  0.1798 -0.0296
 1020SOL    HW114693   1.366   0.204   7.390  1.7065 -1.1632 -0.0137
 1020SOL    HW214694   1.346   0.323   7.307  0.0141 -0.1420 -0.9605
 1021SOL     OW14695   0.034   4.596   6.213  0.2429 -0.1584  0.2415
 1021SOL    HW114696   4.712   4.651   6.157 -1.4408 -4.4781 -2.2624
 1021SOL    HW214697   4.699   4.533   6.237  2.5306 -2.6795  0.0789
 1022SOL     OW14698   1.191   0.422  12.337  0.1000 -0.5795  0.3260
 1022SOL    HW114699   1.212   0.398  12.427  0.7688 -3.5889 -0.6372
 1022SOL    HW214700   1.113   0.473  12.357  0.5164  0.9565 -1.9645
 1023SOL     OW14701   3.179   2.648  11.606  0.1633 -0.6422  0.6296
 1023SOL    HW114702   3.098   2.677  11.648  0.5111 -0.7465  1.3681
 1023SOL    HW214703   3.203   2.565  11.647 -0.2094 -0.9797  0.1648
 1024SOL     OW14704   4.348   1.170   2.907  0.0328 -0.1455  0.2522
 1024SOL    HW114705   4.374   1.213   2.826 -1.4400 -0.4729 -0.3908
 1024SOL    HW214706   4.321   1.085   2.872 -1.7996  0.7474 -0.4741
 1025SOL     OW14707   3.618   3.589  16.805 -0.1614  0.4208  0.1194
 1025SOL    HW114708   3.636   3.559  16.894 -1.4449 -2.2544 -0.5040
 1025SOL    HW214709   3.555   3.661  16.808 -0.8564 -0.0038 -3.2167
 1026SOL     OW14710   3.030   3.831  17.652  0.4594 -0.3078  0.3426
 1026SOL    HW114711   2.949   3.846  17.701  0.9951  3.5724  0.1066
 1026SOL    HW214712   3.044   3.740  17.675 -0.4783 -0.5584 -0.0701
 1027SOL     OW14713   2.494   3.929   3.934  0.2795 -0.0302  0.1818
 1027SOL    HW114714   2.560   3.998   3.928 -1.2405  1.6380  2.8532
 1027SOL    HW214715   2.443   3.971   4.003  2.4212  0.2513  1.5917
 1028SOL     OW14716   0.440   1.869   8.305 -0.2507  0.5948 -0.2465
 1028SOL    HW114717   0.496   1.792   8.316  1.4243  1.9530  0.6829
 1028SOL    HW214718   0.413   1.881   8.396  0.4977  1.4681 -0.1517
 1029SOL     OW14719   3.008   3.712  16.784  0.1822  0.0901 -0.0292
 1029SOL    HW114720   2.961   3.745  16.708 -1.7106 -1.1083  0.6243
 1029SOL    HW214721   3.095   3.708  16.744 -0.4015  0.7487 -1.3601
 1030SOL     OW14722   4.420   2.953  15.836  0.1432 -0.4455 -0.2424
 1030SOL    HW114723   4.424   2.959  15.741 -1.9411 -1.4386 -0.4154
 1030SOL    HW214724   4.356   3.020  15.858  0.8403  0.4814 -1.0470
 1031SOL     OW14725   2.932   2.914   2.468 -0.4666 -0.2071 -0.2647
 1031SOL    HW114726   2.964   2.824   2.473  0.0116 -0.1069 -1.3003
 1031SOL    HW214727   2.892   2.916   2.381  0.6699 -3.0655 -0.8500
 1032SOL     OW14728   4.084   1.910   4.686 -0.0721  0.2669 -0.2809
 1032SOL    HW114729   4.070   1.882   4.595  0.6911 -1.1633  0.0433
 1032SOL    HW214730   4.000   1.951   4.707 -1.0698 -1.6426 -0.6136
 1033SOL     OW14731   1.715   1.162   2.855 -0.2186 -0.3577  0.1190
 1033SOL    HW114732   1.657   1.147   2.930 -1.7659 -0.9942 -1.1767
 1033SOL    HW214733   1.661   1.194   2.783 -1.0979 -0.3620  0.7661
 1034SOL     OW14734   0.757   1.275   3.198  0.5302  0.3470 -0.1735
 1034SOL    HW114735   0.806   1.198   3.227  1.7573  0.9001 -0.7894
 1034SOL    HW214736   0.758   1.324   3.280 -1.2541  1.1383 -0.6335
 1035SOL     OW14737   2.536   2.865   1.071  0.3517  1.0179  0.7980
 1035SOL    HW114738   2.536   2.769   1.067  1.8715  1.0392  0.5290
 1035SOL    HW214739   2.545   2.882   1.165  1.6120 -1.6109  1.1543
 1036SOL     OW14740   1.654   3.875   8.466  0.3378  0.1416  0.1229
 1036SOL    HW114741   1.577   3.897   8.414 -1.1404 -0.3983  2.0748
 1036SOL    HW214742   1.625   3.828   8.544  0.3049  2.5144  1.5409
 1037SOL     OW14743   1.247   3.095   5.964 -0.1047 -0.2918  0.1360
 1037SOL    HW114744   1.267   3.002   5.974  0.3189  0.1749  3.5645
 1037SOL    HW214745   1.337   3.126   5.957 -0.2479 -0.2136 -1.2652
 1038SOL     OW14746   2.494   2.433   1.431 -0.5584  0.1452  0.1309
 1038SOL    HW114747   2.496   2.529   1.426  1.6363 -0.0197 -2.0135
 1038SOL    HW214748   2.402   2.416   1.410 -0.1534 -0.2881 -1.2620
 1039SOL     OW14749   2.057   0.472  16.899 -0.3223  0.7886 -0.3143
 1039SOL    HW114750   2.079   0.538  16.834  1.7339 -0.6956 -1.1217
 1039SOL    HW214751   2.119   0.488  16.969  0.8734  1.9497 -1.6365
 1040SOL     OW14752   4.630   0.726   5.126 -0.5141  0.2245 -0.0621
 1040SOL    HW114753   4.555   0.767   5.169 -1.4320 -0.4537 -1.0353
 1040SOL    HW214754   4.611   0.633   5.112  1.4996 -0.4366  1.5270
 1041SOL     OW14755   3.063   2.934   6.126  0.0383 -0.1153 -0.4692
 1041SOL    HW114756   3.006   2.874   6.174 -0.5934  0.1274 -0.9222
 1041SOL    HW214757   3.056   3.019   6.169  0.9763 -0.7021  0.8582
 1042SOL     OW14758   0.991   1.540   4.776  0.6060  0.7639 -0.5609
 1042SOL    HW114759   0.991   1.490   4.694  1.6434 -1.3473  0.7077
 1042SOL    HW214760   1.051   1.492   4.833 -2.5073 -0.2936  1.8498
 1043SOL     OW14761   4.326   1.506   5.363  0.0289 -0.2344  0.5544
 1043SOL    HW114762   4.235   1.507   5.394  0.0210  0.8454  0.5070
 1043SOL    HW214763   4.358   1.497   5.452 -0.2951  1.3939  0.8481
 1044SOL     OW14764   3.128   1.738   4.552  0.0336  0.2305  0.7088
 1044SOL    HW114765   3.074   1.682   4.497  0.4678 -0.0191  0.5360
 1044SOL    HW214766   3.063   1.809   4.553 -0.5339 -0.2861  0.0111
 1045SOL     OW14767   3.715   2.193  11.449 -0.0829  0.4749  0.0456
 1045SOL    HW114768   3.797   2.228  11.413  2.8429 -1.9181  4.3534
 1045SOL    HW214769   3.693   2.107  11.414  2.4436  0.7648 -2.2494
 1046SOL     OW14770   2.220   3.053  15.222 -0.6629 -0.5583 -0.2580
 1046SOL    HW114771   2.206   3.019  15.134 -1.7133  1.2969 -0.7971
 1046SOL    HW214772   2.269   2.982  15.264 -2.4890 -1.0296  1.0483
 1047SOL     OW14773   1.692   3.173   7.701 -0.4634  0.5407 -0.4105
 1047SOL    HW114774   1.710   3.088   7.741  0.4986  1.0607  0.2395
 1047SOL    HW214775   1.640   3.145   7.626  2.2986  0.2029 -2.1910
 1048SOL     OW14776   1.282   2.140  15.164  0.4484 -0.6443 -0.0696
 1048SOL    HW114777   1.266   2.212  15.225 -0.0058 -1.4764  0.7917
 1048SOL    HW214778   1.373   2.160  15.143 -0.0024 -0.7984 -2.1954
 1049SOL     OW14779   3.890   1.276   3.503 -0.2112 -0.5815 -0.0973
 1049SOL    HW114780   3.955   1.304   3.439 -2.5398  2.5509 -1.1370
 1049SOL    HW214781   3.819   1.315   3.451  0.6078  0.9810 -0.0523
 1050SOL     OW14782   3.140   2.164   6.643  0.0336  0.2208 -0.2730
 1050SOL    HW114783   3.125   2.259   6.644  1.7706  0.4920 -1.1740
 1050SOL    HW214784   3.235   2.160   6.646  0.0304  0.3601  0.0262
 1051SOL     OW14785   1.039   1.949   5.562 -0.2051 -0.0304  0.2108
 1051SOL    HW114786   0.999   1.888   5.623  0.2891  0.3825  0.9610
 1051SOL    HW214787   0.988   2.030   5.564 -1.9327 -1.1565  1.2159
 1052SOL     OW14788   1.456   1.972   0.958 -0.1108  0.4501 -0.3048
 1052SOL    HW114789   1.516   1.961   0.884 -2.5683 -5.3672 -1.4275
 1052SOL    HW214790   1.384   1.918   0.926 -0.1216  0.6328 -0.5865
 1053SOL     OW14791   0.642   2.506   4.599 -0.3074  0.3615 -0.2503
 1053SOL    HW114792   0.600   2.521   4.683  0.7391 -0.0650  0.3506
 1053SOL    HW214793   0.565   2.487   4.546  0.2778  1.2120 -1.3957
 1054SOL     OW14794   0.889   1.727  12.164 -0.8377  0.2748  0.5789
 1054SOL    HW114795   0.869   1.644  12.119 -3.1717 -1.2806  4.5159
 1054SOL    HW214796   0.908   1.700  12.254  3.3972 -0.9805 -0.6595
 1055SOL     OW14797   1.529   0.982   8.785 -0.1919 -0.4156  0.3160
 1055SOL    HW114798   1.459   1.007   8.725  0.9403 -0.3208 -0.9621
 1055SOL    HW214799   1.503   1.005   8.875 -1.0249  1.3152 -0.3624
 1056SOL     OW14800   4.418   0.911   2.473 -0.2959 -0.1761  0.1458
 1056SOL    HW114801   4.335   0.888   2.514  1.1021 -1.0142  2.5197
 1056SOL    HW214802   4.404   1.001   2.443 -1.3209 -0.1935  0.5691
 1057SOL     OW14803   4.135   1.873   7.858  0.3197 -0.6711 -0.3597
 1057SOL    HW114804   4.091   1.943   7.907  1.6309 -0.6878  0.8512
 1057SOL    HW214805   4.103   1.881   7.768  1.1405 -1.2987 -0.7041
 1058SOL     OW14806   4.473   0.433   6.231  0.4401 -0.5634  0.2677
 1058SOL    HW114807   4.565   0.462   6.236  0.6511 -1.1022 -0.4794
 1058SOL    HW214808   4.456   0.423   6.138  1.7710 -0.8625  0.0504
 1059SOL     OW14809   1.433   4.430   8.387  0.1253 -0.2473  0.4278
 1059SOL    HW114810   1.496   4.501   8.375 -0.7307  0.6282  1.0412
 1059SOL    HW214811   1.431   4.399   8.297  1.4834 -0.0491  0.3289
 1060SOL     OW14812   1.741   3.481   2.421 -0.5735 -0.2032  0.3900
 1060SOL    HW114813   1.676   3.541   2.386 -1.5798  0.4832  3.4453
 1060SOL    HW214814   1.712   3.394   2.393  1.5717 -0.2626 -1.6742
 1061SOL     OW14815   3.909   2.836   8.211 -0.5160 -0.0282 -0.1291
 1061SOL    HW114816   3.867   2.805   8.131 -1.4893 -0.8111  0.6921
 1061SOL    HW214817   3.997   2.799   8.196  0.3499  3.0058 -2.3303
 1062SOL     OW14818   4.325   2.558   9.931 -0.1307 -0.0671 -0.3271
 1062SOL    HW114819   4.294   2.518   9.849 -2.2001  1.6186 -0.3851
 1062SOL    HW214820   4.277   2.641   9.929  2.4701  1.4650  1.7920
 1063SOL     OW14821   4.242   3.795   5.859 -0.5985  0.2730  0.8709
 1063SOL    HW114822   4.294   3.752   5.927  0.6092 -1.4123 -1.1182
 1063SOL    HW214823   4.282   3.881   5.849  2.4425 -1.1964  0.6071
 1064SOL     OW14824   3.156   2.554   3.225 -0.2484 -0.0278 -0.4186
 1064SOL    HW114825   3.102   2.486   3.185  0.2507 -1.3698  1.2407
 1064SOL    HW214826   3.088   2.621   3.229 -2.0134 -1.9173  0.8462
 1065SOL     OW14827   3.418   2.851   6.950 -0.3439 -0.5112  0.6901
 1065SOL    HW114828   3.434   2.930   7.000  1.1622  0.7386 -1.7601
 1065SOL    HW214829   3.424   2.785   7.019  1.8478  1.1460  2.0603
 1066SOL     OW14830   1.230   3.906  11.873 -0.0535  0.4426  0.0300
 1066SOL    HW114831   1.246   3.846  11.946  3.8016  2.4856  0.8660
 1066SOL    HW214832   1.248   3.989  11.916 -0.6773  0.2933  0.5821
 1067SOL     OW14833   3.657   4.452   8.449 -0.2982 -0.0557 -0.2983
 1067SOL    HW114834   3.662   4.475   8.541 -0.0887 -1.2269 -0.0190
 1067SOL    HW214835   3.749   4.441   8.424  0.0136 -1.6372  1.5874
 1068SOL     OW14836   3.861   1.765  15.562  0.6432 -0.1439  0.5628
 1068SOL    HW114837   3.807   1.716  15.624  1.2144 -1.9267 -0.3536
 1068SOL    HW214838   3.943   1.781  15.608  0.2587 -2.6027  2.1011
 1069SOL     OW14839   1.832   0.707   0.308 -0.5674  0.1232 -0.1041
 1069SOL    HW114840   1.887   0.732   0.233  1.1139 -3.4151 -0.0523
 1069SOL    HW214841   1.833   0.612   0.293 -1.2000  0.1052 -0.0045
 1070SOL     OW14842   1.793   4.657  12.397  0.1528 -0.2320  0.6301
 1070SOL    HW114843   1.858   4.602  12.353 -0.7362 -1.0074  0.2800
 1070SOL    HW214844   1.724   4.665  12.331  0.2177 -0.0327  0.5882
 1071SOL     OW14845   3.031   3.880  11.674  0.1136  0.0706  0.1161
 1071SOL    HW114846   2.976   3.874  11.596  1.4516  0.5766 -0.8543
 1071SOL    HW214847   3.117   3.859  11.637  0.7859  2.0548  0.5847
 1072SOL     OW14848   0.768   2.227   6.695  0.7034 -0.0644 -0.5364
 1072SOL    HW114849   0.690   2.281   6.680  0.2173 -0.5211  0.3603
 1072SOL    HW214850   0.841   2.283   6.721  2.0595 -1.6961 -0.8345
 1073SOL     OW14851   2.828   2.323   7.924  0.5209 -0.0760  0.2647
 1073SOL    HW114852   2.804   2.410   7.892  1.9255  0.8183  1.6540
 1073SOL    HW214853   2.758   2.309   7.988  0.8865 -1.7801  0.2728
 1074SOL     OW14854   0.678   0.123   8.176 -0.1832  0.3504 -0.1053
 1074SOL    HW114855   0.713   0.213   8.174 -0.1613  0.3419 -0.1013
 1074SOL    HW214856   0.601   0.136   8.230 -0.8893 -1.1738 -0.7692
 1075SOL     OW14857   2.921   3.163   9.758  0.4352 -0.8341 -0.0753
 1075SOL    HW114858   2.831   3.147   9.730  0.3289 -0.5788  0.1219
 1075SOL    HW214859   2.914   3.236   9.819 -0.2886 -0.8930 -0.0873
 1076SOL     OW14860   0.355   4.269   0.282  0.2359  0.1470 -0.1636
 1076SOL    HW114861   0.357   4.189   0.230  1.2252 -0.2184  0.4473
 1076SOL    HW214862   0.321   4.335   0.221  0.7570  0.7847  0.2394
 1077SOL     OW14863   2.550   1.019   7.273  0.5039  0.0483 -0.4026
 1077SOL    HW114864   2.534   1.037   7.366  1.1909  0.5948 -0.3945
 1077SOL    HW214865   2.460   1.014   7.241  0.4205 -0.6803 -0.0420
 1078SOL     OW14866   3.554   1.026  13.076  0.6059 -0.0662  0.0091
 1078SOL    HW114867   3.527   1.081  13.003 -1.0536 -2.6263 -1.3084
 1078SOL    HW214868   3.522   0.939  13.053 -1.1089  0.4626  0.3917
 1079SOL     OW14869   2.174   2.003   6.920  0.3478 -0.2350  0.5328
 1079SOL    HW114870   2.248   1.978   6.865 -0.0408  0.4063 -0.2863
 1079SOL    HW214871   2.134   2.076   6.872  1.0138 -0.1567  0.0938
 1080SOL     OW14872   2.927   0.110  14.125  0.4866  0.4046 -0.8865
 1080SOL    HW114873   2.951   0.149  14.041  1.2739  3.8619  0.9351
 1080SOL    HW214874   2.833   0.123  14.137  0.5752  1.4816 -1.3679
 1081SOL     OW14875   1.278   1.921   5.681  0.7719  0.0229 -0.5230
 1081SOL    HW114876   1.300   1.828   5.679 -0.1919 -0.2000 -0.4028
 1081SOL    HW214877   1.192   1.915   5.640  1.4193  0.4638 -1.9752
 1082SOL     OW14878   1.529   3.585   4.662  0.3493  0.0609 -0.2572
 1082SOL    HW114879   1.476   3.516   4.702  0.9901 -1.4341 -1.9703
 1082SOL    HW214880   1.560   3.639   4.734  1.6482 -0.1785 -0.6330
 1083SOL     OW14881   4.211   1.605   3.779  0.6223 -0.3234  0.3512
 1083SOL    HW114882   4.240   1.522   3.742 -1.2448 -1.6249  1.7844
 1083SOL    HW214883   4.272   1.670   3.745  1.1732 -0.6901  0.6359
 1084SOL     OW14884   1.870   0.513   7.581 -0.0655 -0.4767  0.2888
 1084SOL    HW114885   1.812   0.467   7.519 -2.1316 -0.2262  2.0305
 1084SOL    HW214886   1.956   0.472   7.569 -0.1531 -0.5042 -0.2278
 1085SOL     OW14887   0.599   4.194   3.265  0.1620 -0.1286 -0.2184
 1085SOL    HW114888   0.609   4.203   3.170 -2.1369 -0.1182 -0.4552
 1085SOL    HW214889   0.554   4.272   3.298 -0.3394  0.1517 -1.5551
 1086SOL     OW14890   0.517   3.544   1.015  0.4919  0.0971  0.2457
 1086SOL    HW114891   0.466   3.506   0.944 -1.4327  0.2605  1.5617
 1086SOL    HW214892   0.545   3.467   1.064  0.8489 -1.9905 -3.2034
 1087SOL     OW14893   3.482   4.699   3.531  0.3776  0.0558 -0.2286
 1087SOL    HW114894   3.432   4.680   3.610  1.3682  0.4988  0.4946
 1087SOL    HW214895   3.554   0.022   3.558 -0.0748  0.9163 -0.7794
 1088SOL     OW14896   0.226   0.798  17.504 -0.5864  0.1113  0.4137
 1088SOL    HW114897   0.130   0.801  17.506 -0.6445 -1.2739 -1.0238
 1088SOL    HW214898   0.247   0.887  17.533 -0.6706  0.7706 -1.5452
 1089SOL     OW14899   1.749   2.043  12.501 -0.2633 -0.2852  0.5046
 1089SOL    HW114900   1.787   2.106  12.562 -1.1313  1.1723 -0.4332
 1089SOL    HW214901   1.738   2.099  12.424  1.4709 -0.7639 -0.0820
 1090SOL     OW14902   0.580   4.215  12.147  0.2798  0.0606 -0.6735
 1090SOL    HW114903   0.562   4.159  12.071  1.2836 -0.9271 -0.1705
 1090SOL    HW214904   0.518   4.287  12.131 -0.2276 -0.2897 -0.2566
 1091SOL     OW14905   1.235   1.725   7.250 -0.0224  0.3000  0.4302
 1091SOL    HW114906   1.279   1.659   7.197 -0.1474  1.3614 -1.0065
 1091SOL    HW214907   1.302   1.734   7.318 -1.0796 -0.2197  1.5374
 1092SOL     OW14908   0.478   1.350   4.369 -0.1425 -0.4899  0.2419
 1092SOL    HW114909   0.402   1.363   4.425  1.3835 -0.2326  2.2562
 1092SOL    HW214910   0.432   1.289   4.312  0.4850 -0.6532 -0.0915
 1093SOL     OW14911   3.253   3.643  16.602 -0.4958 -0.1027 -0.4524
 1093SOL    HW114912   3.248   3.548  16.618 -0.7717 -0.3194 -1.7956
 1093SOL    HW214913   3.292   3.643  16.515  2.1885 -0.3563  0.7394
 1094SOL     OW14914   1.257   1.717   4.049 -0.6782  0.4799  0.2484
 1094SOL    HW114915   1.290   1.787   4.105  0.2604  2.2914 -2.5952
 1094SOL    HW214916   1.248   1.767   3.968 -1.9361 -0.8182 -0.4101
 1095SOL     OW14917   2.269   0.319   3.492  0.1654  0.1904  0.2195
 1095SOL    HW114918   2.198   0.378   3.467  2.2525  3.4053  1.9170
 1095SOL    HW214919   2.306   0.292   3.408  0.4542 -0.2777  0.5003
 1096SOL     OW14920   0.505   1.307   5.214 -0.0266 -0.4040 -0.0441
 1096SOL    HW114921   0.504   1.212   5.221 -0.8013 -0.3774  0.1743
 1096SOL    HW214922   0.528   1.318   5.121  1.9004  1.8450  0.6853
 1097SOL     OW14923   1.974   2.201  14.452  0.1898 -0.3138 -0.1626
 1097SOL    HW114924   1.912   2.190  14.524  1.3616 -0.0040  0.9006
 1097SOL    HW214925   2.020   2.116  14.451 -0.8261 -0.8653  0.3615
 1098SOL     OW14926   2.150   3.196   5.894 -0.0874 -0.1894 -0.6934
 1098SOL    HW114927   2.200   3.114   5.888  1.3388  0.5523  1.2116
 1098SOL    HW214928   2.145   3.224   5.985 -1.7248  0.4576 -0.9807
 1099SOL     OW14929   0.080   2.636  15.300 -0.0256  0.7958 -0.0846
 1099SOL    HW114930   0.105   2.672  15.215  0.1071  0.3560 -0.2343
 1099SOL    HW214931   0.162   2.657  15.346  1.0386 -0.9355 -1.1849
 1100SOL     OW14932   0.248   2.002  16.819  0.0606  0.2083 -0.5032
 1100SOL    HW114933   0.199   2.081  16.797  1.5039  1.2276  0.0016
 1100SOL    HW214934   0.183   1.935  16.842  0.9557 -0.5501 -0.1750
 1101SOL     OW14935   2.887   2.882   2.760  0.3754  0.2019  0.0066
 1101SOL    HW114936   2.892   2.889   2.665  1.0174 -2.7409 -0.1719
 1101SOL    HW214937   2.970   2.841   2.784  1.2695  1.8689 -0.2002
 1102SOL     OW14938   1.485   0.842   3.771 -0.0220  0.2337  0.1409
 1102SOL    HW114939   1.491   0.922   3.719  1.0353  1.3167  1.9237
 1102SOL    HW214940   1.391   0.834   3.790  0.3724 -0.7097  1.6238
 1103SOL     OW14941   2.187   1.581  16.278  0.2734  0.1129  0.0490
 1103SOL    HW114942   2.163   1.564  16.187 -0.7912 -0.1231  0.3737
 1103SOL    HW214943   2.205   1.675  16.276  1.0489 -0.0388 -0.1308
 1104SOL     OW14944   0.813   0.682   8.389  0.1584 -0.2665 -0.4927
 1104SOL    HW114945   0.856   0.601   8.418  0.3260  0.1982  0.5713
 1104SOL    HW214946   0.851   0.744   8.452 -0.9473 -0.7655  0.6701
 1105SOL     OW14947   1.497   0.764  10.921 -0.4134 -0.2119 -0.3542
 1105SOL    HW114948   1.516   0.804  10.836  0.6017 -2.5007 -1.2215
 1105SOL    HW214949   1.464   0.681  10.887 -1.0038 -0.1511  0.0824
 1106SOL     OW14950   3.074   3.845   5.588  0.2002  0.6783  0.0735
 1106SOL    HW114951   3.033   3.874   5.506 -1.4102 -3.2248 -0.4965
 1106SOL    HW214952   3.026   3.765   5.609  0.6666  0.3706 -0.0397
 1107SOL     OW14953   1.463   4.192   7.142 -0.4977 -0.1053 -0.2394
 1107SOL    HW114954   1.495   4.165   7.056 -1.0662  0.2833 -0.5739
 1107SOL    HW214955   1.489   4.122   7.202 -3.2708 -2.6585 -1.9946
 1108SOL     OW14956   1.269   4.277   8.805 -0.3600 -0.4231  0.2029
 1108SOL    HW114957   1.344   4.300   8.750 -0.8295  0.1408 -0.1927
 1108SOL    HW214958   1.307   4.221   8.873 -0.8359 -1.1756 -0.1538
 1109SOL     OW14959   2.767   0.015   6.192 -0.2006 -0.0482  0.3303
 1109SOL    HW114960   2.848   0.018   6.243  1.8950 -0.4368 -2.9637
 1109SOL    HW214961   2.776   4.664   6.148  0.8166 -0.0376  0.4996
 1110SOL     OW14962   4.566   1.372   6.928  0.3491 -0.1398 -0.1990
 1110SOL    HW114963   4.576   1.287   6.885  0.4040 -0.4613  0.4596
 1110SOL    HW214964   4.657   1.384   6.954  0.2324 -2.6959  1.3614
 1111SOL     OW14965   2.529   4.323   4.636  0.1038 -0.4127 -0.2743
 1111SOL    HW114966   2.454   4.374   4.668 -0.4003 -0.9505 -0.6025
 1111SOL    HW214967   2.505   4.312   4.544 -0.2071  2.2136 -0.5236
 1112SOL     OW14968   3.699   2.024  13.751 -0.2557  0.1178  0.4500
 1112SOL    HW114969   3.755   2.007  13.676 -1.3392  0.5385 -0.4523
 1112SOL    HW214970   3.669   1.934  13.761 -2.5491  0.7923 -0.1765
 1113SOL     OW14971   0.873   1.753   2.081 -0.0905  0.8827  0.3459
 1113SOL    HW114972   0.780   1.743   2.099 -0.3395  0.2297 -1.3320
 1113SOL    HW214973   0.899   1.665   2.053 -2.3406  0.2506  0.2926
 1114SOL     OW14974   2.506   0.101   6.626 -0.3159  0.5178 -0.1525
 1114SOL    HW114975   2.435   0.157   6.657 -1.6579 -0.4533 -1.4874
 1114SOL    HW214976   2.583   0.115   6.681 -1.4513 -1.2685  1.9092
 1115SOL     OW14977   4.040   3.661   6.408 -0.2412 -0.1624 -0.2460
 1115SOL    HW114978   4.095   3.719   6.355 -1.0714 -0.4712 -1.4503
 1115SOL    HW214979   3.954   3.696   6.385 -0.3925 -0.7857 -0.6254
 1116SOL     OW14980   2.236   3.944  13.699 -0.1561  0.2962  0.7441
 1116SOL    HW114981   2.182   3.975  13.626 -0.6885 -0.1645  0.9378
 1116SOL    HW214982   2.214   4.019  13.753  0.9058  1.7119 -0.7961
 1117SOL     OW14983   0.632   3.251   6.407 -0.3972 -0.4788  0.2904
 1117SOL    HW114984   0.710   3.267   6.460 -0.9742 -0.2412  1.0683
 1117SOL    HW214985   0.585   3.177   6.445 -0.6438  0.3236  1.5299
 1118SOL     OW14986   1.533   2.705   3.241  0.6396  0.0045 -0.1869
 1118SOL    HW114987   1.570   2.784   3.203  0.5453 -0.2722 -0.8491
 1118SOL    HW214988   1.511   2.731   3.331  2.5701 -0.5336  0.4255
 1119SOL     OW14989   4.041   1.030   9.980  0.0151  0.1523 -0.4765
 1119SOL    HW114990   4.120   1.077   9.957  0.5036  0.0943  1.0667
 1119SOL    HW214991   4.004   1.092  10.043  0.4655  0.3414 -0.4047
 1120SOL     OW14992   0.070   1.439  16.661 -0.3961 -0.0631 -0.3803
 1120SOL    HW114993   0.137   1.506  16.646  0.0961 -0.5465 -0.3444
 1120SOL    HW214994   0.001   1.474  16.604 -0.7790 -0.1299  0.0451
 1121SOL     OW14995   0.072   1.114   9.685  0.2416  0.3778  0.0089
 1121SOL    HW114996   0.097   1.027   9.652  2.6210  0.6871  0.9523
 1121SOL    HW214997   0.106   1.176   9.620  1.8237  0.0199  0.4936
 1122SOL     OW14998   3.011   3.435   1.848  0.3149 -0.3826  0.1768
 1122SOL    HW114999   3.047   3.346   1.850 -0.9444 -0.9159 -0.7469
 1122SOL    HW215000   2.918   3.422   1.866 -0.0555  1.1197 -0.7283
 1123SOL     OW15001   1.780   3.590  17.444 -0.0881  0.1824 -0.9554
 1123SOL    HW115002   1.713   3.627  17.388 -0.9631  0.5599  0.3458
 1123SOL    HW215003   1.844   3.563  17.377  0.1062  0.3987 -0.8565
 1124SOL     OW15004   0.214   2.548  11.756 -0.1866 -0.1618 -0.3588
 1124SOL    HW115005   0.153   2.488  11.713  1.4355 -0.5815 -2.0521
 1124SOL    HW215006   0.201   2.626  11.702 -3.1435  0.3632  1.0736
 1125SOL     OW15007   1.945   4.041   8.183 -0.4816 -0.5237  0.0133
 1125SOL    HW115008   1.953   3.958   8.135 -0.6148  0.2511 -1.3509
 1125SOL    HW215009   2.000   4.021   8.259  3.1170  1.3290 -2.1208
 1126SOL     OW15010   0.620   1.055   4.205 -0.0827 -0.3659 -0.2246
 1126SOL    HW115011   0.539   1.036   4.252 -0.3102 -0.3113 -0.6021
 1126SOL    HW215012   0.592   1.100   4.126  1.2539  3.5767  1.5353
 1127SOL     OW15013   4.426   3.083   5.665 -0.8352  0.4222 -0.0843
 1127SOL    HW115014   4.503   3.130   5.632 -0.4754 -0.5032 -0.5328
 1127SOL    HW215015   4.444   3.077   5.759 -0.2483  2.4666 -0.0633
 1128SOL     OW15016   0.849   3.350   6.539  0.2851  0.1829 -0.6339
 1128SOL    HW115017   0.899   3.327   6.617 -3.7611 -1.4179  1.4422
 1128SOL    HW215018   0.849   3.445   6.553  3.4815  0.1579 -0.4845
 1129SOL     OW15019   1.903   1.856   7.369  0.0685  0.2706  0.1623
 1129SOL    HW115020   1.934   1.917   7.436 -0.5665 -0.3553  1.0201
 1129SOL    HW215021   1.986   1.835   7.325 -0.1408 -0.1861 -0.0203
 1130SOL     OW15022   2.700   2.493   9.343  0.1378  0.1301 -0.0071
 1130SOL    HW115023   2.743   2.465   9.262  1.0710 -0.0528  0.5486
 1130SOL    HW215024   2.647   2.572   9.331 -1.1210 -1.0264 -1.9502
 1131SOL     OW15025   1.234   3.218   2.410  0.4403 -0.2776  0.4214
 1131SOL    HW115026   1.204   3.237   2.499 -2.0845 -1.6161 -0.1494
 1131SOL    HW215027   1.286   3.295   2.389 -0.8009  0.3668 -0.2574
 1132SOL     OW15028   1.374   3.807  16.606  0.2145  0.1158 -0.0959
 1132SOL    HW115029   1.370   3.730  16.662  0.4529  1.4215  1.7133
 1132SOL    HW215030   1.461   3.788  16.572 -0.5901 -0.5900 -1.8047
 1133SOL     OW15031   0.349   3.524   6.040 -0.3855 -0.7541  0.8623
 1133SOL    HW115032   0.403   3.482   6.106  1.0748  1.6952  1.2116
 1133SOL    HW215033   0.352   3.459   5.970  0.5450 -1.4772  1.5991
 1134SOL     OW15034   3.793   4.119   7.432  0.5573  0.4739  0.5435
 1134SOL    HW115035   3.796   4.209   7.402 -0.3910  1.4961  3.5279
 1134SOL    HW215036   3.702   4.103   7.458  0.1473  1.2271 -0.4791
 1135SOL     OW15037   0.994   3.011  15.624  0.2965 -0.0090 -0.8412
 1135SOL    HW115038   0.956   3.092  15.589  0.9205  0.2402 -0.9322
 1135SOL    HW215039   1.001   2.955  15.546 -3.7490 -0.2639 -1.0417
 1136SOL     OW15040   1.884   3.185   8.306  0.2546 -0.1553 -0.0140
 1136SOL    HW115041   1.927   3.266   8.335 -0.3672  0.1822 -0.0265
 1136SOL    HW215042   1.806   3.182   8.361  0.3321 -0.3917  0.0828
 1137SOL     OW15043   0.415   1.853  15.364  0.2889  0.1469 -0.1180
 1137SOL    HW115044   0.417   1.768  15.319  0.3090  1.2043 -2.0749
 1137SOL    HW215045   0.342   1.831  15.422  0.6577  0.3615  0.4358
 1138SOL     OW15046   2.618   2.016   7.487  0.3774 -0.2227  0.1801
 1138SOL    HW115047   2.665   2.092   7.454 -0.5645 -0.1675 -1.0503
 1138SOL    HW215048   2.641   1.994   7.577  0.8066 -1.1215 -0.1447
 1139SOL     OW15049   1.474   4.528   5.657 -0.2516  0.0943  0.1714
 1139SOL    HW115050   1.452   4.608   5.704 -0.3168  0.5365 -0.6046
 1139SOL    HW215051   1.487   4.460   5.723 -2.6087 -0.0440  0.4680
 1140SOL     OW15052   2.219   0.957   4.285 -0.1666  0.3009  0.4942
 1140SOL    HW115053   2.266   0.875   4.272 -0.8666 -0.0716  0.2776
 1140SOL    HW215054   2.271   0.990   4.358  1.1589  0.6008 -0.5907
 1141SOL     OW15055   0.647   0.931   2.550 -0.1905 -0.1650  0.3549
 1141SOL    HW115056   0.735   0.911   2.583  0.3903  1.7607 -0.0270
 1141SOL    HW215057   0.612   0.939   2.639 -1.3597  2.1306 -0.3166
 1142SOL     OW15058   3.974   2.207   6.564 -0.4313  0.5162 -0.4061
 1142SOL    HW115059   4.016   2.239   6.484 -2.5088 -1.8482 -2.4572
 1142SOL    HW215060   3.891   2.175   6.529  1.0295 -2.4296 -1.1597
 1143SOL     OW15061   1.901   1.964   8.382 -0.0616 -0.4983 -0.2166
 1143SOL    HW115062   1.895   1.957   8.477 -0.4149 -0.5998 -0.2466
 1143SOL    HW215063   1.816   1.996   8.353 -0.0444 -0.0836  0.1950
 1144SOL     OW15064   3.577   2.145   5.275  0.0052  0.9547 -0.5867
 1144SOL    HW115065   3.599   2.217   5.215 -3.1365  1.9183 -0.5644
 1144SOL    HW215066   3.658   2.138   5.326  0.8514 -0.6913 -2.1696
 1145SOL     OW15067   1.098   2.156   6.010  0.3975 -0.0549 -0.5404
 1145SOL    HW115068   1.184   2.128   5.980  1.0150  1.5607 -0.2598
 1145SOL    HW215069   1.114   2.228   6.070 -0.0488 -0.5512  0.1755
 1146SOL     OW15070   1.277   2.412  16.238 -0.5623  0.2191  0.6932
 1146SOL    HW115071   1.262   2.318  16.235  4.1563 -0.4370 -2.4733
 1146SOL    HW215072   1.204   2.449  16.287  0.4277  2.4880  0.4822
 1147SOL     OW15073   3.721   4.477   5.003  0.2806 -0.3063  0.0583
 1147SOL    HW115074   3.758   4.504   5.087 -0.6693  2.6666 -0.4793
 1147SOL    HW215075   3.723   4.554   4.947  0.2440  0.6128  1.3037
 1148SOL     OW15076   0.562   1.532   4.155  0.0165 -0.1048 -0.1119
 1148SOL    HW115077   0.527   1.604   4.207 -1.4619 -1.1608  0.3773
 1148SOL    HW215078   0.571   1.474   4.231  0.6203  0.2258  0.0708
 1149SOL     OW15079   2.314   4.180  13.491  0.0077  1.1764  0.6334
 1149SOL    HW115080   2.260   4.221  13.559  0.7431  0.6686  1.5264
 1149SOL    HW215081   2.239   4.145  13.443  0.7033 -0.9263  1.0624
 1150SOL     OW15082   3.238   0.685   6.846 -0.1418 -0.1150 -1.3754
 1150SOL    HW115083   3.157   0.736   6.849  0.1676  0.3195 -0.6455
 1150SOL    HW215084   3.206   0.595   6.840  1.6416 -0.8331  0.0863
 1151SOL     OW15085   0.535   1.032   5.217  0.1050 -0.4673 -0.0326
 1151SOL    HW115086   0.624   0.995   5.216  0.0713 -0.5515  0.6451
 1151SOL    HW215087   0.508   1.015   5.126  0.1578  1.2272 -0.3660
 1152SOL     OW15088   3.773   1.582   7.560  0.0290  0.2865 -0.0948
 1152SOL    HW115089   3.773   1.491   7.532 -1.1655 -0.1659  1.4280
 1152SOL    HW215090   3.782   1.573   7.655 -0.4160  1.6415  0.0739
 1153SOL     OW15091   2.584   1.953   5.097 -0.1969 -0.2239  0.4394
 1153SOL    HW115092   2.669   1.996   5.106 -1.4065  2.2363  0.2487
 1153SOL    HW215093   2.539   2.001   5.027  0.4227  0.4188  0.4825
 1154SOL     OW15094   2.870   0.666   9.061  0.5111 -0.4646 -0.1367
 1154SOL    HW115095   2.921   0.704   8.990 -0.5085 -0.1393 -0.6912
 1154SOL    HW215096   2.857   0.744   9.115  1.0395 -0.0521 -0.6127
 1155SOL     OW15097   1.885   2.779   0.182  0.7817  0.3367  0.1298
 1155SOL    HW115098   1.936   2.730   0.246  1.9748  1.6340  0.1604
 1155SOL    HW215099   1.806   2.777   0.237  1.0063 -1.7088  0.3645
 1156SOL     OW15100   3.045   1.497   6.288  0.6491 -0.4575 -0.2072
 1156SOL    HW115101   3.071   1.583   6.254 -1.8874  0.2047 -0.4997
 1156SOL    HW215102   3.090   1.446   6.221  1.2471 -0.5322  0.2531
 1157SOL     OW15103   0.360   4.353   7.772 -0.8832  0.3399  0.3722
 1157SOL    HW115104   0.284   4.298   7.788 -2.9841  2.6337 -1.6994
 1157SOL    HW215105   0.356   4.402   7.855 -1.0766  2.5668 -0.9461
 1158SOL     OW15106   3.497   1.687   6.825 -0.4061 -0.1576 -0.0018
 1158SOL    HW115107   3.527   1.773   6.797 -0.1811  0.2380  1.4751
 1158SOL    HW215108   3.536   1.682   6.912  2.4694  2.3598 -1.1525
 1159SOL     OW15109   3.899   0.036   3.713 -0.2949 -0.0026 -0.2131
 1159SOL    HW115110   3.961   4.695   3.713  0.3519  0.5365 -0.2765
 1159SOL    HW215111   3.933   0.108   3.765  0.1804  0.1243 -0.6939
 1160SOL     OW15112   1.654   1.701   9.889  0.0084 -0.3960 -0.0373
 1160SOL    HW115113   1.616   1.750   9.962 -0.9979 -2.1641  0.6415
 1160SOL    HW215114   1.709   1.638   9.936  0.2846 -0.5859 -0.6192
 1161SOL     OW15115   3.344   1.529   3.087 -0.5923  0.6770 -0.1888
 1161SOL    HW115116   3.264   1.563   3.127 -0.4096  0.0207  0.7429
 1161SOL    HW215117   3.346   1.572   3.001 -0.9190 -0.6647 -0.8735
 1162SOL     OW15118   1.065   2.236   2.050  0.3565 -0.3640  0.2704
 1162SOL    HW115119   1.031   2.158   2.095  0.6711  0.7042  2.3370
 1162SOL    HW215120   1.159   2.218   2.047  0.3543 -0.8203  2.6275
 1163SOL     OW15121   0.488   3.016  13.684 -0.3967 -0.2437  0.3368
 1163SOL    HW115122   0.515   3.106  13.704 -2.5449  0.5123 -0.2214
 1163SOL    HW215123   0.545   2.994  13.610  0.5014 -1.1732  1.2973
 1164SOL     OW15124   3.151   2.933   8.367  0.1461  0.5829  0.3703
 1164SOL    HW115125   3.074   2.880   8.349  0.7463 -0.3054  0.4199
 1164SOL    HW215126   3.201   2.922   8.286 -1.9935  0.1300 -0.9021
 1165SOL     OW15127   1.283   3.339   3.660 -0.0101  0.7212  0.0086
 1165SOL    HW115128   1.329   3.287   3.726  1.0282  0.6312 -0.7966
 1165SOL    HW215129   1.238   3.400   3.718  0.6238  1.2525 -0.0642
 1166SOL     OW15130   0.921   3.072   3.943  0.1360  0.0068 -0.1008
 1166SOL    HW115131   1.012   3.045   3.933 -0.0217 -0.5764  0.0172
 1166SOL    HW215132   0.937   3.113   4.028  1.1517  1.7012 -1.1292
 1167SOL     OW15133   3.017   4.191   5.698  0.3413 -0.7830  0.3442
 1167SOL    HW115134   2.922   4.204   5.695  0.4572 -0.2978 -1.3722
 1167SOL    HW215135   3.036   4.215   5.788 -1.3745  0.2041  0.4424
 1168SOL     OW15136   4.561   1.076   4.418  0.7160  0.0490  0.0079
 1168SOL    HW115137   4.560   1.052   4.325  0.5774  0.3838 -0.0741
 1168SOL    HW215138   4.475   1.119   4.422  0.6282  0.0054 -1.4122
 1169SOL     OW15139   3.062   0.141   3.779 -0.1510  0.0833  0.0890
 1169SOL    HW115140   3.051   0.087   3.701  0.3019  0.3798 -0.1757
 1169SOL    HW215141   2.972   0.140   3.811  0.2137  2.2264  1.1558
 1170SOL     OW15142   4.300   4.007   9.530 -0.5284  0.4210 -0.0292
 1170SOL    HW115143   4.204   4.002   9.530 -0.4384 -1.2850  0.1324
 1170SOL    HW215144   4.322   4.047   9.614  0.3140 -2.5582  1.1307
 1171SOL     OW15145   2.853   2.640   1.994  0.0870  0.5228 -0.7172
 1171SOL    HW115146   2.775   2.658   1.942 -0.0608 -2.1783 -1.4025
 1171SOL    HW215147   2.869   2.546   1.984 -0.5419  0.4772 -1.2612
 1172SOL     OW15148   3.818   1.736   6.251  0.6148  0.9575 -0.1713
 1172SOL    HW115149   3.905   1.768   6.274  0.5053  0.8056  0.4587
 1172SOL    HW215150   3.778   1.768   6.332  1.5949  0.0754  0.6523
 1173SOL     OW15151   2.532   2.523   5.245 -0.3650  0.0330  0.5295
 1173SOL    HW115152   2.585   2.598   5.216 -1.2905  0.2159 -0.6491
 1173SOL    HW215153   2.486   2.564   5.318 -2.5932 -1.9019  0.1827
 1174SOL     OW15154   1.385   2.797   8.035 -0.1103  0.1205 -0.8613
 1174SOL    HW115155   1.475   2.768   8.052  0.3508  0.8772 -2.0610
 1174SOL    HW215156   1.335   2.741   8.095 -0.5121 -0.9090 -2.1493
 1175SOL     OW15157   3.504   4.001   8.893  0.7447  0.0183 -0.1968
 1175SOL    HW115158   3.500   3.918   8.847 -0.6045 -0.5220  0.8830
 1175SOL    HW215159   3.571   4.057   8.853 -1.7510  0.9765 -3.0828
 1176SOL     OW15160   0.788   2.386   8.558  0.4491 -0.4432 -0.4562
 1176SOL    HW115161   0.756   2.429   8.479 -0.7726 -1.5108 -0.5355
 1176SOL    HW215162   0.848   2.327   8.513  0.8999 -0.7138  0.5062
 1177SOL     OW15163   3.758   2.600   3.215  0.1201  0.1070  0.4080
 1177SOL    HW115164   3.813   2.600   3.294  0.6627 -1.4105  0.0263
 1177SOL    HW215165   3.720   2.686   3.233  0.7472  0.9484 -2.3431
 1178SOL     OW15166   0.721   0.274   3.459 -0.5096 -0.6801  0.0080
 1178SOL    HW115167   0.723   0.179   3.442 -1.0017 -0.1886 -2.7961
 1178SOL    HW215168   0.749   0.296   3.370 -0.8800 -1.0570 -0.2021
 1179SOL     OW15169   2.681   3.075   2.817  0.4872 -0.2102  0.4831
 1179SOL    HW115170   2.735   3.150   2.790 -3.3249  2.6523  0.9283
 1179SOL    HW215171   2.746   3.010   2.789 -0.4358 -0.1420 -1.8632
 1180SOL     OW15172   0.887   3.575   9.861 -0.7054 -0.1930  0.3365
 1180SOL    HW115173   0.819   3.552   9.924 -2.0097  2.8253  0.0426
 1180SOL    HW215174   0.913   3.489   9.826 -2.6040 -0.3965 -0.6002
 1181SOL     OW15175   3.074   3.993   2.769  0.2345 -0.1509  0.0628
 1181SOL    HW115176   3.099   4.061   2.706  3.9823 -2.2529 -0.7197
 1181SOL    HW215177   3.118   4.017   2.851 -1.2271 -0.9576  1.0869
 1182SOL     OW15178   4.080   4.491   6.169  0.4311 -0.2991 -0.3675
 1182SOL    HW115179   4.172   4.481   6.146  1.1467  1.3097  1.8142
 1182SOL    HW215180   4.044   4.406   6.144  0.2352 -0.3206 -0.0111
 1183SOL     OW15181   1.384   2.155   0.486 -0.3582 -0.2400 -0.5458
 1183SOL    HW115182   1.380   2.122   0.396  0.8773 -1.5363 -0.1356
 1183SOL    HW215183   1.294   2.187   0.493 -0.4901  0.5923 -5.6923
 1184SOL     OW15184   3.006   0.681   9.597 -0.4283 -0.1911 -0.2579
 1184SOL    HW115185   2.985   0.762   9.550  0.4325 -0.0658 -0.4245
 1184SOL    HW215186   3.087   0.702   9.643  0.1414  0.0574 -1.3491
 1185SOL     OW15187   1.351   2.254   4.761 -0.1619  0.2138 -0.1745
 1185SOL    HW115188   1.420   2.236   4.697 -0.6797 -0.0449 -0.6560
 1185SOL    HW215189   1.387   2.315   4.825  1.1198  1.1683 -1.8016
 1186SOL     OW15190   2.393   0.871   8.854  0.4717 -0.0025  0.0428
 1186SOL    HW115191   2.440   0.807   8.907  0.4264 -2.8544 -3.3932
 1186SOL    HW215192   2.474   0.916   8.829  1.2600 -0.9640  0.8854
 1187SOL     OW15193   2.887   1.317   6.089  0.3773  0.1820 -0.6007
 1187SOL    HW115194   2.869   1.351   6.178 -0.2492 -0.2911 -0.5447
 1187SOL    HW215195   2.809   1.262   6.082 -0.1976  1.0491 -1.0857
 1188SOL     OW15196   1.714   1.438   2.143 -0.6561 -0.0592  0.1879
 1188SOL    HW115197   1.634   1.458   2.094  0.4913  0.9530 -1.2888
 1188SOL    HW215198   1.774   1.479   2.080  0.6446  0.1243  1.5342
 1189SOL     OW15199   0.274   2.279   0.386 -0.1900  0.6247 -0.0014
 1189SOL    HW115200   0.284   2.208   0.323  1.8605  1.2706 -0.4054
 1189SOL    HW215201   0.207   2.251   0.448  1.9521 -4.6219 -0.0941
 1190SOL     OW15202   1.897   2.578   7.507 -0.6479 -0.1997 -0.9016
 1190SOL    HW115203   1.945   2.517   7.451  0.7751 -0.4238  0.5646
 1190SOL    HW215204   1.938   2.571   7.593  0.8362 -0.5502 -1.6263
 1191SOL     OW15205   2.778   3.381   8.956 -0.2434 -0.0543 -1.2258
 1191SOL    HW115206   2.856   3.407   9.005  0.0947 -1.3898 -1.0464
 1191SOL    HW215207   2.734   3.465   8.967 -0.7672 -0.0217 -3.6847
 1192SOL     OW15208   0.448   0.775   2.098 -0.2361  0.1389  0.5189
 1192SOL    HW115209   0.431   0.843   2.162 -2.3077 -0.1379  0.2549
 1192SOL    HW215210   0.364   0.729   2.103 -0.0123 -0.3278  0.0084
 1193SOL     OW15211   0.826   3.950   7.957 -0.4542  0.6330 -0.0565
 1193SOL    HW115212   0.876   3.983   8.032 -1.2388 -0.4653  0.9573
 1193SOL    HW215213   0.835   3.855   7.968 -0.3670  0.6654  0.1434
 1194SOL     OW15214   4.582   0.362   2.580 -0.0265  0.1446 -0.2089
 1194SOL    HW115215   4.586   0.391   2.489 -0.7556  2.1568  0.4022
 1194SOL    HW215216   4.518   0.294   2.558  1.5518 -0.9631 -1.3091
 1195SOL     OW15217   3.745   4.660   1.985  0.2856 -0.1205  0.0378
 1195SOL    HW115218   3.746   4.700   2.072 -1.7747  1.0458 -0.4607
 1195SOL    HW215219   3.715   0.004   1.937 -0.2259  0.3895  1.1648
 1196SOL     OW15220   3.239   1.069   7.216  0.0374  0.5969  0.2850
 1196SOL    HW115221   3.284   1.034   7.292 -4.0751 -4.1607  0.5096
 1196SOL    HW215222   3.150   1.068   7.252 -0.7757 -2.4507 -1.8371
 1197SOL     OW15223   1.434   0.065   3.874  0.2025 -0.8957 -0.3637
 1197SOL    HW115224   1.500   0.102   3.814  0.0133 -0.6080 -0.3941
 1197SOL    HW215225   1.489   4.730   3.913 -0.3217 -0.3634  1.2916
 1198SOL     OW15226   4.196   3.987   1.110 -0.3263  0.5055 -0.3042
 1198SOL    HW115227   4.196   3.944   1.024  0.9967  0.4617 -0.2787
 1198SOL    HW215228   4.142   3.924   1.158 -0.2832 -0.9849 -2.1831
 1199SOL     OW15229   3.872   0.609   3.192  0.4807  0.5520 -0.4347
 1199SOL    HW115230   3.874   0.705   3.200  1.2523  0.3650  1.6882
 1199SOL    HW215231   3.920   0.582   3.270 -1.9146  0.5553  1.0305
 1200SOL     OW15232   3.036   3.204   2.063 -0.2957  0.1154  0.2746
 1200SOL    HW115233   2.943   3.229   2.057  0.2047  2.1126  0.9895
 1200SOL    HW215234   3.039   3.142   2.136  3.5591 -0.0833 -0.0966
 1201SOL     OW15235   0.656   3.466  13.089 -0.0108  0.3995 -0.2264
 1201SOL    HW115236   0.646   3.399  13.156  0.3474  1.2013  0.6294
 1201SOL    HW215237   0.750   3.470  13.073 -0.3325  1.5521 -1.9118
 1202SOL     OW15238   1.502   1.487   7.170 -0.1735 -0.4424 -0.0861
 1202SOL    HW115239   1.513   1.405   7.124  2.8774 -0.7130  1.1828
 1202SOL    HW215240   1.506   1.461   7.262 -0.3373  0.9174  0.3159
 1203SOL     OW15241   4.571   1.304   4.216  0.1355  0.1243  0.3822
 1203SOL    HW115242   4.504   1.352   4.168 -0.0762 -0.3226  0.2250
 1203SOL    HW215243   4.567   1.222   4.167  0.5394 -1.0543  2.3067
 1204SOL     OW15244   0.288   0.909   2.702  0.2445  0.0662 -0.0607
 1204SOL    HW115245   0.256   0.820   2.720 -0.5087  0.0529 -1.4782
 1204SOL    HW215246   0.375   0.910   2.743  0.1061  0.0834  0.2329
 1205SOL     OW15247   3.826   3.219   4.673  0.3405 -0.4030  0.1601
 1205SOL    HW115248   3.824   3.196   4.580 -0.6379 -1.8888  0.5357
 1205SOL    HW215249   3.883   3.154   4.714  0.6684 -0.5655 -0.5561
 1206SOL     OW15250   2.884   1.011  16.994  0.0319 -0.5250 -0.2031
 1206SOL    HW115251   2.843   1.034  17.078  2.3732 -1.9259  1.3270
 1206SOL    HW215252   2.898   1.084  16.934  0.1075  0.4676  1.0404
 1207SOL     OW15253   2.027   3.279   2.521 -0.4762 -0.4500  0.7388
 1207SOL    HW115254   1.973   3.248   2.594  0.1364  0.9776  1.7979
 1207SOL    HW215255   1.962   3.269   2.451 -1.7933  1.7427  1.6437
 1208SOL     OW15256   0.956   3.017   6.637 -0.2540 -0.3252 -0.2743
 1208SOL    HW115257   0.964   3.049   6.546  3.0940 -1.1037 -0.2510
 1208SOL    HW215258   0.862   3.001   6.648 -0.6452  0.9979 -1.5433
 1209SOL     OW15259   2.170   1.500   3.261  0.0713  0.1683 -0.0447
 1209SOL    HW115260   2.129   1.492   3.346  1.5400 -1.0836  0.5416
 1209SOL    HW215261   2.125   1.573   3.217 -0.3700 -0.0138  0.1072
 1210SOL     OW15262   0.042   4.142   3.445  0.0001  0.3765  0.0963
 1210SOL    HW115263   0.097   4.203   3.397 -0.1107  0.0904 -0.3916
 1210SOL    HW215264   0.025   4.066   3.390  1.8565  0.1675 -0.1719
 1211SOL     OW15265   0.421   1.206  11.067  0.1341  0.0214 -0.7226
 1211SOL    HW115266   0.341   1.259  11.059 -0.6248 -0.9468  0.4874
 1211SOL    HW215267   0.478   1.275  11.100  1.3325 -0.5072 -1.7025
 1212SOL     OW15268   4.709   2.740   6.573  0.0311  0.0999  0.5063
 1212SOL    HW115269   0.004   2.711   6.486 -0.4931 -0.4705  0.5271
 1212SOL    HW215270   0.059   2.746   6.619 -0.1152  0.7248  0.6873
 1213SOL     OW15271   1.680   2.959   5.192  0.3492 -0.2688  0.0078
 1213SOL    HW115272   1.706   2.898   5.123  3.7429  1.2031 -0.0330
 1213SOL    HW215273   1.623   2.901   5.242 -0.2137  0.0963 -0.2089
 1214SOL     OW15274   1.293   1.750   1.949 -0.4063 -0.2308 -0.1432
 1214SOL    HW115275   1.384   1.763   1.974 -1.2031  2.2213  1.5981
 1214SOL    HW215276   1.272   1.662   1.980  0.7828 -0.6826 -0.6561
 1215SOL     OW15277   2.798   2.421   2.220 -0.3114 -0.1645  0.5830
 1215SOL    HW115278   2.864   2.366   2.178  0.7136  1.6509 -0.1997
 1215SOL    HW215279   2.717   2.407   2.170 -0.5652 -0.5830  1.1172
 1216SOL     OW15280   0.504   0.272  16.933  0.0143  0.1242 -0.0319
 1216SOL    HW115281   0.485   0.251  16.842  1.1413  0.3967 -0.3337
 1216SOL    HW215282   0.504   0.184  16.970  1.5240 -0.3067 -1.0618
 1217SOL     OW15283   4.641   2.695  17.511 -0.0435 -0.0845  0.5457
 1217SOL    HW115284   4.628   2.754  17.437  0.5426 -1.7361 -0.8716
 1217SOL    HW215285   4.667   2.612  17.471  1.6040  0.8071 -0.2586
 1218SOL     OW15286   3.764   3.139   2.300  0.2015  0.4726 -0.1790
 1218SOL    HW115287   3.702   3.184   2.243 -0.9128 -0.1333  0.5490
 1218SOL    HW215288   3.717   3.153   2.383  2.1307  1.0536  0.8180
 1219SOL     OW15289   0.685   3.883  12.025  0.5490 -0.0644 -0.4381
 1219SOL    HW115290   0.755   3.948  12.019  0.1289  0.4219 -0.0103
 1219SOL    HW215291   0.734   3.804  12.047  0.2884 -0.5315 -1.5504
 1220SOL     OW15292   4.069   0.676  12.383 -0.0068 -0.1135  0.2460
 1220SOL    HW115293   4.157   0.684  12.420 -0.0038 -1.5787  0.5576
 1220SOL    HW215294   4.030   0.626  12.455 -1.2234 -0.4800 -0.6519
 1221SOL     OW15295   0.058   2.602   2.801  0.0950 -0.0642  0.3812
 1221SOL    HW115296   0.043   2.618   2.708 -2.5979 -2.8995  0.2992
 1221SOL    HW215297   4.729   2.671   2.823 -0.9256 -0.3647 -1.5491
 1222SOL     OW15298   3.242   2.435   3.728 -0.5930 -0.7760 -0.2223
 1222SOL    HW115299   3.310   2.369   3.723 -1.1044 -1.3822  0.9179
 1222SOL    HW215300   3.261   2.498   3.658 -1.9432 -0.9944 -0.7884
 1223SOL     OW15301   3.359   4.392   1.583  0.5269  0.2241  0.1784
 1223SOL    HW115302   3.267   4.364   1.586  0.5208  0.3203  0.9999
 1223SOL    HW215303   3.395   4.386   1.672  0.2519  1.1448  0.3479
 1224SOL     OW15304   3.517   2.288  11.120  0.4169 -0.3554  0.2157
 1224SOL    HW115305   3.559   2.366  11.083  1.1181 -1.2992 -0.9902
 1224SOL    HW215306   3.579   2.259  11.187  0.6755  0.8074  0.4840
 1225SOL     OW15307   1.543   0.520   2.245  0.2137  0.1696 -0.1733
 1225SOL    HW115308   1.541   0.541   2.152  0.2989  1.3239  0.0921
 1225SOL    HW215309   1.508   0.601   2.284  2.1923  0.9077  0.0461
 1226SOL     OW15310   0.132   0.679   8.494  0.4103 -0.4065  0.0834
 1226SOL    HW115311   0.070   0.650   8.561  0.4459 -0.8722 -0.0871
 1226SOL    HW215312   0.186   0.746   8.535  1.9889 -1.4390 -0.3267
 1227SOL     OW15313   3.489   4.256   5.194 -0.0916  0.8647  0.3393
 1227SOL    HW115314   3.566   4.201   5.181  0.1991  1.5221 -0.7560
 1227SOL    HW215315   3.453   4.265   5.106 -0.9348  1.5811  0.7566
 1228SOL     OW15316   1.880   1.561  13.050 -0.8634 -0.4275 -0.3770
 1228SOL    HW115317   1.880   1.501  12.976 -0.0867 -2.2345  1.1007
 1228SOL    HW215318   1.790   1.594  13.040 -0.7042  0.5219  1.4086
 1229SOL     OW15319   0.536   0.368   1.747  0.2450  0.1171  0.5421
 1229SOL    HW115320   0.492   0.437   1.697 -1.9327 -0.9687  0.9680
 1229SOL    HW215321   0.607   0.417   1.789  1.4119 -0.7070 -0.4752
 1230SOL     OW15322   1.617   1.350   7.374 -0.0400 -0.6529 -0.7345
 1230SOL    HW115323   1.673   1.280   7.407 -1.3819 -1.3157  0.1352
 1230SOL    HW215324   1.687   1.412   7.356 -1.1879  0.6576 -0.6699
 1231SOL     OW15325   2.886   0.767   2.329 -0.1186  0.2490  0.2885
 1231SOL    HW115326   2.853   0.808   2.409  0.3139 -0.0898  0.6322
 1231SOL    HW215327   2.958   0.830   2.324 -1.0108  1.3378  1.0184
 1232SOL     OW15328   4.080   4.019  16.921  0.4333  0.4734  0.2254
 1232SOL    HW115329   4.032   3.936  16.916 -0.5209  1.1470 -1.7446
 1232SOL    HW215330   4.050   4.058  17.004  2.3525 -1.3620  1.7840
 1233SOL     OW15331   1.453   3.241   2.927  0.6093 -0.7182 -0.0227
 1233SOL    HW115332   1.435   3.198   3.011  2.7186  0.0828  0.8475
 1233SOL    HW215333   1.454   3.330   2.962 -0.4531 -1.6963  2.5413
 1234SOL     OW15334   2.184   0.611   5.630  0.5498 -0.0242  0.2056
 1234SOL    HW115335   2.176   0.698   5.669  3.6854 -0.1774  1.1801
 1234SOL    HW215336   2.276   0.595   5.650  0.8137  0.8640 -0.3348
 1235SOL     OW15337   0.296   3.947   8.532  0.2522  0.1296 -0.0921
 1235SOL    HW115338   0.233   3.936   8.603 -0.1769 -3.0500 -0.9876
 1235SOL    HW215339   0.330   3.858   8.525  0.9471  0.4442 -0.7179
 1236SOL     OW15340   1.856   2.043   7.054  0.1217  0.7817  0.4147
 1236SOL    HW115341   1.880   2.133   7.077 -0.6040  0.5344  2.1347
 1236SOL    HW215342   1.900   1.992   7.122 -2.3019  1.4309  2.4811
 1237SOL     OW15343   1.630   3.974  14.760 -0.2926  0.0422 -0.2132
 1237SOL    HW115344   1.651   3.882  14.741  0.0949  0.5129 -2.1574
 1237SOL    HW215345   1.632   3.972  14.855 -3.6815 -1.1771 -0.1745
 1238SOL     OW15346   0.432   2.836   4.978 -0.2689  0.4136  0.0198
 1238SOL    HW115347   0.374   2.808   4.908 -0.5029  0.4066  0.2164
 1238SOL    HW215348   0.400   2.920   5.010 -0.6213 -0.2626  1.4807
 1239SOL     OW15349   2.780   0.519   4.290  0.5819  0.5910 -0.6216
 1239SOL    HW115350   2.685   0.526   4.303  0.5919  1.2940 -0.9007
 1239SOL    HW215351   2.797   0.454   4.222 -0.2713 -0.4679  0.1865
 1240SOL     OW15352   3.708   2.015  11.914  0.4804 -0.1862  0.0525
 1240SOL    HW115353   3.765   2.039  11.987  0.7440  0.1085 -0.2458
 1240SOL    HW215354   3.681   2.099  11.876  1.3981  0.2385  0.3327
 1241SOL     OW15355   3.004   2.339  14.239  0.2668  0.6314 -0.8551
 1241SOL    HW115356   2.957   2.306  14.316  1.6970 -0.7901 -0.6033
 1241SOL    HW215357   3.071   2.272  14.232 -0.0542  0.2101  0.1670
 1242SOL     OW15358   0.893   3.863   4.144  0.0605 -0.8744 -0.5876
 1242SOL    HW115359   0.900   3.919   4.221 -0.0073 -1.5997 -0.0623
 1242SOL    HW215360   0.824   3.800   4.163  0.1395 -0.6167  0.5724
 1243SOL     OW15361   1.264   0.549   3.714  0.7461 -0.0150  0.2297
 1243SOL    HW115362   1.174   0.519   3.725  0.7204  0.8084  2.3317
 1243SOL    HW215363   1.251   0.643   3.719 -1.5484 -0.4836  3.0596
 1244SOL     OW15364   1.953   2.314   9.514 -0.5715  0.3948 -0.1292
 1244SOL    HW115365   2.044   2.345   9.522 -0.8381  1.4204 -0.9483
 1244SOL    HW215366   1.968   2.254   9.441  3.0023  0.7726  0.2971
 1245SOL     OW15367   3.343   0.027   8.899  0.3047 -0.0292  0.6386
 1245SOL    HW115368   3.375   0.092   8.961 -1.0193 -0.7562  2.1064
 1245SOL    HW215369   3.341   4.686   8.960 -0.2947  0.7574  1.5793
 1246SOL     OW15370   4.045   3.626   6.967 -0.5614  0.2764  0.1693
 1246SOL    HW115371   3.995   3.554   6.927 -0.8491  0.8402 -0.4869
 1246SOL    HW215372   3.976   3.669   7.017  0.1063 -0.4484  1.6988
 1247SOL     OW15373   1.126   3.826  10.282  0.2548 -0.8955 -0.3941
 1247SOL    HW115374   1.040   3.851  10.317  0.3383 -0.6500 -0.3582
 1247SOL    HW215375   1.101   3.795  10.196  0.6785  1.6987 -1.4747
 1248SOL     OW15376   2.833   4.138  17.557 -0.2502 -0.1046  0.0603
 1248SOL    HW115377   2.904   4.180  17.508 -0.0230 -0.9755 -0.3621
 1248SOL    HW215378   2.832   4.189  17.639  1.6793 -1.3067  0.8429
 1249SOL     OW15379   4.580   3.898   6.421 -0.4819 -0.6272 -0.2135
 1249SOL    HW115380   4.653   3.836   6.420  0.2007  0.1733  0.5376
 1249SOL    HW215381   4.589   3.928   6.331 -1.1709  1.6727  0.4882
 1250SOL     OW15382   3.045   0.830  11.422  0.0122  0.1567  0.3187
 1250SOL    HW115383   2.952   0.822  11.443  0.2402 -2.1697  0.4859
 1250SOL    HW215384   3.033   0.828  11.327  0.1014 -0.2080  0.3142
 1251SOL     OW15385   2.802   4.153   9.418  0.2289  0.2880 -0.2337
 1251SOL    HW115386   2.835   4.063   9.413 -2.1044 -0.6518  1.8922
 1251SOL    HW215387   2.870   4.198   9.467 -2.2034  2.9774  0.6412
 1252SOL     OW15388   4.405   1.944   7.782 -0.0317  0.4011 -0.1274
 1252SOL    HW115389   4.312   1.934   7.803  0.3213 -0.8697  0.7845
 1252SOL    HW215390   4.395   1.930   7.687 -1.8923  0.6066  0.0370
 1253SOL     OW15391   1.224   4.730  11.845  0.0284  0.0182  0.3207
 1253SOL    HW115392   1.185   4.655  11.889  2.2128 -0.4327  1.4950
 1253SOL    HW215393   1.212   4.706  11.753 -2.4796  2.2248  0.0647
 1254SOL     OW15394   1.702   0.812   8.190 -0.6268 -0.3416  0.0406
 1254SOL    HW115395   1.686   0.801   8.283  0.5101  2.6187  0.5713
 1254SOL    HW215396   1.673   0.901   8.169  0.2337  0.2123  1.2036
 1255SOL     OW15397   3.544   2.395   7.586 -0.0206 -0.1682  0.4458
 1255SOL    HW115398   3.511   2.310   7.615  0.7537 -0.4912  0.3797
 1255SOL    HW215399   3.493   2.415   7.507  1.0127 -1.2625 -0.5175
 1256SOL     OW15400   4.356   3.464   4.381  0.1497 -0.3234 -0.1955
 1256SOL    HW115401   4.395   3.551   4.389 -0.8732  0.1049  0.1149
 1256SOL    HW215402   4.267   3.485   4.409  0.1042 -1.2606  0.3756
 1257SOL     OW15403   3.702   4.160   9.949  0.6526 -0.2624  0.0899
 1257SOL    HW115404   3.661   4.238   9.911  1.3892  0.7800  1.4842
 1257SOL    HW215405   3.778   4.203   9.987  1.1533 -0.0409 -1.1377
 1258SOL     OW15406   4.658   0.539   5.633 -0.1337 -0.1597 -0.3195
 1258SOL    HW115407   4.636   0.627   5.663 -0.8119 -0.3302 -0.3074
 1258SOL    HW215408   4.573   0.497   5.617  0.3414 -1.8359  1.5035
 1259SOL     OW15409   0.458   2.591   3.378 -0.9384 -0.5072  0.2184
 1259SOL    HW115410   0.537   2.551   3.343  0.2671  0.0788  2.2670
 1259SOL    HW215411   0.411   2.516   3.415 -1.3084  0.1967  1.1595
 1260SOL     OW15412   2.277   2.853   2.454 -0.0441 -0.2323  0.1558
 1260SOL    HW115413   2.221   2.903   2.512 -0.2321 -0.1484 -0.0995
 1260SOL    HW215414   2.365   2.882   2.479 -0.0367  1.3044 -1.6188
 1261SOL     OW15415   4.512   3.740   9.175 -0.2348 -0.1369  0.0213
 1261SOL    HW115416   4.480   3.776   9.257 -0.5929  2.0656 -1.0939
 1261SOL    HW215417   4.432   3.696   9.145  0.9736 -1.7989 -0.7669
 1262SOL     OW15418   3.774   2.255   7.124 -0.0597 -0.8630  0.2177
 1262SOL    HW115419   3.733   2.303   7.052  0.4190  0.0050  0.5144
 1262SOL    HW215420   3.832   2.326   7.151 -0.0892 -0.7850  0.0769
 1263SOL     OW15421   2.657   4.153   3.968 -0.1176 -0.0179 -0.4813
 1263SOL    HW115422   2.577   4.204   3.954 -1.1992 -1.6341 -0.2322
 1263SOL    HW215423   2.720   4.203   3.917  0.2344 -0.6938 -0.7146
 1264SOL     OW15424   4.693   0.120  15.745 -0.0654 -0.1539  0.1459
 1264SOL    HW115425   4.621   0.071  15.705  0.8466 -2.3378  1.1905
 1264SOL    HW215426   4.705   0.203  15.700  1.0254  0.3546  1.3927
 1265SOL     OW15427   0.754   1.337  17.513 -0.2110 -0.3284 -0.2545
 1265SOL    HW115428   0.676   1.353  17.566 -0.7125 -3.5110 -0.0623
 1265SOL    HW215429   0.735   1.384  17.431 -1.1680 -1.4300 -0.6677
 1266SOL     OW15430   4.323   0.394   7.897 -0.1671 -0.2843 -0.0221
 1266SOL    HW115431   4.284   0.473   7.936 -2.3052 -1.5823  0.4681
 1266SOL    HW215432   4.331   0.345   7.978 -1.9266  0.0942  0.3844
 1267SOL     OW15433   2.385   1.686   4.445  0.0758 -0.1066  0.1565
 1267SOL    HW115434   2.295   1.656   4.431 -0.3415 -0.0485  2.6695
 1267SOL    HW215435   2.404   1.721   4.359  0.1603 -1.3717 -0.3412
 1268SOL     OW15436   3.167   4.303   9.285 -0.2432  0.2027 -0.0347
 1268SOL    HW115437   3.091   4.302   9.227  0.0035 -2.3444 -0.3147
 1268SOL    HW215438   3.208   4.388   9.270  1.4799 -0.8831 -1.3698
 1269SOL     OW15439   3.559   3.420   6.580 -0.1300  0.1324  0.1683
 1269SOL    HW115440   3.636   3.409   6.523 -0.3242  1.9358 -0.4709
 1269SOL    HW215441   3.572   3.347   6.640 -1.1998 -0.6144 -0.5112
 1270SOL     OW15442   0.377   2.173   1.370 -0.5132  0.9311  0.2951
 1270SOL    HW115443   0.287   2.188   1.340 -0.7275 -0.6657  0.1834
 1270SOL    HW215444   0.382   2.078   1.374 -1.5932  0.8062 -1.4223
 1271SOL     OW15445   4.198   3.855   0.851  0.3225  0.5919  1.0427
 1271SOL    HW115446   4.125   3.899   0.807  0.2085  2.1717  2.7889
 1271SOL    HW215447   4.251   3.824   0.778 -1.0788 -0.0445  0.2947
 1272SOL     OW15448   3.027   2.545  11.316  0.2106 -0.1542 -0.1788
 1272SOL    HW115449   3.080   2.523  11.393  1.0713 -1.3673 -1.1142
 1272SOL    HW215450   3.018   2.456  11.281 -1.5136  0.5926 -1.6314
 1273SOL     OW15451   1.902   1.319   7.053  0.3653  0.0505 -0.1000
 1273SOL    HW115452   1.813   1.336   7.022  0.5316  0.6484 -0.2404
 1273SOL    HW215453   1.914   1.226   7.035 -0.1873 -0.1888  0.7438
 1274SOL     OW15454   1.535   2.458   7.587  0.7582 -0.1425  0.1488
 1274SOL    HW115455   1.588   2.415   7.655  0.1444  1.2416  1.4991
 1274SOL    HW215456   1.570   2.547   7.589  0.2473  0.1249 -2.6640
 1275SOL     OW15457   0.708   3.489   0.227  0.2499 -0.4646  0.3224
 1275SOL    HW115458   0.728   3.483   0.321 -1.6193 -0.6598  0.7125
 1275SOL    HW215459   0.777   3.436   0.187  0.0949 -0.6258  0.2714
 1276SOL     OW15460   0.765   2.166  12.780  0.4530 -0.4047 -0.5997
 1276SOL    HW115461   0.688   2.208  12.820 -0.0715 -1.3912 -0.5752
 1276SOL    HW215462   0.773   2.099  12.848  0.2675  1.9300  1.7281
 1277SOL     OW15463   1.944   2.107   5.206  0.3278  0.1696 -0.4034
 1277SOL    HW115464   1.965   2.174   5.141  0.6961 -0.2934 -0.7558
 1277SOL    HW215465   1.944   2.155   5.289 -1.5291  0.0405 -0.3240
 1278SOL     OW15466   1.279   3.581  16.768  0.4527 -0.5542 -0.0895
 1278SOL    HW115467   1.205   3.573  16.828  0.0357  1.3143 -0.3548
 1278SOL    HW215468   1.355   3.570  16.825  0.5938  0.4400 -0.0953
 1279SOL     OW15469   2.289   4.207   1.765 -0.0252 -0.3016 -0.2793
 1279SOL    HW115470   2.236   4.179   1.691  0.8290  2.2503 -1.8842
 1279SOL    HW215471   2.217   4.209   1.828  1.1155  0.3063  1.0260
 1280SOL     OW15472   4.681   3.716   9.461 -0.1312  0.2645 -0.1045
 1280SOL    HW115473   4.588   3.738   9.468 -0.0578  0.6072 -0.2148
 1280SOL    HW215474   4.674   3.643   9.399  0.5040  1.3977 -1.4907
 1281SOL     OW15475   3.022   2.658   8.392 -0.4226  0.5605 -0.0679
 1281SOL    HW115476   3.061   2.667   8.479 -1.5442 -1.2867  0.6414
 1281SOL    HW215477   2.983   2.572   8.404  1.4551 -0.1315  1.0525
 1282SOL     OW15478   3.885   3.176   6.577  0.7040  0.2564 -0.6079
 1282SOL    HW115479   3.862   3.251   6.522 -0.2844  1.8821  2.0357
 1282SOL    HW215480   3.944   3.208   6.645 -0.6037  0.1018  0.6011
 1283SOL     OW15481   0.544   3.691   2.094  0.2574 -0.2309  0.5868
 1283SOL    HW115482   0.628   3.645   2.097 -0.8432 -2.2340  0.2603
 1283SOL    HW215483   0.565   3.773   2.139 -1.1366  0.7627 -0.5822
 1284SOL     OW15484   0.772   1.373   1.922  0.3798  0.2604 -0.4615
 1284SOL    HW115485   0.752   1.287   1.959  1.9184 -0.7092 -1.9067
 1284SOL    HW215486   0.768   1.414   2.009  0.7232 -1.1175  0.2134
 1285SOL     OW15487   4.013   2.748   4.255  0.6403  0.0526  0.5065
 1285SOL    HW115488   4.032   2.680   4.190 -0.2054 -1.2557  1.6190
 1285SOL    HW215489   4.076   2.816   4.233  0.3503 -0.2733 -1.3688
 1286SOL     OW15490   0.343   0.212   7.620 -0.3577  0.2412  0.6255
 1286SOL    HW115491   0.372   0.283   7.677  1.4691 -0.3295  0.3987
 1286SOL    HW215492   0.259   0.182   7.656  0.3607 -0.8156  1.4195
 1287SOL     OW15493   2.383   2.619   5.453  0.1846 -0.0391  0.2058
 1287SOL    HW115494   2.352   2.620   5.544  1.2601 -0.5095  0.5742
 1287SOL    HW215495   2.416   2.708   5.440  0.4706 -0.0992  0.5223
 1288SOL     OW15496   1.824   1.529   2.403 -0.1076 -0.3619  0.7667
 1288SOL    HW115497   1.795   1.457   2.346 -1.8525  1.2833 -0.4150
 1288SOL    HW215498   1.777   1.604   2.368 -1.7997 -0.7258  2.2156
 1289SOL     OW15499   0.717   1.449   1.243 -0.2397 -0.2530 -0.0552
 1289SOL    HW115500   0.699   1.356   1.255  0.2729 -0.3573 -0.1127
 1289SOL    HW215501   0.792   1.450   1.183  0.6297 -2.9531  1.0199
 1290SOL     OW15502   0.882   0.580  17.503  0.1320  0.3068  0.0890
 1290SOL    HW115503   0.934   0.613  17.429  0.1609  0.5188  0.2036
 1290SOL    HW215504   0.895   0.657  17.558  0.8015  1.4209 -1.6316
 1291SOL     OW15505   0.505   1.199   7.227 -0.3783 -0.1092 -0.0589
 1291SOL    HW115506   0.544   1.236   7.307  0.0362  1.0409 -0.7969
 1291SOL    HW215507   0.574   1.215   7.163 -0.5661 -1.7991 -0.6730
 1292SOL     OW15508   4.249   4.677  10.020  0.0445 -0.3073  0.5109
 1292SOL    HW115509   4.187   4.706  10.087  0.0123  1.4469 -0.2755
 1292SOL    HW215510   4.331   4.685  10.069  0.7753 -0.2224 -0.7071
 1293SOL     OW15511   3.804   0.667   8.132 -0.2244  0.2349  0.1432
 1293SOL    HW115512   3.778   0.723   8.059 -0.4376  1.2147  0.9731
 1293SOL    HW215513   3.751   0.588   8.119  0.4855 -0.1452 -0.4524
 1294SOL     OW15514   2.031   0.270   9.550  0.1341  0.8046  0.2048
 1294SOL    HW115515   2.043   0.178   9.577 -2.1834  0.1654 -0.9469
 1294SOL    HW215516   1.959   0.298   9.605  0.4889 -0.4828  1.3438
 1295SOL     OW15517   3.513   4.586  11.018 -0.3446  0.2817  0.0911
 1295SOL    HW115518   3.560   4.515  10.973  1.0268  0.0834  1.8342
 1295SOL    HW215519   3.468   4.541  11.089  1.0441 -0.1643  0.6891
 1296SOL     OW15520   3.604   0.261   2.677  0.0707 -1.1696  0.1926
 1296SOL    HW115521   3.647   0.282   2.594 -1.1255  0.1005 -0.1002
 1296SOL    HW215522   3.512   0.281   2.658  1.5027  2.6287 -2.6194
 1297SOL     OW15523   1.940   1.250   2.562  0.2831 -0.2208 -0.2599
 1297SOL    HW115524   1.928   1.161   2.529  0.6707  0.2734 -1.7023
 1297SOL    HW215525   2.008   1.284   2.504 -0.6065 -0.8498 -1.6561
 1298SOL     OW15526   4.571   0.429   4.291 -0.0636 -0.2961 -0.0690
 1298SOL    HW115527   4.495   0.441   4.348  0.4982 -0.0796  0.6371
 1298SOL    HW215528   4.574   0.504   4.232  1.2282 -0.6595 -0.4564
 1299SOL     OW15529   4.394   1.773   3.617 -0.2289 -0.1656 -0.3146
 1299SOL    HW115530   4.463   1.815   3.566  0.7122  0.9754  1.8738
 1299SOL    HW215531   4.329   1.765   3.547 -0.3880  0.8232 -0.2694
 1300SOL     OW15532   3.503   3.407  11.412 -0.1728 -0.0801  0.0447
 1300SOL    HW115533   3.446   3.334  11.435  0.1742 -1.0553 -2.2344
 1300SOL    HW215534   3.581   3.375  11.457 -0.0924 -4.2748 -3.0910
 1301SOL     OW15535   3.227   2.803   8.114 -0.0454  0.2614 -0.2347
 1301SOL    HW115536   3.292   2.874   8.113 -0.3923  0.5473 -3.0221
 1301SOL    HW215537   3.242   2.771   8.025  2.0915  0.4197  0.0747
 1302SOL     OW15538   1.933   0.166  14.793 -0.0547 -0.4208 -0.5577
 1302SOL    HW115539   1.924   0.101  14.723 -1.0596  0.9666 -1.6980
 1302SOL    HW215540   1.880   0.120  14.859  1.3746 -0.1943  0.7331
 1303SOL     OW15541   2.477   1.740   1.045  0.9186 -0.0330  0.0565
 1303SOL    HW115542   2.393   1.709   1.079  0.1794  0.5787 -1.2222
 1303SOL    HW215543   2.467   1.734   0.950  2.9923  1.1736 -0.2332
 1304SOL     OW15544   1.753   4.257   6.637 -0.1775 -0.5489  0.7676
 1304SOL    HW115545   1.784   4.293   6.720 -0.6729 -2.8954  1.9764
 1304SOL    HW215546   1.830   4.262   6.580 -1.8694  0.8405 -1.4297
 1305SOL     OW15547   3.635   0.156   3.669 -1.2436 -0.3514 -0.1865
 1305SOL    HW115548   3.701   0.191   3.609  0.4720  0.2150  2.0280
 1305SOL    HW215549   3.672   0.182   3.754  1.0221  3.3387 -2.2985
 1306SOL     OW15550   1.334   2.939   2.926  0.2474 -0.5749 -0.0355
 1306SOL    HW115551   1.308   3.000   2.995  0.0024  0.2490 -0.8577
 1306SOL    HW215552   1.259   2.956   2.868  0.2844 -1.7147 -0.4157
 1307SOL     OW15553   0.656   0.027   5.316  0.0402 -0.0361 -0.3580
 1307SOL    HW115554   0.734   0.056   5.364  0.8851 -3.0576  0.1298
 1307SOL    HW215555   0.704   4.722   5.242  1.7480 -0.4270  0.9385
 1308SOL     OW15556   0.251   1.805   3.428  0.6065 -0.1372  0.2801
 1308SOL    HW115557   0.243   1.714   3.401  2.1698 -0.5432  1.2211
 1308SOL    HW215558   0.231   1.841   3.341 -0.7257 -2.2268 -0.2871
 1309SOL     OW15559   4.659   4.433  11.130  0.2759  0.6463 -0.1401
 1309SOL    HW115560   4.592   4.398  11.071 -1.0258  2.6777  0.1237
 1309SOL    HW215561   4.613   4.435  11.214  0.7686 -1.0754  0.1702
 1310SOL     OW15562   3.500   2.249   4.160 -0.3707 -0.6336 -0.3025
 1310SOL    HW115563   3.554   2.266   4.083  0.5751  1.0242  0.7306
 1310SOL    HW215564   3.508   2.154   4.165  1.4601 -0.4195  0.9837
 1311SOL     OW15565   0.615   2.504  16.562  0.1851 -0.2994  0.1008
 1311SOL    HW115566   0.555   2.437  16.529 -1.3536  1.6922 -1.1426
 1311SOL    HW215567   0.586   2.520  16.652 -0.5815 -0.5209 -0.1083
 1312SOL     OW15568   0.283   1.605   3.229  0.3574 -0.4805 -0.4692
 1312SOL    HW115569   0.313   1.601   3.138 -0.9005 -0.1526 -0.8975
 1312SOL    HW215570   0.227   1.529   3.244  3.5077 -3.1296 -2.0494
 1313SOL     OW15571   3.052   2.553   2.922  0.0089  0.4319 -0.2278
 1313SOL    HW115572   2.965   2.545   2.884  0.8060  1.1279 -2.1721
 1313SOL    HW215573   3.037   2.496   2.997 -1.4848 -0.5942 -1.3179
 1314SOL     OW15574   1.297   2.631   2.884 -0.0301 -0.6551  0.5288
 1314SOL    HW115575   1.204   2.620   2.867 -0.1383  0.6834  0.2262
 1314SOL    HW215576   1.312   2.724   2.900 -2.3048  0.0484 -1.5239
 1315SOL     OW15577   3.858   4.424  14.245  0.1853  0.1229  0.1744
 1315SOL    HW115578   3.795   4.355  14.225  2.7984 -2.2134 -0.0072
 1315SOL    HW215579   3.937   4.370  14.254  0.6158  0.4916 -1.4726
 1316SOL     OW15580   0.052   1.670   6.880 -0.2042  0.3749  0.6026
 1316SOL    HW115581   0.051   1.592   6.936  2.3331  0.9379  1.3940
 1316SOL    HW215582   0.123   1.639   6.824 -0.4960  1.0138 -0.1132
 1317SOL     OW15583   4.710   2.229   2.028  0.2307 -0.0552 -0.6527
 1317SOL    HW115584   0.058   2.215   2.077 -0.5712  0.9798  0.9659
 1317SOL    HW215585   4.733   2.173   1.954 -1.8572  1.4627 -2.4288
 1318SOL     OW15586   2.670   1.634   6.772 -0.1829 -0.3007  0.3392
 1318SOL    HW115587   2.702   1.723   6.759  2.2618 -1.4366 -1.4581
 1318SOL    HW215588   2.714   1.605   6.852 -1.3649 -0.5804  0.8897
 1319SOL     OW15589   0.445   0.769  10.213 -0.7790 -0.2578  0.3421
 1319SOL    HW115590   0.366   0.716  10.221 -1.7633  1.2148  0.2108
 1319SOL    HW215591   0.421   0.854  10.249  1.1300  0.7891 -0.8162
 1320SOL     OW15592   4.529   4.448   2.792  0.2568 -0.6632  0.2759
 1320SOL    HW115593   4.473   4.403   2.728  0.5278  0.0150 -0.4362
 1320SOL    HW215594   4.550   4.377   2.852  1.4732  0.1540  0.8132
 1321SOL     OW15595   4.083   0.102  10.178  0.3201  0.3362 -0.6628
 1321SOL    HW115596   4.048   0.129  10.263 -0.5311 -1.0602 -0.5722
 1321SOL    HW215597   4.142   0.177  10.172  0.1249  0.4593 -1.0060
 1322SOL     OW15598   3.236   1.981  15.152 -0.3102 -0.9184 -0.7821
 1322SOL    HW115599   3.254   1.893  15.184 -2.0118 -0.1461  2.2968
 1322SOL    HW215600   3.174   2.004  15.222  0.2135  1.4536 -1.0775
 1323SOL     OW15601   0.086   4.494  14.838 -0.1019 -0.2355 -0.1183
 1323SOL    HW115602   0.154   4.522  14.899 -0.6497 -0.5451  0.6349
 1323SOL    HW215603   0.102   4.553  14.765  1.5502  1.6106  1.7434
 1324SOL     OW15604   2.002   0.972  16.981 -0.5682  0.6578 -0.2020
 1324SOL    HW115605   1.942   0.902  16.954 -1.1694  1.7158 -1.5766
 1324SOL    HW215606   2.087   0.942  16.949 -1.0749  0.5052 -1.4409
 1325SOL     OW15607   4.114   0.050   7.774  0.1244  0.3588  0.5760
 1325SOL    HW115608   4.198   0.010   7.751 -0.9312 -1.9743  0.7082
 1325SOL    HW215609   4.114   0.144   7.761 -0.7039  0.4537  1.2659
 1326SOL     OW15610   2.031   2.732  17.688  0.1893 -0.0072  0.3333
 1326SOL    HW115611   2.104   2.723   0.016  0.7894  0.2702 -0.3546
 1326SOL    HW215612   1.965   2.754   0.021 -2.0817 -1.9773 -1.2866
 1327SOL     OW15613   2.223   1.752   6.048 -0.0133  0.7211  0.2832
 1327SOL    HW115614   2.223   1.671   5.997 -0.3477 -0.8399  2.7451
 1327SOL    HW215615   2.297   1.800   6.010 -0.0672  1.2651  0.8634
 1328SOL     OW15616   4.007   0.683   4.940  0.5150 -0.0364 -0.4318
 1328SOL    HW115617   3.950   0.758   4.924 -1.1281 -1.2234 -0.0784
 1328SOL    HW215618   4.011   0.687   5.036 -1.6182  0.2910 -0.3654
 1329SOL     OW15619   1.278   0.854  16.230 -0.1118  0.1321 -0.6661
 1329SOL    HW115620   1.195   0.881  16.269 -0.2000 -0.2465 -0.5944
 1329SOL    HW215621   1.338   0.839  16.304  0.9537 -1.9860 -1.9612
 1330SOL     OW15622   4.180   1.268  15.039 -0.5687 -0.0298 -0.1945
 1330SOL    HW115623   4.152   1.308  14.957  1.2578 -0.3505 -0.9696
 1330SOL    HW215624   4.181   1.348  15.092 -2.6948 -0.5761  0.6396
 1331SOL     OW15625   2.934   2.349   1.960 -0.5730 -0.2095  0.2677
 1331SOL    HW115626   2.899   2.272   1.915  0.1884  0.0831 -0.8279
 1331SOL    HW215627   2.996   2.298   2.012  0.2302  0.6057  0.1245
 1332SOL     OW15628   1.696   2.529   3.685 -0.4249  0.2916 -0.2710
 1332SOL    HW115629   1.690   2.579   3.767  0.9663  2.7469 -1.6674
 1332SOL    HW215630   1.743   2.586   3.625 -0.5497  1.8681  1.1389
 1333SOL     OW15631   0.469   4.465   4.038  0.0665 -0.2632 -0.0590
 1333SOL    HW115632   0.517   4.540   4.002 -2.2855  1.1807 -0.1791
 1333SOL    HW215633   0.544   4.408   4.057 -1.9844 -3.9340 -3.0630
 1334SOL     OW15634   0.281   1.456   5.880  0.3064 -0.3197 -0.4115
 1334SOL    HW115635   0.327   1.531   5.843 -0.1173 -0.7211 -1.7404
 1334SOL    HW215636   0.346   1.431   5.946  2.6458  1.8608 -1.9263
 1335SOL     OW15637   4.160   1.457   9.171 -0.1258 -0.8137 -0.1387
 1335SOL    HW115638   4.246   1.430   9.140  0.1042 -2.4597  1.9349
 1335SOL    HW215639   4.137   1.526   9.109 -1.2060  0.1228  1.2829
 1336SOL     OW15640   1.166   0.263   5.644 -0.7750 -0.8376 -0.0000
 1336SOL    HW115641   1.138   0.171   5.641 -1.4667 -0.5870 -1.1975
 1336SOL    HW215642   1.151   0.278   5.551 -0.5227  0.0711  0.1066
 1337SOL     OW15643   2.589   0.369   6.965 -0.2390  0.1294  0.9628
 1337SOL    HW115644   2.680   0.368   6.937 -0.1815 -0.2154  1.1606
 1337SOL    HW215645   2.603   0.384   7.059 -3.0237  1.6191  1.1430
 1338SOL     OW15646   1.447   4.056   5.371  0.1233  0.1748 -0.5653
 1338SOL    HW115647   1.505   4.098   5.308  0.1363  0.3423 -0.4426
 1338SOL    HW215648   1.462   3.964   5.353  0.3569  0.5353 -2.2448
 1339SOL     OW15649   4.293   4.465   5.865  0.0398  0.2164 -0.0622
 1339SOL    HW115650   4.257   4.541   5.911 -1.4152  1.9828 -4.1560
 1339SOL    HW215651   4.271   4.397   5.929  0.2391  0.3921  0.1933
 1340SOL     OW15652   1.463   1.381   6.086  0.8156 -0.2688 -0.3874
 1340SOL    HW115653   1.429   1.467   6.060 -1.0071 -0.2554  2.0848
 1340SOL    HW215654   1.507   1.363   6.003  0.3427 -1.8327 -0.2909
 1341SOL     OW15655   2.614   4.119   6.072  0.5929  0.3975 -0.0562
 1341SOL    HW115656   2.542   4.153   6.125  0.6879 -0.6382  0.7385
 1341SOL    HW215657   2.578   4.033   6.050 -0.6096  1.4895 -2.3737
 1342SOL     OW15658   0.960   0.228   6.683  0.3204 -0.1576 -0.0547
 1342SOL    HW115659   0.995   0.228   6.594  1.1586 -3.5920  0.2462
 1342SOL    HW215660   1.040   0.192   6.724  1.4088  0.9977 -1.1732
 1343SOL     OW15661   0.987   3.765   2.333  0.3990 -0.2204  0.3711
 1343SOL    HW115662   1.006   3.798   2.246 -0.4353 -0.6860  0.0141
 1343SOL    HW215663   0.894   3.744   2.319  0.4782 -1.5320  1.6754
 1344SOL     OW15664   0.809   4.163  11.307 -0.4580  0.0589  0.2962
 1344SOL    HW115665   0.863   4.173  11.385  1.2516  0.2200 -0.9122
 1344SOL    HW215666   0.757   4.243  11.305 -1.2768 -0.5062 -1.4665
 1345SOL     OW15667   2.527   0.851  17.310 -0.3485 -0.6951  0.1921
 1345SOL    HW115668   2.524   0.761  17.276 -2.3660 -0.0640 -1.2174
 1345SOL    HW215669   2.530   0.905  17.231  0.4870 -1.6210 -0.4141
 1346SOL     OW15670   3.318   3.562   2.888 -0.2323  0.1242 -0.6879
 1346SOL    HW115671   3.374   3.587   2.961 -2.3314  0.1547  0.9180
 1346SOL    HW215672   3.343   3.474   2.861  1.2295  0.3182  0.0307
 1347SOL     OW15673   3.280   2.123   5.138  0.5447  0.6956  0.0682
 1347SOL    HW115674   3.211   2.185   5.158  0.1202  0.6217 -1.1403
 1347SOL    HW215675   3.353   2.179   5.163  0.8022 -0.5096  2.0100
 1348SOL     OW15676   2.182   2.381  12.148 -0.1459  0.3974 -0.1925
 1348SOL    HW115677   2.157   2.422  12.065 -0.3339  1.1913  0.2555
 1348SOL    HW215678   2.213   2.462  12.189  0.3481 -0.2534  0.7018
 1349SOL     OW15679   1.556   4.132   3.897 -0.4839 -0.5581  0.8084
 1349SOL    HW115680   1.503   4.071   3.847 -0.0555  0.7309 -1.2246
 1349SOL    HW215681   1.506   4.213   3.882  0.3967 -0.0492  0.6447
 1350SOL     OW15682   2.576   2.339   7.132  0.1993  0.5562 -0.0454
 1350SOL    HW115683   2.540   2.299   7.053 -0.0547 -1.4075  1.0448
 1350SOL    HW215684   2.585   2.432   7.114 -0.9835  0.8107  0.6212
 1351SOL     OW15685   2.553   2.274   9.805  0.4991 -0.1491  0.0366
 1351SOL    HW115686   2.525   2.363   9.826 -1.1737 -0.5559 -0.5244
 1351SOL    HW215687   2.491   2.253   9.735 -0.9873  0.7678  1.0839
 1352SOL     OW15688   2.771   1.336   6.330  0.3023  0.2264  0.4804
 1352SOL    HW115689   2.800   1.251   6.361  1.2767  0.3166 -0.1634
 1352SOL    HW215690   2.783   1.395   6.405 -1.9933  1.5437 -0.1618
 1353SOL     OW15691   4.615   3.455   2.205  0.3663  0.5641 -0.1541
 1353SOL    HW115692   4.583   3.406   2.281  1.1757  0.5618  0.1860
 1353SOL    HW215693   4.675   3.516   2.248  0.8051 -0.1375  0.2176
 1354SOL     OW15694   3.941   0.308   6.549 -0.0821 -0.1313 -0.1415
 1354SOL    HW115695   3.954   0.329   6.642 -0.1579  0.7710 -0.3377
 1354SOL    HW215696   3.955   0.396   6.514 -0.1789  0.0510  0.2729
 1355SOL     OW15697   2.545   2.785  10.009 -0.3098  0.9671  0.1348
 1355SOL    HW115698   2.511   2.827   9.930 -0.7668  3.2476  1.5399
 1355SOL    HW215699   2.462   2.770  10.053  0.3756 -2.4875  0.2660
 1356SOL     OW15700   2.757   0.412  14.385  0.0829  0.4345  0.5088
 1356SOL    HW115701   2.768   0.505  14.404 -0.9318  0.7800 -0.5814
 1356SOL    HW215702   2.846   0.385  14.365  0.1969  0.3499  1.1193
 1357SOL     OW15703   4.400   2.966   4.392  0.4470  0.5143  0.0453
 1357SOL    HW115704   4.339   3.015   4.338  1.2550  0.9148 -0.4952
 1357SOL    HW215705   4.434   2.905   4.327 -0.1295  0.3542 -0.0995
 1358SOL     OW15706   2.975   2.913   9.860 -1.2134  0.6945 -0.0555
 1358SOL    HW115707   2.952   2.982   9.797 -2.5695  1.6503  1.4890
 1358SOL    HW215708   2.969   2.956   9.945 -1.7497 -0.3542  0.4333
 1359SOL     OW15709   1.198   3.115   7.347 -0.4023 -0.3252 -0.2678
 1359SOL    HW115710   1.113   3.131   7.306 -1.0743  3.0372  2.4071
 1359SOL    HW215711   1.191   3.020   7.357 -0.3265 -0.2986  0.0402
 1360SOL     OW15712   3.915   4.247  10.920 -0.0747  0.0822 -0.2268
 1360SOL    HW115713   3.857   4.312  10.958 -0.2380 -0.1456 -0.0812
 1360SOL    HW215714   3.951   4.290  10.843 -1.2447  1.8439  0.2292
 1361SOL     OW15715   4.198   3.128   4.857  0.3466  0.1289 -0.1664
 1361SOL    HW115716   4.205   3.217   4.823 -2.9091  1.7454  3.3869
 1361SOL    HW215717   4.273   3.126   4.918  1.9473 -1.2139 -2.1848
 1362SOL     OW15718   4.034   3.739   5.506 -0.1008 -0.1439 -0.3818
 1362SOL    HW115719   4.110   3.718   5.560 -0.4166  1.8748  0.8705
 1362SOL    HW215720   3.985   3.658   5.518  2.8232 -1.7866  0.5338
 1363SOL     OW15721   3.104   3.618  14.932 -0.0761  0.3628  0.1045
 1363SOL    HW115722   3.073   3.559  14.864  0.6916  0.8830 -0.6923
 1363SOL    HW215723   3.132   3.552  14.996 -0.4805 -0.5407 -0.6599
 1364SOL     OW15724   3.386   3.046  16.306  0.6012 -0.6303  0.7105
 1364SOL    HW115725   3.420   3.119  16.357 -2.2695  1.2442 -0.0285
 1364SOL    HW215726   3.303   3.019  16.346  1.4893  0.8906  3.5609
 1365SOL     OW15727   2.677   1.613   8.869 -0.0195 -0.1026 -0.0189
 1365SOL    HW115728   2.595   1.594   8.824 -0.0838  1.2819 -0.4703
 1365SOL    HW215729   2.738   1.610   8.795 -1.7312  1.0394 -1.4599
 1366SOL     OW15730   0.190   1.556  11.450  0.2116 -0.5942  0.0899
 1366SOL    HW115731   0.267   1.532  11.399 -0.2048 -0.5718 -0.5410
 1366SOL    HW215732   0.177   1.471  11.493  2.2748 -0.1429  1.6368
 1367SOL     OW15733   3.323   3.722   8.380  0.1113 -0.4433 -0.2966
 1367SOL    HW115734   3.268   3.798   8.400  1.0993  0.1694  0.0886
 1367SOL    HW215735   3.262   3.684   8.316  0.2401  1.3124 -1.4695
 1368SOL     OW15736   4.104   1.485   5.532 -0.0928  0.7126  0.6253
 1368SOL    HW115737   4.034   1.549   5.541  0.4318  1.3541  0.1403
 1368SOL    HW215738   4.057   1.403   5.547 -0.6538  0.9913  0.3614
 1369SOL     OW15739   2.072   1.872   5.765  0.0904  0.6936  0.6578
 1369SOL    HW115740   2.018   1.809   5.812  0.4111  0.2033  0.3642
 1369SOL    HW215741   2.109   1.807   5.705 -1.4181  0.2267  0.2229
 1370SOL     OW15742   3.947   2.296   6.083  0.1074 -0.0117 -0.1516
 1370SOL    HW115743   3.999   2.325   6.008  0.8787  1.0753  0.8039
 1370SOL    HW215744   3.952   2.200   6.078  0.8978 -0.0068  0.5356
 1371SOL     OW15745   1.010   0.706  17.315 -0.2524  0.3280  0.1035
 1371SOL    HW115746   0.976   0.707  17.226  0.6137  1.6035 -0.2073
 1371SOL    HW215747   1.103   0.720  17.300  0.0250 -1.8726 -0.2125
 1372SOL     OW15748   0.101   1.976   1.388  0.4400  0.2150 -0.5476
 1372SOL    HW115749   0.012   1.943   1.400 -0.2089  2.4272  0.8334
 1372SOL    HW215750   0.151   1.912   1.438 -0.2626  1.2960  1.5430
 1373SOL     OW15751   1.757   3.927  13.103  0.4427 -0.7267 -0.7562
 1373SOL    HW115752   1.778   3.999  13.043 -0.7995 -0.5481 -0.9760
 1373SOL    HW215753   1.724   3.857  13.046  2.1761 -1.4889 -0.8271
 1374SOL     OW15754   1.003   4.287   8.826  0.2580 -0.0532  0.1284
 1374SOL    HW115755   1.010   4.193   8.844  0.0514  0.2593  1.9166
 1374SOL    HW215756   1.096   4.294   8.805 -0.2546  0.9178 -1.7935
 1375SOL     OW15757   1.117   2.100  12.947 -0.2824 -0.0486  0.0171
 1375SOL    HW115758   1.038   2.059  12.913 -0.2774  1.9035 -2.3325
 1375SOL    HW215759   1.183   2.072  12.885  0.1052  2.2268 -0.6189
 1376SOL     OW15760   1.549   4.091  13.256  0.1532  0.0725 -0.2567
 1376SOL    HW115761   1.485   4.104  13.186 -0.8846  1.1137  0.8743
 1376SOL    HW215762   1.602   4.169  13.240  1.2368 -0.3505  1.3623
 1377SOL     OW15763   0.238   0.205  13.629 -0.1402  0.5242  0.3316
 1377SOL    HW115764   0.211   0.176  13.542 -0.2964 -1.2127  0.9450
 1377SOL    HW215765   0.159   0.249  13.659 -0.7515  0.5852 -1.3709
 1378SOL     OW15766   1.643   1.186   6.700 -0.3907 -0.5957  0.4754
 1378SOL    HW115767   1.670   1.133   6.624 -1.5821 -0.3283 -0.1317
 1378SOL    HW215768   1.706   1.151   6.762 -0.8034  0.1463  1.3059
 1379SOL     OW15769   4.099   0.380   4.234  0.3907 -0.1657 -0.1021
 1379SOL    HW115770   4.086   0.289   4.206  3.9253 -0.9955  0.8923
 1379SOL    HW215771   4.010   0.413   4.223 -0.7191 -1.8575  3.6317
 1380SOL     OW15772   4.621   0.995   0.048 -0.0147  0.8135 -0.1586
 1380SOL    HW115773   4.687   0.978   0.116 -1.3652  0.2179  1.0114
 1380SOL    HW215774   4.560   0.923   0.064  1.9824 -1.2543 -1.8511
 1381SOL     OW15775   3.451   0.423   1.689  0.3869 -0.3812 -0.2530
 1381SOL    HW115776   3.453   0.329   1.669 -1.1294 -0.2452 -1.0791
 1381SOL    HW215777   3.435   0.456   1.600  0.5594 -0.9458 -0.4933
 1382SOL     OW15778   2.067   2.908  12.042  0.0619  0.3226  0.4549
 1382SOL    HW115779   2.050   2.877  12.130 -0.1728  0.6078  0.5104
 1382SOL    HW215780   2.032   2.831  11.997  0.5522 -0.4548  1.4120
 1383SOL     OW15781   1.192   0.850   0.285  0.0413 -0.4130 -0.0374
 1383SOL    HW115782   1.113   0.836   0.336 -1.0058  0.4799 -1.4054
 1383SOL    HW215783   1.168   0.853   0.192  1.0003 -1.8116 -0.3276
 1384SOL     OW15784   3.863   1.340   8.736 -0.1042  0.0116  0.1325
 1384SOL    HW115785   3.875   1.340   8.831 -3.3322  0.3040  0.5359
 1384SOL    HW215786   3.882   1.430   8.711  1.0489 -0.3195 -0.2198
 1385SOL     OW15787   2.500   1.568   5.982 -0.4894  0.3150 -0.7724
 1385SOL    HW115788   2.516   1.487   6.031  1.0796  0.1767 -1.5154
 1385SOL    HW215789   2.408   1.548   5.969 -0.7624  0.5115  0.8746
 1386SOL     OW15790   1.837   1.885   2.871  0.4048 -0.0365 -0.1925
 1386SOL    HW115791   1.838   1.832   2.792  1.8125 -0.6327  0.2181
 1386SOL    HW215792   1.928   1.894   2.901 -0.0018  0.2262  0.9885
 1387SOL     OW15793   3.790   1.627   6.678  0.3096  0.3763 -0.1895
 1387SOL    HW115794   3.727   1.555   6.672  0.9446 -0.1008 -1.1068
 1387SOL    HW215795   3.866   1.577   6.708 -1.7312 -2.1525  0.7924
 1388SOL     OW15796   1.551   3.857  17.147 -0.4603  0.3554 -0.2493
 1388SOL    HW115797   1.515   3.853  17.059 -1.5856 -1.9399  0.2989
 1388SOL    HW215798   1.541   3.949  17.171  1.0861  0.4634 -0.0322
 1389SOL     OW15799   1.400   1.027   8.205  0.2728  0.1852 -0.0602
 1389SOL    HW115800   1.469   1.080   8.246 -0.0988  0.1663  0.5845
 1389SOL    HW215801   1.331   1.010   8.269  0.3308 -1.4868 -0.4399
 1390SOL     OW15802   0.517   1.471   2.319 -0.0856  0.5244  0.2336
 1390SOL    HW115803   0.459   1.546   2.332  0.3675  0.4787  2.5559
 1390SOL    HW215804   0.476   1.405   2.374 -1.3176  1.6119  0.6249
 1391SOL     OW15805   1.122   1.565  17.474 -0.3365 -0.3984 -0.0498
 1391SOL    HW115806   1.072   1.561  17.392 -2.3403 -3.1972  1.3185
 1391SOL    HW215807   1.185   1.632  17.446 -0.1041 -0.1285  1.1384
 1392SOL     OW15808   2.171   1.093  11.421  0.5589 -0.3899  0.5844
 1392SOL    HW115809   2.139   1.174  11.382  0.1190 -0.4384  0.8381
 1392SOL    HW215810   2.258   1.130  11.439 -1.1982  2.9729  2.2997
 1393SOL     OW15811   4.583   4.710   2.034  0.5393 -0.2229  0.3332
 1393SOL    HW115812   4.491   4.727   2.057  0.9359  3.4903 -0.8220
 1393SOL    HW215813   4.630   4.728   2.115 -0.4799 -0.3575  0.9542
 1394SOL     OW15814   4.357   4.401   3.671  0.2057 -0.6561  0.3386
 1394SOL    HW115815   4.445   4.369   3.688  0.9454  1.0136 -0.4109
 1394SOL    HW215816   4.380   4.452   3.594  1.8196 -0.0975  1.2015
 1395SOL     OW15817   4.312   0.671   7.253 -0.1844  0.0431 -0.4324
 1395SOL    HW115818   4.255   0.594   7.263  0.8326 -0.4832  1.4597
 1395SOL    HW215819   4.303   0.665   7.158 -0.9835 -3.0255 -0.1699
 1396SOL     OW15820   2.609   1.129   7.904 -0.3834 -0.0608 -0.1754
 1396SOL    HW115821   2.625   1.074   7.981 -0.6281  0.7102  0.4204
 1396SOL    HW215822   2.514   1.119   7.905 -0.2014 -1.6367  0.9624
 1397SOL     OW15823   2.814   1.729   5.263  0.3418 -0.1720  0.2481
 1397SOL    HW115824   2.883   1.759   5.204 -1.1339 -1.5464 -2.1545
 1397SOL    HW215825   2.747   1.788   5.230 -0.3937 -1.5751 -0.7937
 1398SOL     OW15826   0.214   0.886   7.627 -0.4900 -0.4896 -0.0986
 1398SOL    HW115827   0.164   0.888   7.709 -1.1253  0.2938 -0.4992
 1398SOL    HW215828   0.155   0.917   7.559 -0.4920 -0.4454 -0.0769
 1399SOL     OW15829   1.994   1.480   5.721 -0.2670  0.0831  0.2625
 1399SOL    HW115830   2.053   1.472   5.647  1.2105 -0.2283  1.4753
 1399SOL    HW215831   1.911   1.465   5.676 -1.6739  1.6700  2.2749
 1400SOL     OW15832   3.376   2.405   0.025 -0.5067  0.3740  0.3253
 1400SOL    HW115833   3.418   2.322   0.000 -1.9997 -1.2882  3.3852
 1400SOL    HW215834   3.327   2.380   0.103 -0.7020  0.5352  0.2532
 1401SOL     OW15835   2.713   3.843   9.910 -0.6667  0.3642 -0.2232
 1401SOL    HW115836   2.647   3.780   9.882 -0.5328 -0.2558  0.8862
 1401SOL    HW215837   2.760   3.778   9.962 -0.2311  0.3853 -0.5947
 1402SOL     OW15838   1.189   2.105   4.577 -0.0498 -0.0836  0.1572
 1402SOL    HW115839   1.108   2.097   4.628 -0.8755  0.7534 -1.0390
 1402SOL    HW215840   1.239   2.161   4.638  0.2620  0.7164 -0.8290
 1403SOL     OW15841   2.382   0.760   9.236  0.8372  0.0386  0.2802
 1403SOL    HW115842   2.370   0.666   9.252 -0.1321  0.1681  0.2822
 1403SOL    HW215843   2.424   0.759   9.150 -0.6727 -1.5263 -0.4412
 1404SOL     OW15844   0.615   3.983   9.705 -0.1547 -0.6549  0.3081
 1404SOL    HW115845   0.525   3.952   9.706 -0.5045  0.2518 -2.2780
 1404SOL    HW215846   0.660   3.927   9.769 -0.3771  0.4196  1.4022
 1405SOL     OW15847   2.500   2.313   7.694 -0.6841  0.5902  0.1986
 1405SOL    HW115848   2.478   2.405   7.700  0.6258  0.9084  0.2395
 1405SOL    HW215849   2.468   2.289   7.607 -1.0756  2.5376 -0.1815
 1406SOL     OW15850   0.172   4.508   8.163  0.2829  0.8392  0.1488
 1406SOL    HW115851   0.175   4.413   8.159 -3.4870  0.6781  0.3647
 1406SOL    HW215852   0.267   4.506   8.162  0.2488 -1.3212  0.8285
 1407SOL     OW15853   1.832   3.369   9.111  0.3794  0.1248 -0.4484
 1407SOL    HW115854   1.918   3.331   9.095 -0.0674  0.9457 -4.8117
 1407SOL    HW215855   1.854   3.430   9.181 -0.1485  1.8712 -1.7921
 1408SOL     OW15856   3.336   1.827   5.953 -0.0415 -0.4550  0.3185
 1408SOL    HW115857   3.319   1.775   5.874  1.1484 -2.9109  1.6708
 1408SOL    HW215858   3.428   1.806   5.967  0.3134  0.2283 -0.9879
 1409SOL     OW15859   4.498   3.878   4.711 -0.3420 -0.1711 -0.9935
 1409SOL    HW115860   4.492   3.957   4.657 -0.5613  0.8366  0.5034
 1409SOL    HW215861   4.417   3.889   4.760  0.3363 -0.1063  0.1199
 1410SOL     OW15862   2.548   0.882   2.133  0.5098 -0.4225  0.1798
 1410SOL    HW115863   2.640   0.884   2.105 -0.1220 -1.4723 -2.0271
 1410SOL    HW215864   2.512   0.799   2.103  1.9741 -0.2094 -2.2383
 1411SOL     OW15865   0.622   2.101  12.061  0.5836 -0.0290  0.2440
 1411SOL    HW115866   0.708   2.118  12.100 -0.8145  3.4231  1.8633
 1411SOL    HW215867   0.599   2.021  12.108  1.5861 -0.7173 -0.4212
 1412SOL     OW15868   4.569   4.545   0.977 -0.1823 -0.0237  0.0061
 1412SOL    HW115869   4.625   4.611   1.018 -0.3594 -1.1609  2.0664
 1412SOL    HW215870   4.534   4.499   1.053  0.5515 -0.6334 -0.0305
 1413SOL     OW15871   3.524   3.049   2.479  0.0243  0.4866  0.5032
 1413SOL    HW115872   3.591   3.004   2.531 -1.3012 -0.1824  1.6380
 1413SOL    HW215873   3.458   3.067   2.546  0.0558 -3.0608  1.5317
 1414SOL     OW15874   2.289   1.030  14.916  0.2264  0.3750 -0.2010
 1414SOL    HW115875   2.299   0.945  14.959 -1.2837 -1.8004 -4.1252
 1414SOL    HW215876   2.366   1.078  14.946 -0.1338  0.1044  1.1310
 1415SOL     OW15877   2.421   4.286   3.965  0.2187 -0.9688  0.4313
 1415SOL    HW115878   2.378   4.327   4.040  2.9015  2.0131  0.3405
 1415SOL    HW215879   2.364   4.323   3.897  1.3844 -0.6692 -0.3839
 1416SOL     OW15880   1.554   2.217   4.020  0.2481 -0.0067 -0.5531
 1416SOL    HW115881   1.614   2.169   3.964  0.0323 -0.4796 -0.3759
 1416SOL    HW215882   1.611   2.254   4.088 -0.6277  2.4657 -1.1577
 1417SOL     OW15883   4.595   0.706   2.482  0.9571  0.0841  0.2978
 1417SOL    HW115884   4.585   0.636   2.417 -1.9453  2.1430 -1.5005
 1417SOL    HW215885   4.527   0.767   2.453  1.2499  0.2983  0.0700
 1418SOL     OW15886   3.269   2.125   5.728 -0.0484 -0.1059 -0.2317
 1418SOL    HW115887   3.357   2.143   5.763 -0.1635  2.5050 -1.3208
 1418SOL    HW215888   3.251   2.207   5.683 -1.8678 -1.1677 -1.4285
 1419SOL     OW15889   2.161   1.300  10.702  0.1297  0.3887 -0.0282
 1419SOL    HW115890   2.078   1.315  10.746  0.7587  0.4562  1.1378
 1419SOL    HW215891   2.138   1.241  10.630  1.1984  0.3073 -0.3121
 1420SOL     OW15892   3.445   1.153  15.726  0.1355 -0.1160  0.0764
 1420SOL    HW115893   3.512   1.193  15.670  0.2872  0.1203  0.4216
 1420SOL    HW215894   3.367   1.200  15.698 -0.3084 -2.1253 -1.9896
 1421SOL     OW15895   2.353   0.346  11.527 -0.2534 -0.1746  0.3606
 1421SOL    HW115896   2.285   0.409  11.550 -0.8810 -0.5270 -0.5528
 1421SOL    HW215897   2.402   0.335  11.609 -1.1643 -0.5001  0.8600
 1422SOL     OW15898   0.520   2.274   8.670 -0.5549 -0.1714 -0.1304
 1422SOL    HW115899   0.498   2.275   8.763 -0.6561  0.9702 -0.1709
 1422SOL    HW215900   0.614   2.292   8.666 -0.4750  0.6207  5.1382
 1423SOL     OW15901   0.930   1.851   0.310  0.1497  0.4468 -0.1954
 1423SOL    HW115902   0.883   1.898   0.379  2.5922  0.9771  1.1422
 1423SOL    HW215903   0.910   1.764   0.346  1.2571  0.5011  0.5760
 1424SOL     OW15904   3.658   3.788   6.885  0.1686  0.4836 -0.3154
 1424SOL    HW115905   3.630   3.738   6.809 -1.3045 -0.2020  0.6770
 1424SOL    HW215906   3.707   3.865   6.855  1.6333 -0.9041 -1.4732
 1425SOL     OW15907   2.529   1.110  10.692 -0.2538  0.1806  0.4004
 1425SOL    HW115908   2.523   1.064  10.608 -4.1507 -1.9253  1.8845
 1425SOL    HW215909   2.483   1.189  10.665 -0.4202 -0.1581 -0.3012
 1426SOL     OW15910   3.612   1.083  12.302 -0.0609  0.2477  0.1759
 1426SOL    HW115911   3.544   1.081  12.235  0.0925 -0.9463  0.0598
 1426SOL    HW215912   3.644   1.173  12.290  0.9604 -0.0542  0.6356
 1427SOL     OW15913   3.696   1.756   2.477 -0.1889 -0.3902  0.1692
 1427SOL    HW115914   3.787   1.728   2.477  0.3309  1.3192 -0.4130
 1427SOL    HW215915   3.677   1.754   2.383 -0.6780  1.0620  0.2331
 1428SOL     OW15916   2.640   2.392   0.288 -0.5475 -0.6834 -0.4306
 1428SOL    HW115917   2.621   2.332   0.360  0.8505 -0.6783 -0.0498
 1428SOL    HW215918   2.723   2.349   0.267  0.5846  0.5936  1.3654
 1429SOL     OW15919   0.225   4.601   3.186 -0.1534  0.2693 -0.2515
 1429SOL    HW115920   0.317   4.630   3.189  0.4762 -2.0358  2.4326
 1429SOL    HW215921   0.218   4.576   3.094  1.0623 -0.0727 -0.2509
 1430SOL     OW15922   0.951   4.604   7.396 -0.5618  0.2798  0.0563
 1430SOL    HW115923   0.883   4.661   7.432 -1.1855 -0.1178 -0.4867
 1430SOL    HW215924   0.928   4.589   7.304 -0.1880 -1.0465  0.1780
 1431SOL     OW15925   0.516   2.761   2.923  0.2290  0.1506  0.5237
 1431SOL    HW115926   0.595   2.709   2.938  0.3599  0.6468  1.5426
 1431SOL    HW215927   0.450   2.708   2.967  1.5822  0.1592  2.5391
 1432SOL     OW15928   4.624   1.880   7.962 -0.2454  0.5943  0.5913
 1432SOL    HW115929   4.553   1.902   7.902 -0.0553 -1.0902 -0.2496
 1432SOL    HW215930   4.577   1.890   8.045  1.5595  2.4925  1.3808
 1433SOL     OW15931   1.437   0.182  16.543 -0.2080 -0.2042 -0.1361
 1433SOL    HW115932   1.431   0.270  16.581 -1.6038  0.1149 -1.0642
 1433SOL    HW215933   1.505   0.142  16.596 -0.1116 -0.1366 -0.2091
 1434SOL     OW15934   0.880   2.324   3.937  0.0810 -0.1362 -0.0777
 1434SOL    HW115935   0.796   2.305   3.980 -0.1884  0.1235 -0.4883
 1434SOL    HW215936   0.934   2.290   4.008 -0.4358 -1.2718 -0.2250
 1435SOL     OW15937   2.093   3.903   7.675 -0.2252  0.0825  0.1009
 1435SOL    HW115938   2.018   3.901   7.615 -0.1992  0.3769  0.0579
 1435SOL    HW215939   2.157   3.928   7.608 -0.6107  2.3404  0.5910
 1436SOL     OW15940   2.760   3.312   1.748 -0.2945  0.4937 -0.0061
 1436SOL    HW115941   2.757   3.259   1.828 -0.0043  0.0282 -0.3041
 1436SOL    HW215942   2.786   3.248   1.682 -0.4161 -0.4897  0.9061
 1437SOL     OW15943   4.450   3.096   4.680 -0.2562 -0.1271  0.6558
 1437SOL    HW115944   4.477   3.113   4.590  2.5411 -0.3467  1.4706
 1437SOL    HW215945   4.360   3.129   4.675  0.9437  2.7706 -1.3670
 1438SOL     OW15946   0.912   2.461   8.780 -0.4568  0.0166  0.2212
 1438SOL    HW115947   0.954   2.379   8.804  1.5131  1.1744  0.8198
 1438SOL    HW215948   0.856   2.430   8.708 -0.3875  1.8138 -0.6192
 1439SOL     OW15949   3.591   0.443   6.837 -0.5085  0.1423  0.4448
 1439SOL    HW115950   3.653   0.377   6.805 -0.0091  2.3640 -3.1870
 1439SOL    HW215951   3.548   0.476   6.758  1.9652 -0.7704 -1.2820
 1440SOL     OW15952   4.601   2.502   2.003  0.2022 -0.2818 -0.2721
 1440SOL    HW115953   4.664   2.462   1.943 -3.1955 -0.1460 -3.9467
 1440SOL    HW215954   4.593   2.425   2.060 -1.8213  0.4451  0.4408
 1441SOL     OW15955   2.779   2.572  13.287  0.2959 -0.0088 -0.2462
 1441SOL    HW115956   2.745   2.626  13.358 -2.2307 -1.4832 -0.3267
 1441SOL    HW215957   2.725   2.496  13.310  1.0173 -0.3226  0.3994
 1442SOL     OW15958   0.875   3.905   2.780 -0.0815 -0.4779  0.4459
 1442SOL    HW115959   0.795   3.922   2.730  1.5938  0.1945 -1.9945
 1442SOL    HW215960   0.846   3.861   2.860 -0.2520 -0.3382  0.4605
 1443SOL     OW15961   0.046   3.562   2.419  0.6135  0.0831 -0.3954
 1443SOL    HW115962   0.023   3.509   2.495 -0.9835 -2.4403 -2.6179
 1443SOL    HW215963   0.139   3.544   2.405  0.5996  1.3775 -2.2887
 1444SOL     OW15964   0.844   0.930   0.735 -0.0247  0.1669  0.0583
 1444SOL    HW115965   0.922   0.892   0.696 -1.2830 -1.7733 -0.5617
 1444SOL    HW215966   0.773   0.874   0.703  0.0769 -0.2865  0.6076
 1445SOL     OW15967   0.512   3.311   7.438 -0.0340 -0.6989  0.1584
 1445SOL    HW115968   0.482   3.258   7.511 -0.6718  1.1101  1.2173
 1445SOL    HW215969   0.570   3.247   7.397 -0.1360 -0.3082 -0.5984
 1446SOL     OW15970   2.036   3.540   2.420 -0.3604  1.0469  0.1535
 1446SOL    HW115971   2.088   3.461   2.407 -3.0384 -0.7723  0.4302
 1446SOL    HW215972   1.951   3.500   2.402  0.3641 -1.2179  1.8029
 1447SOL     OW15973   0.864   1.666   3.722 -0.2171  0.7259 -0.7032
 1447SOL    HW115974   0.817   1.655   3.640 -2.2085  0.9436  0.3988
 1447SOL    HW215975   0.933   1.731   3.709 -0.9949  1.7348  0.1614
 1448SOL     OW15976   3.337   3.803   7.659 -0.2984 -0.0911 -0.6317
 1448SOL    HW115977   3.389   3.757   7.594  3.3836 -0.2192  2.3526
 1448SOL    HW215978   3.317   3.722   7.706 -0.9168  0.6466  0.3895
 1449SOL     OW15979   4.376   2.200   9.957  0.0858  0.2728  0.7464
 1449SOL    HW115980   4.370   2.268  10.025 -1.4213 -1.3533  2.2307
 1449SOL    HW215981   4.458   2.236   9.922  1.2750 -1.3910  1.8288
 1450SOL     OW15982   4.109   4.245   7.740  0.0540  0.8925  0.4876
 1450SOL    HW115983   4.200   4.230   7.763 -0.6925 -2.6306  1.1114
 1450SOL    HW215984   4.060   4.241   7.823  0.3195 -1.7373  0.5053
 1451SOL     OW15985   3.387   3.829   3.810 -0.5658 -0.3595 -0.2394
 1451SOL    HW115986   3.411   3.737   3.803  1.3289 -0.0538  2.5135
 1451SOL    HW215987   3.313   3.823   3.870  0.4758  1.0622  1.1943
 1452SOL     OW15988   1.908   3.756   3.866  0.0129 -0.1486 -0.2343
 1452SOL    HW115989   1.828   3.783   3.820 -0.8054  0.4531  1.5704
 1452SOL    HW215990   1.969   3.778   3.796  0.2892 -0.2184 -0.0105
 1453SOL     OW15991   0.666   1.184   2.375  0.0769 -0.2661 -0.2965
 1453SOL    HW115992   0.659   1.116   2.442 -2.9308  1.0912  0.7629
 1453SOL    HW215993   0.757   1.164   2.354  0.7575  1.9008  0.6112
 1454SOL     OW15994   4.135   3.956   8.084 -0.4634 -0.0161 -0.3148
 1454SOL    HW115995   4.094   4.034   8.049  0.6178  0.6181 -0.1584
 1454SOL    HW215996   4.166   3.924   8.000 -0.8561 -0.9210 -0.1201
 1455SOL     OW15997   0.840   0.853  11.607 -0.3573  0.1208 -0.1746
 1455SOL    HW115998   0.789   0.814  11.677  1.0601 -2.1355 -0.4100
 1455SOL    HW215999   0.864   0.775  11.557 -1.7789  0.6990 -1.7643
 1456SOL     OW16000   2.646   1.410   4.981 -0.0907  0.9204 -0.6380
 1456SOL    HW116001   2.667   1.501   4.959 -2.4954  1.9022  1.2671
 1456SOL    HW216002   2.737   1.381   4.990 -0.1370  1.1848  0.6262
 1457SOL     OW16003   0.146   1.565  11.989 -0.3283  0.4352  0.4420
 1457SOL    HW116004   0.141   1.648  12.037  1.6734  1.1787 -0.6342
 1457SOL    HW216005   0.177   1.601  11.906  1.9568  0.4332  1.3047
 1458SOL     OW16006   1.416   1.879   8.585 -0.0844  0.2747  0.3462
 1458SOL    HW116007   1.412   1.783   8.587  0.2879  0.1979 -2.8635
 1458SOL    HW216008   1.511   1.885   8.595 -0.3235  0.6842  2.2330
 1459SOL     OW16009   2.049   0.211  11.819 -0.1612 -0.4271 -0.3390
 1459SOL    HW116010   2.013   0.280  11.876 -0.6774  0.6591 -1.9983
 1459SOL    HW216011   2.138   0.207  11.857 -0.7602 -2.0500  0.9176
 1460SOL     OW16012   0.021   3.861  16.313 -0.0646  0.2775  0.3068
 1460SOL    HW116013   4.660   3.845  16.307  0.0613 -0.7201  0.9833
 1460SOL    HW216014   0.016   3.952  16.344  2.3951 -0.1869  2.0733
 1461SOL     OW16015   1.531   1.875   3.791  0.4057 -1.0366  0.6161
 1461SOL    HW116016   1.526   1.818   3.714  1.6125 -0.2699 -0.0213
 1461SOL    HW216017   1.583   1.942   3.746 -0.8937 -1.1798 -1.1177
 1462SOL     OW16018   2.857   2.104   2.751 -1.3660 -0.1979  0.2460
 1462SOL    HW116019   2.871   2.066   2.664  1.6183 -0.6753  0.9235
 1462SOL    HW216020   2.916   2.042   2.794 -0.0132  1.2745  0.5431
 1463SOL     OW16021   3.565   3.675   9.157 -0.3328  0.2757 -0.3254
 1463SOL    HW116022   3.605   3.761   9.160 -0.4766  0.2474  2.3518
 1463SOL    HW216023   3.483   3.684   9.108 -0.7584 -1.5679  0.0369
 1464SOL     OW16024   1.952   1.169   3.088  0.1260  0.2304 -0.3738
 1464SOL    HW116025   1.899   1.220   3.149  0.5328 -0.3488  0.4712
 1464SOL    HW216026   1.968   1.238   3.023 -0.9914  0.0526 -0.8443
 1465SOL     OW16027   2.483   3.795   7.100 -0.3754  0.3451 -0.2352
 1465SOL    HW116028   2.494   3.873   7.155 -0.2889 -0.3165  0.6718
 1465SOL    HW216029   2.556   3.738   7.125  0.4219  0.2109 -2.8936
 1466SOL     OW16030   3.802   3.792   3.524 -0.3878 -0.3110 -0.6256
 1466SOL    HW116031   3.810   3.749   3.609 -1.1804  0.9025  0.0611
 1466SOL    HW216032   3.718   3.835   3.543 -0.3847 -0.6982  0.2456
 1467SOL     OW16033   2.115   0.394   7.501  0.0530 -0.1697  0.8353
 1467SOL    HW116034   2.183   0.401   7.568 -0.0888 -2.0020  1.1669
 1467SOL    HW216035   2.170   0.397   7.422 -0.9671 -0.3516  0.1132
 1468SOL     OW16036   0.325   1.082  11.928 -0.2715  0.3596 -0.5444
 1468SOL    HW116037   0.375   1.155  11.964  1.6257 -1.1190 -0.1775
 1468SOL    HW216038   0.241   1.125  11.908 -0.9109  0.9470  3.4590
 1469SOL     OW16039   3.679   2.549  11.005 -0.6281  0.6162  0.6108
 1469SOL    HW116040   3.758   2.568  10.954  1.7447 -0.0346  4.0141
 1469SOL    HW216041   3.674   2.622  11.067 -0.0057  2.4214 -1.4648
 1470SOL     OW16042   1.183   3.802  11.606 -0.0982  0.3715  0.0087
 1470SOL    HW116043   1.204   3.837  11.692 -1.8816  2.2136 -0.3046
 1470SOL    HW216044   1.264   3.761  11.574  0.6213  1.7634  0.0213
 1471SOL     OW16045   2.861   3.550  12.002  0.4631  0.2669  0.0347
 1471SOL    HW116046   2.934   3.573  11.944  0.8293  1.0464  0.8111
 1471SOL    HW216047   2.910   3.497  12.064 -0.2140 -1.1572 -0.6430
 1472SOL     OW16048   0.512   3.726  13.374  0.5457  0.2960  0.1368
 1472SOL    HW116049   0.534   3.780  13.450 -1.3636  1.0595  0.1514
 1472SOL    HW216050   0.466   3.650  13.411 -1.5518  1.3354 -0.3462
 1473SOL     OW16051   3.865   1.875   4.137  0.0893  0.5438  0.4340
 1473SOL    HW116052   3.922   1.814   4.183 -2.0886 -0.2582  2.0507
 1473SOL    HW216053   3.916   1.877   4.056  1.0625  2.3572  1.0645
 1474SOL     OW16054   0.460   4.485   3.371 -1.0054  0.2493  0.5781
 1474SOL    HW116055   0.472   4.577   3.346 -1.0647 -0.2709 -1.3643
 1474SOL    HW216056   0.546   4.468   3.410  1.1065 -0.6563 -4.4367
 1475SOL     OW16057   4.265   0.744  12.586 -0.4425  0.1815 -0.2878
 1475SOL    HW116058   4.257   0.793  12.668 -1.3251  3.4959 -2.4090
 1475SOL    HW216059   4.212   0.668  12.611  0.6384 -0.0601  1.3055
 1476SOL     OW16060   0.667   1.193   4.517 -0.2268 -0.1196  0.1271
 1476SOL    HW116061   0.647   1.104   4.544 -3.4549  0.4048 -0.4725
 1476SOL    HW216062   0.581   1.219   4.484 -0.9364  0.3475  2.3474
 1477SOL     OW16063   1.793   2.858  16.133 -0.6406  0.0951 -0.5442
 1477SOL    HW116064   1.764   2.768  16.153  1.4404 -0.1794  1.1900
 1477SOL    HW216065   1.811   2.887  16.222  2.6545 -0.3496 -1.0540
 1478SOL     OW16066   0.395   2.873   8.057  0.0444 -0.4598 -0.6741
 1478SOL    HW116067   0.352   2.859   7.972  1.2139 -0.2552 -1.3026
 1478SOL    HW216068   0.326   2.833   8.109 -1.4347  1.7226 -0.9960
 1479SOL     OW16069   3.843   3.444   6.479 -0.0342  0.1421  0.3911
 1479SOL    HW116070   3.849   3.537   6.503 -3.0564  0.0194  1.6464
 1479SOL    HW216071   3.882   3.430   6.392  2.2803 -1.3950  1.6805
 1480SOL     OW16072   3.070   3.320  12.683 -0.1810  0.2940  0.2639
 1480SOL    HW116073   3.162   3.311  12.662 -0.3563 -2.3170  0.6160
 1480SOL    HW216074   3.058   3.230  12.715  1.5766  0.1614  0.5139
 1481SOL     OW16075   0.460   0.523   7.032 -0.6146 -0.0519 -0.1786
 1481SOL    HW116076   0.376   0.486   7.006 -1.0165  1.7774 -1.4984
 1481SOL    HW216077   0.430   0.596   7.087 -2.1871 -2.7419  2.4640
 1482SOL     OW16078   0.935   3.275   8.743  0.0297  0.3825  0.6527
 1482SOL    HW116079   0.849   3.242   8.769  0.4941 -4.3255 -3.8058
 1482SOL    HW216080   0.994   3.211   8.781  0.4443  0.0023 -0.6141
 1483SOL     OW16081   0.985   2.019   2.817  0.2840 -0.5949 -0.1428
 1483SOL    HW116082   0.911   2.031   2.877 -0.1382  1.0708 -0.9962
 1483SOL    HW216083   1.054   2.015   2.883  0.0899 -1.1080  0.0309
 1484SOL     OW16084   2.424   2.325  16.041 -0.6528 -0.1638 -0.2184
 1484SOL    HW116085   2.487   2.294  16.107 -0.9409  1.5605  0.8839
 1484SOL    HW216086   2.398   2.240  16.008  0.2001 -0.1296 -0.9909
 1485SOL     OW16087   1.896   2.511  17.111 -0.8176  0.2030 -0.3693
 1485SOL    HW116088   1.988   2.487  17.104 -1.1772 -1.3138  0.0766
 1485SOL    HW216089   1.892   2.605  17.128 -2.3414  0.0925 -0.0395
 1486SOL     OW16090   2.161   4.659   6.921 -0.9286  0.3660 -0.4422
 1486SOL    HW116091   2.103   4.729   6.952 -0.6058  1.4818 -2.3451
 1486SOL    HW216092   2.197   4.621   7.001 -2.4442 -0.0648  0.0464
 1487SOL     OW16093   0.288   4.264  15.404 -0.2560 -0.1279  0.0346
 1487SOL    HW116094   0.276   4.227  15.492  1.0574 -2.1469 -0.6185
 1487SOL    HW216095   0.247   4.349  15.417  0.5874  0.5831 -2.0210
 1488SOL     OW16096   1.019   1.134   1.981  0.3785 -0.7048  0.4721
 1488SOL    HW116097   0.933   1.171   2.002 -0.1466 -1.3448 -0.5640
 1488SOL    HW216098   1.044   1.195   1.912  1.3267 -1.1084  0.4577
 1489SOL     OW16099   0.784   3.637  12.114 -0.3823  0.1168 -1.1894
 1489SOL    HW116100   0.851   3.689  12.158 -0.0469 -2.9075  1.8501
 1489SOL    HW216101   0.796   3.544  12.132 -1.8717  0.3339  0.9690
 1490SOL     OW16102   2.439   2.855   5.350  0.5900 -0.8844  0.5430
 1490SOL    HW116103   2.393   2.937   5.368  0.1598 -1.2099  0.9085
 1490SOL    HW216104   2.517   2.892   5.308 -0.9619  2.7354  0.8044
 1491SOL     OW16105   1.262   0.814   9.634 -0.4499 -0.0866 -0.7485
 1491SOL    HW116106   1.309   0.731   9.649  0.6193  0.9186  1.4190
 1491SOL    HW216107   1.335   0.873   9.619 -1.0321  1.0285  0.7529
 1492SOL     OW16108   0.093   1.661   7.998  0.2575  0.6762  0.1920
 1492SOL    HW116109   0.038   1.585   8.018  0.5368  0.1928 -0.8655
 1492SOL    HW216110   0.029   1.723   7.965  1.0949  0.8068 -1.1959
 1493SOL     OW16111   3.442   4.354   8.747  0.2932  0.1728  0.6010
 1493SOL    HW116112   3.493   4.429   8.779  0.7218 -0.3532  1.1635
 1493SOL    HW216113   3.407   4.393   8.668  1.3418  0.4911  0.2897
 1494SOL     OW16114   3.088   3.304  11.886  0.5528  0.4547 -0.6697
 1494SOL    HW116115   3.158   3.358  11.850 -0.8639  2.1775 -0.8607
 1494SOL    HW216116   3.138   3.263  11.956 -0.1741 -2.2915 -1.7526
 1495SOL     OW16117   2.585   4.203   1.052 -0.0844 -0.1861  0.2550
 1495SOL    HW116118   2.489   4.205   1.053 -0.0734  0.3187  0.3661
 1495SOL    HW216119   2.594   4.174   0.962 -1.6272  0.3506 -0.0857
 1496SOL     OW16120   4.294   0.865  17.594 -0.3940  0.2504 -0.0720
 1496SOL    HW116121   4.284   0.774  17.566  2.2550 -0.2536  0.6095
 1496SOL    HW216122   4.375   0.897  17.554  0.0630 -0.4484  0.2865
 1497SOL     OW16123   0.458   2.637  11.559 -0.3090  0.7248 -0.2548
 1497SOL    HW116124   0.513   2.709  11.590 -1.6600  1.1071  1.2503
 1497SOL    HW216125   0.446   2.587  11.640 -0.5955 -1.6052 -1.7391
 1498SOL     OW16126   3.601   4.022   7.604  0.6526 -0.0580  0.1199
 1498SOL    HW116127   3.611   3.946   7.662 -0.0849 -0.1861  0.0732
 1498SOL    HW216128   3.551   4.077   7.665 -5.1288 -2.8432 -2.2100
 1499SOL     OW16129   0.618   1.958   7.480 -0.1622 -0.2271  0.3320
 1499SOL    HW116130   0.596   2.050   7.492 -0.8128 -0.3754  0.2565
 1499SOL    HW216131   0.588   1.943   7.391  0.5040 -0.9434  0.2309
 1500SOL     OW16132   1.656   3.088   2.867 -0.1339  0.0633 -0.1778
 1500SOL    HW116133   1.585   3.150   2.883 -0.8316 -1.2484  1.8812
 1500SOL    HW216134   1.723   3.141   2.909 -0.5625 -0.4171  1.1079
 1501SOL     OW16135   2.999   2.639   1.636 -0.1078  0.6375  0.4087
 1501SOL    HW116136   2.922   2.583   1.647  0.5484 -0.1533  0.9722
 1501SOL    HW216137   3.050   2.618   1.714 -0.1547 -0.5494  0.1267
 1502SOL     OW16138   1.602   2.098  12.209 -0.2425 -0.4889 -0.0198
 1502SOL    HW116139   1.669   2.140  12.155  1.5127 -1.5589  1.3233
 1502SOL    HW216140   1.577   2.026  12.151 -1.0786 -0.2865  0.0947
 1503SOL     OW16141   0.005   2.555  10.501  0.3954  0.3626 -0.0567
 1503SOL    HW116142   0.062   2.547  10.577 -2.3074 -0.8014  1.8018
 1503SOL    HW216143   0.022   2.646  10.473  0.0570 -0.2060 -2.1182
 1504SOL     OW16144   1.185   3.885  17.368 -0.3413  0.2655 -0.3472
 1504SOL    HW116145   1.202   3.903  17.276  0.7181 -1.7766 -0.5528
 1504SOL    HW216146   1.123   3.955  17.390 -2.4267 -1.1472 -1.8291
 1505SOL     OW16147   4.321   3.245   3.078 -0.7744  0.6780 -0.0417
 1505SOL    HW116148   4.272   3.166   3.102 -0.1608  0.2037 -0.3481
 1505SOL    HW216149   4.395   3.211   3.029 -0.3556  0.8873  0.4481
 1506SOL     OW16150   2.621   1.733  12.154 -0.1584 -0.8806 -0.0358
 1506SOL    HW116151   2.655   1.651  12.191  1.7336 -0.1000 -0.0506
 1506SOL    HW216152   2.588   1.715  12.066  2.2032  1.4847 -1.4276
 1507SOL     OW16153   3.853   2.951   4.515  0.0981  0.1197 -0.1474
 1507SOL    HW116154   3.912   2.930   4.586  0.2857 -0.4853 -0.4742
 1507SOL    HW216155   3.774   2.956   4.569  1.1458  0.8446  1.2729
 1508SOL     OW16156   3.392   1.627  15.771  0.5486  0.4444  0.4053
 1508SOL    HW116157   3.348   1.550  15.808 -0.3190  0.8636  0.2431
 1508SOL    HW216158   3.484   1.603  15.785  0.2625  0.2918  2.0376
 1509SOL     OW16159   0.937   0.953   7.650 -0.2120 -0.3068  0.0361
 1509SOL    HW116160   0.955   1.015   7.580 -1.8865 -0.5780 -0.6555
 1509SOL    HW216161   0.878   0.995   7.713 -1.1221 -0.3704 -0.7538
 1510SOL     OW16162   0.133   2.982   5.513  0.5909 -0.1932  0.1839
 1510SOL    HW116163   0.042   2.967   5.485  0.4002 -0.0635  0.7442
 1510SOL    HW216164   0.171   3.030   5.440  2.5184 -2.4122 -0.2750
 1511SOL     OW16165   1.993   4.635   3.587 -0.2703  0.3887  0.3785
 1511SOL    HW116166   1.914   4.632   3.532 -2.3089 -0.6807  3.3417
 1511SOL    HW216167   2.067   4.622   3.528 -2.3888 -2.2039 -1.7248
 1512SOL     OW16168   1.946   2.134  12.742 -0.3682 -0.2187 -0.6530
 1512SOL    HW116169   1.986   2.201  12.687 -0.5818 -0.3211 -0.9335
 1512SOL    HW216170   1.997   2.154  12.820 -0.0978  2.1797 -1.4322
 1513SOL     OW16171   0.286   0.153   2.294  0.6042 -0.2155  0.2136
 1513SOL    HW116172   0.277   0.084   2.228 -3.6204  2.9384 -2.4876
 1513SOL    HW216173   0.375   0.176   2.265 -0.2365  1.5819 -0.9269
 1514SOL     OW16174   1.063   2.499   5.149  0.7256  0.3202  0.3389
 1514SOL    HW116175   1.057   2.406   5.126 -1.5557  0.3849  0.6987
 1514SOL    HW216176   1.024   2.545   5.075  0.2042 -1.3496 -0.4453
 1515SOL     OW16177   2.108   3.065  11.805  0.4310  0.5795 -0.4387
 1515SOL    HW116178   2.137   3.032  11.890 -1.6481 -0.6250 -0.2059
 1515SOL    HW216179   2.146   3.005  11.742  1.6816 -1.0600  1.9022
 1516SOL     OW16180   0.226   3.775   8.079  0.0335  0.5917  0.4534
 1516SOL    HW116181   0.196   3.727   8.156  2.5332 -2.2538 -0.3242
 1516SOL    HW216182   0.286   3.716   8.033  0.3521  0.9553  0.3956
 1517SOL     OW16183   0.802   1.495   0.133  0.5062 -0.2161  0.3489
 1517SOL    HW116184   0.780   1.583   0.102  1.2631 -0.3969 -0.6747
 1517SOL    HW216185   0.878   1.477   0.078  1.3656  1.5424  0.9574
 1518SOL     OW16186   1.518   1.279   6.976  0.2821  0.4547 -0.3952
 1518SOL    HW116187   1.566   1.255   6.897  0.5124  1.6562 -0.6217
 1518SOL    HW216188   1.438   1.309   6.932  0.9014 -0.1647 -1.9102
 1519SOL     OW16189   4.436   1.891   2.574 -0.5043 -0.3512  0.2141
 1519SOL    HW116190   4.492   1.896   2.652  0.3883  2.2694 -0.5898
 1519SOL    HW216191   4.357   1.861   2.619 -2.3800  3.7616 -0.3834
 1520SOL     OW16192   1.963   3.878   6.157 -0.5747 -0.2353  0.2615
 1520SOL    HW116193   1.947   3.925   6.075 -0.4653 -0.2873  0.2107
 1520SOL    HW216194   1.915   3.796   6.153 -0.6056 -0.0708 -2.9307
 1521SOL     OW16195   0.297   4.508   7.584 -0.7335  0.2709 -0.5226
 1521SOL    HW116196   0.313   4.451   7.509  0.5490 -0.5038  0.3478
 1521SOL    HW216197   0.312   4.441   7.651 -0.1086  2.4628  1.5176
 1522SOL     OW16198   1.325   4.491   4.651  0.0627 -1.1903  0.1676
 1522SOL    HW116199   1.300   4.417   4.595 -0.0554 -0.8193 -0.2787
 1522SOL    HW216200   1.392   4.534   4.597 -0.9107 -0.4739 -0.4765
 1523SOL     OW16201   3.643   3.900   6.174  0.2187 -0.0076  0.7992
 1523SOL    HW116202   3.581   3.864   6.111 -0.4865 -0.3992  1.7127
 1523SOL    HW216203   3.593   3.976   6.204  2.1532  1.0065  1.4545
 1524SOL     OW16204   0.095   3.275  12.154  0.2604 -0.1350  0.1595
 1524SOL    HW116205   0.088   3.184  12.126 -1.5048  0.0996 -0.1278
 1524SOL    HW216206   0.133   3.260  12.241 -1.0795  0.8621  0.9245
 1525SOL     OW16207   2.168   0.678   6.203  0.1009  0.1443  0.0506
 1525SOL    HW116208   2.192   0.731   6.127 -1.7123 -0.2107 -0.7673
 1525SOL    HW216209   2.105   0.741   6.237 -1.6854 -2.6031  1.9080
 1526SOL     OW16210   3.129   1.897   8.052  0.2761 -0.0506  0.3123
 1526SOL    HW116211   3.200   1.946   8.009 -1.8207  2.6749 -0.0480
 1526SOL    HW216212   3.137   1.920   8.145  1.3132  1.5579 -0.1663
 1527SOL     OW16213   0.932   0.819   0.112  0.3142 -0.0948  0.1581
 1527SOL    HW116214   0.923   0.814   0.207 -0.8636 -1.1220 -0.0047
 1527SOL    HW216215   0.855   0.768   0.088 -1.0408  2.4365 -0.8235
 1528SOL     OW16216   2.501   3.579   3.084 -0.0582  0.1126  0.4267
 1528SOL    HW116217   2.545   3.502   3.049  1.8461  1.9115 -1.1298
 1528SOL    HW216218   2.492   3.636   3.008 -0.6051  0.0817  0.4649
 1529SOL     OW16219   2.654   4.051   5.455 -0.4795 -0.0973 -0.5672
 1529SOL    HW116220   2.670   3.976   5.512 -1.5851  1.2817  1.5976
 1529SOL    HW216221   2.682   4.022   5.369 -0.0676  0.3481 -0.5783
 1530SOL     OW16222   1.866   1.520   7.917 -0.1955  0.2249  0.4133
 1530SOL    HW116223   1.890   1.609   7.892  0.8840  0.3538  1.8750
 1530SOL    HW216224   1.944   1.473   7.888 -1.6579  0.0621 -3.1711
 1531SOL     OW16225   1.329   0.544  10.883  0.2890 -0.1792 -0.0535
 1531SOL    HW116226   1.330   0.526  10.789 -0.0477  1.7076 -0.4036
 1531SOL    HW216227   1.295   0.460  10.917  4.6871 -0.9521  2.5104
 1532SOL     OW16228   1.610   3.814   3.100  0.4205 -0.6488  0.1509
 1532SOL    HW116229   1.668   3.875   3.146  1.6886 -0.5448 -1.5778
 1532SOL    HW216230   1.675   3.772   3.043 -0.6942 -1.6062 -0.4144
 1533SOL     OW16231   0.410   2.391  11.409  0.2241 -0.0055 -0.1749
 1533SOL    HW116232   0.350   2.320  11.432 -1.4090  1.6298  0.5623
 1533SOL    HW216233   0.462   2.403  11.489  1.3830  0.5138 -0.9978
 1534SOL     OW16234   0.751   1.836   7.043  0.0693 -0.1435 -0.2982
 1534SOL    HW116235   0.843   1.839   7.068  0.5374 -2.0131 -1.7614
 1534SOL    HW216236   0.761   1.787   6.961 -0.0900 -0.9994  0.1877
 1535SOL     OW16237   4.207   1.021   1.216  0.1926 -0.5324 -0.8662
 1535SOL    HW116238   4.224   0.939   1.262  3.4109 -0.0179 -1.1273
 1535SOL    HW216239   4.125   1.046   1.259  1.6877  0.2742  1.5426
 1536SOL     OW16240   1.610   1.126   3.255  1.0471  0.2718 -0.3910
 1536SOL    HW116241   1.583   1.201   3.201  1.5989 -1.0089 -2.4550
 1536SOL    HW216242   1.549   1.055   3.233  1.5682 -0.6389  1.1533
 1537SOL     OW16243   2.919   4.586   7.276  0.4442 -0.3355 -0.1286
 1537SOL    HW116244   2.987   4.554   7.336  1.5428  1.2069 -0.5241
 1537SOL    HW216245   2.931   4.528   7.202 -0.0022 -1.7069  0.8813
 1538SOL     OW16246   0.369   3.864   7.780  0.4700  0.0520 -0.2679
 1538SOL    HW116247   0.442   3.923   7.799  0.9734 -1.1850  1.6144
 1538SOL    HW216248   0.408   3.800   7.721 -1.4774 -0.7845 -0.6437
 1539SOL     OW16249   3.427   0.989  14.138 -0.4583  0.0099 -0.1887
 1539SOL    HW116250   3.364   0.917  14.146 -1.0058  0.6457  1.1633
 1539SOL    HW216251   3.411   1.018  14.048  0.4058 -1.4700 -0.8246
 1540SOL     OW16252   4.193   0.596   8.319 -0.2527 -0.0199  0.1364
 1540SOL    HW116253   4.144   0.672   8.349  0.3978  0.4507  0.0302
 1540SOL    HW216254   4.130   0.567   8.253 -0.3609  0.6745 -0.0644
 1541SOL     OW16255   1.623   2.165  15.543  0.5845 -0.0980  0.0708
 1541SOL    HW116256   1.590   2.193  15.628  2.4053 -2.2449  1.4660
 1541SOL    HW216257   1.583   2.229  15.484  0.4220  0.6238  0.9706
 1542SOL     OW16258   3.431   0.256  12.329  0.3039  0.4012 -0.5994
 1542SOL    HW116259   3.390   0.263  12.243  1.6635  0.0951 -1.2779
 1542SOL    HW216260   3.447   0.346  12.356  1.1168  0.3523 -0.9149
 1543SOL     OW16261   1.535   0.125   9.620 -0.6037  0.1518 -0.0532
 1543SOL    HW116262   1.442   0.119   9.641 -0.8423  1.7433 -0.6438
 1543SOL    HW216263   1.545   0.201   9.562  0.1516  0.3261  0.3050
 1544SOL     OW16264   2.095   0.497   9.385 -0.1668  0.1415 -0.5143
 1544SOL    HW116265   2.082   0.409   9.420  0.0451 -0.2269 -1.3511
 1544SOL    HW216266   2.019   0.500   9.326 -1.2327  0.2021  0.8762
 1545SOL     OW16267   0.662   2.399   7.685  0.2670  0.3096  0.0618
 1545SOL    HW116268   0.732   2.340   7.658 -0.7697 -2.5505  3.6632
 1545SOL    HW216269   0.714   2.480   7.691 -1.3120  1.2842  0.6361
 1546SOL     OW16270   3.891   0.918   5.779 -0.1685 -0.2627  0.5291
 1546SOL    HW116271   3.935   0.865   5.846  0.8225  1.3623  1.1665
 1546SOL    HW216272   3.832   0.854   5.741 -0.6828  0.4185  0.1820
 1547SOL     OW16273   0.811   4.278   7.162 -0.1745  0.3225  0.0637
 1547SOL    HW116274   0.810   4.287   7.066 -4.3371  1.7786  0.2475
 1547SOL    HW216275   0.892   4.328   7.175 -0.2071  0.3921 -0.0015
 1548SOL     OW16276   1.830   0.774   6.583 -0.9994 -0.3256  0.1574
 1548SOL    HW116277   1.925   0.762   6.582 -1.1155 -1.2746 -0.1270
 1548SOL    HW216278   1.791   0.692   6.615  0.6919 -1.6475 -1.2136
 1549SOL     OW16279   2.914   2.444   2.450 -0.3060 -0.1304 -0.0608
 1549SOL    HW116280   2.896   2.455   2.356 -0.9918  0.5086  0.1472
 1549SOL    HW216281   2.837   2.390   2.464 -0.3639  0.2151  0.9167
 1550SOL     OW16282   3.894   2.074   5.331  0.2934  0.5183  0.9380
 1550SOL    HW116283   3.896   2.069   5.236 -1.3646 -0.1062  0.9294
 1550SOL    HW216284   3.975   2.122   5.350  0.7783  0.1687 -0.2827
 1551SOL     OW16285   1.127   0.463   2.305  0.5347 -0.3531  0.1580
 1551SOL    HW116286   1.054   0.401   2.313  0.9489 -1.1542 -2.1141
 1551SOL    HW216287   1.167   0.476   2.391  0.5458 -2.4024  0.4709
 1552SOL     OW16288   0.350   0.084   7.055  0.1914  0.4671 -0.7180
 1552SOL    HW116289   0.388   0.004   7.018 -1.8557  0.0678 -1.9322
 1552SOL    HW216290   0.431   0.135   7.051  0.4582  0.1048  0.2346
 1553SOL     OW16291   1.463   3.969   7.295 -0.1699 -0.3856  0.1497
 1553SOL    HW116292   1.502   3.883   7.279 -1.1332 -0.6730 -0.6433
 1553SOL    HW216293   1.374   3.947   7.323 -1.3959  1.2539 -2.4985
 1554SOL     OW16294   3.772   0.088   4.143  0.1488 -0.2701  0.1332
 1554SOL    HW116295   3.834   0.029   4.099  0.3630  0.4844 -0.5778
 1554SOL    HW216296   3.813   0.102   4.228 -0.6939  1.0671  0.3213
 1555SOL     OW16297   1.536   2.989   2.630  0.4347 -0.5299 -0.0578
 1555SOL    HW116298   1.575   3.036   2.704 -0.3897 -0.6952  0.4804
 1555SOL    HW216299   1.452   3.033   2.635  0.3251 -0.7419 -0.0224
 1556SOL     OW16300   3.061   0.500   7.484  0.1494 -0.0688 -0.1145
 1556SOL    HW116301   3.082   0.554   7.408  0.2985 -0.5164 -0.3937
 1556SOL    HW216302   3.056   0.567   7.552  0.0064  1.5893 -1.7746
 1557SOL     OW16303   3.677   0.172   1.858  0.0409  0.6439 -0.5906
 1557SOL    HW116304   3.694   0.169   1.764  0.8430 -1.1409 -0.3954
 1557SOL    HW216305   3.707   0.260   1.881  2.6953 -0.0674 -1.3748
 1558SOL     OW16306   1.948   1.524   1.586  0.2722 -0.2429  0.2548
 1558SOL    HW116307   1.983   1.605   1.622  1.0608  0.2702 -1.6591
 1558SOL    HW216308   1.918   1.496   1.672 -1.3259 -0.1341 -0.2705
 1559SOL     OW16309   0.363   2.848   3.496  0.3875 -0.6648 -0.2211
 1559SOL    HW116310   0.395   2.771   3.449  0.5596 -0.2419 -0.7975
 1559SOL    HW216311   0.393   2.822   3.583  3.6064 -0.7088 -1.3606
 1560SOL     OW16312   3.589   4.552  14.924  0.4655  0.3592  0.0066
 1560SOL    HW116313   3.675   4.559  14.964  1.0345  1.1570 -1.3613
 1560SOL    HW216314   3.580   4.642  14.892 -0.4818  0.6762  1.1592
 1561SOL     OW16315   1.101   2.381  10.069 -0.3444  0.4298 -0.1183
 1561SOL    HW116316   1.107   2.458  10.012  1.5699  1.1484  1.0509
 1561SOL    HW216317   1.145   2.310  10.021 -1.6600 -0.3776 -0.1215
 1562SOL     OW16318   4.362   3.841   6.551 -0.5505 -0.3243  0.2487
 1562SOL    HW116319   4.404   3.867   6.633 -2.1682 -1.5205  1.4593
 1562SOL    HW216320   4.439   3.846   6.494 -0.5742 -3.3411 -0.0519
 1563SOL     OW16321   0.988   2.708  11.733  0.0578  0.3630  0.3419
 1563SOL    HW116322   0.955   2.791  11.767  0.8897  0.2832  1.3028
 1563SOL    HW216323   1.081   2.727  11.741  0.1369  0.4806 -0.8425
 1564SOL     OW16324   1.580   4.677   8.336  0.2069 -0.0633 -0.8604
 1564SOL    HW116325   1.626   4.713   8.261  0.3520  1.5431 -0.0013
 1564SOL    HW216326   1.523   0.015   8.365  1.5053  0.8714 -0.5958
 1565SOL     OW16327   4.659   3.023   1.923  0.2040 -0.5324  0.5869
 1565SOL    HW116328   0.008   3.019   1.874  0.0612  0.6010  0.2530
 1565SOL    HW216329   4.666   3.110   1.964  0.4594  0.3514 -1.3588
 1566SOL     OW16330   4.533   0.031   4.387 -0.1403 -1.0267  0.1761
 1566SOL    HW116331   4.461   0.080   4.347 -0.3986 -2.1596 -0.7729
 1566SOL    HW216332   4.588   0.087   4.441 -1.0676 -0.7413  0.8173
 1567SOL     OW16333   3.683   1.921   2.693  0.4142  0.4258 -0.5973
 1567SOL    HW116334   3.686   1.889   2.603  0.3727  0.2923 -0.5510
 1567SOL    HW216335   3.751   1.987   2.676  0.9202  0.2953  0.9294
 1568SOL     OW16336   3.155   1.418   0.683 -0.7339 -0.5023  0.0827
 1568SOL    HW116337   3.218   1.489   0.694 -1.4795  0.1423  0.2623
 1568SOL    HW216338   3.163   1.362   0.760  2.2883 -1.2009 -0.7669
 1569SOL     OW16339   2.943   1.289   4.533  0.6680 -0.2176  0.0138
 1569SOL    HW116340   2.865   1.302   4.586  1.1808  1.2599  0.4157
 1569SOL    HW216341   2.904   1.303   4.447 -0.8339  0.0891  0.7541
 1570SOL     OW16342   2.096   4.615  15.314  0.3826  0.1495 -0.1762
 1570SOL    HW116343   2.116   4.700  15.275  2.0968 -1.5830 -3.1775
 1570SOL    HW216344   2.180   4.569  15.326  0.3772  0.0605 -0.4655
 1571SOL     OW16345   4.358   2.343   4.192  0.2942  0.7902  0.5210
 1571SOL    HW116346   4.336   2.276   4.257 -1.1524 -1.7058 -2.5112
 1571SOL    HW216347   4.453   2.347   4.192  0.3845 -1.1362  0.6778
 1572SOL     OW16348   1.232   2.020   2.647 -0.0452  0.3454  0.4804
 1572SOL    HW116349   1.242   1.989   2.557 -0.8088  0.4492  0.3606
 1572SOL    HW216350   1.139   2.003   2.658  0.1546 -1.7204 -1.1036
 1573SOL     OW16351   4.647   1.514  11.691  0.4517 -0.3371 -0.2604
 1573SOL    HW116352   4.727   1.546  11.733  0.6058 -0.5579 -0.3878
 1573SOL    HW216353   4.591   1.543  11.763 -2.3299 -2.5602 -1.5094
 1574SOL     OW16354   0.908   4.586   5.456 -0.1489  0.0979 -0.8902
 1574SOL    HW116355   0.883   4.532   5.381 -0.2593 -0.2784 -0.5878
 1574SOL    HW216356   0.998   4.559   5.475  0.1129  1.6474  0.0648
 1575SOL     OW16357   3.079   1.258   8.139  0.0195 -0.0443 -0.0909
 1575SOL    HW116358   3.149   1.214   8.091 -0.4568 -1.2944  0.3656
 1575SOL    HW216359   3.101   1.351   8.149 -3.5541  0.6091  1.8248
 1576SOL     OW16360   0.080   1.097   8.314 -0.2331  0.3109 -0.7061
 1576SOL    HW116361   0.010   1.135   8.261 -0.2448 -0.7099 -1.4150
 1576SOL    HW216362   0.058   1.004   8.305 -0.0818  0.1073  1.0310
 1577SOL     OW16363   4.716   0.913  12.457 -0.2151  0.2417  0.0797
 1577SOL    HW116364   0.065   0.900  12.503  0.2559  0.3809 -0.7381
 1577SOL    HW216365   4.662   0.843  12.495 -1.1525  1.4266  0.9586
 1578SOL     OW16366   2.305   3.009   8.665  0.4748 -0.0774 -0.4413
 1578SOL    HW116367   2.264   2.929   8.635  1.9106 -1.5655  1.5166
 1578SOL    HW216368   2.291   3.002   8.760  0.9430 -0.8851 -0.4342
 1579SOL     OW16369   2.779   1.179  11.450 -0.3505 -0.3101  0.4193
 1579SOL    HW116370   2.865   1.176  11.408 -0.8206  0.9444 -0.6431
 1579SOL    HW216371   2.748   1.256  11.402 -0.7223 -0.8363 -0.1853
 1580SOL     OW16372   1.005   0.597  10.827 -0.3378  0.2774  0.6531
 1580SOL    HW116373   0.983   0.688  10.806 -0.5701  0.1065  0.1619
 1580SOL    HW216374   0.959   0.583  10.910 -3.1985  2.3709 -0.5661
 1581SOL     OW16375   1.507   3.001  11.161  0.4074 -0.1736  0.0897
 1581SOL    HW116376   1.527   2.969  11.249  1.9383  0.5727  0.0128
 1581SOL    HW216377   1.427   2.951  11.149 -0.3831  0.6171  2.0109
 1582SOL     OW16378   1.966   4.677   5.792  0.3799  0.3566 -0.0862
 1582SOL    HW116379   2.052   4.673   5.835  0.9316 -2.3510 -1.4355
 1582SOL    HW216380   1.976   0.029   5.749 -0.0332  0.1980 -0.4949
 1583SOL     OW16381   4.456   2.448  13.414 -0.2439 -0.5905 -0.2849
 1583SOL    HW116382   4.502   2.532  13.425  0.6318 -1.2483  0.9340
 1583SOL    HW216383   4.519   2.403  13.357 -0.7612 -1.8543  0.1541
 1584SOL     OW16384   0.028   2.362  15.383 -0.1532  0.2986  0.3418
 1584SOL    HW116385   4.675   2.393  15.355  0.0244 -1.1904 -1.8586
 1584SOL    HW216386   0.075   2.440  15.354 -1.1977  0.4518 -0.9513
 1585SOL     OW16387   4.452   0.303   3.437 -0.6649  0.7633  0.3450
 1585SOL    HW116388   4.537   0.304   3.394  0.1324 -0.8361  1.8901
 1585SOL    HW216389   4.405   0.351   3.369  0.1734  0.8271 -0.1860
 1586SOL     OW16390   3.379   3.043   7.141  0.6313 -0.4908 -0.0092
 1586SOL    HW116391   3.355   3.126   7.182 -1.1395 -0.8299 -0.3846
 1586SOL    HW216392   3.424   3.000   7.213  0.0958  0.3167  0.8081
 1587SOL     OW16393   1.792   0.096   6.971 -0.2497 -0.4006  0.0906
 1587SOL    HW116394   1.770   0.185   6.999 -3.8014 -0.8178 -1.3568
 1587SOL    HW216395   1.879   0.081   7.008  0.0280  0.1484 -0.3406
 1588SOL     OW16396   4.443   3.997   4.430  0.4267  0.4258 -0.1773
 1588SOL    HW116397   4.419   4.080   4.472  0.0305  0.7298 -0.9901
 1588SOL    HW216398   4.419   4.015   4.339  1.2235  2.0482 -0.0612
 1589SOL     OW16399   2.638   1.678   7.434 -0.1018  0.2517  0.0961
 1589SOL    HW116400   2.598   1.699   7.518 -1.1201  0.5882 -0.4823
 1589SOL    HW216401   2.628   1.759   7.384 -0.2320  0.1535 -0.0376
 1590SOL     OW16402   1.565   0.447   8.929 -0.2341 -0.5315 -0.3131
 1590SOL    HW116403   1.574   0.530   8.883  0.3870  0.2950  1.3241
 1590SOL    HW216404   1.532   0.470   9.016 -1.0728  1.7949 -1.2641
 1591SOL     OW16405   4.441   4.043   4.159 -0.1421  0.2728 -0.1316
 1591SOL    HW116406   4.506   4.060   4.091 -0.2632  0.9793 -0.0670
 1591SOL    HW216407   4.361   4.080   4.123 -0.3814  1.1904  1.3485
 1592SOL     OW16408   0.087   1.050   0.976  0.0144 -0.4745 -0.5227
 1592SOL    HW116409   0.090   0.982   0.909  2.7591 -1.1379  0.2989
 1592SOL    HW216410   4.731   1.079   0.956  0.3139  0.3067 -0.7427
 1593SOL     OW16411   1.668   2.945   5.516  0.0502 -0.0539  0.5779
 1593SOL    HW116412   1.712   3.029   5.528  0.8022 -0.7002  2.3225
 1593SOL    HW216413   1.672   2.927   5.422 -3.1003  0.7353  0.2932
 1594SOL     OW16414   1.380   1.903   2.830  0.4805 -0.4090  0.4244
 1594SOL    HW116415   1.458   1.931   2.783 -0.2232 -1.6399 -1.4530
 1594SOL    HW216416   1.319   1.945   2.769  0.3380  0.5455  1.2295
 1595SOL     OW16417   4.400   0.514   5.122 -0.4860  0.1870  0.3239
 1595SOL    HW116418   4.395   0.466   5.204  2.7870 -0.0015  0.4046
 1595SOL    HW216419   4.351   0.591   5.149 -1.5045 -0.5321  0.5150
 1596SOL     OW16420   4.644   2.116   3.271 -0.1624  0.2751 -0.7895
 1596SOL    HW116421   4.604   2.178   3.209 -1.2176  0.2014 -0.1828
 1596SOL    HW216422   4.732   2.145   3.294 -0.0353 -0.8271  0.1030
 1597SOL     OW16423   2.626   3.414   1.404 -0.1707 -0.3019  0.1349
 1597SOL    HW116424   2.619   3.435   1.311  1.3316  0.1710  0.1220
 1597SOL    HW216425   2.689   3.482   1.430 -1.5185  0.5339  1.2323
 1598SOL     OW16426   0.045   1.470   7.080 -0.3050 -0.8356 -0.1446
 1598SOL    HW116427   4.724   1.462   7.158 -2.2312 -2.3515 -1.6371
 1598SOL    HW216428   0.131   1.483   7.119 -0.6437 -0.8706  0.6079
 1599SOL     OW16429   3.034   2.229   6.089  0.0547 -0.0537 -0.0915
 1599SOL    HW116430   3.021   2.322   6.067  0.8523  0.3271  1.0111
 1599SOL    HW216431   3.126   2.220   6.112  0.5672  2.4337 -1.1366
 1600SOL     OW16432   2.273   0.765  12.248  0.0398  0.1680 -0.1206
 1600SOL    HW116433   2.253   0.809  12.330 -0.3872 -2.9442  1.4359
 1600SOL    HW216434   2.185   0.729  12.232  0.6127 -1.6814  0.9190
 1601SOL     OW16435   4.166   1.068  13.091 -0.4190 -0.4578 -0.5583
 1601SOL    HW116436   4.192   1.003  13.026 -0.3212  0.4893 -1.4736
 1601SOL    HW216437   4.072   1.075  13.073 -0.5550 -2.4580 -0.5751
 1602SOL     OW16438   0.233   4.122   1.755  0.4420 -0.1655 -0.2238
 1602SOL    HW116439   0.202   4.140   1.844  0.8790  1.2307 -0.3562
 1602SOL    HW216440   0.317   4.166   1.764  0.5261 -0.2618 -0.5652
 1603SOL     OW16441   1.472   0.907   3.488  0.2431 -0.4210  0.5179
 1603SOL    HW116442   1.379   0.931   3.485 -0.1411 -2.1051 -0.8935
 1603SOL    HW216443   1.511   0.992   3.509 -0.9605  0.2094  0.1740
 1604SOL     OW16444   3.094   1.989   5.533  0.3876  0.1479 -0.4558
 1604SOL    HW116445   3.065   2.055   5.470 -2.1022  0.3736  0.9479
 1604SOL    HW216446   3.157   2.040   5.585  2.0364 -1.4742 -0.8697
 1605SOL     OW16447   0.451   3.325  16.279 -0.6947  0.6246  0.6309
 1605SOL    HW116448   0.535   3.367  16.292 -1.0234  1.7114 -0.7786
 1605SOL    HW216449   0.491   3.241  16.300 -1.6369 -0.1247 -0.5334
 1606SOL     OW16450   3.883   3.315   7.211  0.0396 -0.6321  0.2965
 1606SOL    HW116451   3.961   3.277   7.251  1.1351  0.9774 -0.3487
 1606SOL    HW216452   3.863   3.377   7.281 -2.5684  0.2787 -1.2487
 1607SOL     OW16453   1.618   2.362   8.700  0.5666 -0.0996 -0.3772
 1607SOL    HW116454   1.608   2.295   8.768  1.2953  1.9554  1.7364
 1607SOL    HW216455   1.540   2.414   8.721 -2.1175 -4.0728 -0.5177
 1608SOL     OW16456   3.663   2.122   9.400 -0.5840  0.1825 -0.4750
 1608SOL    HW116457   3.754   2.101   9.423 -0.6916  0.6357  0.3757
 1608SOL    HW216458   3.623   2.119   9.487  0.2667 -1.4031 -0.1342
 1609SOL     OW16459   1.001   1.904   7.914  0.4570  0.3418  0.0078
 1609SOL    HW116460   0.956   1.837   7.863 -0.2814 -0.0775  1.2160
 1609SOL    HW216461   1.072   1.850   7.949  0.8050 -0.9512 -2.7153
 1610SOL     OW16462   3.016   1.887   2.466  0.2599  0.5734  0.2002
 1610SOL    HW116463   2.963   1.966   2.465  1.3791  1.3545  2.4674
 1610SOL    HW216464   3.096   1.923   2.429  0.7076 -0.5309  0.0712
 1611SOL     OW16465   1.038   3.732   7.667  0.3217  0.1015 -0.5633
 1611SOL    HW116466   1.063   3.801   7.728  1.0398 -0.1196 -0.6092
 1611SOL    HW216467   1.101   3.666   7.695 -0.6319  0.1760  1.7261
 1612SOL     OW16468   2.814   0.281   6.485  0.5221 -0.4201 -0.0009
 1612SOL    HW116469   2.758   0.342   6.437  0.0864 -0.7939  0.0318
 1612SOL    HW216470   2.832   0.224   6.411  2.0965  0.3654 -0.2066
 1613SOL     OW16471   1.947   2.803   5.932  0.1777  0.2294  0.1642
 1613SOL    HW116472   1.885   2.745   5.887  1.3286 -0.5582 -0.4124
 1613SOL    HW216473   1.928   2.891   5.901 -0.4059 -0.3463 -1.0772
 1614SOL     OW16474   3.366   3.699   8.970 -0.1912  0.3288  0.6903
 1614SOL    HW116475   3.343   3.742   8.888 -1.9108  2.6944  2.4197
 1614SOL    HW216476   3.387   3.612   8.936  1.3998  1.5362 -1.3199
 1615SOL     OW16477   0.393   2.479   5.339 -0.5635  0.0203  0.3357
 1615SOL    HW116478   0.317   2.526   5.373  0.7073  1.1577  1.5815
 1615SOL    HW216479   0.417   2.412   5.403 -3.4126 -0.6447  0.6931
 1616SOL     OW16480   0.102   3.135  13.645  0.2178  0.0278  0.4902
 1616SOL    HW116481   0.120   3.058  13.700  1.6001 -1.6878 -2.3690
 1616SOL    HW216482   0.162   3.123  13.571 -0.0696  0.5408  0.1772
 1617SOL     OW16483   3.008   2.244  11.220 -0.6193 -0.0985 -0.4065
 1617SOL    HW116484   2.983   2.212  11.133  0.1950 -0.6846 -0.4253
 1617SOL    HW216485   3.100   2.220  11.219 -0.0468  1.9807  4.0495
 1618SOL     OW16486   2.880   1.456   5.312  0.3809  0.1379 -0.3236
 1618SOL    HW116487   2.972   1.457   5.340  0.4310  1.8680 -0.5347
 1618SOL    HW216488   2.861   1.549   5.297 -0.1370 -0.5433 -3.8946
 1619SOL     OW16489   2.633   1.554  12.615 -0.0830 -0.5732 -0.3548
 1619SOL    HW116490   2.607   1.516  12.699  1.4553  0.6829  0.6810
 1619SOL    HW216491   2.720   1.518  12.600 -0.0356 -0.4501 -0.3790
 1620SOL     OW16492   2.076   0.778   7.732 -0.3094  0.2237  0.1622
 1620SOL    HW116493   2.054   0.759   7.823 -2.0072  0.3400 -0.2237
 1620SOL    HW216494   1.996   0.755   7.685  0.2596  0.9376 -1.1577
 1621SOL     OW16495   2.716   2.292   2.895 -0.1060  0.2092  0.1891
 1621SOL    HW116496   2.762   2.365   2.853 -0.3548  0.6555  0.6945
 1621SOL    HW216497   2.758   2.215   2.856 -1.3052 -0.8459  0.9443
 1622SOL     OW16498   0.803   1.465  17.264 -0.0139 -0.1535  0.2945
 1622SOL    HW116499   0.756   1.506  17.192  2.1203 -0.0090 -1.0010
 1622SOL    HW216500   0.882   1.425  17.227 -0.6900 -0.1294 -1.1773
 1623SOL     OW16501   2.988   0.489   6.698  0.5514 -0.4237  0.2186
 1623SOL    HW116502   2.939   0.442   6.631  1.1182 -0.4356 -0.1855
 1623SOL    HW216503   3.081   0.483   6.673  0.6406  2.7874 -0.2396
 1624SOL     OW16504   2.533   4.220   2.474  0.1037  0.4966  0.1868
 1624SOL    HW116505   2.455   4.181   2.514  0.2536 -0.5898 -0.5866
 1624SOL    HW216506   2.505   4.271   2.398  1.1579 -0.3518 -0.7697
 1625SOL     OW16507   3.586   0.918   1.088 -0.3231 -0.2465 -0.6564
 1625SOL    HW116508   3.600   0.998   1.036  0.7905 -1.2809 -1.9471
 1625SOL    HW216509   3.598   0.857   1.015  0.9526 -1.6808  0.7386
 1626SOL     OW16510   4.135   0.286   3.375 -0.3649  0.2671  0.1976
 1626SOL    HW116511   4.118   0.352   3.308  0.6052  1.0321  0.7016
 1626SOL    HW216512   4.156   0.209   3.323  2.0679  1.4111 -0.5249
 1627SOL     OW16513   3.568   4.490   3.848 -0.2589 -0.8620 -0.0283
 1627SOL    HW116514   3.565   4.406   3.804 -4.1024  0.3331 -2.0202
 1627SOL    HW216515   3.478   4.520   3.839  0.3580  0.9962 -0.0787
 1628SOL     OW16516   0.151   0.570   8.210  0.1656  0.0738  0.2945
 1628SOL    HW116517   0.147   0.608   8.297 -1.7133 -0.9959  0.6822
 1628SOL    HW216518   0.226   0.510   8.221 -0.3390 -0.8071 -1.0325
 1629SOL     OW16519   0.349   3.926   7.240 -0.1659 -0.6732  0.8787
 1629SOL    HW116520   0.437   3.949   7.266  0.4402 -1.2988 -0.5834
 1629SOL    HW216521   0.356   3.832   7.224  2.4852 -0.2924 -0.2231
 1630SOL     OW16522   3.426   3.798   0.829 -0.0254 -0.2242 -0.1553
 1630SOL    HW116523   3.478   3.732   0.877  2.3374 -0.0579 -2.5026
 1630SOL    HW216524   3.355   3.812   0.892  1.5932  0.3865  1.5591
 1631SOL     OW16525   1.206   4.449   7.781 -0.1294  0.4413 -0.4116
 1631SOL    HW116526   1.133   4.511   7.772  1.3362  2.2723  0.3511
 1631SOL    HW216527   1.231   4.434   7.690  0.1173  2.5880 -0.6918
 1632SOL     OW16528   4.091   0.263  13.539  0.0520  0.0284 -0.4541
 1632SOL    HW116529   4.156   0.328  13.563  0.2702 -0.3634  0.0309
 1632SOL    HW216530   4.058   0.225  13.621 -0.4407  1.5519  0.0568
 1633SOL     OW16531   3.309   2.512  12.092  0.1895 -0.3485  0.4039
 1633SOL    HW116532   3.395   2.552  12.077  1.1625 -2.4448  0.3996
 1633SOL    HW216533   3.313   2.481  12.183 -4.5191  1.4094  1.1753
 1634SOL     OW16534   3.083   1.055  16.545  0.0046  0.6624  0.8304
 1634SOL    HW116535   3.039   1.085  16.624  1.4323 -0.8369  2.2102
 1634SOL    HW216536   3.064   0.963  16.566  1.2652  0.2841  0.3354
 1635SOL     OW16537   2.655   2.665   2.273  0.4749  0.2132  0.1354
 1635SOL    HW116538   2.698   2.579   2.271  1.2014  0.5746  0.5397
 1635SOL    HW216539   2.574   2.652   2.223  0.2963 -0.5404  0.6122
 1636SOL     OW16540   2.655   2.269  12.400 -0.4051 -0.2745 -0.2907
 1636SOL    HW116541   2.728   2.222  12.361 -0.8266 -1.1840  0.0324
 1636SOL    HW216542   2.640   2.216  12.478 -2.6360 -0.5656 -0.9230
 1637SOL     OW16543   3.604   0.440   4.978  0.2663 -0.4127  0.0668
 1637SOL    HW116544   3.688   0.408   5.013  0.3538 -0.1652  0.0871
 1637SOL    HW216545   3.534   0.422   5.041  0.1721 -1.3576 -0.3022
 1638SOL     OW16546   3.652   2.990   6.764  0.5472  0.0336 -0.5212
 1638SOL    HW116547   3.571   3.034   6.739 -0.1999 -0.1428  1.5223
 1638SOL    HW216548   3.690   3.034   6.841 -1.1199 -0.2147  0.4557
 1639SOL     OW16549   3.995   3.782   1.184  0.0865 -0.2512  0.2337
 1639SOL    HW116550   3.904   3.778   1.155  0.8740 -0.9465 -2.0971
 1639SOL    HW216551   4.020   3.696   1.218  0.4033 -0.1766  0.1889
 1640SOL     OW16552   0.267   2.508  15.053 -0.2461 -0.3715  0.1569
 1640SOL    HW116553   0.322   2.532  15.127 -0.9819  1.2929  0.1544
 1640SOL    HW216554   0.204   2.580  15.052 -1.0694 -1.0791  0.3291
 1641SOL     OW16555   0.736   2.341   5.335  0.9139 -0.1464  0.0891
 1641SOL    HW116556   0.724   2.321   5.242 -0.3766  0.7917  0.0540
 1641SOL    HW216557   0.657   2.307   5.378  1.0691 -0.7625 -0.1128
 1642SOL     OW16558   3.796   2.230   5.720  0.2033 -0.1575 -0.7424
 1642SOL    HW116559   3.778   2.177   5.797 -0.5674  1.8672  0.4784
 1642SOL    HW216560   3.883   2.204   5.688 -0.2258 -0.7275 -1.4357
 1643SOL     OW16561   3.777   2.919  11.764  0.4838  0.3573  0.5623
 1643SOL    HW116562   3.750   2.864  11.837 -1.1250  0.7887  0.2800
 1643SOL    HW216563   3.697   2.938  11.716  1.2067 -2.0097 -1.5767
 1644SOL     OW16564   4.653   0.766   1.023 -0.1135  0.1648 -0.0517
 1644SOL    HW116565   4.577   0.823   1.034  1.0493  1.2758  2.2141
 1644SOL    HW216566   4.652   0.764   0.927  1.3936 -1.8526 -0.0189
 1645SOL     OW16567   3.211   2.597   5.499 -0.0946 -0.1695 -0.5490
 1645SOL    HW116568   3.139   2.649   5.533 -1.6961 -2.3025 -0.7055
 1645SOL    HW216569   3.285   2.641   5.540  1.2085 -1.3246 -1.6374
 1646SOL     OW16570   3.166   2.607   1.844 -0.3647  0.2273 -0.5645
 1646SOL    HW116571   3.197   2.517   1.834 -1.7569 -0.4036  0.9332
 1646SOL    HW216572   3.201   2.642   1.926 -0.4315 -3.1836  0.9209
 1647SOL     OW16573   4.553   0.196  12.510 -0.3519 -0.0214 -0.1680
 1647SOL    HW116574   4.464   0.225  12.532 -1.4363 -2.9970 -0.6154
 1647SOL    HW216575   4.602   0.243  12.578 -1.7027  1.5141 -0.2397
 1648SOL     OW16576   4.654   1.805   7.122 -0.2809 -0.4247 -0.0319
 1648SOL    HW116577   4.691   1.846   7.200 -0.0577  0.0148 -0.3783
 1648SOL    HW216578   4.731   1.762   7.085 -1.2578 -2.0067 -0.2641
 1649SOL     OW16579   4.723   3.639  15.653 -0.6857 -0.1473  0.1139
 1649SOL    HW116580   4.730   3.723  15.697  2.0061 -0.7624  0.9084
 1649SOL    HW216581   0.024   3.580  15.720  2.5490  0.1949 -1.2165
 1650SOL     OW16582   4.320   0.903   3.182  0.0256  0.1704  0.6202
 1650SOL    HW116583   4.324   0.835   3.115 -0.8418 -0.3897  1.1385
 1650SOL    HW216584   4.410   0.938   3.185 -0.1615  0.7167  0.0071
 1651SOL     OW16585   2.747   0.761   3.275  0.4650 -0.0109  0.3888
 1651SOL    HW116586   2.740   0.667   3.255 -2.8603  0.0886  1.0000
 1651SOL    HW216587   2.774   0.752   3.367 -0.1436 -0.1081  0.5608
 1652SOL     OW16588   1.560   1.013   0.694  0.0437  0.1839 -0.1537
 1652SOL    HW116589   1.479   1.007   0.643  0.2492  1.6661 -0.6758
 1652SOL    HW216590   1.598   0.929   0.667 -0.8940 -0.0569 -0.7348
 1653SOL     OW16591   4.001   1.320  17.280  0.2135 -0.2477 -0.1097
 1653SOL    HW116592   4.061   1.335  17.353 -1.2759 -1.1538  1.2946
 1653SOL    HW216593   4.059   1.282  17.213 -1.0202  0.3802 -1.5311
 1654SOL     OW16594   1.197   0.559   7.545  0.2026  0.2044  0.2676
 1654SOL    HW116595   1.156   0.473   7.545  0.9653 -0.1615 -0.3535
 1654SOL    HW216596   1.244   0.546   7.628  0.8774  1.9979  0.1684
 1655SOL     OW16597   2.452   0.380  15.735  0.2069 -0.7124 -0.4208
 1655SOL    HW116598   2.444   0.311  15.668 -0.7458 -0.7315 -0.2870
 1655SOL    HW216599   2.391   0.354  15.804  0.3428  3.5438  1.2471
 1656SOL     OW16600   0.388   3.598  15.935  0.4294  0.4321  0.1044
 1656SOL    HW116601   0.355   3.520  15.979  3.1152 -1.0782 -0.5856
 1656SOL    HW216602   0.337   3.664  15.982  0.9720 -0.3173  1.7279
 1657SOL     OW16603   2.333   2.103   4.851  0.0451 -0.1182  0.4008
 1657SOL    HW116604   2.272   2.052   4.903  1.8445 -1.9267  0.7023
 1657SOL    HW216605   2.362   2.177   4.905 -0.5465 -0.2413  0.8864
 1658SOL     OW16606   0.158   2.040   2.769  0.6044  0.1106 -0.1931
 1658SOL    HW116607   0.124   2.076   2.688  1.5418 -0.4848 -0.8556
 1658SOL    HW216608   0.251   2.027   2.750  0.7999  2.0831 -0.5643
 1659SOL     OW16609   1.797   1.974   3.375  0.4806 -0.2679 -0.1610
 1659SOL    HW116610   1.822   2.050   3.323 -0.1317 -0.8881 -1.3626
 1659SOL    HW216611   1.761   1.915   3.309 -0.4157  0.0009  0.0838
 1660SOL     OW16612   0.542   4.301   5.751  0.1694  0.0118  0.1870
 1660SOL    HW116613   0.448   4.304   5.735 -0.1037 -0.9667  1.5813
 1660SOL    HW216614   0.554   4.395   5.765 -0.2905 -0.2249  2.2003
 1661SOL     OW16615   1.131   0.865   7.810 -0.2169 -0.3354 -0.0369
 1661SOL    HW116616   1.186   0.930   7.853  1.3323  0.1103 -2.7147
 1661SOL    HW216617   1.074   0.925   7.761 -2.2932 -2.4868 -0.2447
 1662SOL     OW16618   3.495   0.542   1.461 -0.5651  0.5013 -0.1106
 1662SOL    HW116619   3.449   0.529   1.378  0.6928  2.8842 -1.1790
 1662SOL    HW216620   3.573   0.586   1.428 -1.0669  1.0284 -0.5981
 1663SOL     OW16621   2.998   2.394  12.048  0.3782 -0.3945  0.2138
 1663SOL    HW116622   3.075   2.434  12.089 -0.6417  2.4847 -0.6785
 1663SOL    HW216623   2.971   2.323  12.106  3.6842 -1.7349  0.1380
 1664SOL     OW16624   1.359   0.398  15.683 -0.4391  1.0124  0.0691
 1664SOL    HW116625   1.420   0.467  15.710  0.9102  0.0037 -0.4267
 1664SOL    HW216626   1.309   0.404  15.765 -1.9070  2.3169 -0.9179
 1665SOL     OW16627   4.139   0.218   8.254  0.7278 -0.0111 -0.0367
 1665SOL    HW116628   4.217   0.268   8.229 -0.8357  1.7821 -1.2467
 1665SOL    HW216629   4.066   0.257   8.207 -0.3130 -0.3582  1.2805
 1666SOL     OW16630   1.754   1.412  12.429  0.4566 -0.5259 -0.4130
 1666SOL    HW116631   1.798   1.331  12.455 -0.4230 -0.8941 -0.0799
 1666SOL    HW216632   1.783   1.470  12.499  2.5490 -1.2221 -0.6827
 1667SOL     OW16633   1.217   2.136  16.252  0.0854  0.3464 -0.1306
 1667SOL    HW116634   1.123   2.135  16.232  0.0454 -0.5878  0.0995
 1667SOL    HW216635   1.222   2.044  16.275  0.5148  0.1523 -0.9926
 1668SOL     OW16636   1.740   1.005   1.260 -0.3565 -0.2963 -0.7547
 1668SOL    HW116637   1.672   0.991   1.195 -2.2392 -1.8826  1.5572
 1668SOL    HW216638   1.784   0.919   1.263 -0.2589 -0.1900  0.7504
 1669SOL     OW16639   4.262   3.858   9.059 -0.2453 -0.5208 -0.8593
 1669SOL    HW116640   4.279   3.857   8.965  2.0221  2.4481 -0.4924
 1669SOL    HW216641   4.303   3.942   9.078 -1.2420  0.3143 -2.4081
 1670SOL     OW16642   0.760   1.782  14.994  0.3354 -0.5723  0.1379
 1670SOL    HW116643   0.764   1.765  15.088  0.6917  1.3809  0.4906
 1670SOL    HW216644   0.673   1.820  14.978  1.0926  0.3007 -1.9489
 1671SOL     OW16645   3.853   4.426   8.070  0.4744  0.4591 -0.0184
 1671SOL    HW116646   3.885   4.423   8.160  0.2471  0.0640  0.0487
 1671SOL    HW216647   3.869   4.517   8.045  0.4764  0.4955  0.1168
 1672SOL     OW16648   1.521   2.641   9.260 -0.2950 -1.3149  0.3745
 1672SOL    HW116649   1.446   2.607   9.309 -0.4745 -1.3696  0.0548
 1672SOL    HW216650   1.591   2.621   9.322 -0.8244 -1.9781  0.7615
 1673SOL     OW16651   2.758   1.336   2.093  0.0718 -0.3119  0.1203
 1673SOL    HW116652   2.806   1.278   2.152 -0.8837  1.1416  2.3556
 1673SOL    HW216653   2.723   1.400   2.156 -0.6100  0.9309 -1.4975
 1674SOL     OW16654   1.679   2.547   7.854 -0.8562  0.0866 -0.0831
 1674SOL    HW116655   1.705   2.620   7.911  0.3838 -0.1715 -0.3098
 1674SOL    HW216656   1.664   2.593   7.772  0.6221  0.3115 -0.2399
 1675SOL     OW16657   3.742   2.841   8.682 -0.0216  0.3929 -0.6359
 1675SOL    HW116658   3.662   2.879   8.644 -2.4158 -2.3248  1.6783
 1675SOL    HW216659   3.730   2.787   8.760  1.8143 -1.5310 -1.6840
 1676SOL     OW16660   2.599   4.404   2.846  0.2946  0.2613 -0.4379
 1676SOL    HW116661   2.516   4.441   2.816  0.6843  0.6954 -0.9953
 1676SOL    HW216662   2.575   4.340   2.913 -0.2574  0.7381 -0.1816
 1677SOL     OW16663   0.236   0.139   5.049 -0.2066  0.1311  0.0897
 1677SOL    HW116664   0.215   0.193   4.973 -1.5431 -0.8271 -0.2187
 1677SOL    HW216665   0.262   0.210   5.107 -1.0037  0.2812  0.2723
 1678SOL     OW16666   0.274   3.356  12.747 -0.5091  0.7086  0.2631
 1678SOL    HW116667   0.339   3.362  12.677 -1.8244  2.0168 -0.8395
 1678SOL    HW216668   0.321   3.408  12.812  2.7211 -1.0046 -0.6662
 1679SOL     OW16669   0.355   0.061   1.691 -0.2493  0.5878  0.3302
 1679SOL    HW116670   0.276   0.111   1.671 -0.8592 -0.1113  0.9759
 1679SOL    HW216671   0.336   4.701   1.678 -1.5141  0.5258  2.5758
 1680SOL     OW16672   4.535   0.571  10.294 -0.6736 -0.0993 -0.9166
 1680SOL    HW116673   4.591   0.529  10.229  0.2738 -0.5657  0.1970
 1680SOL    HW216674   4.457   0.603  10.249 -0.1380  1.5734 -0.6439
 1681SOL     OW16675   0.710   0.438  17.046  0.0606  0.0217 -0.5731
 1681SOL    HW116676   0.645   0.402  16.986 -0.8545  1.9322 -0.7286
 1681SOL    HW216677   0.685   0.409  17.133  0.7524  1.3484  0.0669
 1682SOL     OW16678   0.316   0.172   9.835  0.1255 -0.0868  0.0298
 1682SOL    HW116679   0.330   0.266   9.832 -0.5061  0.0355  0.9643
 1682SOL    HW216680   0.337   0.144   9.746 -0.4004  1.4286 -0.5713
 1683SOL     OW16681   1.861   3.504   1.637  0.2519 -0.7498 -0.0205
 1683SOL    HW116682   1.955   3.518   1.623  0.5878 -1.2671  1.7115
 1683SOL    HW216683   1.847   3.436   1.572 -2.5731 -0.6039  0.4172
 1684SOL     OW16684   0.014   3.190   8.571 -0.0936  0.4528 -0.2748
 1684SOL    HW116685   0.081   3.201   8.504  1.4961  0.6720  1.3409
 1684SOL    HW216686   4.704   3.113   8.535  0.1826  0.3061 -0.2882
 1685SOL     OW16687   4.296   3.493   0.908 -0.5544  0.4228 -0.4180
 1685SOL    HW116688   4.367   3.527   0.963 -1.5734 -1.5769  2.1131
 1685SOL    HW216689   4.315   3.544   0.829 -0.2867  0.6907 -0.1807
 1686SOL     OW16690   4.651   0.365   3.248  0.2053  0.1758 -0.0503
 1686SOL    HW116691   4.707   0.440   3.228 -1.1131  1.0538 -0.5154
 1686SOL    HW216692   4.652   0.320   3.164  0.8014  0.8112 -0.3805
 1687SOL     OW16693   0.497   3.425   6.271  0.0904 -0.4606  0.7103
 1687SOL    HW116694   0.559   3.496   6.256  2.2550 -2.3212  0.7040
 1687SOL    HW216695   0.550   3.372   6.331  0.5055 -0.3451  0.4443
 1688SOL     OW16696   3.474   1.031   4.296  0.2186 -0.1192  0.0273
 1688SOL    HW116697   3.505   1.116   4.330 -1.6258 -1.1256  4.2882
 1688SOL    HW216698   3.561   0.994   4.285  1.2531  2.9506 -2.1901
 1689SOL     OW16699   2.936   0.484   2.927 -0.2471  0.5137  0.1691
 1689SOL    HW116700   2.858   0.489   2.871 -0.1861  1.6328  0.1812
 1689SOL    HW216701   2.936   0.575   2.956 -2.7154  0.2071  1.1890
 1690SOL     OW16702   2.688   1.674   4.938  0.1910 -0.4700  0.7053
 1690SOL    HW116703   2.759   1.670   4.875 -0.6944 -2.9516 -0.1142
 1690SOL    HW216704   2.676   1.769   4.948  0.7455 -0.2012 -1.3571
 1691SOL     OW16705   0.050   3.703  12.355 -0.2937  0.3381  0.2198
 1691SOL    HW116706   0.041   3.641  12.282  2.6906  0.7873 -0.5248
 1691SOL    HW216707   0.044   3.641  12.427 -1.0589  0.7643  0.5232
 1692SOL     OW16708   1.072   3.027  17.417 -0.2179  0.2779 -0.6456
 1692SOL    HW116709   1.153   3.065  17.385 -0.3527  1.0858 -0.0180
 1692SOL    HW216710   1.084   2.934  17.398  2.1466  0.7366 -1.3463
 1693SOL     OW16711   0.083   1.909   3.620 -0.0463  0.2903  0.0061
 1693SOL    HW116712   0.163   1.906   3.569 -0.1601 -1.1027 -0.0926
 1693SOL    HW216713   0.102   1.975   3.687  0.9519 -0.9385  0.9336
 1694SOL     OW16714   3.745   1.083   8.957 -0.0925 -0.6642  0.2929
 1694SOL    HW116715   3.826   1.037   8.978  0.9848 -0.1706 -2.7580
 1694SOL    HW216716   3.761   1.171   8.991  2.5408 -1.5947  1.4655
 1695SOL     OW16717   3.517   3.355   9.612  0.6755  0.0951  0.1201
 1695SOL    HW116718   3.584   3.295   9.579  1.1597  0.2256  0.8777
 1695SOL    HW216719   3.518   3.418   9.539 -1.6632 -0.0124  0.0204
 1696SOL     OW16720   2.667   0.954   4.039  0.2733  0.3796 -0.0795
 1696SOL    HW116721   2.604   0.956   3.966 -0.0759  0.0919  0.2158
 1696SOL    HW216722   2.722   0.876   4.032 -2.9746 -1.8485 -0.7151
 1697SOL     OW16723   3.106   3.850  15.100  0.5821  0.1559  0.2566
 1697SOL    HW116724   3.148   3.774  15.060 -1.5865 -1.3276  0.7654
 1697SOL    HW216725   3.183   3.902  15.120  2.1652 -0.9935 -2.9763
 1698SOL     OW16726   4.507   0.202   9.860  0.1671 -0.3117  0.2472
 1698SOL    HW116727   4.474   0.183   9.948 -0.0884  2.0435  0.6602
 1698SOL    HW216728   4.477   0.292   9.846 -0.5976 -0.6934 -0.5500
 1699SOL     OW16729   4.595   0.999   8.568 -0.5389 -0.3612 -0.1258
 1699SOL    HW116730   4.521   1.029   8.622 -0.2854  1.1601 -0.6309
 1699SOL    HW216731   4.566   1.035   8.484 -4.2172 -2.3066  0.2916
 1700SOL     OW16732   2.148   0.795   8.704  0.3049  0.2307  0.3889
 1700SOL    HW116733   2.236   0.802   8.742  1.3797 -2.7681 -1.5550
 1700SOL    HW216734   2.156   0.882   8.666 -1.1334  0.2740  0.1893
 1701SOL     OW16735   1.955   2.840   3.657 -0.3459  0.4691 -0.0807
 1701SOL    HW116736   1.904   2.832   3.737  0.1243  0.7384  0.2474
 1701SOL    HW216737   1.936   2.931   3.634 -1.6941  0.3662  0.6452
 1702SOL     OW16738   0.101   2.173  15.042  0.2476  0.4662 -0.4913
 1702SOL    HW116739   0.147   2.150  15.123 -0.6333  0.0847 -0.0998
 1702SOL    HW216740   0.174   2.213  14.995  1.1481  0.3614  0.8322
 1703SOL     OW16741   0.479   1.689  16.933  0.4768  0.1782 -0.2048
 1703SOL    HW116742   0.503   1.763  16.877 -1.3513 -0.1582 -1.4374
 1703SOL    HW216743   0.548   1.697  16.998 -0.2197 -0.5469  0.6149
 1704SOL     OW16744   1.411   3.527   6.779 -0.2825 -1.0703  0.7182
 1704SOL    HW116745   1.383   3.478   6.857  0.9701  2.5497  3.4090
 1704SOL    HW216746   1.395   3.614   6.815 -0.4267 -0.4574 -0.8462
 1705SOL     OW16747   3.803   1.330   6.044 -0.4397 -0.3919  0.4525
 1705SOL    HW116748   3.765   1.320   5.957  0.1489 -0.5020  0.2149
 1705SOL    HW216749   3.894   1.300   6.046 -1.2594 -2.8747  0.6319
 1706SOL     OW16750   0.474   3.067   8.475 -0.3335 -0.5378 -0.1879
 1706SOL    HW116751   0.418   3.083   8.551  1.3000 -0.2146  0.9541
 1706SOL    HW216752   0.409   3.016   8.427 -0.6643 -1.3637  1.1470
 1707SOL     OW16753   0.637   0.277   7.827 -0.0765 -0.4289 -0.0536
 1707SOL    HW116754   0.652   0.353   7.882 -2.3337  0.9472 -1.2846
 1707SOL    HW216755   0.561   0.234   7.865 -2.1373  1.1366 -2.3186
 1708SOL     OW16756   3.071   4.340   5.949  0.0103  0.5351 -0.1657
 1708SOL    HW116757   2.980   4.324   5.975 -0.9750  1.9199 -2.8783
 1708SOL    HW216758   3.115   4.328   6.034 -1.0672  0.4721  0.3878
 1709SOL     OW16759   0.630   4.551   3.029  0.2543 -0.1504  0.0156
 1709SOL    HW116760   0.687   4.577   2.957 -2.4844  0.4221 -1.9514
 1709SOL    HW216761   0.625   4.457   3.011  0.4505 -0.1309 -0.1323
 1710SOL     OW16762   0.880   1.593   2.898 -0.3720  0.0630  0.2699
 1710SOL    HW116763   0.886   1.673   2.951 -1.3716 -1.0067  2.0096
 1710SOL    HW216764   0.883   1.624   2.807 -2.5400 -0.4536  0.0441
 1711SOL     OW16765   3.598   3.942   3.988  0.3651 -0.2658 -0.2907
 1711SOL    HW116766   3.508   3.941   3.956 -0.2807  0.6092  1.5318
 1711SOL    HW216767   3.594   3.889   4.068  4.2339 -0.1191  0.0110
 1712SOL     OW16768   4.557   2.597   1.619  0.0960  0.2418 -0.0902
 1712SOL    HW116769   4.610   2.559   1.688  1.4463 -0.0869 -1.3126
 1712SOL    HW216770   4.540   2.680   1.663  3.2504  1.2317 -0.7119
 1713SOL     OW16771   4.366   3.841   7.187 -0.1511 -0.0314 -0.0270
 1713SOL    HW116772   4.348   3.892   7.265  0.2448  1.3415 -0.8382
 1713SOL    HW216773   4.316   3.885   7.119 -1.0380 -1.6338 -0.4269
 1714SOL     OW16774   1.168   3.358  11.855  1.0262 -0.5635  0.4475
 1714SOL    HW116775   1.251   3.362  11.808  1.0679 -0.6809  0.5109
 1714SOL    HW216776   1.133   3.447  11.854  0.6538 -0.6967  1.5018
 1715SOL     OW16777   2.710   1.992   8.443 -0.0526 -0.0919 -0.0711
 1715SOL    HW116778   2.799   2.014   8.470  0.7004 -0.9563 -1.8672
 1715SOL    HW216779   2.685   2.065   8.387  0.3001  0.4713  0.4961
 1716SOL     OW16780   2.467   4.327   1.391  0.0856  0.1095 -0.0040
 1716SOL    HW116781   2.394   4.389   1.382  1.8699  2.3105  0.6590
 1716SOL    HW216782   2.487   4.326   1.484 -1.9611  1.9004  0.4804
 1717SOL     OW16783   3.629   4.157   8.534  0.1462  0.0016 -0.0358
 1717SOL    HW116784   3.572   4.223   8.573 -2.0628 -0.9508 -1.6918
 1717SOL    HW216785   3.690   4.140   8.606  0.8904  1.1130 -0.4119
 1718SOL     OW16786   3.284   0.463   4.801 -0.5201  0.0653 -0.2406
 1718SOL    HW116787   3.200   0.487   4.762 -0.2299 -1.1313 -1.6087
 1718SOL    HW216788   3.261   0.410   4.878 -2.9563 -1.0728 -1.7579
 1719SOL     OW16789   0.670   3.538   7.804 -0.6776  0.1300  0.7643
 1719SOL    HW116790   0.591   3.498   7.839 -1.9974  0.6717 -1.5405
 1719SOL    HW216791   0.637   3.568   7.719 -0.0469 -1.2274  0.0400
 1720SOL     OW16792   4.185   0.833   8.753 -0.7544 -0.3486  0.3101
 1720SOL    HW116793   4.262   0.788   8.786  0.4880  1.0331 -0.6996
 1720SOL    HW216794   4.118   0.830   8.822 -1.6160  1.1280 -0.4600
 1721SOL     OW16795   1.876   2.749   3.018  0.0237 -0.0860 -0.1189
 1721SOL    HW116796   1.788   2.783   3.036 -0.3118 -0.2064 -1.5307
 1721SOL    HW216797   1.926   2.825   3.047 -0.3411 -0.4431  1.4379
 1722SOL     OW16798   1.198   1.923   8.393 -0.4449  0.1545  0.7668
 1722SOL    HW116799   1.294   1.924   8.393 -0.4439  0.5183 -0.5114
 1722SOL    HW216800   1.188   1.829   8.380  0.6354 -0.0136  1.1563
 1723SOL     OW16801   2.194   0.821  15.243 -0.5114  0.1329  0.0965
 1723SOL    HW116802   2.164   0.732  15.261  1.1533 -0.8537 -2.0203
 1723SOL    HW216803   2.205   0.818  15.148  1.3799  0.3360  0.3120
 1724SOL     OW16804   0.147   1.954  11.319 -0.3186  0.6036 -0.1649
 1724SOL    HW116805   0.073   2.005  11.286 -0.8995 -0.3719 -0.4009
 1724SOL    HW216806   0.107   1.867  11.313  1.5592 -0.2226 -0.7649
 1725SOL     OW16807   0.285   2.713   4.143  0.1196  0.2975 -0.7218
 1725SOL    HW116808   0.204   2.737   4.188  0.5565  0.0053  0.2142
 1725SOL    HW216809   0.356   2.725   4.206 -1.1143 -0.1757  0.7533
 1726SOL     OW16810   3.207   2.964  13.860 -0.1071 -0.0471  0.3298
 1726SOL    HW116811   3.245   2.904  13.924 -0.5787  0.5057  1.1258
 1726SOL    HW216812   3.173   3.035  13.914 -0.4747 -0.9984  1.3337
 1727SOL     OW16813   0.277   0.328   6.007 -0.3433 -0.5092  0.5984
 1727SOL    HW116814   0.214   0.359   5.943 -0.9329 -0.4596  1.2082
 1727SOL    HW216815   0.312   0.405   6.052  1.5576 -1.0575  0.0934
 1728SOL     OW16816   2.768   0.217   5.198 -0.4176  0.1686  0.2436
 1728SOL    HW116817   2.744   0.149   5.260  1.7467 -1.5646 -0.8024
 1728SOL    HW216818   2.757   0.289   5.260 -1.2133  2.0328 -2.0389
 1729SOL     OW16819   1.027   1.759  15.203  0.1020 -0.0518  0.0467
 1729SOL    HW116820   0.936   1.771  15.231  0.2102 -0.8257  0.7229
 1729SOL    HW216821   1.060   1.718  15.283  2.5818  2.4968  0.3337
 1730SOL     OW16822   2.867   3.114   8.413 -0.3069  0.7549  0.4346
 1730SOL    HW116823   2.845   3.032   8.457  2.9501  1.3020  3.1079
 1730SOL    HW216824   2.925   3.155   8.477 -0.1514 -0.0367  0.7949
 1731SOL     OW16825   3.809   1.220  10.007  0.2109  0.1760 -0.2375
 1731SOL    HW116826   3.735   1.196   9.952  1.1528 -1.2451 -0.8801
 1731SOL    HW216827   3.772   1.291  10.060 -1.6636 -0.8513 -0.1656
 1732SOL     OW16828   0.885   1.418  10.272 -0.0319  0.1508  0.1576
 1732SOL    HW116829   0.913   1.502  10.309  1.7182  0.8994 -2.8569
 1732SOL    HW216830   0.790   1.412  10.285 -0.0353  1.8495  0.9842
 1733SOL     OW16831   3.517   4.340   4.515  0.1410 -0.4053  0.1142
 1733SOL    HW116832   3.483   4.425   4.488  0.3477 -0.3396  0.0609
 1733SOL    HW216833   3.556   4.308   4.433 -1.1959 -1.1819 -0.2308
 1734SOL     OW16834   4.335   1.153   2.401 -0.1385  0.0317  0.1656
 1734SOL    HW116835   4.263   1.103   2.364  0.1904 -1.9943  2.2662
 1734SOL    HW216836   4.318   1.245   2.381 -2.7136 -0.7362 -1.0923
 1735SOL     OW16837   0.182   4.404   4.569  0.4942 -0.0335 -0.4111
 1735SOL    HW116838   0.143   4.317   4.575  1.5938 -0.5982 -1.3875
 1735SOL    HW216839   0.273   4.383   4.547  1.0282  0.5771  1.2076
 1736SOL     OW16840   3.516   0.069   8.676  0.0045  0.4787  0.3024
 1736SOL    HW116841   3.572   0.124   8.731 -0.6626  0.3159  1.1496
 1736SOL    HW216842   3.437   0.056   8.729  0.6376 -0.1408  1.0980
 1737SOL     OW16843   0.365   2.030   5.910 -0.2990  0.3581 -0.2909
 1737SOL    HW116844   0.357   1.945   5.953 -1.9115  0.8492  0.3634
 1737SOL    HW216845   0.390   2.014   5.819 -0.7885 -3.7878  0.2934
 1738SOL     OW16846   1.406   1.787   5.366  0.2932  0.2154  0.0734
 1738SOL    HW116847   1.322   1.764   5.406 -0.3113  0.8112 -0.8896
 1738SOL    HW216848   1.446   1.702   5.345  1.4643  1.6498 -3.3582
 1739SOL     OW16849   0.237   1.684   7.749  0.1670  0.2741 -0.3238
 1739SOL    HW116850   0.198   1.679   7.836 -0.6941 -0.2151 -0.7334
 1739SOL    HW216851   0.163   1.727   7.705  0.7282  1.0727 -0.5067
 1740SOL     OW16852   3.683   0.187   6.991 -0.1870  0.3563  0.1650
 1740SOL    HW116853   3.607   0.133   6.970  0.3199 -0.5070  0.5659
 1740SOL    HW216854   3.662   0.211   7.081  1.6436 -0.7724  0.9057
 1741SOL     OW16855   1.592   2.018   6.997 -0.0603  0.0052  0.0299
 1741SOL    HW116856   1.685   2.022   7.021 -0.5973  3.6385  1.4148
 1741SOL    HW216857   1.550   2.039   7.080  0.2036  0.0983  0.1392
 1742SOL     OW16858   3.645   1.057  10.180  0.0143 -0.8889 -0.3623
 1742SOL    HW116859   3.699   1.026  10.253  0.8468 -1.9341 -1.4142
 1742SOL    HW216860   3.688   1.139  10.155 -1.8373 -0.4293 -2.0279
 1743SOL     OW16861   3.651   0.977   3.790 -0.7046  0.0267 -0.3086
 1743SOL    HW116862   3.732   0.981   3.739 -0.9272 -1.1620 -0.7666
 1743SOL    HW216863   3.591   1.021   3.730 -2.7017 -1.2632  0.7118
 1744SOL     OW16864   3.231   4.463   3.254 -0.2913 -0.1765 -0.0406
 1744SOL    HW116865   3.324   4.476   3.274 -0.0145 -0.8773 -0.8924
 1744SOL    HW216866   3.214   4.370   3.263 -0.8227 -0.0990 -0.2404
 1745SOL     OW16867   3.377   3.418   6.861  0.2471  0.8189  0.3345
 1745SOL    HW116868   3.424   3.488   6.906 -1.6847  0.5475  2.7356
 1745SOL    HW216869   3.309   3.401   6.926 -0.3253  0.7658 -0.2804
 1746SOL     OW16870   3.278   4.026  16.554 -0.3541 -0.4112  0.2704
 1746SOL    HW116871   3.264   4.048  16.461 -3.0795  0.3946  0.8459
 1746SOL    HW216872   3.361   3.981  16.565  0.0706  0.4476  0.5666
 1747SOL     OW16873   1.268   2.336   8.938  0.2610  0.1319 -0.3375
 1747SOL    HW116874   1.178   2.332   8.907 -0.6372 -1.9746  2.6163
 1747SOL    HW216875   1.274   2.430   8.955  3.0267 -0.1373  0.1410
 1748SOL     OW16876   0.766   1.318  11.109 -0.4820 -0.5133 -0.0006
 1748SOL    HW116877   0.808   1.268  11.039 -0.8208 -1.0489  0.1771
 1748SOL    HW216878   0.725   1.385  11.054 -2.6034  0.2608  2.5161
 1749SOL     OW16879   1.214   0.796  10.989  0.4160  0.2418  0.8620
 1749SOL    HW116880   1.200   0.717  10.938  0.5074  0.8393 -0.1010
 1749SOL    HW216881   1.309   0.791  10.984  0.2588 -0.9416 -0.7665
 1750SOL     OW16882   1.654   1.575  12.769 -0.1609  0.3804  0.1390
 1750SOL    HW116883   1.624   1.666  12.777  2.9396  1.5021 -0.5562
 1750SOL    HW216884   1.732   1.600  12.719 -0.1244  1.4331  0.7178
 1751SOL     OW16885   0.529   1.350   8.286 -0.2872  0.1310  0.3000
 1751SOL    HW116886   0.529   1.258   8.260  4.0315  0.9278 -2.6114
 1751SOL    HW216887   0.567   1.385   8.205 -1.0486 -1.1088 -0.5865
 1752SOL     OW16888   4.670   2.304  16.030  0.2376 -0.2821 -0.1144
 1752SOL    HW116889   0.029   2.308  16.006  0.1829  2.5374  0.1053
 1752SOL    HW216890   4.683   2.338  16.118  0.5529 -0.5690 -0.0507
 1753SOL     OW16891   3.106   2.878  10.822 -0.9400  0.0817  0.1418
 1753SOL    HW116892   3.077   2.816  10.756 -3.8416  3.7885 -2.0635
 1753SOL    HW216893   3.200   2.858  10.825 -1.0188  0.0268  2.0021
 1754SOL     OW16894   4.415   3.193   6.604 -0.4753 -0.0128 -0.0252
 1754SOL    HW116895   4.322   3.188   6.581 -0.0147  0.4717 -1.9560
 1754SOL    HW216896   4.427   3.285   6.581 -2.6158 -0.1676 -1.7617
 1755SOL     OW16897   3.565   0.380   9.442  0.0782 -0.2576 -0.1619
 1755SOL    HW116898   3.527   0.297   9.412  0.5665 -0.6536  0.3089
 1755SOL    HW216899   3.649   0.346   9.475  0.4250  0.7543 -0.0251
 1756SOL     OW16900   3.118   2.372   2.216  0.5257  0.0568 -0.4358
 1756SOL    HW116901   3.143   2.336   2.302  1.9598 -2.1086 -1.7584
 1756SOL    HW216902   3.132   2.465   2.233 -0.8341  0.1034  0.3834
 1757SOL     OW16903   0.145   0.283  10.323  0.4873  0.1025  0.1697
 1757SOL    HW116904   0.139   0.311  10.232 -4.8967  1.6059  0.9650
 1757SOL    HW216905   0.083   0.210  10.315 -1.1149  1.4183  0.7639
 1758SOL     OW16906   1.191   4.297   4.989  0.7827 -0.2142 -0.0875
 1758SOL    HW116907   1.247   4.253   4.925 -0.0849 -1.6786  0.1687
 1758SOL    HW216908   1.160   4.371   4.937 -5.0526 -0.4325  3.0419
 1759SOL     OW16909   3.680   2.736   5.816 -0.7478 -0.2959 -0.4327
 1759SOL    HW116910   3.738   2.660   5.817 -0.0330  0.2358 -1.9249
 1759SOL    HW216911   3.690   2.759   5.723  0.7861  1.6230  0.2226
 1760SOL     OW16912   4.583   2.887   9.552  0.7072 -0.4875 -0.2938
 1760SOL    HW116913   4.616   2.953   9.491  1.8089 -1.1854 -0.4412
 1760SOL    HW216914   4.541   2.942   9.619 -0.5635 -2.1143  0.2273
 1761SOL     OW16915   0.574   3.097  16.311 -0.1191  0.5778 -0.5676
 1761SOL    HW116916   0.601   3.025  16.367 -0.0697  1.4066  0.4711
 1761SOL    HW216917   0.514   3.047  16.256  1.5336 -0.6640 -1.2312
 1762SOL     OW16918   0.904   4.554   3.602 -0.3363  0.3345  0.2623
 1762SOL    HW116919   0.982   4.499   3.589  0.4895  1.8170 -1.1918
 1762SOL    HW216920   0.856   4.498   3.662  0.2497  0.2563  0.6592
 1763SOL     OW16921   4.164   1.996   3.720 -0.3049 -0.3129  0.0269
 1763SOL    HW116922   4.135   2.060   3.654  0.3664 -1.4400 -1.3565
 1763SOL    HW216923   4.257   1.988   3.700 -0.0987 -0.5911  1.1413
 1764SOL     OW16924   2.588   0.760   4.877 -0.0109 -0.6116  0.5013
 1764SOL    HW116925   2.639   0.683   4.902 -0.5482 -0.5143  1.9192
 1764SOL    HW216926   2.608   0.756   4.784  0.6397 -0.8336  0.6574
 1765SOL     OW16927   3.666   2.824   9.124  0.0180 -0.0499  0.4566
 1765SOL    HW116928   3.612   2.857   9.195 -1.3516 -0.7206 -0.2767
 1765SOL    HW216929   3.673   2.907   9.077 -3.3449 -0.2036 -0.3180
 1766SOL     OW16930   2.694   3.980   9.666  0.3409 -0.5758 -0.3212
 1766SOL    HW116931   2.779   3.941   9.645  0.1227 -0.7590 -0.8575
 1766SOL    HW216932   2.693   3.975   9.762 -0.8897  2.1206 -0.1930
 1767SOL     OW16933   2.460   2.679   2.052  0.3792 -0.3361  0.1481
 1767SOL    HW116934   2.375   2.711   2.081 -0.4484  0.1040 -2.7116
 1767SOL    HW216935   2.448   2.695   1.958  0.6245  1.4520  0.4184
 1768SOL     OW16936   4.094   3.268   6.941  0.2195  0.6759 -0.0903
 1768SOL    HW116937   4.123   3.318   7.017  1.2270 -0.7937  0.4950
 1768SOL    HW216938   4.005   3.304   6.934 -0.2343 -0.5994 -0.9483
 1769SOL     OW16939   3.114   0.863   4.748 -0.5155  0.2364  0.4178
 1769SOL    HW116940   3.052   0.802   4.790  0.1178  0.2583  1.3682
 1769SOL    HW216941   3.090   0.947   4.786  1.8983  1.1865 -0.1766
 1770SOL     OW16942   1.129   1.996   0.689 -0.5257 -0.6480  0.0483
 1770SOL    HW116943   1.046   2.024   0.729 -2.1373 -2.3388 -2.0991
 1770SOL    HW216944   1.145   2.074   0.636  0.5444  0.0262  1.3793
 1771SOL     OW16945   3.654   2.295   3.940 -0.1774 -0.4373  0.0966
 1771SOL    HW116946   3.704   2.375   3.958  1.6133 -1.3191 -1.0173
 1771SOL    HW216947   3.722   2.234   3.913 -0.8586 -0.9515 -0.4471
 1772SOL     OW16948   2.300   1.173   9.732 -0.3765 -0.4527 -0.3667
 1772SOL    HW116949   2.274   1.084   9.758  1.2249  0.1975  3.4455
 1772SOL    HW216950   2.221   1.225   9.749 -0.9329 -1.3245 -0.2305
 1773SOL     OW16951   4.057   0.546   8.926 -0.4296 -0.1912 -0.7747
 1773SOL    HW116952   4.113   0.479   8.965  0.2813  1.2963  0.7297
 1773SOL    HW216953   4.004   0.569   9.002 -2.2237  0.5928 -2.2375
 1774SOL     OW16954   1.909   4.571   1.576  0.4745  0.0231 -0.2786
 1774SOL    HW116955   1.979   4.524   1.621  0.6033  1.0213  0.5689
 1774SOL    HW216956   1.957   4.593   1.496 -1.8764 -0.9494 -1.9512
 1775SOL     OW16957   1.298   0.646   7.048 -0.3315  0.3409  0.4950
 1775SOL    HW116958   1.282   0.722   7.104 -1.3752 -1.3332  2.5023
 1775SOL    HW216959   1.295   0.575   7.113 -1.7748  0.1843  0.2521
 1776SOL     OW16960   0.993   4.692   6.461  0.1029  0.3296 -0.1140
 1776SOL    HW116961   1.009   0.052   6.445  1.9017  0.3024  1.5082
 1776SOL    HW216962   1.083   4.658   6.453 -0.2623 -0.1938 -2.1086
 1777SOL     OW16963   0.344   3.179   7.914  0.1435  0.1374  0.1666
 1777SOL    HW116964   0.430   3.178   7.873  0.0621 -1.1451  0.0195
 1777SOL    HW216965   0.285   3.173   7.839  1.6684  0.6768 -1.0812
 1778SOL     OW16966   0.610   4.194   3.900  0.7157  0.2833 -0.0412
 1778SOL    HW116967   0.633   4.130   3.967 -0.5970  1.3006  1.3709
 1778SOL    HW216968   0.517   4.176   3.882  0.1056  1.2779  2.1048
 1779SOL     OW16969   1.662   1.656  10.233  0.7009  0.2368  0.6026
 1779SOL    HW116970   1.756   1.651  10.250  0.9758  0.6119 -0.7477
 1779SOL    HW216971   1.635   1.732  10.285 -1.3107  0.8106 -1.2694
 1780SOL     OW16972   3.622   4.233   8.017  0.5583 -0.3164 -0.3478
 1780SOL    HW116973   3.634   4.176   8.094 -0.6985 -1.6786 -1.1578
 1780SOL    HW216974   3.698   4.289   8.033  1.1108 -0.7135 -1.6211
 1781SOL     OW16975   1.651   2.027   8.325  0.1879 -0.0480 -0.0620
 1781SOL    HW116976   1.603   2.108   8.343 -0.1480 -0.3850  0.5169
 1781SOL    HW216977   1.578   1.971   8.299  0.2677 -0.1734 -0.0145
 1782SOL     OW16978   3.156   4.285  10.389 -0.2139  0.1596 -0.2633
 1782SOL    HW116979   3.102   4.364  10.382  0.5086  0.6777  0.0745
 1782SOL    HW216980   3.144   4.241  10.305 -1.4476 -2.1918  1.1153
 1783SOL     OW16981   0.006   2.187  16.957 -0.1038 -0.5731 -0.2109
 1783SOL    HW116982   4.654   2.227  16.974 -0.6360  0.4162 -5.3653
 1783SOL    HW216983   0.029   2.235  16.877 -3.1159  1.3979  0.1339
 1784SOL     OW16984   3.637   2.023   2.253 -0.2373 -0.3866  0.2013
 1784SOL    HW116985   3.684   2.104   2.235  0.6613 -1.1803 -1.0162
 1784SOL    HW216986   3.575   2.046   2.322 -1.3226 -0.1977 -0.8219
 1785SOL     OW16987   0.613   1.644   5.226  0.0895 -0.3801  0.4660
 1785SOL    HW116988   0.675   1.627   5.155  0.8500  0.5531  0.8985
 1785SOL    HW216989   0.676   1.654   5.298 -0.1899 -0.6608  0.7470
 1786SOL     OW16990   4.113   1.714   6.839 -0.3805 -0.3508  0.3953
 1786SOL    HW116991   4.176   1.700   6.910 -2.8954 -0.9246  2.5098
 1786SOL    HW216992   4.096   1.624   6.811 -1.1449  0.1697 -0.8093
 1787SOL     OW16993   3.632   0.057   4.485 -0.0520 -0.2162 -0.1529
 1787SOL    HW116994   3.723   0.051   4.456  0.3056  0.7326  0.7451
 1787SOL    HW216995   3.581   0.018   4.415 -1.5665 -1.7776  1.7996
 1788SOL     OW16996   3.248   2.911   3.409  0.0970  0.4369  0.2717
 1788SOL    HW116997   3.201   2.908   3.325  1.3956  1.3943 -0.4999
 1788SOL    HW216998   3.210   2.834   3.450 -0.0380  0.7572  0.7520
 1789SOL     OW16999   2.441   3.770   5.576 -0.1247 -0.5288 -0.7517
 1789SOL    HW117000   2.390   3.719   5.513 -0.2820  0.0592 -1.0939
 1789SOL    HW217001   2.525   3.771   5.529  0.2835 -3.0175 -0.1233
 1790SOL     OW17002   1.898   2.227   9.788 -0.2148 -0.4407  0.1340
 1790SOL    HW117003   1.815   2.261   9.822  0.1321 -1.6275  2.1464
 1790SOL    HW217004   1.903   2.281   9.709 -0.3864  0.2824  0.6180
 1791SOL     OW17005   0.670   1.064  14.646 -0.3937  0.8667  0.2069
 1791SOL    HW117006   0.666   1.155  14.619  1.4230  0.4259 -1.5533
 1791SOL    HW217007   0.576   1.046  14.646 -0.2885  0.3173 -0.2915
 1792SOL     OW17008   0.018   4.648   1.138  0.0055 -0.1759 -0.0677
 1792SOL    HW117009   0.056   4.574   1.185 -0.2726  1.1936  2.3623
 1792SOL    HW217010   4.726   4.699   1.215  1.2002 -0.0385  0.2421
 1793SOL     OW17011   1.166   1.715   5.447  0.5150 -0.0253  0.1828
 1793SOL    HW117012   1.096   1.758   5.497 -1.7035 -3.9849  0.4432
 1793SOL    HW217013   1.140   1.623   5.447  2.2531 -0.4950 -1.9006
 1794SOL     OW17014   1.874   1.583   9.973 -0.3374  0.4271  0.1433
 1794SOL    HW117015   1.851   1.495   9.944  0.8876  0.1025  0.1928
 1794SOL    HW217016   1.921   1.612   9.895  0.1179 -0.0584  0.2376
 1795SOL     OW17017   1.177   3.498   7.754 -0.3366  0.1485 -0.0719
 1795SOL    HW117018   1.272   3.497   7.763 -0.4600  1.5092  1.4074
 1795SOL    HW217019   1.162   3.407   7.729 -0.0321  0.3565 -1.0134
 1796SOL     OW17020   2.354   0.436   8.242 -0.5915 -0.2424 -0.1562
 1796SOL    HW117021   2.280   0.376   8.242 -1.0318  0.3048  0.2953
 1796SOL    HW217022   2.341   0.490   8.320  1.4391 -1.8465  1.2957
 1797SOL     OW17023   3.227   2.446   0.663  0.7345  0.5237 -0.2673
 1797SOL    HW117024   3.156   2.505   0.636 -0.3691 -2.1360 -3.2060
 1797SOL    HW217025   3.301   2.463   0.605 -0.4402  1.8214 -1.3906
 1798SOL     OW17026   2.693   1.782   4.305 -0.2911 -0.5754 -0.5596
 1798SOL    HW117027   2.748   1.731   4.364  1.2150  1.4310 -0.2372
 1798SOL    HW217028   2.627   1.714   4.296 -0.4143 -0.2964 -1.6876
 1799SOL     OW17029   2.548   2.419   3.419 -0.5222 -1.0322  0.6423
 1799SOL    HW117030   2.602   2.345   3.391 -0.3536 -1.3011  1.7063
 1799SOL    HW217031   2.466   2.383   3.453 -1.7783  0.7436 -0.4728
 1800SOL     OW17032   2.412   2.652   3.741  0.3842 -0.6188 -0.5574
 1800SOL    HW117033   2.353   2.659   3.666 -1.9271  0.0493  1.3553
 1800SOL    HW217034   2.395   2.729   3.795  0.5831 -0.1556 -1.1439
 1801SOL     OW17035   3.685   1.725   2.918  0.0695 -0.7243 -0.0007
 1801SOL    HW117036   3.618   1.745   2.983  0.2483  0.9619 -0.3300
 1801SOL    HW217037   3.651   1.783   2.849  1.3918 -0.9528 -0.8434
 1802SOL     OW17038   3.454   0.852   6.649  0.1629 -0.3647 -0.0190
 1802SOL    HW117039   3.374   0.838   6.598  0.3370 -2.4122  0.2529
 1802SOL    HW217040   3.511   0.895   6.586 -2.3680  2.7380 -0.1936
 1803SOL     OW17041   1.133   0.822   5.161 -0.0439 -0.1243  0.0808
 1803SOL    HW117042   1.176   0.752   5.112  1.6562 -0.1807  1.6275
 1803SOL    HW217043   1.181   0.898   5.129  0.4218 -0.0299  0.9787
 1804SOL     OW17044   0.552   2.484   2.289 -0.7825  0.3554 -0.1810
 1804SOL    HW117045   0.626   2.424   2.285  0.0174  1.3951 -0.8384
 1804SOL    HW217046   0.489   2.454   2.224  0.9015 -1.6474 -0.8700
 1805SOL     OW17047   3.379   0.415   7.047 -0.0938  0.1057  0.6267
 1805SOL    HW117048   3.449   0.418   6.982 -1.2046 -1.2149 -0.6441
 1805SOL    HW217049   3.399   0.498   7.090  1.6182  0.9861 -1.8656
 1806SOL     OW17050   0.916   0.314   4.325 -0.6779 -0.6342  0.4496
 1806SOL    HW117051   0.887   0.225   4.347  0.9731 -0.8822  1.5937
 1806SOL    HW217052   0.835   0.357   4.352 -0.6157 -0.7484  0.8208
 1807SOL     OW17053   3.308   2.939   2.286  0.1658 -0.6434  0.4544
 1807SOL    HW117054   3.354   2.887   2.221 -1.8550 -1.8914  0.0285
 1807SOL    HW217055   3.377   2.976   2.341  1.0129  0.8615 -1.6218
 1808SOL     OW17056   3.933   1.473  12.891  0.5488  0.4478  0.7028
 1808SOL    HW117057   3.945   1.558  12.933 -2.9555 -0.0644  2.7377
 1808SOL    HW217058   3.945   1.411  12.963  0.5790  1.9880  2.0330
 1809SOL     OW17059   3.910   1.347   4.898 -0.3611 -0.2439 -0.1889
 1809SOL    HW117060   3.984   1.363   4.956  1.4937  0.1905 -2.6536
 1809SOL    HW217061   3.873   1.436   4.898 -0.9869 -0.4986 -0.4128
 1810SOL     OW17062   2.547   2.510  11.631  0.8026 -0.6584 -0.2658
 1810SOL    HW117063   2.540   2.511  11.535  0.1904  2.5872 -0.1998
 1810SOL    HW217064   2.630   2.552  11.652  0.7636 -0.7847  0.1412
 1811SOL     OW17065   3.891   1.170   5.680 -0.0677 -0.0023  0.3962
 1811SOL    HW117066   3.887   1.079   5.710  3.5911 -0.8168 -1.5946
 1811SOL    HW217067   3.807   1.199   5.715  0.6054  0.7103  1.4200
 1812SOL     OW17068   4.185   0.655   4.261 -0.0466 -0.6346  0.0285
 1812SOL    HW117069   4.235   0.671   4.181 -1.1597  0.8302 -0.3737
 1812SOL    HW217070   4.181   0.560   4.247 -0.8666 -0.1642 -2.9266
 1813SOL     OW17071   2.831   0.788  10.434  0.4443  0.8241  0.0244
 1813SOL    HW117072   2.910   0.793  10.380 -0.7284 -0.4045 -1.8031
 1813SOL    HW217073   2.761   0.748  10.383  0.1172  1.4806 -0.0443
 1814SOL     OW17074   3.661   4.162   3.016  0.2646  0.1942  0.1933
 1814SOL    HW117075   3.725   4.147   2.946  0.7287  1.6417  0.3227
 1814SOL    HW217076   3.598   4.094   2.988  0.1203  0.1921  0.5283
 1815SOL     OW17077   0.250   1.050  15.662  0.2197  0.0924 -0.2275
 1815SOL    HW117078   0.313   1.038  15.591 -1.8011  0.0609 -2.0333
 1815SOL    HW217079   0.230   1.144  15.661  0.9570  0.2340 -1.4811
 1816SOL     OW17080   4.402   1.780   5.814 -0.3406  0.4736  0.2291
 1816SOL    HW117081   4.349   1.701   5.824 -0.2273  0.3966  0.2201
 1816SOL    HW217082   4.437   1.803   5.900 -0.8413 -0.0070  0.5629
 1817SOL     OW17083   3.066   0.794   5.611 -0.1720 -0.2494 -0.0648
 1817SOL    HW117084   3.102   0.871   5.567  0.7398 -1.0463 -0.7359
 1817SOL    HW217085   2.987   0.779   5.560  0.2699 -1.2568 -0.4606
 1818SOL     OW17086   0.796   0.740   7.043 -0.0317 -0.0492  0.3715
 1818SOL    HW117087   0.740   0.709   7.115 -1.3830 -1.6192 -1.3507
 1818SOL    HW217088   0.824   0.654   7.011  2.6612  1.5714 -1.6327
 1819SOL     OW17089   2.493   2.592   2.828 -0.2137 -0.0599 -0.3845
 1819SOL    HW117090   2.587   2.592   2.847 -0.0793 -0.0046 -1.0355
 1819SOL    HW217091   2.482   2.687   2.828  2.2802  0.2188  0.2061
 1820SOL     OW17092   2.446   0.143   3.344  0.4574  0.2569  0.1973
 1820SOL    HW117093   2.527   0.093   3.345  1.1000  1.3048  0.7015
 1820SOL    HW217094   2.459   0.200   3.268  0.8699  0.5487  0.4889
 1821SOL     OW17095   2.184   1.467   6.232 -0.4326 -0.1885  0.9310
 1821SOL    HW117096   2.199   1.442   6.323 -3.0198  1.5818  1.8419
 1821SOL    HW217097   2.132   1.546   6.245 -1.0016 -0.2154 -1.1730
 1822SOL     OW17098   3.903   1.093   1.128  0.2999  0.3891 -0.2786
 1822SOL    HW117099   3.964   1.130   1.193 -0.7604  1.3033  0.1764
 1822SOL    HW217100   3.853   1.170   1.102 -0.1307 -0.0693 -0.8084
 1823SOL     OW17101   2.591   1.095   6.902  0.1561 -0.1475 -0.2799
 1823SOL    HW117102   2.663   1.044   6.939 -0.8246 -2.1340 -1.1320
 1823SOL    HW217103   2.627   1.183   6.912 -0.6511 -0.0687  1.9238
 1824SOL     OW17104   4.140   2.035   1.102  0.4235  0.3122 -0.5785
 1824SOL    HW117105   4.144   2.098   1.030  3.6517  1.9408  1.0340
 1824SOL    HW217106   4.126   1.956   1.049 -0.6107  0.6212 -0.7733
 1825SOL     OW17107   1.939   1.635   7.629  0.1394 -0.4950  0.0818
 1825SOL    HW117108   1.863   1.687   7.656  0.1142  0.0610 -1.0494
 1825SOL    HW217109   2.009   1.697   7.608  0.4452  0.1429  3.0295
 1826SOL     OW17110   0.787   4.646   4.604  0.0997 -0.1253  0.2790
 1826SOL    HW117111   0.692   4.634   4.613  0.1684 -0.8396  0.0608
 1826SOL    HW217112   0.808   4.678   4.692  1.1114  0.0077 -0.0111
 1827SOL     OW17113   4.703   3.649   8.964 -0.2593  0.6469  0.4020
 1827SOL    HW117114   4.619   3.657   9.009 -1.0818 -4.3090 -0.2572
 1827SOL    HW217115   4.696   3.554   8.953  2.9353  0.2701  1.7898
 1828SOL     OW17116   1.305   2.460   3.191  0.2944  0.8616  0.9303
 1828SOL    HW117117   1.357   2.537   3.165  0.7851 -1.0522 -3.6309
 1828SOL    HW217118   1.375   2.421   3.244 -1.3402 -1.3288  1.4443
 1829SOL     OW17119   2.198   3.602   8.862  0.2814  0.1707  0.9370
 1829SOL    HW117120   2.156   3.687   8.878 -1.3672 -0.9415  2.4971
 1829SOL    HW217121   2.127   3.538   8.861  1.9639 -1.6968  0.5018
 1830SOL     OW17122   2.946   3.752   2.505  0.0340 -0.3233  0.2320
 1830SOL    HW117123   2.925   3.772   2.597  1.8378  0.3477  0.5013
 1830SOL    HW217124   2.999   3.675   2.520 -0.5613 -0.7855 -0.0344
 1831SOL     OW17125   0.168   1.785   2.935  0.3846 -0.3428 -0.2873
 1831SOL    HW117126   0.116   1.705   2.935 -1.0144  0.5752  2.5672
 1831SOL    HW217127   0.242   1.757   2.880  0.5460  0.5539 -0.5361
 1832SOL     OW17128   3.975   3.619   7.907 -0.4084 -0.4536 -0.2557
 1832SOL    HW117129   3.887   3.658   7.903 -0.0518  0.1457 -2.6468
 1832SOL    HW217130   3.962   3.529   7.938 -1.5138 -0.9712 -2.1880
 1833SOL     OW17131   4.023   3.859  16.218 -0.7453 -0.5626  0.3268
 1833SOL    HW117132   4.045   3.942  16.260  0.8668 -0.4992 -0.6160
 1833SOL    HW217133   3.935   3.853  16.254  0.3534 -1.7987  2.7728
 1834SOL     OW17134   0.917   3.660   7.938  0.0793 -0.4888 -0.1355
 1834SOL    HW117135   0.977   3.658   7.863  0.9500  0.4778  0.5408
 1834SOL    HW217136   0.838   3.613   7.911 -0.7930  0.3568  0.9632
 1835SOL     OW17137   3.749   1.982   5.058 -0.2402  0.1662  0.3062
 1835SOL    HW117138   3.675   2.011   5.005 -0.0715  2.6267  1.3996
 1835SOL    HW217139   3.699   1.910   5.098 -0.1492 -0.9331 -1.5309
 1836SOL     OW17140   1.049   1.422   2.184 -0.3534  0.4408  0.1699
 1836SOL    HW117141   0.956   1.445   2.186 -0.5946 -0.5113 -0.4081
 1836SOL    HW217142   1.051   1.402   2.277 -0.5407  0.3938  0.1628
 1837SOL     OW17143   2.757   4.089   7.870 -0.0501 -0.3502 -0.3337
 1837SOL    HW117144   2.814   4.012   7.872 -0.2612 -0.4932  0.3439
 1837SOL    HW217145   2.800   4.149   7.931 -0.0829 -0.1136 -0.5436
 1838SOL     OW17146   4.447   2.515  15.629  0.3111  0.0714  0.1085
 1838SOL    HW117147   4.492   2.442  15.671 -0.5525  0.3099  1.4163
 1838SOL    HW217148   4.379   2.548  15.687  2.0586 -0.0544  2.2174
 1839SOL     OW17149   0.068   3.310   6.671 -0.1667  0.3894  0.0041
 1839SOL    HW117150   0.078   3.217   6.654 -0.7999 -0.2157  2.9304
 1839SOL    HW217151   4.707   3.324   6.665 -0.2765 -1.2799 -1.9078
 1840SOL     OW17152   1.843   2.872  13.230  0.5440 -0.5392  0.3847
 1840SOL    HW117153   1.887   2.956  13.223  1.7152 -1.0850  1.1322
 1840SOL    HW217154   1.850   2.858  13.325 -1.0564 -0.1298  0.5638
 1841SOL     OW17155   2.775   2.102  16.462  0.2570  0.1424  0.0470
 1841SOL    HW117156   2.688   2.139  16.477 -0.0843 -0.4212 -0.5235
 1841SOL    HW217157   2.831   2.169  16.501  0.8982 -1.8706  2.6375
 1842SOL     OW17158   0.353   3.503   2.914 -0.2838 -0.1244 -0.3005
 1842SOL    HW117159   0.327   3.431   2.971 -3.2939 -0.1349 -1.7176
 1842SOL    HW217160   0.326   3.465   2.831 -0.2280  1.1158 -0.8866
 1843SOL     OW17161   3.727   4.254   1.339 -0.1006 -0.4459  0.3809
 1843SOL    HW117162   3.691   4.231   1.424  1.6629  0.6544  1.4195
 1843SOL    HW217163   3.685   4.338   1.320  0.8210 -0.6331 -2.4578
 1844SOL     OW17164   0.441   1.575   6.745  0.0678  0.0614 -0.0283
 1844SOL    HW117165   0.412   1.640   6.809  0.3379 -1.5136  1.6930
 1844SOL    HW217166   0.504   1.626   6.695  1.0071 -1.6966 -0.6499
 1845SOL     OW17167   3.319   3.102  11.815  0.3012 -0.1394 -0.0430
 1845SOL    HW117168   3.302   3.195  11.799 -1.7390 -0.4458  0.3791
 1845SOL    HW217169   3.352   3.121  11.903 -1.4028 -2.6098  1.1410
 1846SOL     OW17170   2.332   0.393   7.335 -0.3478 -0.4039  0.0438
 1846SOL    HW117171   2.410   0.391   7.279 -1.5916 -1.6223 -1.6381
 1846SOL    HW217172   2.368   0.330   7.398 -1.2296 -0.5791  0.3748
 1847SOL     OW17173   1.532   2.866   6.148  0.5263 -0.2797  0.1677
 1847SOL    HW117174   1.461   2.831   6.094 -0.0772  2.0141 -0.5476
 1847SOL    HW217175   1.518   2.797   6.213 -0.1992 -0.4210 -0.1358
 1848SOL     OW17176   1.111   1.266   8.262 -0.1170 -0.0705 -0.4475
 1848SOL    HW117177   1.170   1.260   8.187 -0.0620 -2.1511 -0.2437
 1848SOL    HW217178   1.045   1.198   8.245 -0.8155  1.1199 -2.5461
 1849SOL     OW17179   4.571   1.401   2.304  0.5534  0.1756  0.5351
 1849SOL    HW117180   4.518   1.430   2.378 -0.3824 -0.2027  0.0067
 1849SOL    HW217181   4.611   1.337   2.364  0.2160  1.6463  2.3199
 1850SOL     OW17182   1.078   3.442  17.509 -0.1112  0.1712  0.4454
 1850SOL    HW117183   1.027   3.518  17.481 -0.8512 -1.2708 -2.0512
 1850SOL    HW217184   1.141   3.474  17.574  0.2335  0.9475 -0.2586
 1851SOL     OW17185   4.205   2.525   0.174 -0.4461 -0.3029  0.4815
 1851SOL    HW117186   4.194   2.563   0.261 -0.1919 -2.9312  1.6474
 1851SOL    HW217187   4.224   2.607   0.128 -0.7684 -1.3034 -1.4773
 1852SOL     OW17188   3.413   3.632   6.332 -0.2054 -0.0921  0.1703
 1852SOL    HW117189   3.442   3.722   6.349 -0.1247 -0.4641  2.0459
 1852SOL    HW217190   3.486   3.594   6.284 -1.8193 -1.7078 -0.9762
 1853SOL     OW17191   2.994   3.626  12.371 -0.8004 -0.0502  0.0899
 1853SOL    HW117192   3.017   3.670  12.453 -2.2044 -0.4328  0.6831
 1853SOL    HW217193   2.941   3.553  12.402  1.0341 -1.0337  0.9110
 1854SOL     OW17194   2.539   4.021  13.535  0.9960 -0.2699 -0.2904
 1854SOL    HW117195   2.456   4.070  13.539  0.6429 -0.9294  0.4096
 1854SOL    HW217196   2.548   4.003  13.441 -2.2618  1.9922 -1.0895
 1855SOL     OW17197   2.161   2.827   8.541  0.8730  0.3425  0.0277
 1855SOL    HW117198   2.148   2.816   8.446 -2.2584  2.9876  0.1423
 1855SOL    HW217199   2.130   2.744   8.578 -1.5111  0.5471 -1.5111
 1856SOL     OW17200   2.875   3.671  10.093  0.1874 -0.2064 -0.6809
 1856SOL    HW117201   2.931   3.709  10.026 -0.4263  1.2493 -0.3541
 1856SOL    HW217202   2.938   3.623  10.147  1.4480  1.6168 -0.5475
 1857SOL     OW17203   2.759   4.491   4.702  0.4798 -0.4586  0.3848
 1857SOL    HW117204   2.730   4.428   4.636  1.4348 -2.0643  1.4933
 1857SOL    HW217205   2.730   4.442   4.778 -0.3454  1.1032  1.0844
 1858SOL     OW17206   1.385   1.159   7.417  0.5528 -0.4110 -0.4812
 1858SOL    HW117207   1.460   1.216   7.434 -0.0732  0.0888  0.6464
 1858SOL    HW217208   1.315   1.197   7.470  2.0024 -0.6689  1.6303
 1859SOL     OW17209   2.585   0.501   5.001  0.3453 -0.1746  0.3204
 1859SOL    HW117210   2.493   0.516   4.979  0.0337  2.7756  3.6224
 1859SOL    HW217211   2.606   0.432   4.939 -0.0943  1.6510 -1.8766
 1860SOL     OW17212   2.707   3.358   8.321  0.0167  0.0591  0.3103
 1860SOL    HW117213   2.737   3.274   8.356  2.0593  1.0063  0.8281
 1860SOL    HW217214   2.651   3.391   8.391  0.6129  0.3891  0.6356
 1861SOL     OW17215   3.554   4.390   9.482  0.0563 -0.1707 -0.1330
 1861SOL    HW117216   3.606   4.467   9.506  2.4006 -1.6235 -0.6012
 1861SOL    HW217217   3.598   4.377   9.398  0.7517 -0.3045  0.2518
 1862SOL     OW17218   0.463   3.210  17.212  0.2886  0.6827 -0.0213
 1862SOL    HW117219   0.379   3.219  17.169  0.3298  2.3120  0.2274
 1862SOL    HW217220   0.450   3.216  17.307 -1.6887  0.0384 -0.2502
 1863SOL     OW17221   1.203   4.701   3.998  0.3768 -0.0394  0.0442
 1863SOL    HW117222   1.242   4.613   3.996  0.0659 -0.2103  1.3504
 1863SOL    HW217223   1.276   0.020   3.966  0.0236  0.5747  0.2440
 1864SOL     OW17224   1.567   1.360   3.642  0.0090 -0.2175 -0.3466
 1864SOL    HW117225   1.493   1.347   3.702 -0.7610  0.1464 -1.2305
 1864SOL    HW217226   1.607   1.439   3.678 -0.9360 -0.4573  1.2370
 1865SOL     OW17227   2.437   1.266   5.559  0.3826 -0.0081 -0.3058
 1865SOL    HW117228   2.493   1.297   5.488  1.2152 -1.4341 -0.2717
 1865SOL    HW217229   2.365   1.220   5.516  0.2410 -0.3690  0.3211
 1866SOL     OW17230   0.716   3.218   8.498  0.1111 -0.3069  0.3848
 1866SOL    HW117231   0.718   3.232   8.593  1.1595 -2.7350  0.7026
 1866SOL    HW217232   0.643   3.157   8.486 -0.6529  0.7628 -0.4265
 1867SOL     OW17233   3.769   1.598   5.326  0.2073 -0.5087 -0.3124
 1867SOL    HW117234   3.697   1.655   5.351  0.1609 -1.4643  1.7962
 1867SOL    HW217235   3.828   1.656   5.277 -0.7348 -1.8975 -3.0897
 1868SOL     OW17236   3.548   0.808   3.539  0.0908  0.0689  0.3710
 1868SOL    HW117237   3.614   0.751   3.578 -2.2544 -0.7330  3.1727
 1868SOL    HW217238   3.594   0.824   3.456 -0.3056  0.3775  0.2077
 1869SOL     OW17239   4.069   4.228  10.280 -0.5272 -0.6522 -0.5009
 1869SOL    HW117240   4.119   4.192  10.207 -1.8992 -3.7664  0.0784
 1869SOL    HW217241   4.104   4.317  10.285  1.0327 -1.2821 -0.1389
 1870SOL     OW17242   1.759   3.704   7.884 -0.5217 -0.3670 -0.0297
 1870SOL    HW117243   1.702   3.692   7.961  0.1559  0.7589  0.6532
 1870SOL    HW217244   1.700   3.744   7.820 -0.0489 -1.3284 -1.0527
 1871SOL     OW17245   0.907   4.634   6.730  0.0132 -0.4955 -0.0176
 1871SOL    HW117246   0.902   4.715   6.780 -1.4754  0.1115 -1.1837
 1871SOL    HW217247   0.948   4.672   6.653  1.1210  1.9684  1.7981
 1872SOL     OW17248   3.945   4.156   5.188 -0.3524  0.1680 -0.4264
 1872SOL    HW117249   3.928   4.195   5.274 -2.1659  0.1242 -0.7571
 1872SOL    HW217250   4.034   4.126   5.207 -0.5441 -0.3017 -0.2510
 1873SOL     OW17251   1.397   1.918  13.763  0.0916  0.3240  0.6075
 1873SOL    HW117252   1.340   1.896  13.838  0.3055  2.8734  1.5158
 1873SOL    HW217253   1.378   1.849  13.700 -0.5267  0.2657  0.8544
 1874SOL     OW17254   0.376   0.368   5.660 -0.0634  0.2729 -0.0215
 1874SOL    HW117255   0.292   0.368   5.705  0.8842  1.8349  1.7515
 1874SOL    HW217256   0.417   0.289   5.696 -0.3155  0.2304  0.1679
 1875SOL     OW17257   0.682   4.090   4.934 -0.1542 -0.4625  0.1572
 1875SOL    HW117258   0.768   4.047   4.932  0.7677  1.2249  2.6010
 1875SOL    HW217259   0.707   4.181   4.918 -0.6932 -0.2598  0.4769
 1876SOL     OW17260   0.963   0.543   6.771  0.1086  0.1780  0.0476
 1876SOL    HW117261   1.001   0.518   6.855 -0.1006  1.4126  0.5156
 1876SOL    HW217262   0.897   0.475   6.781 -0.5569  0.5887 -1.6120
 1877SOL     OW17263   2.524   2.813   4.522 -0.0708 -0.4402  0.4832
 1877SOL    HW117264   2.438   2.822   4.482  0.4808 -1.1395 -0.8928
 1877SOL    HW217265   2.584   2.821   4.448 -0.2827  1.7842  0.5437
 1878SOL     OW17266   3.160   3.601   0.341  0.2771 -0.4569  0.3314
 1878SOL    HW117267   3.235   3.659   0.345 -0.7975  0.8902  0.9378
 1878SOL    HW217268   3.166   3.571   0.250  0.0364 -1.4144  0.6342
 1879SOL     OW17269   1.163   3.880  10.751 -0.0483 -0.1612  0.2514
 1879SOL    HW117270   1.162   3.962  10.800  1.5963 -0.3201  0.5261
 1879SOL    HW217271   1.073   3.872  10.717  0.0655  0.6486 -0.2370
 1880SOL     OW17272   2.495   1.107   6.328 -0.1144  0.2189 -0.1733
 1880SOL    HW117273   2.461   1.119   6.416  0.3632  0.1993  0.0110
 1880SOL    HW217274   2.532   1.192   6.303 -0.4069 -0.1396 -1.8537
 1881SOL     OW17275   2.367   3.222   6.933  0.3756  0.0874  0.1972
 1881SOL    HW117276   2.382   3.205   6.840  0.9147  0.0738  0.2815
 1881SOL    HW217277   2.342   3.314   6.930  0.6260  0.1349 -0.4246
 1882SOL     OW17278   0.324   3.743   0.097  0.2051 -0.1752  0.2381
 1882SOL    HW117279   0.374   3.669   0.130  1.7932  0.6173 -0.4034
 1882SOL    HW217280   0.265   3.695   0.038  1.0006 -0.8112 -0.0427
 1883SOL     OW17281   3.148   4.300   6.205 -0.1388 -0.2022 -0.1864
 1883SOL    HW117282   3.113   4.218   6.238 -0.2874 -0.5702 -1.2702
 1883SOL    HW217283   3.133   4.356   6.281  2.5513  1.2859 -0.7635
 1884SOL     OW17284   3.509   3.963   0.615  0.8151 -0.3995 -0.0365
 1884SOL    HW117285   3.533   3.901   0.683 -0.2805 -1.8007 -0.9335
 1884SOL    HW217286   3.415   3.964   0.635  0.8319  0.1163  0.0286
 1885SOL     OW17287   2.112   0.154   4.339  0.2087 -0.2272 -0.2274
 1885SOL    HW117288   2.094   0.117   4.253 -0.0282 -0.1596 -0.2071
 1885SOL    HW217289   2.040   0.119   4.392  0.5630 -1.2678 -0.4342
 1886SOL     OW17290   2.957   1.366  10.300  0.2917  0.0291 -0.2475
 1886SOL    HW117291   2.869   1.329  10.305  0.9749 -1.6799 -1.1056
 1886SOL    HW217292   2.997   1.285  10.270 -1.0294 -0.5492 -0.4301
 1887SOL     OW17293   2.497   4.633  10.330 -0.1443 -0.1226 -0.2687
 1887SOL    HW117294   2.488   4.676  10.415  0.2209 -1.3214  0.3839
 1887SOL    HW217295   2.419   4.579  10.318  0.1800 -0.1405 -2.2383
 1888SOL     OW17296   3.218   1.790   6.600  0.5481 -0.1342 -0.0419
 1888SOL    HW117297   3.285   1.834   6.548 -0.4631  0.5508 -0.7618
 1888SOL    HW217298   3.267   1.708   6.608 -0.7627 -0.7544  1.8650
 1889SOL     OW17299   3.449   4.011   4.343  0.6832 -0.5897 -0.1893
 1889SOL    HW117300   3.435   3.946   4.411  0.9651 -0.2035  0.2333
 1889SOL    HW217301   3.543   4.021   4.349  0.8903 -1.5023 -1.8540
 1890SOL     OW17302   0.804   2.219   3.646  0.0033  0.0098 -0.2758
 1890SOL    HW117303   0.733   2.283   3.656  1.6894  2.0383 -1.4039
 1890SOL    HW217304   0.818   2.207   3.740  1.9950 -0.6887 -0.6537
 1891SOL     OW17305   0.098   3.803   9.252  0.0412  1.0526  0.0666
 1891SOL    HW117306   0.007   3.802   9.282  0.0863 -2.9027  0.1314
 1891SOL    HW217307   0.089   3.837   9.163 -3.8361  1.1838  0.5282
 1892SOL     OW17308   4.010   3.935   1.414  0.0412  0.0983  0.3680
 1892SOL    HW117309   3.930   3.934   1.465  0.5073  2.6748  1.1711
 1892SOL    HW217310   3.981   3.891   1.334  1.2620 -0.0935  0.0342
 1893SOL     OW17311   4.358   1.548   2.161 -0.0969 -0.0613  0.0518
 1893SOL    HW117312   4.382   1.641   2.164  0.2982 -0.1299 -1.0895
 1893SOL    HW217313   4.392   1.510   2.242 -0.5157 -1.0903 -0.2518
 1894SOL     OW17314   3.823   4.666  12.057 -0.6470  0.2124  0.4070
 1894SOL    HW117315   3.737   4.662  12.100 -0.0832  0.5726  1.5684
 1894SOL    HW217316   3.880   4.689  12.130 -0.3296  0.6265  0.0263
 1895SOL     OW17317   1.192   1.041   8.018 -0.1188  0.4331 -0.2078
 1895SOL    HW117318   1.108   1.035   8.064 -1.0926 -0.2408 -2.0764
 1895SOL    HW217319   1.260   1.039   8.085  2.3414 -0.2513 -2.7418
 1896SOL     OW17320   0.036   1.843   4.567  0.0869  0.4999 -0.3653
 1896SOL    HW117321   0.012   1.896   4.643 -0.1978 -2.2768  1.4562
 1896SOL    HW217322   4.681   1.811   4.547 -0.5643  2.1472 -0.1729
 1897SOL     OW17323   0.673   2.995   2.917  0.0209  0.6306 -0.6235
 1897SOL    HW117324   0.643   2.906   2.899  0.5007  0.2581  0.4315
 1897SOL    HW217325   0.603   3.055   2.890 -0.3017 -0.2321 -1.7077
 1898SOL     OW17326   2.257   3.878   9.118 -0.2259 -0.7036 -0.1980
 1898SOL    HW117327   2.328   3.872   9.054 -1.1394  0.4221 -1.3164
 1898SOL    HW217328   2.237   3.971   9.109  0.6582 -0.2970  2.0607
 1899SOL     OW17329   0.842   3.470   3.419  0.0010  0.4100 -0.1730
 1899SOL    HW117330   0.852   3.375   3.406 -1.0171  0.7820 -3.4583
 1899SOL    HW217331   0.755   3.468   3.459 -1.1629  1.0278 -2.6963
 1900SOL     OW17332   0.748   3.909   9.445  0.4233 -0.0828  0.7518
 1900SOL    HW117333   0.666   3.870   9.476 -0.8824  1.1591 -1.0907
 1900SOL    HW217334   0.748   3.973   9.516 -2.4505 -0.4204  1.0460
 1901SOL     OW17335   4.036   0.889   2.985  0.2174  0.7415 -0.6412
 1901SOL    HW117336   3.947   0.869   2.955 -1.3845  3.2097  2.5560
 1901SOL    HW217337   4.022   0.904   3.078 -0.7116  0.1619 -0.6824
 1902SOL     OW17338   1.250   3.127   5.284 -0.4838 -0.0174  0.1444
 1902SOL    HW117339   1.213   3.039   5.289  0.1564 -0.2976  0.0454
 1902SOL    HW217340   1.219   3.162   5.201 -0.0214 -2.0109 -0.8614
 1903SOL     OW17341   1.431   2.792   9.060  0.0509  0.4732 -0.1943
 1903SOL    HW117342   1.445   2.749   9.145 -0.8759  0.8750  0.1625
 1903SOL    HW217343   1.501   2.750   9.011  0.5754  0.2279  0.7570
 1904SOL     OW17344   0.254   2.148   5.360 -0.3770 -0.1419  0.0578
 1904SOL    HW117345   0.348   2.154   5.348 -0.5099  2.6224  0.5164
 1904SOL    HW217346   0.247   2.085   5.432 -0.8602 -0.1168  0.0384
 1905SOL     OW17347   1.424   4.267  13.996  0.0255  0.0815 -0.8187
 1905SOL    HW117348   1.389   4.338  13.943 -2.1081 -0.4798 -0.1626
 1905SOL    HW217349   1.489   4.226  13.938 -0.3115  0.0108 -1.1432
 1906SOL     OW17350   2.750   4.004   5.175 -0.4880 -0.4201 -0.2556
 1906SOL    HW117351   2.823   4.064   5.185 -1.2153  0.1876  1.3607
 1906SOL    HW217352   2.765   3.983   5.083 -1.3030 -0.5423 -0.3613
 1907SOL     OW17353   3.088   3.213  16.896 -0.0526 -0.6333  0.4662
 1907SOL    HW117354   3.012   3.224  16.953 -0.2114  0.6318  0.0182
 1907SOL    HW217355   3.064   3.134  16.849  2.4947 -0.8477 -0.5147
 1908SOL     OW17356   3.336   4.467   2.869 -0.4855 -0.6239 -0.3488
 1908SOL    HW117357   3.269   4.511   2.921  1.4708  1.2662  0.5440
 1908SOL    HW217358   3.384   4.438   2.947  1.3999 -1.3119 -1.7570
 1909SOL     OW17359   3.312   4.575   2.109 -0.0333  0.0085  0.5550
 1909SOL    HW117360   3.284   4.565   2.018  0.8135  0.4658  0.2424
 1909SOL    HW217361   3.303   4.670   2.116 -2.4473 -0.2593  1.0588
 1910SOL     OW17362   0.397   2.251   6.681  0.1879 -0.2857 -0.1222
 1910SOL    HW117363   0.323   2.268   6.623 -0.6612 -0.5408  0.8851
 1910SOL    HW217364   0.474   2.240   6.626  0.3770 -0.0376  0.0957
 1911SOL     OW17365   4.599   3.763   2.489 -0.3852  0.4953  0.5843
 1911SOL    HW117366   4.667   3.699   2.510  0.0971  0.3037 -1.5591
 1911SOL    HW217367   4.566   3.779   2.577 -0.2101  0.9864  0.5624
 1912SOL     OW17368   3.906   2.072   9.465 -0.1283 -0.0763  0.2789
 1912SOL    HW117369   3.970   2.003   9.445 -0.4195  0.2474 -1.8078
 1912SOL    HW217370   3.955   2.109   9.538  1.0219 -1.2471  0.0965
 1913SOL     OW17371   1.358   4.430  13.800 -0.1452 -0.0487  0.0759
 1913SOL    HW117372   1.402   4.479  13.730 -1.4083  1.0157  0.0138
 1913SOL    HW217373   1.292   4.376  13.756 -0.1155 -1.6679  2.0433
 1914SOL     OW17374   4.347   4.427   4.332 -0.3283 -0.8752 -0.2787
 1914SOL    HW117375   4.406   4.431   4.256  1.3649 -2.2988  0.9820
 1914SOL    HW217376   4.302   4.344   4.315 -0.6299 -0.9905  1.1136
 1915SOL     OW17377   0.389   3.605   7.968  0.0635  0.5378 -0.7158
 1915SOL    HW117378   0.449   3.671   7.933  1.2716  0.1655  0.6632
 1915SOL    HW217379   0.333   3.586   7.892  1.1135 -1.9435 -0.8602
 1916SOL     OW17380   2.220   0.900   7.305  0.4998  0.5973 -0.4498
 1916SOL    HW117381   2.153   0.842   7.269 -0.2649  1.2396 -0.0807
 1916SOL    HW217382   2.253   0.851   7.379 -1.0983  0.3589  0.1010
 1917SOL     OW17383   1.334   2.085   4.979  0.0096 -0.3507  0.1536
 1917SOL    HW117384   1.318   1.995   4.952  0.0995  0.0372 -1.2023
 1917SOL    HW217385   1.340   2.132   4.895 -0.2741  1.3599  1.0896
 1918SOL     OW17386   3.882   2.150   3.853  0.0583  0.1663  0.4294
 1918SOL    HW117387   3.947   2.186   3.913  0.4740 -0.2774  0.2475
 1918SOL    HW217388   3.928   2.072   3.822 -0.0640  0.1914  0.1796
 1919SOL     OW17389   1.337   0.438  10.629 -0.2975 -0.2246 -0.7871
 1919SOL    HW117390   1.316   0.513  10.573  1.8225  2.4741  2.0606
 1919SOL    HW217391   1.406   0.389  10.584 -3.0399 -3.8879 -1.0693
 1920SOL     OW17392   0.379   3.515   7.354 -0.0342 -0.5840 -0.5180
 1920SOL    HW117393   0.362   3.463   7.275 -2.4662 -0.7722  0.1396
 1920SOL    HW217394   0.424   3.447   7.405  1.3079 -0.1124 -1.0677
 1921SOL     OW17395   1.491   3.804   4.465 -0.2484 -0.1469  0.4259
 1921SOL    HW117396   1.481   3.743   4.538 -0.3107  0.2278  0.7275
 1921SOL    HW217397   1.466   3.890   4.498  2.0277  0.8964 -0.4921
 1922SOL     OW17398   4.408   0.866   6.668  0.0554  0.1565  0.2812
 1922SOL    HW117399   4.342   0.799   6.685 -0.6787  0.7706 -0.1801
 1922SOL    HW217400   4.381   0.904   6.585 -0.1972  0.4714  0.5065
 1923SOL     OW17401   1.365   1.346   6.387 -0.0247  0.8930 -0.4186
 1923SOL    HW117402   1.405   1.400   6.318 -0.3463  3.5032  1.4594
 1923SOL    HW217403   1.365   1.408   6.460 -0.0582 -0.1000  0.4279
 1924SOL     OW17404   3.886   0.650   7.243  0.0609  0.2188 -0.3759
 1924SOL    HW117405   3.884   0.677   7.335 -0.3879  0.6650 -0.5186
 1924SOL    HW217406   3.874   0.732   7.195  0.2989  0.8069  0.5631
 1925SOL     OW17407   0.928   2.726   2.173 -0.0619 -0.2764 -0.1039
 1925SOL    HW117408   0.914   2.755   2.083 -2.1286  1.0590  0.6501
 1925SOL    HW217409   0.958   2.637   2.155 -0.3434 -0.5252  0.6434
 1926SOL     OW17410   3.692   0.624   7.006 -0.4229  0.3938  0.4889
 1926SOL    HW117411   3.734   0.546   7.041  1.3910  1.7875  1.4010
 1926SOL    HW217412   3.623   0.582   6.955  1.1233 -0.5449 -0.8207
 1927SOL     OW17413   2.993   4.274   4.517 -0.2455  0.4823  0.1688
 1927SOL    HW117414   3.055   4.217   4.470  0.7474  0.8083  1.0870
 1927SOL    HW217415   2.910   4.247   4.477  0.1899  0.2191 -0.5711
 1928SOL     OW17416   2.972   0.860   1.293  0.0398  0.0340 -0.1237
 1928SOL    HW117417   3.006   0.829   1.377 -0.5292 -1.0190 -0.2790
 1928SOL    HW217418   2.881   0.871   1.320 -0.5172  0.0596 -1.9845
 1929SOL     OW17419   0.753   0.010  15.994 -0.8187 -0.6055  0.2317
 1929SOL    HW117420   0.688   0.036  15.928  0.0416  0.5482 -0.1617
 1929SOL    HW217421   0.748   4.648  16.001 -0.7825 -0.8537 -2.8748
 1930SOL     OW17422   1.907   1.644   2.026  0.5168  0.1303  1.2711
 1930SOL    HW117423   1.888   1.703   2.098 -0.4591 -0.1087  1.2102
 1930SOL    HW217424   1.940   1.704   1.958 -1.2262  0.3295  0.6076
 1931SOL     OW17425   2.997   0.977   5.118  0.3976  0.3311  0.1825
 1931SOL    HW117426   2.954   0.918   5.056 -0.2951  0.6508  0.3629
 1931SOL    HW217427   3.067   0.914   5.134 -0.7310 -1.5574 -2.2186
 1932SOL     OW17428   1.690   0.495   3.501 -0.3072 -0.3470 -0.6926
 1932SOL    HW117429   1.727   0.572   3.459  0.7006  0.0537  0.9375
 1932SOL    HW217430   1.670   0.533   3.587 -0.4079 -1.2635 -0.3106
 1933SOL     OW17431   3.211   4.659   8.337 -0.0565  0.0857  0.0389
 1933SOL    HW117432   3.160   4.577   8.339 -1.2854  0.8352 -0.5248
 1933SOL    HW217433   3.157   4.727   8.378  1.4391  1.0752  0.3448
 1934SOL     OW17434   0.509   0.520   4.994  0.1745  0.0084 -0.0056
 1934SOL    HW117435   0.470   0.562   5.070 -1.4950 -0.0346 -0.8318
 1934SOL    HW217436   0.548   0.600   4.957  0.7959 -0.3251 -0.0719
 1935SOL     OW17437   0.502   0.715   9.879 -0.6264  0.0584  0.4801
 1935SOL    HW117438   0.596   0.725   9.867 -0.6353  0.7971  0.9781
 1935SOL    HW217439   0.479   0.734   9.970  0.0179 -0.4163  0.7374
 1936SOL     OW17440   4.081   2.744   5.054  0.2489 -0.4568 -0.1761
 1936SOL    HW117441   4.151   2.764   5.115 -0.4924 -0.8902  0.8099
 1936SOL    HW217442   4.005   2.753   5.111  2.7048 -0.0928  3.0519
 1937SOL     OW17443   2.469   3.811   5.047 -0.0760 -0.8430 -0.2326
 1937SOL    HW117444   2.385   3.796   5.004  0.4210  1.8230 -2.1156
 1937SOL    HW217445   2.502   3.886   4.997  0.6555 -1.3353 -0.4876
 1938SOL     OW17446   1.139   3.308   0.387 -0.6243 -0.1022 -0.4935
 1938SOL    HW117447   1.159   3.328   0.295  0.6694  0.1821 -0.1431
 1938SOL    HW217448   1.226   3.325   0.422 -0.5919  1.9343 -1.5101
 1939SOL     OW17449   2.666   3.634   6.917 -0.3312  0.4333 -0.6000
 1939SOL    HW117450   2.620   3.588   6.988  1.9952 -1.9967 -0.6537
 1939SOL    HW217451   2.663   3.573   6.844  0.1418  1.2599 -1.3106
 1940SOL     OW17452   0.929   0.068   5.218 -0.1737 -0.1679 -0.2434
 1940SOL    HW117453   0.933   0.116   5.135  1.6770  0.6477  0.3181
 1940SOL    HW217454   0.965   4.716   5.194  0.3420 -0.4902  1.7274
 1941SOL     OW17455   0.755   1.100   8.667 -0.1025  0.1324 -0.1929
 1941SOL    HW117456   0.685   1.096   8.731  0.6822  0.4772  0.6877
 1941SOL    HW217457   0.727   1.176   8.616  0.4706 -0.5370 -1.5234
 1942SOL     OW17458   3.003   2.804   3.252  0.6263  0.2372  0.1071
 1942SOL    HW117459   2.961   2.878   3.208  1.2197  0.2887 -0.3669
 1942SOL    HW217460   2.923   2.762   3.285  0.2167  1.1910  0.3579
 1943SOL     OW17461   2.732   2.668   8.556  0.4464  0.0258  0.1701
 1943SOL    HW117462   2.799   2.689   8.620 -0.9680 -1.5017  2.1338
 1943SOL    HW217463   2.655   2.668   8.612  1.9180 -1.0153  2.1791
 1944SOL     OW17464   2.452   1.752   0.780 -0.0140  0.3065  1.0724
 1944SOL    HW117465   2.409   1.833   0.807 -0.9935 -0.5463  2.0978
 1944SOL    HW217466   2.395   1.720   0.710  0.1457  1.2103  0.5362
 1945SOL     OW17467   2.753   1.798  14.668 -0.4178  0.2157  0.0906
 1945SOL    HW117468   2.700   1.806  14.747 -1.8477  1.6527 -1.0252
 1945SOL    HW217469   2.809   1.873  14.689  1.0231 -0.7731 -0.1652
 1946SOL     OW17470   3.594   2.350  10.804  0.7104  0.2778  0.5520
 1946SOL    HW117471   3.614   2.412  10.874  0.7348 -0.0398  0.8288
 1946SOL    HW217472   3.638   2.269  10.832  1.2445  0.4238  0.1515
 1947SOL     OW17473   0.531   1.561   4.563 -0.4433 -0.0353 -0.1866
 1947SOL    HW117474   0.528   1.484   4.507 -0.2925  0.7051 -1.2052
 1947SOL    HW217475   0.469   1.626   4.530 -0.7181 -0.2002 -0.0013
 1948SOL     OW17476   2.873   4.291  10.198  0.0791 -0.2157  0.6184
 1948SOL    HW117477   2.858   4.374  10.245 -2.3761  0.6501 -1.6760
 1948SOL    HW217478   2.920   4.335  10.127  1.3143  0.3472  1.8050
 1949SOL     OW17479   1.853   4.436   2.765 -0.3216 -0.5844  0.7247
 1949SOL    HW117480   1.806   4.492   2.827  0.8981  0.1368  1.0105
 1949SOL    HW217481   1.785   4.410   2.703  2.8421 -0.7517 -2.6486
 1950SOL     OW17482   0.440   1.637   5.726  0.1500 -0.3881  0.1599
 1950SOL    HW117483   0.363   1.694   5.730  1.8743  2.0751 -1.4221
 1950SOL    HW217484   0.415   1.571   5.661  2.1390 -0.7511 -0.2501
 1951SOL     OW17485   4.038   1.907   2.021  0.2276  0.0954 -0.2715
 1951SOL    HW117486   4.089   1.944   1.948 -0.3504 -0.4825 -0.9721
 1951SOL    HW217487   4.009   1.827   1.977  1.3792 -0.5198  0.0909
 1952SOL     OW17488   4.712   0.524  17.729  0.5552 -0.1501  0.7860
 1952SOL    HW117489   0.068   0.553  17.710  0.1758 -0.6416 -1.8166
 1952SOL    HW217490   4.728   0.485   0.082  0.1760  1.1585  1.4482
 1953SOL     OW17491   2.549   1.542   4.274  0.5890  0.2066  0.3843
 1953SOL    HW117492   2.563   1.458   4.232  1.9004 -0.2001  1.6289
 1953SOL    HW217493   2.490   1.509   4.341  1.2310  1.0600  1.3757
 1954SOL     OW17494   1.358   0.331   3.973  0.8813  0.1897  0.4148
 1954SOL    HW117495   1.403   0.247   3.969 -2.2484 -1.4299 -0.4543
 1954SOL    HW217496   1.386   0.368   3.889  2.2592  1.2007  1.3075
 1955SOL     OW17497   0.102   3.922   2.463 -0.0687 -0.1379 -0.1214
 1955SOL    HW117498   0.051   3.987   2.414 -0.3596 -0.2279  0.0659
 1955SOL    HW217499   0.040   3.849   2.462  0.0117 -0.2184  0.8893
 1956SOL     OW17500   0.600   1.764   9.833 -0.2039  0.1246 -0.0168
 1956SOL    HW117501   0.649   1.689   9.797  1.8733  0.7120  1.6102
 1956SOL    HW217502   0.633   1.752   9.921 -0.7521  1.2669  0.3420
 1957SOL     OW17503   3.540   1.849  16.500  0.4295  0.1953  0.2058
 1957SOL    HW117504   3.451   1.828  16.528  0.2568  0.4965 -0.1178
 1957SOL    HW217505   3.585   1.845  16.585  2.1204 -0.7204 -0.7183
 1958SOL     OW17506   3.620   1.177   9.546 -0.7199 -0.2862  0.1343
 1958SOL    HW117507   3.590   1.149   9.460  1.8145  2.7269 -1.7085
 1958SOL    HW217508   3.636   1.269   9.526  1.7807 -0.2092  2.4563
 1959SOL     OW17509   1.123   1.794   5.950 -0.4017 -0.6099 -0.6973
 1959SOL    HW117510   1.123   1.890   5.952 -1.7589 -0.6281  0.6144
 1959SOL    HW217511   1.059   1.787   6.021  0.3353 -0.7032 -0.0505
 1960SOL     OW17512   0.914   3.192  17.550  0.2693  0.1246  0.4647
 1960SOL    HW117513   0.952   3.111  17.515 -1.4498  0.0183 -1.1303
 1960SOL    HW217514   0.978   3.259  17.525 -0.4544  0.6926  0.1508
 1961SOL     OW17515   3.322   3.969   3.071 -0.6193  0.9491 -0.8093
 1961SOL    HW117516   3.366   3.966   2.987  0.7017 -2.6434  0.0018
 1961SOL    HW217517   3.345   4.050   3.118 -0.3255 -0.3257  1.2375
 1962SOL     OW17518   2.092   3.380   3.760 -0.4044  0.4232 -0.0248
 1962SOL    HW117519   2.170   3.332   3.732 -0.5974  1.1021 -1.7497
 1962SOL    HW217520   2.086   3.450   3.694 -0.0049 -1.0559 -1.6199
 1963SOL     OW17521   1.569   2.300  12.424 -0.1374  0.3729 -0.0205
 1963SOL    HW117522   1.545   2.295  12.332  0.1520 -0.8733 -0.0251
 1963SOL    HW217523   1.580   2.395  12.431  0.3009  0.2582  0.7895
 1964SOL     OW17524   3.214   3.423   7.089  0.1752  0.2793 -0.0920
 1964SOL    HW117525   3.220   3.341   7.137  1.9103  0.0872 -0.6203
 1964SOL    HW217526   3.278   3.472   7.142  0.2039 -0.9997  1.0516
 1965SOL     OW17527   2.200   3.860   8.228  0.5334 -0.1796  0.2141
 1965SOL    HW117528   2.288   3.863   8.189  0.1353  1.8917 -0.5391
 1965SOL    HW217529   2.168   3.779   8.188  0.8447 -0.0768 -0.2429
 1966SOL     OW17530   1.837   1.743  14.820  0.6049  0.0436 -0.2192
 1966SOL    HW117531   1.871   1.818  14.869 -0.0457  2.1561 -2.9829
 1966SOL    HW217532   1.892   1.672  14.852  0.2851 -0.1129 -0.0312
 1967SOL     OW17533   2.500   2.942   4.089 -0.6084  0.8465 -0.0731
 1967SOL    HW117534   2.480   3.027   4.051  1.0410  1.0074 -0.5695
 1967SOL    HW217535   2.450   2.887   4.029  0.1166 -0.4815  0.5499
 1968SOL     OW17536   0.611   1.411  13.943 -0.9642 -0.1233 -0.5073
 1968SOL    HW117537   0.670   1.419  14.018  0.6478 -1.2237 -1.6524
 1968SOL    HW217538   0.652   1.340  13.893  1.4506 -0.0928  1.3866
 1969SOL     OW17539   1.225   0.092   2.028  0.2863 -0.3536  0.3268
 1969SOL    HW117540   1.295   0.150   2.058 -2.0176  1.4682  2.1375
 1969SOL    HW217541   1.175   0.080   2.108  0.4955 -0.7877  0.3939
 1970SOL     OW17542   4.503   1.887   4.387  0.0716 -0.4627  0.1660
 1970SOL    HW117543   4.460   1.864   4.470  1.0614 -0.4689  0.6738
 1970SOL    HW217544   4.511   1.803   4.342  2.7427 -0.3171  0.3579
 1971SOL     OW17545   0.061   0.175   4.453  0.7027 -0.3408 -0.2798
 1971SOL    HW117546   0.118   0.190   4.377  0.4361  0.0720 -0.3980
 1971SOL    HW217547   0.082   0.253   4.504  1.0659 -0.7174  0.1504
 1972SOL     OW17548   0.694   2.877   8.281 -0.6416  0.0458  0.2184
 1972SOL    HW117549   0.615   2.844   8.323 -1.3674  0.1812 -1.0510
 1972SOL    HW217550   0.668   2.960   8.241 -1.7194 -0.3448  0.1120
 1973SOL     OW17551   4.460   2.361   7.352 -0.5801  0.1229 -0.2875
 1973SOL    HW117552   4.517   2.320   7.417 -2.7491 -1.5026  0.5981
 1973SOL    HW217553   4.465   2.303   7.276  1.0198  0.3865 -0.3766
 1974SOL     OW17554   3.802   1.610   9.248 -0.3231 -0.5995 -0.3223
 1974SOL    HW117555   3.707   1.608   9.232 -0.4242 -0.1881  0.2047
 1974SOL    HW217556   3.796   1.626   9.343 -0.8508 -0.6640 -0.3420
 1975SOL     OW17557   3.674   3.029   8.959 -0.3084 -0.2642 -0.5208
 1975SOL    HW117558   3.758   3.030   8.914 -0.1400 -1.4931 -0.2188
 1975SOL    HW217559   3.604   3.029   8.893  1.7552  2.4677 -2.7076
 1976SOL     OW17560   2.937   2.746   8.069  0.0777 -0.7367  0.6137
 1976SOL    HW117561   3.032   2.741   8.069  0.2418  2.3560  1.1641
 1976SOL    HW217562   2.930   2.801   7.991  0.3655 -1.5857 -0.0089
 1977SOL     OW17563   1.657   4.029   7.468 -0.7867  0.2494 -0.0931
 1977SOL    HW117564   1.591   4.023   7.399 -2.7647 -2.7289  2.0275
 1977SOL    HW217565   1.627   3.965   7.533  1.7063 -1.5798 -0.7524
 1978SOL     OW17566   1.736   1.746  14.417 -0.3938  0.2103  0.0291
 1978SOL    HW117567   1.712   1.724  14.327 -1.4170  1.3507  0.0176
 1978SOL    HW217568   1.706   1.672  14.468 -0.9309  0.5684  0.2261
 1979SOL     OW17569   3.288   0.060   2.469  0.5647 -0.0807 -0.7348
 1979SOL    HW117570   3.352   0.022   2.529 -0.3046  0.2337  0.3764
 1979SOL    HW217571   3.270   4.720   2.410  1.1294 -1.1878  0.4805
 1980SOL     OW17572   0.917   1.064   8.213 -0.9177  0.1832  0.0349
 1980SOL    HW117573   0.835   1.109   8.190 -1.0423  0.1775  0.4756
 1980SOL    HW217574   0.874   0.980   8.227 -0.2919 -0.0162  0.7168
 1981SOL     OW17575   3.275   4.367   5.554 -0.1961  0.5372  0.1844
 1981SOL    HW117576   3.354   4.368   5.500  0.1680  0.3753  0.7124
 1981SOL    HW217577   3.313   4.327   5.633  1.4188  0.3191 -0.6936
 1982SOL     OW17578   4.423   3.000   7.743  0.8130  0.8005  0.0384
 1982SOL    HW117579   4.423   2.922   7.687 -0.5932 -0.2080  1.4470
 1982SOL    HW217580   4.465   2.969   7.823  2.7345  3.4904  0.0709
 1983SOL     OW17581   4.093   2.584   5.949 -0.4269  0.0063  0.0868
 1983SOL    HW117582   4.131   2.496   5.951  0.7342  0.4972 -0.6092
 1983SOL    HW217583   4.170   2.640   5.942  0.8677 -1.8098 -0.2699
 1984SOL     OW17584   2.014   4.438   0.623  0.1088  0.1474 -0.1871
 1984SOL    HW117585   1.967   4.356   0.639  0.2366  0.4893  1.9476
 1984SOL    HW217586   2.088   4.417   0.566 -0.2002  1.4806 -1.0843
 1985SOL     OW17587   3.903   2.609   2.737 -0.4632 -0.1118 -0.3469
 1985SOL    HW117588   3.966   2.542   2.764  2.1097  3.1857  1.7218
 1985SOL    HW217589   3.932   2.690   2.777  1.5811 -0.9985 -0.0102
 1986SOL     OW17590   0.923   0.451   8.460 -0.4580  0.0432  0.1261
 1986SOL    HW117591   1.002   0.404   8.434 -0.0213 -0.7125  2.8532
 1986SOL    HW217592   0.933   0.447   8.555 -0.5941 -1.9092  0.0446
 1987SOL     OW17593   4.442   4.035  12.504  0.4043 -0.1992  0.3194
 1987SOL    HW117594   4.533   4.009  12.489  0.1076 -1.4159  0.6216
 1987SOL    HW217595   4.428   4.104  12.440  0.7465  0.2458  0.7241
 1988SOL     OW17596   3.168   1.834  17.051  0.0918 -0.4309  0.0831
 1988SOL    HW117597   3.080   1.806  17.027 -0.3321  0.4277  0.5984
 1988SOL    HW217598   3.151   1.929  17.051  2.0621 -0.0630  1.2872
 1989SOL     OW17599   0.572   4.638   7.343 -0.5718 -0.8622  0.1957
 1989SOL    HW117600   0.482   4.628   7.312  0.0776 -1.0019 -1.6848
 1989SOL    HW217601   0.549   4.679   7.426  0.0264  0.6176 -0.3636
 1990SOL     OW17602   2.983   4.416   3.382 -0.2372 -0.0364  0.0907
 1990SOL    HW117603   2.893   4.413   3.350  0.0075 -0.8969 -0.5194
 1990SOL    HW217604   3.029   4.407   3.299 -0.8343  1.9098 -0.4416
 1991SOL     OW17605   0.134   3.944   6.606  0.1907  0.2895 -0.4803
 1991SOL    HW117606   0.102   3.871   6.659  3.0918 -0.2483  0.5213
 1991SOL    HW217607   0.144   4.006   6.678 -2.2859 -2.5167  2.3183
 1992SOL     OW17608   0.374   0.006   9.169 -0.5578  0.2642 -0.5626
 1992SOL    HW117609   0.359   4.683   9.245  1.0516  1.8553  0.9244
 1992SOL    HW217610   0.312   4.699   9.108 -2.0677  0.6320  0.7576
 1993SOL     OW17611   0.500   1.615  15.234  0.1880 -0.5894  0.1908
 1993SOL    HW117612   0.447   1.561  15.176 -0.8124  0.8471 -0.2412
 1993SOL    HW217613   0.579   1.563  15.242  0.4157 -0.0458  1.4717
 1994SOL     OW17614   3.971   3.959   5.637 -0.5274  0.8701  0.1279
 1994SOL    HW117615   3.997   3.891   5.575 -0.5302 -0.1133  1.2221
 1994SOL    HW217616   3.897   3.912   5.676 -1.8099  2.2210 -0.6676
 1995SOL     OW17617   2.961   1.772   5.540  0.0276  0.2770 -0.1494
 1995SOL    HW117618   2.996   1.861   5.540 -0.9025  0.6465  0.0024
 1995SOL    HW217619   2.945   1.766   5.446  0.5286  2.6857 -0.3973
 1996SOL     OW17620   0.353   3.715   5.304 -0.0565 -0.1297 -0.2457
 1996SOL    HW117621   0.399   3.645   5.256  1.5412 -0.3119  1.5559
 1996SOL    HW217622   0.425   3.777   5.308 -1.4741  1.4640  0.3577
 1997SOL     OW17623   2.990   1.767   3.513  0.2202  0.4378 -0.1055
 1997SOL    HW117624   3.061   1.784   3.451  0.4309 -1.7548 -0.4818
 1997SOL    HW217625   3.014   1.813   3.594  0.7530 -0.8295  0.4578
 1998SOL     OW17626   0.213   2.168   3.012 -0.3262 -0.8888  0.3406
 1998SOL    HW117627   0.163   2.159   2.931  2.1528 -0.0362 -1.2745
 1998SOL    HW217628   0.187   2.087   3.055  0.8703 -0.5686  1.6525
 1999SOL     OW17629   4.431   1.117  12.003  0.0965  0.4972 -0.1763
 1999SOL    HW117630   4.396   1.085  11.920  0.0570  0.1850 -0.0369
 1999SOL    HW217631   4.406   1.210  11.998  0.6421  0.6994  0.7940
 2000SOL     OW17632   2.095   4.605   3.180 -0.6282  0.0297 -0.3654
 2000SOL    HW117633   2.047   4.522   3.174 -1.3860  0.5261 -1.0562
 2000SOL    HW217634   2.030   4.667   3.148  1.7003  1.1822 -2.8862
 2001SOL     OW17635   1.023   3.526   8.798  0.1363 -0.2788  0.0508
 2001SOL    HW117636   0.978   3.445   8.771 -0.8621  0.1158  0.5200
 2001SOL    HW217637   0.952   3.564   8.850 -1.5087  1.2314 -3.3027
 2002SOL     OW17638   3.266   3.644   7.270  0.0601 -0.3687  0.4410
 2002SOL    HW117639   3.210   3.711   7.310  0.4973  0.2234  0.0802
 2002SOL    HW217640   3.318   3.688   7.202 -1.7659  0.9594 -0.0919
 2003SOL     OW17641   0.377   3.177   4.645  0.2797  0.1116 -0.2923
 2003SOL    HW117642   0.365   3.091   4.605  1.6539 -0.1859 -0.0646
 2003SOL    HW217643   0.291   3.201   4.680 -0.1549  0.9432 -1.9439
 2004SOL     OW17644   0.193   1.333  11.588 -0.2459  0.0116 -0.0111
 2004SOL    HW117645   0.264   1.275  11.561 -0.1908 -0.0145  0.1959
 2004SOL    HW217646   0.151   1.294  11.665  2.1549 -0.5632  1.0015
 2005SOL     OW17647   0.574   3.048   8.150  0.1630  0.3358 -0.0369
 2005SOL    HW117648   0.533   2.979   8.097  0.2776 -0.4395  0.8938
 2005SOL    HW217649   0.504   3.112   8.140  1.3100  1.6072  0.0616
 2006SOL     OW17650   4.271   4.184   8.441 -0.1668 -0.6710  0.1447
 2006SOL    HW117651   4.197   4.132   8.408 -1.3303  0.5702  0.8126
 2006SOL    HW217652   4.274   4.164   8.534  1.4772 -0.6691  0.0795
 2007SOL     OW17653   1.392   3.732  12.413 -0.2242  0.4058  0.0603
 2007SOL    HW117654   1.468   3.784  12.439 -0.8616  1.5627 -0.3917
 2007SOL    HW217655   1.433   3.646  12.422  0.6105  0.6228 -1.8179
 2008SOL     OW17656   3.658   0.570   1.756  0.1069  0.5158 -0.5966
 2008SOL    HW117657   3.688   0.507   1.822  0.3245 -0.3950 -1.5705
 2008SOL    HW217658   3.593   0.512   1.716  0.7553 -0.2526 -0.5518
 2009SOL     OW17659   0.301   4.651   7.300  0.4095 -0.1257  0.7013
 2009SOL    HW117660   0.219   4.651   7.349  0.5392  0.7258  0.9257
 2009SOL    HW217661   0.289   4.718   7.232 -1.7560 -0.6123  0.5851
 2010SOL     OW17662   3.588   1.294   0.659  0.6372  0.1854  0.4435
 2010SOL    HW117663   3.634   1.330   0.583 -0.8628 -0.7152 -0.8863
 2010SOL    HW217664   3.555   1.367   0.710 -2.4544 -0.2262 -0.9708
 2011SOL     OW17665   4.029   0.119  12.171 -0.4910  0.3299  0.1959
 2011SOL    HW117666   4.037   0.213  12.187  1.5897  0.2222 -0.1733
 2011SOL    HW217667   4.116   0.095  12.141 -0.5602  0.0884  0.1906
 2012SOL     OW17668   3.365   1.873   9.502  0.5185 -0.3087  0.0854
 2012SOL    HW117669   3.353   1.957   9.547  1.8835  0.2721 -0.6315
 2012SOL    HW217670   3.375   1.902   9.412 -1.3861 -0.1528 -0.0651
 2013SOL     OW17671   0.210   1.841   2.511 -0.2052 -0.1852  0.0921
 2013SOL    HW117672   0.121   1.808   2.524 -1.1910  2.3875 -0.1893
 2013SOL    HW217673   0.194   1.930   2.480 -3.5178  0.0357  2.4509
 2014SOL     OW17674   2.045   3.164   8.764  0.0884 -0.0514 -0.1869
 2014SOL    HW117675   1.969   3.110   8.741 -0.5592  0.4815  0.6673
 2014SOL    HW217676   2.112   3.105   8.731 -0.3716 -0.3676 -0.5537
 2015SOL     OW17677   0.500   4.706  11.525 -0.1959 -0.0207 -0.2478
 2015SOL    HW117678   0.476   4.668  11.441  2.6576 -3.4548  0.4579
 2015SOL    HW217679   0.568   0.031  11.490  1.1710 -2.1023 -1.0436
 2016SOL     OW17680   0.762   2.852   3.990 -0.0459  0.3725 -0.3279
 2016SOL    HW117681   0.800   2.835   4.077 -2.4196  1.8954  1.0079
 2016SOL    HW217682   0.796   2.941   3.978 -0.1145  0.7510  2.2612
 2017SOL     OW17683   4.051   3.071   4.350  0.6447 -0.1621  0.1302
 2017SOL    HW117684   4.033   3.164   4.359  1.2350  0.0432 -0.7565
 2017SOL    HW217685   3.970   3.044   4.393  1.0498 -0.8665  0.4608
 2018SOL     OW17686   3.482   3.014   3.061 -0.3352  0.4104 -0.0273
 2018SOL    HW117687   3.389   2.993   3.062 -0.5006  1.1672  0.1796
 2018SOL    HW217688   3.494   3.040   3.152  0.9914 -0.9524  0.1953
 2019SOL     OW17689   4.322   2.655   4.312 -0.4831 -0.0288 -0.6112
 2019SOL    HW117690   4.373   2.594   4.367 -0.6085 -0.0196 -0.4844
 2019SOL    HW217691   4.379   2.668   4.237  1.1621  0.6720  0.7489
 2020SOL     OW17692   0.655   0.763  16.155 -0.5780 -0.5809 -0.6618
 2020SOL    HW117693   0.707   0.811  16.219 -1.0677 -1.7757  0.6383
 2020SOL    HW217694   0.584   0.736  16.213 -1.6616  1.9740 -0.7920
 2021SOL     OW17695   2.896   4.451   6.696 -0.0211 -0.2642  0.4044
 2021SOL    HW117696   2.903   4.372   6.750  0.0373  0.4743  1.4639
 2021SOL    HW217697   2.808   4.478   6.721  0.2667  0.5976  0.4964
 2022SOL     OW17698   1.993   0.705   3.285 -0.5473  0.4243 -0.5260
 2022SOL    HW117699   1.916   0.762   3.294 -1.8286 -1.4752  0.7020
 2022SOL    HW217700   1.975   0.655   3.205  0.9832 -2.4666  0.9369
 2023SOL     OW17701   3.859   2.660   9.639 -0.6407 -0.6375  0.1352
 2023SOL    HW117702   3.909   2.741   9.645  2.4349 -2.5733  0.2181
 2023SOL    HW217703   3.772   2.678   9.603 -0.4575  2.6150  1.3077
 2024SOL     OW17704   0.905   0.654  17.062 -0.0077  0.2237  0.7102
 2024SOL    HW117705   0.851   0.576  17.054  2.3061 -1.2222 -0.8647
 2024SOL    HW217706   0.856   0.718  17.010 -0.1689  0.3120  0.9678
 2025SOL     OW17707   3.758   0.433  12.955 -0.1420  0.2809 -0.6928
 2025SOL    HW117708   3.683   0.441  12.896 -0.1016 -2.0738 -1.0558
 2025SOL    HW217709   3.765   0.518  13.000 -0.9647  0.1595 -0.3243
 2026SOL     OW17710   1.216   3.116  17.662 -0.2850  0.4485 -0.3692
 2026SOL    HW117711   1.271   3.041  17.684 -0.2200  0.7663  0.5582
 2026SOL    HW217712   1.150   3.075  17.606  1.1502 -0.6069 -1.2875
 2027SOL     OW17713   0.464   4.106   6.318 -0.8956 -0.1862  0.5778
 2027SOL    HW117714   0.378   4.123   6.356 -1.0904  0.2143 -0.0413
 2027SOL    HW217715   0.493   4.050   6.390 -2.2400 -3.9756 -1.8224
 2028SOL     OW17716   3.300   0.207  10.332 -0.2065 -0.0031 -0.2538
 2028SOL    HW117717   3.261   0.144  10.272 -1.1491  1.0953 -0.7801
 2028SOL    HW217718   3.367   0.248  10.277  0.5281 -0.2598  0.4322
 2029SOL     OW17719   0.835   0.559   0.236 -0.2706  0.3007  0.0543
 2029SOL    HW117720   0.903   0.551   0.170 -2.0558 -0.4005 -1.6791
 2029SOL    HW217721   0.879   0.536   0.318  0.5521 -1.6000 -0.9123
 2030SOL     OW17722   0.768   4.034  15.646  0.0890  0.4078 -0.2387
 2030SOL    HW117723   0.773   4.014  15.552 -0.3151 -1.3758  0.1117
 2030SOL    HW217724   0.848   3.988  15.669  1.0263  1.7284 -0.8971
 2031SOL     OW17725   2.530   0.939   9.850  0.3622 -0.2718  0.0430
 2031SOL    HW117726   2.477   0.993   9.790  3.4321  1.3303 -1.2435
 2031SOL    HW217727   2.601   0.919   9.789 -0.2491  1.8062 -1.3620
 2032SOL     OW17728   1.830   1.302   6.447  0.0161 -0.1717  0.1590
 2032SOL    HW117729   1.784   1.218   6.455 -0.3280 -0.2260 -2.5394
 2032SOL    HW217730   1.909   1.285   6.499 -0.7963  2.2309  2.1965
 2033SOL     OW17731   1.031   0.351  10.044 -0.1591  0.0254 -0.8844
 2033SOL    HW117732   1.049   0.287   9.975 -0.0495 -1.9247  0.9528
 2033SOL    HW217733   1.017   0.424   9.984  0.4897  1.0193  0.1830
 2034SOL     OW17734   3.525   1.874  17.322 -0.2473 -0.2812 -0.0963
 2034SOL    HW117735   3.498   1.837  17.406  0.2085 -3.3463 -1.2909
 2034SOL    HW217736   3.607   1.826  17.316 -0.6813 -0.9849 -0.3774
 2035SOL     OW17737   0.506   2.328   5.804  0.1980  0.3614 -0.3633
 2035SOL    HW117738   0.542   2.406   5.762 -2.5419 -0.5336 -4.3155
 2035SOL    HW217739   0.417   2.359   5.819  0.5508  0.5795  1.3005
 2036SOL     OW17740   1.103   1.346   1.431 -0.0188 -0.0852 -0.3246
 2036SOL    HW117741   1.056   1.272   1.469  0.9959  0.2836  1.6216
 2036SOL    HW217742   1.096   1.410   1.502  1.0074  0.2747 -0.5450
 2037SOL     OW17743   3.457   3.993   6.668  0.6191  0.4782  0.3718
 2037SOL    HW117744   3.499   4.062   6.721  0.2348  0.5582  0.5740
 2037SOL    HW217745   3.411   3.935   6.729  2.1346 -1.6165 -0.4936
 2038SOL     OW17746   2.809   3.197  11.853  0.6603  0.3329 -0.4324
 2038SOL    HW117747   2.843   3.164  11.769  2.5898  2.3037 -0.4482
 2038SOL    HW217748   2.891   3.232  11.889  0.2930 -0.4722  1.1760
 2039SOL     OW17749   0.834   3.827   3.028  0.1126 -0.4079 -0.3490
 2039SOL    HW117750   0.824   3.860   3.117 -1.1665 -0.6365 -0.4054
 2039SOL    HW217751   0.815   3.733   3.030 -4.0926  0.4037 -2.4941
 2040SOL     OW17752   3.154   0.210   8.779 -0.0511 -0.1259  0.2809
 2040SOL    HW117753   3.117   0.190   8.865 -0.0850  1.5058  0.6540
 2040SOL    HW217754   3.248   0.193   8.788  0.0555 -0.3704 -1.2674
 2041SOL     OW17755   3.861   2.073   8.976 -0.8225 -0.3396  0.8777
 2041SOL    HW117756   3.816   2.035   8.901  0.8865 -0.6740  0.0423
 2041SOL    HW217757   3.849   2.000   9.037  1.4696 -1.1675  0.3365
 2042SOL     OW17758   3.515   0.015  12.368 -0.0170  0.4414  0.3315
 2042SOL    HW117759   3.508   4.732  12.273  1.0777 -0.0022  0.3242
 2042SOL    HW217760   3.486   0.106  12.367  0.1611  0.4943 -0.3319
 2043SOL     OW17761   3.744   1.046   7.059  0.0894  0.0854 -0.1219
 2043SOL    HW117762   3.829   1.009   7.036 -0.3055 -1.5143  0.9019
 2043SOL    HW217763   3.686   1.008   6.993  1.7765  0.3870 -1.7408
 2044SOL     OW17764   1.099   3.724   4.790  0.5250  0.6110  0.0630
 2044SOL    HW117765   1.141   3.656   4.738 -0.2042 -0.0946  0.3941
 2044SOL    HW217766   1.143   3.724   4.876  0.1158 -1.4591  0.2833
 2045SOL     OW17767   2.407   0.684   4.538  0.0750 -0.4267  0.0185
 2045SOL    HW117768   2.383   0.771   4.568  0.8197 -0.1669 -0.1349
 2045SOL    HW217769   2.405   0.697   4.443  0.1189  2.3704  0.3940
 2046SOL     OW17770   1.098   0.527   6.515 -0.0444 -0.3140 -0.1172
 2046SOL    HW117771   1.027   0.522   6.451 -0.1323  2.2899 -0.2471
 2046SOL    HW217772   1.050   0.545   6.597 -1.1998 -1.6889 -0.5066
 2047SOL     OW17773   4.552   4.405   7.770 -0.4333 -0.1512  0.4599
 2047SOL    HW117774   4.617   4.343   7.736  1.5116  2.1642 -0.0146
 2047SOL    HW217775   4.596   4.424   7.853 -0.3067 -0.4662  0.4669
 2048SOL     OW17776   3.492   3.565  13.489 -0.1028  0.3010 -0.2091
 2048SOL    HW117777   3.427   3.527  13.431  0.1423 -1.6670  0.7962
 2048SOL    HW217778   3.456   3.653  13.477 -0.5901  0.4194  2.0373
 2049SOL     OW17779   1.513   3.621  13.491 -0.0126 -0.3761  0.5987
 2049SOL    HW117780   1.606   3.606  13.502  0.2198 -0.9722 -2.3728
 2049SOL    HW217781   1.512   3.682  13.417  0.7176  1.8515  2.4257
 2050SOL     OW17782   1.270   2.629   2.011 -0.2953 -0.4503  0.0402
 2050SOL    HW117783   1.301   2.591   2.093  0.5654 -2.2923 -1.1274
 2050SOL    HW217784   1.187   2.583   1.996  0.9293 -2.9466  0.8833
 2051SOL     OW17785   3.644   3.008   1.640  0.5122  0.4034 -0.2222
 2051SOL    HW117786   3.733   2.973   1.648 -0.2819 -1.0992  1.8599
 2051SOL    HW217787   3.598   2.960   1.709  1.5977 -0.1780  0.0967
 2052SOL     OW17788   2.298   4.466   7.674 -0.8634 -0.1863 -0.4268
 2052SOL    HW117789   2.253   4.463   7.758 -0.1871 -0.2974 -0.0677
 2052SOL    HW217790   2.239   4.506   7.610 -0.7201  0.5596 -0.0882
 2053SOL     OW17791   1.998   4.561   6.622 -0.4175 -0.4713  0.1376
 2053SOL    HW117792   2.054   4.568   6.699  2.4424  0.5978 -2.0613
 2053SOL    HW217793   2.011   4.471   6.594 -0.6547 -0.7318  0.8577
 2054SOL     OW17794   4.164   1.013   2.283 -0.1693  0.0980 -0.0888
 2054SOL    HW117795   4.072   1.025   2.307 -0.0682 -0.3592  0.5322
 2054SOL    HW217796   4.175   0.979   2.194 -0.7044 -0.5078  0.0723
 2055SOL     OW17797   1.752   2.238   6.738  0.4244 -0.0121 -0.3170
 2055SOL    HW117798   1.749   2.328   6.706  0.9925  0.3079  0.5096
 2055SOL    HW217799   1.692   2.241   6.813  0.6388  2.6804 -0.2556
 2056SOL     OW17800   1.545   2.006   2.642 -0.0494  0.5777  0.1849
 2056SOL    HW117801   1.610   2.067   2.680 -0.3274 -0.0413  1.6518
 2056SOL    HW217802   1.535   2.049   2.557 -1.0883  0.3820  0.2198
 2057SOL     OW17803   1.916   0.470   5.239  0.2108 -0.4683  0.4090
 2057SOL    HW117804   1.877   0.400   5.290  0.9052 -1.0256  0.1792
 2057SOL    HW217805   1.981   0.502   5.301 -0.0979 -0.8454  0.9291
 2058SOL     OW17806   0.128   1.973   8.063 -0.1886 -0.2209  0.0990
 2058SOL    HW117807   0.057   1.937   8.011 -0.1928 -1.6310  1.0772
 2058SOL    HW217808   0.088   1.990   8.149  1.6112 -0.7581  1.0571
 2059SOL     OW17809   0.435   2.888   6.096 -0.1885  0.0368 -0.2170
 2059SOL    HW117810   0.507   2.951   6.100  0.9169 -1.1123 -1.7179
 2059SOL    HW217811   0.482   2.818   6.050 -0.7768 -0.2979 -0.3037
 2060SOL     OW17812   3.758   1.323   7.504 -0.1112  0.2627  0.8176
 2060SOL    HW117813   3.727   1.288   7.421  3.2698  0.2017 -0.4521
 2060SOL    HW217814   3.773   1.237   7.544 -0.8909 -1.0159 -1.6252
 2061SOL     OW17815   0.811   0.799  11.255 -0.0245  0.4432  0.0353
 2061SOL    HW117816   0.887   0.852  11.230  0.8538  0.2905  2.2860
 2061SOL    HW217817   0.738   0.860  11.257  0.5024  1.1211 -2.0015
 2062SOL     OW17818   0.145   1.058   6.616  0.0671 -0.1665  0.0486
 2062SOL    HW117819   0.080   1.004   6.663 -0.4239  1.3578  1.1332
 2062SOL    HW217820   0.184   0.998   6.553  1.8393  1.2894 -0.2342
 2063SOL     OW17821   2.734   1.060   8.555 -0.0586  0.4109  0.5374
 2063SOL    HW117822   2.819   1.092   8.527  0.5873  0.8196  2.9382
 2063SOL    HW217823   2.685   1.141   8.570  0.5499  1.1319 -1.4764
 2064SOL     OW17824   3.843   4.711   1.673  0.0392 -0.0553  0.3454
 2064SOL    HW117825   3.880   4.651   1.608 -1.7346 -2.5726  1.6589
 2064SOL    HW217826   3.922   4.732   1.724 -0.9258  0.0860  1.8052
 2065SOL     OW17827   0.719   0.282   2.575  0.3668  0.3223 -0.5176
 2065SOL    HW117828   0.725   0.193   2.540  0.2381  0.4809 -0.9484
 2065SOL    HW217829   0.661   0.272   2.651  0.4579 -2.8917 -0.8678
 2066SOL     OW17830   2.562   3.130   5.813 -0.2982  0.3041 -0.0545
 2066SOL    HW117831   2.640   3.134   5.868  0.7520 -1.9231 -1.4343
 2066SOL    HW217832   2.574   3.208   5.760  3.9756  0.7192  1.5396
 2067SOL     OW17833   0.433   2.629   7.677 -0.2451 -0.4651 -0.0574
 2067SOL    HW117834   0.444   2.724   7.675  0.3274 -0.5631 -1.5143
 2067SOL    HW217835   0.515   2.598   7.715 -1.9032 -3.7999  0.7831
 2068SOL     OW17836   2.842   2.623   7.194  0.2545 -0.3875 -0.0413
 2068SOL    HW117837   2.801   2.705   7.222  2.1273  1.1108 -1.6866
 2068SOL    HW217838   2.769   2.580   7.149  0.1865 -0.8786  0.5483
 2069SOL     OW17839   0.250   3.658   9.403  0.3564 -0.4498  0.1598
 2069SOL    HW117840   0.195   3.591   9.443 -0.3371  0.3109  0.4920
 2069SOL    HW217841   0.194   3.715   9.349 -0.3376 -0.5914  0.7232
 2070SOL     OW17842   0.729   1.098  17.628 -0.0366  0.1504 -0.2676
 2070SOL    HW117843   0.759   1.024  17.574  1.2931  0.0236  0.6692
 2070SOL    HW217844   0.759   1.178  17.586 -1.5014  0.4901 -0.6602
 2071SOL     OW17845   2.994   3.127  10.079  0.3834 -0.1462  0.2146
 2071SOL    HW117846   3.013   3.211  10.037 -3.7133  1.7607  2.1947
 2071SOL    HW217847   2.900   3.115  10.072  0.3800  0.6514 -0.9211
 2072SOL     OW17848   1.810   0.892   3.174 -0.3904  0.6239  0.3986
 2072SOL    HW117849   1.740   0.957   3.178 -0.8783  0.1406 -0.0733
 2072SOL    HW217850   1.855   0.919   3.094  0.2736 -0.0127  0.5571
 2073SOL     OW17851   2.987   0.744   1.542 -0.1163  0.7936 -0.1101
 2073SOL    HW117852   3.081   0.726   1.540 -0.3338 -0.3673  0.0085
 2073SOL    HW217853   2.949   0.683   1.605 -0.7827  0.9681 -0.3473
 2074SOL     OW17854   2.427   3.389   2.567 -0.0291 -0.0930  0.6134
 2074SOL    HW117855   2.438   3.482   2.588 -0.3668 -0.0460  0.5779
 2074SOL    HW217856   2.434   3.394   2.472 -0.3444 -2.0901  0.4863
 2075SOL     OW17857   3.889   4.382  12.240  0.2633 -0.0153 -0.1797
 2075SOL    HW117858   3.885   4.477  12.248  1.5748 -0.3301  4.0942
 2075SOL    HW217859   3.854   4.354  12.155  1.0692  0.4865 -0.6744
 2076SOL     OW17860   1.576   1.445  14.971  0.2877  0.8927  0.1729
 2076SOL    HW117861   1.555   1.536  14.993 -0.1075  0.5208  1.3080
 2076SOL    HW217862   1.517   1.398  15.030 -0.3166 -1.0512 -1.9840
 2077SOL     OW17863   4.414   2.399   6.560 -0.5414 -1.3467  0.2997
 2077SOL    HW117864   4.409   2.488   6.522  2.9263 -2.0782 -1.9845
 2077SOL    HW217865   4.444   2.349   6.484 -1.6520 -1.1796 -0.2456
 2078SOL     OW17866   2.213   3.701   7.762 -0.4108  0.0366  0.6858
 2078SOL    HW117867   2.185   3.788   7.732 -0.8700  0.0419  1.1423
 2078SOL    HW217868   2.300   3.724   7.796 -0.2921  1.7335 -0.7591
 2079SOL     OW17869   1.079   1.469   5.486 -0.2626  0.0658 -0.6137
 2079SOL    HW117870   1.120   1.421   5.558 -0.4812  0.7682 -0.0196
 2079SOL    HW217871   1.040   1.396   5.438  1.1003 -0.7177 -0.5223
 2080SOL     OW17872   3.140   2.941  12.325  0.1403  0.0903 -0.5681
 2080SOL    HW117873   3.077   2.937  12.253  1.5944 -1.5972 -1.7336
 2080SOL    HW217874   3.173   2.852  12.326 -0.4594 -0.1011  2.4523
 2081SOL     OW17875   3.258   3.060  10.091 -0.0988  0.0931  0.7374
 2081SOL    HW117876   3.178   3.112  10.081 -0.8608 -1.1184  0.3877
 2081SOL    HW217877   3.237   2.978  10.045  0.0904 -0.2303  1.2310
 2082SOL     OW17878   4.319   3.654  16.941  0.1489 -0.1241  1.0665
 2082SOL    HW117879   4.238   3.636  16.990 -1.2168  2.0409 -0.3666
 2082SOL    HW217880   4.383   3.661  17.012  1.7781 -2.2661 -0.2132
 2083SOL     OW17881   3.285   2.717   7.315  0.4970 -0.1689  0.1562
 2083SOL    HW117882   3.272   2.631   7.355 -1.8763 -0.1943 -0.7064
 2083SOL    HW217883   3.366   2.696   7.267  1.3325  0.4062  1.3169
 2084SOL     OW17884   3.880   0.426  12.500 -0.0767  0.4649  0.3063
 2084SOL    HW117885   3.798   0.379  12.510  1.6463 -2.5960  0.0670
 2084SOL    HW217886   3.849   0.514  12.519  0.3941  1.4009 -3.1749
 2085SOL     OW17887   3.410   1.578   7.930  0.1948  0.3138  0.3388
 2085SOL    HW117888   3.343   1.595   7.997 -0.9625 -0.5857 -0.6059
 2085SOL    HW217889   3.478   1.634   7.969 -0.2381  2.6415 -2.2567
 2086SOL     OW17890   3.345   4.551   4.493  0.3766  0.5703 -0.3518
 2086SOL    HW117891   3.297   4.516   4.417 -1.0375 -0.2932  0.9294
 2086SOL    HW217892   3.317   4.643   4.497 -0.4177  0.2921  0.5588
 2087SOL     OW17893   2.825   0.035   2.994 -0.4963  0.2613  0.0164
 2087SOL    HW117894   2.849   4.709   2.923 -1.3747 -1.7691  1.3819
 2087SOL    HW217895   2.862   0.118   2.967 -0.0561 -0.2391 -0.9145
 2088SOL     OW17896   2.178   3.824   6.522  0.2055  0.0047  0.3344
 2088SOL    HW117897   2.159   3.733   6.499  2.1252 -0.1712 -0.5636
 2088SOL    HW217898   2.274   3.823   6.524  0.2453  0.9454 -0.9598
 2089SOL     OW17899   0.664   2.505   7.413 -0.1058  0.7440 -0.3732
 2089SOL    HW117900   0.616   2.456   7.480  0.6174  1.4061  0.6317
 2089SOL    HW217901   0.605   2.484   7.340 -0.8670  0.4848  0.3078
 2090SOL     OW17902   3.916   0.692   7.523 -0.1627 -0.4212  0.7468
 2090SOL    HW117903   3.877   0.778   7.508  0.1469 -0.5069 -0.5232
 2090SOL    HW217904   3.852   0.642   7.574  1.6831 -1.2062  2.3019
 2091SOL     OW17905   3.728   2.333  15.022  0.2875  0.1079  0.0031
 2091SOL    HW117906   3.790   2.346  14.950  0.6885 -0.3170  0.2743
 2091SOL    HW217907   3.781   2.340  15.101  1.0759  0.7870 -0.5858
 2092SOL     OW17908   4.151   3.892  13.226  0.4910  0.2975  0.2715
 2092SOL    HW117909   4.139   3.811  13.176 -0.7286  0.6672 -0.0382
 2092SOL    HW217910   4.075   3.887  13.284 -0.6168  1.7056 -1.0394
 2093SOL     OW17911   2.069   4.357   7.859  0.0091  0.1659  0.5305
 2093SOL    HW117912   2.120   4.315   7.929 -0.0956  1.2736  1.2869
 2093SOL    HW217913   1.991   4.303   7.861 -0.5301  0.8687 -1.9820
 2094SOL     OW17914   2.231   0.116  11.464  0.2193  0.1538  0.5891
 2094SOL    HW117915   2.237   0.066  11.546  2.6548 -1.5496 -0.6278
 2094SOL    HW217916   2.286   0.191  11.483 -0.3673  0.5284  0.8233
 2095SOL     OW17917   1.424   4.582   6.577 -0.1086  0.0814  0.5078
 2095SOL    HW117918   1.488   4.533   6.526  1.3851  1.0326  1.4736
 2095SOL    HW217919   1.377   4.505   6.612  0.1706  0.7211  2.2775
 2096SOL     OW17920   3.521   3.231  14.297 -0.2907  0.0114 -0.0596
 2096SOL    HW117921   3.477   3.151  14.269  2.7003 -0.6046 -3.0728
 2096SOL    HW217922   3.525   3.214  14.391  3.3893 -1.8330 -0.5312
 2097SOL     OW17923   4.623   1.475   3.938 -0.1082 -0.0427  0.2268
 2097SOL    HW117924   4.598   1.566   3.927 -1.4048 -0.2272  1.6983
 2097SOL    HW217925   4.535   1.443   3.957  0.8246 -2.2347  0.8699
 2098SOL     OW17926   3.052   2.084   7.323  0.0135  0.4103  0.1715
 2098SOL    HW117927   2.997   2.115   7.396  0.0506 -1.7230  1.0967
 2098SOL    HW217928   2.991   2.099   7.251 -0.0258  2.4822  0.6333
 2099SOL     OW17929   4.111   4.576   4.303  0.4268  0.3684 -0.6307
 2099SOL    HW117930   4.056   4.514   4.256  0.0867  1.8573 -2.2236
 2099SOL    HW217931   4.201   4.557   4.277  0.0006 -0.4594 -1.4881
 2100SOL     OW17932   1.498   4.129   4.558 -0.3200  0.0855 -0.1539
 2100SOL    HW117933   1.522   4.198   4.496 -2.5782 -0.8536 -2.0352
 2100SOL    HW217934   1.572   4.142   4.618 -0.8607  1.8401  0.1176
 2101SOL     OW17935   0.442   2.163  17.020  0.6419  0.2778  0.5451
 2101SOL    HW117936   0.526   2.123  17.000 -0.2347 -1.2801 -0.0204
 2101SOL    HW217937   0.465   2.256  17.018  0.9407  0.1506 -2.0081
 2102SOL     OW17938   2.843   0.408   7.353 -0.1052  0.4103 -0.0482
 2102SOL    HW117939   2.925   0.439   7.390  0.1992  1.2650 -1.4196
 2102SOL    HW217940   2.835   0.315   7.372  2.0041  0.2476  0.0235
 2103SOL     OW17941   3.487   3.078   3.328  0.3501 -0.0612 -0.8582
 2103SOL    HW117942   3.539   3.136   3.383  0.2642  1.7174 -2.6480
 2103SOL    HW217943   3.473   3.006   3.389 -0.2449 -0.1684 -1.1221
 2104SOL     OW17944   2.016   0.351   4.864  0.0900  0.8468  0.3095
 2104SOL    HW117945   2.025   0.383   4.954  1.1225  0.8450  0.2066
 2104SOL    HW217946   1.942   0.290   4.868  2.0711 -1.6763 -1.8154
 2105SOL     OW17947   0.087   4.176   1.250  0.4620  0.1912 -0.1611
 2105SOL    HW117948   0.025   4.244   1.277  0.2867  0.1194 -0.3739
 2105SOL    HW217949   0.033   4.120   1.193  0.2291 -2.0372  2.2360
 2106SOL     OW17950   4.086   1.426   3.355 -0.1654  0.3477 -0.2769
 2106SOL    HW117951   4.158   1.368   3.332  0.4189  0.5856  0.9577
 2106SOL    HW217952   4.082   1.491   3.286  1.3395 -0.7377 -1.3902
 2107SOL     OW17953   2.242   2.762   5.164  0.2555 -0.4060 -0.2779
 2107SOL    HW117954   2.164   2.790   5.212 -0.0217 -1.4946 -0.0855
 2107SOL    HW217955   2.317   2.797   5.212 -0.8158  1.3672  0.1173
 2108SOL     OW17956   2.021   1.443   3.488  0.2096  0.5174 -0.3731
 2108SOL    HW117957   2.009   1.390   3.567  0.6441 -0.3817 -0.8998
 2108SOL    HW217958   1.962   1.516   3.503 -0.0375  0.4386 -0.9576
 2109SOL     OW17959   0.785   2.640   3.381 -0.2907 -0.1545 -0.1290
 2109SOL    HW117960   0.754   2.550   3.370 -3.0506  0.5573  1.9516
 2109SOL    HW217961   0.814   2.677   3.298  0.6034  0.0785  0.2837
 2110SOL     OW17962   1.222   4.315   9.175  0.1188 -0.5530  0.2857
 2110SOL    HW117963   1.318   4.319   9.173 -0.0433  2.3049 -0.8691
 2110SOL    HW217964   1.194   4.326   9.266  1.2686 -0.1370  0.5978
 2111SOL     OW17965   0.808   2.828   2.382  0.1070 -0.3875  0.0857
 2111SOL    HW117966   0.773   2.748   2.420  0.1074 -0.4307 -0.0067
 2111SOL    HW217967   0.842   2.789   2.302 -0.0416 -1.2149  0.4236
 2112SOL     OW17968   0.694   1.059   3.625  0.5230 -0.1407  0.1263
 2112SOL    HW117969   0.659   1.052   3.536  1.4464  1.9960 -0.4253
 2112SOL    HW217970   0.664   1.144   3.657 -0.5186 -0.5357  0.1963
 2113SOL     OW17971   0.192   1.259   6.778  0.3871  0.1454  0.2023
 2113SOL    HW117972   0.278   1.235   6.814  0.8412 -0.2381 -1.1352
 2113SOL    HW217973   0.167   1.187   6.720  1.9100  0.4152 -0.7896
 2114SOL     OW17974   3.219   3.966   6.064  0.0201 -0.2057  0.1099
 2114SOL    HW117975   3.148   3.904   6.045  1.6854 -2.3377  0.7471
 2114SOL    HW217976   3.189   4.010   6.144 -0.1053 -0.5767  0.2704
 2115SOL     OW17977   0.467   1.215   5.749 -0.2563  0.4605 -0.6329
 2115SOL    HW117978   0.506   1.138   5.706 -1.5089 -0.6413  0.1990
 2115SOL    HW217979   0.424   1.175   5.825 -0.6439 -0.4224 -1.3213
 2116SOL     OW17980   0.701   1.720   5.812 -0.2207 -0.0457 -0.1321
 2116SOL    HW117981   0.690   1.816   5.814 -3.0519 -0.3831  1.5380
 2116SOL    HW217982   0.614   1.689   5.786 -0.9398  1.3869  0.5414
 2117SOL     OW17983   1.856   0.195   5.005  0.6249 -0.4153 -0.1537
 2117SOL    HW117984   1.779   0.144   4.980  0.3005 -0.0696  0.1547
 2117SOL    HW217985   1.838   0.202   5.098  1.9243 -1.1054  0.1443
 2118SOL     OW17986   2.670   2.663  13.520 -0.2410  0.0767  0.2747
 2118SOL    HW117987   2.708   2.636  13.603 -0.7303 -0.1643  0.4203
 2118SOL    HW217988   2.581   2.631  13.535  0.3180 -1.6817 -0.1131
 2119SOL     OW17989   3.539   1.928   9.254 -0.1553  0.3209  0.3563
 2119SOL    HW117990   3.506   2.010   9.290  0.1369  0.2391  0.8062
 2119SOL    HW217991   3.618   1.964   9.213  1.1195 -1.8235  0.9423
 2120SOL     OW17992   4.239   3.093  15.642  0.2011 -0.6010  0.1816
 2120SOL    HW117993   4.304   3.158  15.615  0.9856 -1.6760 -0.4664
 2120SOL    HW217994   4.232   3.042  15.562 -1.2151  0.3273 -0.2923
 2121SOL     OW17995   0.982   1.678   1.121 -0.4509  0.9232  0.0844
 2121SOL    HW117996   1.035   1.598   1.118 -1.9363 -0.0085 -1.1074
 2121SOL    HW217997   0.993   1.713   1.210  0.2660  2.9044 -0.7757
 2122SOL     OW17998   2.903   1.722   7.505  0.6198  0.0432  0.6043
 2122SOL    HW117999   2.811   1.734   7.485  0.7104  0.3581  0.3716
 2122SOL    HW218000   2.902   1.668   7.584 -1.1459  0.6714  0.9982
 2123SOL     OW18001   4.132   3.203   9.158 -0.3859  0.1857  1.0264
 2123SOL    HW118002   4.052   3.152   9.169 -1.6053  1.7692 -0.6460
 2123SOL    HW218003   4.110   3.243   9.074 -2.3717 -2.2097  0.4012
 2124SOL     OW18004   1.087   2.803   7.905  0.5770  0.0356 -0.0188
 2124SOL    HW118005   1.160   2.748   7.934 -0.9931 -0.9827  2.0039
 2124SOL    HW218006   1.010   2.759   7.940  2.2043 -2.1829  0.7363
 2125SOL     OW18007   4.015   0.278   4.535  0.0074 -0.8700 -0.0179
 2125SOL    HW118008   4.002   0.368   4.565  0.7229 -0.3901 -1.1153
 2125SOL    HW218009   4.102   0.287   4.496  1.4387  1.1694  3.5999
 2126SOL     OW18010   2.347   1.259   1.885  0.3775  0.5051 -0.0845
 2126SOL    HW118011   2.343   1.266   1.980 -1.1702  1.5460 -0.2193
 2126SOL    HW218012   2.410   1.325   1.858  1.0505  1.0646  2.8402
 2127SOL     OW18013   0.449   3.708  10.874  0.4182  0.5815 -0.1467
 2127SOL    HW118014   0.382   3.715  10.805  1.8065 -1.9993 -1.7770
 2127SOL    HW218015   0.396   3.666  10.941  0.5099  0.7084  0.0054
 2128SOL     OW18016   0.819   2.055   3.442 -0.7064  0.4833  0.2931
 2128SOL    HW118017   0.827   2.111   3.520 -1.3178  2.0845 -0.7845
 2128SOL    HW218018   0.910   2.031   3.429 -0.8844  0.1303 -0.2721
 2129SOL     OW18019   4.354   4.260   1.491  0.0317  0.1059  0.4620
 2129SOL    HW118020   4.351   4.219   1.404 -0.7412  1.1928 -0.0198
 2129SOL    HW218021   4.425   4.213   1.534 -0.6907  0.4935  2.0698
 2130SOL     OW18022   0.656   0.168  10.630  0.2375 -0.2057 -0.0765
 2130SOL    HW118023   0.629   0.193  10.541  1.4424  1.3069 -0.0243
 2130SOL    HW218024   0.576   0.154  10.680 -0.8391 -0.0394 -1.7530
 2131SOL     OW18025   3.634   1.396  15.933  0.7236 -0.4160  0.0237
 2131SOL    HW118026   3.617   1.420  16.024  0.7575 -0.4419  0.0371
 2131SOL    HW218027   3.582   1.316  15.934 -1.1527  0.8404  0.9448
 2132SOL     OW18028   3.782   0.206   8.227 -0.3727 -0.1278  0.0776
 2132SOL    HW118029   3.787   0.201   8.322 -2.0271 -1.0971  0.1119
 2132SOL    HW218030   3.749   0.117   8.212  0.0999  0.0978 -2.3202
 2133SOL     OW18031   0.039   3.419  15.856 -0.0120  0.3228 -0.2184
 2133SOL    HW118032   4.711   3.375  15.914 -0.1438  1.4221  0.4862
 2133SOL    HW218033   0.124   3.397  15.895 -0.0658  2.3119  1.0270
 2134SOL     OW18034   2.678   0.211   4.892 -0.1028  0.0199  0.1594
 2134SOL    HW118035   2.669   0.121   4.862 -0.6328  0.3511 -0.6800
 2134SOL    HW218036   2.731   0.210   4.972 -0.7538  0.8248  0.6024
 2135SOL     OW18037   4.367   1.446   4.061 -0.1207  0.4027 -0.8248
 2135SOL    HW118038   4.296   1.397   4.103  0.2412 -0.1929 -0.9093
 2135SOL    HW218039   4.340   1.537   4.075  0.8879  0.5601  0.1821
 2136SOL     OW18040   3.719   1.989   8.300  0.7905  0.0854  0.1053
 2136SOL    HW118041   3.675   1.970   8.217 -0.7492  0.1648  0.8985
 2136SOL    HW218042   3.670   2.059   8.343  2.2502  0.9797  0.3254
 2137SOL     OW18043   0.513   3.591   9.315  0.1528  0.1584 -0.0853
 2137SOL    HW118044   0.425   3.615   9.341  0.8966  1.4156  1.2227
 2137SOL    HW218045   0.563   3.600   9.396  0.7594 -1.9386 -0.2095
 2138SOL     OW18046   0.673   4.205   2.980  0.3161 -0.0169  0.0224
 2138SOL    HW118047   0.752   4.251   2.950 -0.8512  0.5630 -2.1502
 2138SOL    HW218048   0.618   4.212   2.902  1.8163  2.0113 -0.8557
 2139SOL     OW18049   0.501   1.820  15.040 -0.0456  0.0449  0.0883
 2139SOL    HW118050   0.475   1.748  15.098 -2.3379  1.2272  0.4993
 2139SOL    HW218051   0.425   1.823  14.982 -0.4976  1.7377  0.8098
 2140SOL     OW18052   2.734   0.930   9.667  0.0336  0.3683 -0.9542
 2140SOL    HW118053   2.804   0.961   9.610 -0.1481  0.4428 -1.1388
 2140SOL    HW218054   2.777   0.943   9.752  0.3827  0.6955 -1.1825
 2141SOL     OW18055   3.166   3.335   2.457 -0.3565 -0.8758  0.3744
 2141SOL    HW118056   3.235   3.309   2.518  0.1151  1.0348  0.6741
 2141SOL    HW218057   3.152   3.257   2.405  0.1086 -1.3053  0.8935
 2142SOL     OW18058   3.948   2.147  16.563  0.3748 -0.1276  0.3991
 2142SOL    HW118059   3.918   2.169  16.475  0.0770  0.3383  0.6160
 2142SOL    HW218060   3.873   2.193  16.601  0.7402  1.8499 -1.2882
 2143SOL     OW18061   4.233   0.550   6.073 -0.1524 -0.1976 -0.3160
 2143SOL    HW118062   4.201   0.524   5.987  0.6050 -1.4344 -0.2342
 2143SOL    HW218063   4.198   0.480   6.128 -0.0044  0.3627  0.4912
 2144SOL     OW18064   4.646   2.686  12.392  0.2210 -0.2915 -0.1379
 2144SOL    HW118065   4.579   2.630  12.354  0.7954 -0.2095 -1.2704
 2144SOL    HW218066   4.630   2.774  12.356 -1.2489  0.2919  1.9235
 2145SOL     OW18067   2.275   2.485   3.149  0.3005 -0.1855 -0.2660
 2145SOL    HW118068   2.205   2.480   3.215  1.5030  1.6630  1.1449
 2145SOL    HW218069   2.226   2.523   3.077 -1.6433 -2.2158 -0.0221
 2146SOL     OW18070   3.492   0.204   7.229 -0.2358  0.0696 -0.9991
 2146SOL    HW118071   3.439   0.271   7.186 -0.8226  0.1037 -0.2029
 2146SOL    HW218072   3.436   0.127   7.229  1.6672 -1.3283 -2.0728
 2147SOL     OW18073   1.085   3.081   6.946 -0.2537 -0.0037 -0.3807
 2147SOL    HW118074   1.122   3.110   7.030 -1.4637 -1.8150  0.7641
 2147SOL    HW218075   0.995   3.059   6.968 -0.0435  0.4086  0.8983
 2148SOL     OW18076   1.087   3.750   3.899  0.0193  0.2304  0.4090
 2148SOL    HW118077   1.088   3.828   3.844  0.5950  0.5616  0.8815
 2148SOL    HW218078   1.124   3.785   3.980  0.6358  1.7800 -0.5301
 2149SOL     OW18079   2.939   3.854   9.302  0.1522 -0.0729 -0.4268
 2149SOL    HW118080   2.997   3.801   9.356 -0.6014  0.6895  1.1081
 2149SOL    HW218081   2.999   3.924   9.274  0.3971 -0.3897 -0.6959
 2150SOL     OW18082   2.509   0.286   7.537 -0.4344  0.2478  0.6238
 2150SOL    HW118083   2.493   0.208   7.589  1.7938  0.1655  1.1918
 2150SOL    HW218084   2.475   0.355   7.594  0.6531  2.3994 -1.3175
 2151SOL     OW18085   3.713   4.145  13.175  0.2323 -0.3216  0.0216
 2151SOL    HW118086   3.678   4.186  13.096  0.6060  2.6346  1.4026
 2151SOL    HW218087   3.797   4.186  13.196 -0.5601 -0.0974  2.7866
 2152SOL     OW18088   4.598   1.171   1.546  0.3083 -0.2661  0.1762
 2152SOL    HW118089   4.634   1.098   1.596  1.3566  1.1013  1.4028
 2152SOL    HW218090   4.533   1.121   1.497 -2.3021  1.5584  1.7897
 2153SOL     OW18091   1.171   2.031   3.009 -0.0579 -0.2902  0.6323
 2153SOL    HW118092   1.212   2.025   3.096  1.4029  1.8747  0.0858
 2153SOL    HW218093   1.246   1.989   2.966 -0.9554 -1.3852  0.1596
 2154SOL     OW18094   1.671   2.679   8.666 -0.4787  0.3004 -0.5193
 2154SOL    HW118095   1.601   2.631   8.621 -0.5612 -0.3936  0.3486
 2154SOL    HW218096   1.643   2.662   8.756 -1.7496 -0.2884 -1.0259
 2155SOL     OW18097   3.632   3.261  13.373 -0.0080 -0.0670  0.1657
 2155SOL    HW118098   3.691   3.203  13.420 -2.0636 -1.1149  1.4048
 2155SOL    HW218099   3.570   3.290  13.440  0.7156 -1.2894  1.3570
 2156SOL     OW18100   3.144   3.258  17.430 -0.4863 -0.2218 -0.1765
 2156SOL    HW118101   3.160   3.186  17.368  2.5758 -0.2315  0.6031
 2156SOL    HW218102   3.089   3.320  17.382 -1.5451 -1.0850 -0.0725
 2157SOL     OW18103   4.204   3.476   8.788 -0.5505  0.0031 -0.1473
 2157SOL    HW118104   4.141   3.423   8.837 -0.5525  0.8342  0.7704
 2157SOL    HW218105   4.135   3.508   8.731 -2.2712  0.0587  1.9597
 2158SOL     OW18106   3.014   2.421   9.658  0.1246  0.2757  0.2384
 2158SOL    HW118107   2.990   2.500   9.707  1.3484  0.0033  1.2648
 2158SOL    HW218108   3.103   2.403   9.687 -0.2237 -1.6889  0.0920
 2159SOL     OW18109   1.850   2.697   8.451 -0.6129  0.6357 -0.0553
 2159SOL    HW118110   1.839   2.618   8.398  0.3203 -1.2425  2.5281
 2159SOL    HW218111   1.792   2.673   8.523 -3.7645 -1.3025 -3.2338
 2160SOL     OW18112   1.299   0.792   7.443 -0.2239  0.7005 -0.0138
 2160SOL    HW118113   1.291   0.866   7.503 -1.2715  1.6752 -1.3733
 2160SOL    HW218114   1.237   0.731   7.483  1.1407 -0.4104  0.4349
 2161SOL     OW18115   1.117   4.117   6.346 -0.9407  0.2550 -0.3018
 2161SOL    HW118116   1.106   4.211   6.363  0.1084  0.5306 -1.1328
 2161SOL    HW218117   1.161   4.133   6.263  1.0181  0.1585  0.7166
 2162SOL     OW18118   3.703   4.120   8.252  0.0186  0.4159 -0.1607
 2162SOL    HW118119   3.765   4.047   8.250 -0.3190  0.1193  0.0695
 2162SOL    HW218120   3.699   4.138   8.346 -2.8506 -4.6502  0.7246
 2163SOL     OW18121   3.432   4.452  12.814  0.1100  0.0649  0.1515
 2163SOL    HW118122   3.489   4.525  12.788 -1.1252  0.9294 -0.1492
 2163SOL    HW218123   3.420   4.413  12.728 -0.5867 -3.5989  1.9050
 2164SOL     OW18124   1.172   1.603   6.350 -0.5628  0.0104  0.1461
 2164SOL    HW118125   1.261   1.610   6.313 -0.4246 -1.6571  0.1365
 2164SOL    HW218126   1.190   1.637   6.438 -0.7534 -0.7887  0.4909
 2165SOL     OW18127   0.311   2.517  16.737 -0.1539  0.1979  0.3855
 2165SOL    HW118128   0.223   2.512  16.699  0.2451 -0.1436 -0.4700
 2165SOL    HW218129   0.331   2.425  16.720  1.5217  0.2366  2.1464
 2166SOL     OW18130   2.199   3.637   3.611 -0.0313  0.0486  0.3732
 2166SOL    HW118131   2.248   3.644   3.693  0.4337  1.4686 -0.0114
 2166SOL    HW218132   2.120   3.689   3.624 -1.0577 -1.5628  0.5663
 2167SOL     OW18133   4.193   2.426  11.062  0.3849 -0.6637  0.1976
 2167SOL    HW118134   4.102   2.397  11.066 -0.4077  1.5337 -1.9290
 2167SOL    HW218135   4.249   2.355  11.094  1.0563  0.4187  1.4311
 2168SOL     OW18136   3.891   1.871   9.158  0.0182 -0.4218  0.1198
 2168SOL    HW118137   3.879   1.778   9.177 -2.0183 -0.6988 -2.6399
 2168SOL    HW218138   3.940   1.905   9.233  1.1185 -1.1382 -0.2764
 2169SOL     OW18139   3.359   4.554  11.972  0.1329 -0.0954 -0.1211
 2169SOL    HW118140   3.340   4.471  12.014 -0.3770  0.1554  0.1474
 2169SOL    HW218141   3.274   4.599  11.967  0.2777  0.5418  3.1521
 2170SOL     OW18142   2.626   3.898   7.659  0.8112 -0.4712 -0.1994
 2170SOL    HW118143   2.682   3.936   7.590  0.5460 -0.5003 -0.4322
 2170SOL    HW218144   2.650   3.959   7.729 -1.9955 -0.9229  1.1272
 2171SOL     OW18145   3.853   3.402   3.494 -0.2833  0.0568  0.0343
 2171SOL    HW118146   3.902   3.326   3.526  1.6706  0.9652 -0.8030
 2171SOL    HW218147   3.924   3.440   3.442  1.7836  0.1318  2.8448
 2172SOL     OW18148   4.133   1.810   0.945  0.3101 -0.0355  0.1866
 2172SOL    HW118149   4.070   1.761   0.997  1.3127  1.8541  3.1962
 2172SOL    HW218150   4.100   1.790   0.858 -1.0686  0.8727  0.4930
 2173SOL     OW18151   3.999   2.552   3.437  0.5723 -0.3227  0.4872
 2173SOL    HW118152   3.980   2.598   3.518 -1.1093  0.8993 -0.5913
 2173SOL    HW218153   3.974   2.463   3.465  0.7360 -0.4755  0.1474
 2174SOL     OW18154   0.567   1.168   1.294  0.1818 -0.3426 -0.4425
 2174SOL    HW118155   0.552   1.140   1.203 -0.6350 -3.0472  0.5476
 2174SOL    HW218156   0.557   1.090   1.348  0.3369  0.3833  0.6377
 2175SOL     OW18157   1.227   4.222   5.835  0.2627 -0.1918 -0.1269
 2175SOL    HW118158   1.269   4.156   5.779 -0.6694 -1.6380  0.8864
 2175SOL    HW218159   1.223   4.173   5.917 -1.7432  0.6704  0.2748
 2176SOL     OW18160   0.834   1.804  15.613  0.0840 -0.0666  0.0721
 2176SOL    HW118161   0.784   1.735  15.569 -1.9290  0.2729  1.8505
 2176SOL    HW218162   0.771   1.837  15.676  1.0317  0.5482  0.7061
 2177SOL     OW18163   4.477   0.259   9.566  0.0800  0.4917  0.0426
 2177SOL    HW118164   4.411   0.323   9.539 -0.3229 -0.8797 -2.1837
 2177SOL    HW218165   4.460   0.269   9.660 -1.1630  1.8184 -0.3268
 2178SOL     OW18166   2.756   2.481   6.953  0.7111  0.2779  0.2524
 2178SOL    HW118167   2.713   2.413   6.902  2.7353  0.3506 -1.5396
 2178SOL    HW218168   2.845   2.443   6.951  1.3119  1.6917  0.4219
 2179SOL     OW18169   1.508   4.534   2.974 -0.4247  0.1185  0.1700
 2179SOL    HW118170   1.487   4.555   2.883  3.7877  1.7363 -0.4080
 2179SOL    HW218171   1.451   4.459   2.988 -0.0804  0.0079  0.9908
 2180SOL     OW18172   4.557   3.619   4.784 -0.4741  0.2425 -0.1502
 2180SOL    HW118173   4.647   3.633   4.815 -0.4887  0.8949 -0.3945
 2180SOL    HW218174   4.518   3.705   4.770 -1.2407  0.3192  2.4418
 2181SOL     OW18175   2.797   0.498  13.900  0.0620  0.1824  0.0763
 2181SOL    HW118176   2.854   0.527  13.971 -0.8600  1.1334  0.4337
 2181SOL    HW218177   2.816   0.404  13.899  0.4055  0.2520  0.1112
 2182SOL     OW18178   1.960   2.575   9.250 -0.4845  0.2603 -0.5290
 2182SOL    HW118179   1.900   2.568   9.325  2.8117  1.3372  2.1985
 2182SOL    HW218180   1.896   2.538   9.190  0.3839  1.0529 -1.9360
 2183SOL     OW18181   0.734   1.673  17.062  0.1244  0.2607 -0.4520
 2183SOL    HW118182   0.784   1.749  17.092  0.0215  0.3687 -0.5490
 2183SOL    HW218183   0.776   1.640  16.983  0.5253 -1.1381  0.3562
 2184SOL     OW18184   3.975   0.130   2.471  0.2943 -0.7971  0.2655
 2184SOL    HW118185   4.021   0.186   2.534 -1.9534 -1.1219  2.2111
 2184SOL    HW218186   4.043   0.062   2.466 -0.2418 -1.2196 -1.1726
 2185SOL     OW18187   4.153   0.844   7.560  0.2323 -0.1251  0.3004
 2185SOL    HW118188   4.130   0.753   7.542  0.4368 -0.2107  0.4710
 2185SOL    HW218189   4.092   0.845   7.633 -1.3053  1.5050 -0.9984
 2186SOL     OW18190   3.726   0.696  14.071 -0.0638  0.6290  0.1054
 2186SOL    HW118191   3.809   0.741  14.056  0.8091 -0.1621  2.5740
 2186SOL    HW218192   3.666   0.737  14.009  0.5512  2.7884  0.9411
 2187SOL     OW18193   0.948   2.766  17.604  0.1825  0.1619 -0.0525
 2187SOL    HW118194   0.864   2.811  17.606 -0.1085 -0.2377 -3.1629
 2187SOL    HW218195   0.941   2.721  17.519 -0.0911  3.4545 -1.7771
 2188SOL     OW18196   2.697   4.729  15.390  0.1120 -0.1613 -0.3095
 2188SOL    HW118197   2.672   4.645  15.350 -0.6508 -1.0719  2.1050
 2188SOL    HW218198   2.625   0.052  15.362 -1.0703 -1.4980  0.0516
 2189SOL     OW18199   0.635   2.565  12.600 -0.3235  0.0616 -0.0325
 2189SOL    HW118200   0.545   2.533  12.606 -0.2360  0.1411  1.8308
 2189SOL    HW218201   0.664   2.479  12.571 -1.3679 -0.2572 -0.1220
 2190SOL     OW18202   3.353   2.803  14.037  0.0855 -0.2479  0.0440
 2190SOL    HW118203   3.358   2.709  14.017  0.0964 -0.7209  2.2800
 2190SOL    HW218204   3.431   2.809  14.091 -1.0506 -0.6811  1.7342
 2191SOL     OW18205   1.454   3.172   4.955  0.1771  0.1184  0.5103
 2191SOL    HW118206   1.499   3.215   5.028 -0.0228 -0.0815  0.7486
 2191SOL    HW218207   1.433   3.087   4.994 -0.0335  0.1104  0.3748
 2192SOL     OW18208   4.156   3.021  11.881  0.2657 -0.0089 -0.0518
 2192SOL    HW118209   4.246   3.049  11.899  0.3614  1.5966 -3.0237
 2192SOL    HW218210   4.113   3.106  11.892 -0.8819 -0.7257  1.0567
 2193SOL     OW18211   2.196   2.418   8.430 -0.7057  0.1538 -0.2882
 2193SOL    HW118212   2.267   2.371   8.474  1.4557  3.1720 -0.5967
 2193SOL    HW218213   2.148   2.452   8.505 -2.3589 -2.3139 -0.2065
 2194SOL     OW18214   4.327   1.249   8.158  0.1532  0.8834 -0.9118
 2194SOL    HW118215   4.403   1.214   8.205  0.2827  3.2149  0.6182
 2194SOL    HW218216   4.257   1.202   8.203  1.3383 -2.7877 -2.9677
 2195SOL     OW18217   1.648   3.648   1.544 -0.0266 -0.3096 -0.0180
 2195SOL    HW118218   1.729   3.622   1.588  0.9295 -0.6369 -1.9853
 2195SOL    HW218219   1.577   3.650   1.608 -0.7578 -0.9759 -0.8095
 2196SOL     OW18220   1.535   3.009  14.602  0.0843 -0.2294 -0.4179
 2196SOL    HW118221   1.570   2.929  14.563  0.7624  0.1969 -0.6857
 2196SOL    HW218222   1.619   3.048  14.624 -1.2607  1.5888  1.4537
 2197SOL     OW18223   3.469   0.040  17.016 -0.0707 -0.0663  0.0471
 2197SOL    HW118224   3.390   0.014  17.063 -0.1721 -2.2889 -1.3946
 2197SOL    HW218225   3.489   4.716  16.943  0.5162  0.2257 -0.0175
 2198SOL     OW18226   4.400   0.741   8.191  0.5055 -0.4265  0.0468
 2198SOL    HW118227   4.477   0.723   8.245  0.5579 -1.1149 -0.2549
 2198SOL    HW218228   4.347   0.665   8.216  1.2949 -0.1480  2.6285
 2199SOL     OW18229   1.986   1.228   5.281 -0.3330  0.0499 -0.2074
 2199SOL    HW118230   1.999   1.165   5.210 -1.1641 -3.1007  2.3990
 2199SOL    HW218231   2.074   1.231   5.317 -0.2682  0.0582 -0.3658
 2200SOL     OW18232   3.706   0.837   1.656  0.4965  0.3501 -0.2789
 2200SOL    HW118233   3.714   0.741   1.658 -1.1228  0.2008 -0.8656
 2200SOL    HW218234   3.686   0.851   1.749 -0.1230 -0.1998 -0.3271
 2201SOL     OW18235   2.456   3.533   8.804 -0.3173  0.2549  0.0772
 2201SOL    HW118236   2.443   3.439   8.793  1.7162  0.1902 -1.6556
 2201SOL    HW218237   2.363   3.555   8.811 -1.1160 -2.9702 -0.5699
 2202SOL     OW18238   3.364   0.548   6.080  0.3256 -0.6093 -0.2836
 2202SOL    HW118239   3.381   0.473   6.023 -0.1252  0.2910 -1.5911
 2202SOL    HW218240   3.271   0.532   6.096  0.7655 -0.6146  2.3747
 2203SOL     OW18241   2.988   0.536   2.151 -0.3215  1.0061  0.2019
 2203SOL    HW118242   2.982   0.610   2.212 -0.6529  1.7856 -0.7748
 2203SOL    HW218243   2.951   0.578   2.073 -1.7843  0.3587  0.5480
 2204SOL     OW18244   3.804   4.256  15.607  0.9368  0.5040 -0.4028
 2204SOL    HW118245   3.884   4.248  15.555  3.3585 -2.1984  3.7132
 2204SOL    HW218246   3.769   4.167  15.608 -0.0429  0.8801 -1.6344
 2205SOL     OW18247   4.436   3.957  15.405 -0.0176  0.0451  0.4243
 2205SOL    HW118248   4.472   4.022  15.345  2.9047 -0.3296  1.7622
 2205SOL    HW218249   4.520   3.911  15.412  0.6208  1.2042  0.4833
 2206SOL     OW18250   2.131   2.672   7.895  0.0608 -0.3572  0.0862
 2206SOL    HW118251   2.099   2.756   7.864  0.6218  0.1619  0.8986
 2206SOL    HW218252   2.217   2.692   7.933  0.1508 -1.0144  0.2335
 2207SOL     OW18253   3.284   1.992  17.284 -0.0109 -0.2953 -0.2241
 2207SOL    HW118254   3.258   1.952  17.367 -1.0382 -1.2677 -1.0231
 2207SOL    HW218255   3.376   1.999  17.309  0.4674 -3.3233 -1.1715
 2208SOL     OW18256   3.622   2.902   4.674 -0.1888  0.0717 -0.4366
 2208SOL    HW118257   3.590   2.984   4.638  2.3378  0.8006 -0.9705
 2208SOL    HW218258   3.539   2.854   4.681  1.4474 -2.6467  0.6639
 2209SOL     OW18259   0.219   3.115   1.228  0.1704 -0.2917 -0.3172
 2209SOL    HW118260   0.154   3.093   1.295  0.5014  0.9219  0.4023
 2209SOL    HW218261   0.205   3.209   1.220  1.6543 -0.0757 -0.2528
 2210SOL     OW18262   1.863   0.802   5.518  0.1033 -0.5499 -0.6352
 2210SOL    HW118263   1.820   0.784   5.602  1.6249  1.0523  0.4841
 2210SOL    HW218264   1.808   0.749   5.459 -1.7643  0.4033  0.2296
 2211SOL     OW18265   0.649   4.200   5.472  0.2047  0.5618 -0.1778
 2211SOL    HW118266   0.590   4.131   5.502  1.0724  0.1721  0.6348
 2211SOL    HW218267   0.610   4.276   5.515  1.4880  1.3265 -0.3687
 2212SOL     OW18268   3.038   2.076   4.023 -0.1861 -0.4749  0.3351
 2212SOL    HW118269   2.945   2.071   3.999 -0.4828 -1.8836  1.8050
 2212SOL    HW218270   3.037   2.086   4.118  0.6734  1.6350  0.1158
 2213SOL     OW18271   0.690   2.613   6.603 -0.0172  0.2519  0.0415
 2213SOL    HW118272   0.604   2.648   6.580  1.1445  4.1488  1.4894
 2213SOL    HW218273   0.753   2.673   6.562 -1.4648  1.1350 -0.8852
 2214SOL     OW18274   0.126   3.518   5.057  0.0172 -0.7629  0.2445
 2214SOL    HW118275   0.221   3.525   5.056  0.1157 -1.8624  1.7667
 2214SOL    HW218276   0.105   3.585   4.992  1.5351 -0.9874 -0.4672
 2215SOL     OW18277   4.244   4.698   6.702  0.1035  0.4102  0.2142
 2215SOL    HW118278   4.162   4.729   6.662  0.0840  0.8682  0.6117
 2215SOL    HW218279   4.289   4.710   6.619  1.7481 -2.2807  0.7247
 2216SOL     OW18280   2.012   2.353   5.040 -0.4197 -0.4948 -0.4850
 2216SOL    HW118281   2.037   2.297   4.966 -0.2747  0.8880 -1.4708
 2216SOL    HW218282   2.071   2.424   5.014 -3.1973  1.5952 -0.9803
 2217SOL     OW18283   3.114   0.251   7.569  0.2219 -0.2518  0.0574
 2217SOL    HW118284   3.092   0.339   7.540  1.8106  0.4021  0.8909
 2217SOL    HW218285   3.089   0.252   7.661  1.1777 -1.3108  0.3259
 2218SOL     OW18286   2.163   4.311   5.193 -0.2048 -0.1233  0.1157
 2218SOL    HW118287   2.069   4.295   5.202  0.1868 -0.3203  4.0315
 2218SOL    HW218288   2.176   4.333   5.285 -2.2647 -0.3113  0.4420
 2219SOL     OW18289   1.736   2.692   2.297  0.1722  0.0810  0.7260
 2219SOL    HW118290   1.831   2.700   2.306 -0.0508  1.2854  1.9492
 2219SOL    HW218291   1.715   2.779   2.330  0.6831  0.2091  0.7058
 2220SOL     OW18292   0.828   1.545   2.455  0.4377  0.4861  0.0027
 2220SOL    HW118293   0.762   1.614   2.465  1.5378  1.6937 -1.1423
 2220SOL    HW218294   0.797   1.493   2.530 -1.2001  3.2234  1.2301
 2221SOL     OW18295   0.929   3.208   7.200  0.0966 -0.4977  0.1483
 2221SOL    HW118296   0.845   3.216   7.154  0.6008  0.3787 -0.6094
 2221SOL    HW218297   0.906   3.208   7.293  1.1187 -1.6924  0.4073
 2222SOL     OW18298   1.354   0.661  13.932  0.6518 -0.1087  0.1699
 2222SOL    HW118299   1.417   0.682  14.001 -0.4710 -0.3032  1.2596
 2222SOL    HW218300   1.290   0.609  13.982  1.2560  0.3460  1.4270
 2223SOL     OW18301   0.080   4.649  10.199  0.1490 -0.0567  0.7856
 2223SOL    HW118302   0.148   4.698  10.152  1.2542 -0.6960  1.7028
 2223SOL    HW218303   0.023   4.713  10.242 -0.2339 -1.7207  2.7410
 2224SOL     OW18304   4.121   2.769  13.123  0.1367  0.4562 -0.3159
 2224SOL    HW118305   4.186   2.700  13.109  0.4061  0.3758  1.3232
 2224SOL    HW218306   4.062   2.745  13.052 -2.0169  2.4882  0.7968
 2225SOL     OW18307   0.859   1.717   6.541 -0.2947  0.4501  0.4444
 2225SOL    HW118308   0.768   1.723   6.568  0.1634  2.0839  1.6593
 2225SOL    HW218309   0.854   1.758   6.455 -0.8191  0.0672  0.2966
 2226SOL     OW18310   1.805   4.732  13.454 -0.1665 -0.6632  0.9394
 2226SOL    HW118311   1.769   4.727  13.542  0.1804 -0.6377  1.0835
 2226SOL    HW218312   1.881   0.054  13.475 -1.0916  0.6165  0.9128
 2227SOL     OW18313   4.548   3.233   2.913  0.1329 -0.9031  0.1091
 2227SOL    HW118314   4.518   3.146   2.938  0.3124 -0.6404  1.2395
 2227SOL    HW218315   4.622   3.215   2.855  0.4515 -1.5895  0.7379
 2228SOL     OW18316   4.522   1.675   9.330 -0.0602 -0.1838  0.0934
 2228SOL    HW118317   4.511   1.668   9.235  0.1693  3.2857 -0.1771
 2228SOL    HW218318   4.585   1.605   9.347 -0.3041  0.0871  2.0597
 2229SOL     OW18319   1.928   1.238  12.560  0.5289 -0.1021  0.3001
 2229SOL    HW118320   1.993   1.255  12.628 -0.8180  0.4678  1.4509
 2229SOL    HW218321   1.978   1.192  12.493 -0.0136 -2.0204  1.2031
 2230SOL     OW18322   3.512   4.715   4.256 -0.2070 -0.1890 -0.7566
 2230SOL    HW118323   3.429   4.709   4.209  1.0186 -0.5162 -2.8598
 2230SOL    HW218324   3.559   0.044   4.201  1.0721 -0.4305  0.0607
 2231SOL     OW18325   4.420   0.140  12.857  0.1378  0.5071 -0.3125
 2231SOL    HW118326   4.326   0.149  12.840  0.0516  2.1209  0.9705
 2231SOL    HW218327   4.450   0.051  12.839  1.9146  1.0984 -0.2262
 2232SOL     OW18328   1.397   3.796   6.836 -0.1664  0.1460  0.1908
 2232SOL    HW118329   1.409   3.840   6.920 -2.9467  0.5284  0.3774
 2232SOL    HW218330   1.448   3.846   6.773  1.3254  1.7118  2.6505
 2233SOL     OW18331   0.686   3.205   3.915 -0.2185  0.4756  0.4983
 2233SOL    HW118332   0.614   3.145   3.897 -1.2501  1.9887 -0.3900
 2233SOL    HW218333   0.767   3.155   3.924 -0.3371  0.3246  0.7279
 2234SOL     OW18334   3.528   1.755   8.159 -0.3924  0.1285  0.2208
 2234SOL    HW118335   3.530   1.772   8.253 -2.8946 -0.9512  0.4639
 2234SOL    HW218336   3.490   1.838   8.131  1.7854  0.4404 -1.8395
 2235SOL     OW18337   0.787   0.391   5.515  0.0324  0.0521  0.1596
 2235SOL    HW118338   0.754   0.342   5.591 -0.4190  0.5850  0.3113
 2235SOL    HW218339   0.705   0.426   5.483  0.0220  0.2761  0.4329
 2236SOL     OW18340   3.571   2.346   6.343 -0.2366 -0.4223 -0.2600
 2236SOL    HW118341   3.594   2.256   6.363  0.0828  0.0546  1.5341
 2236SOL    HW218342   3.652   2.391   6.320 -1.0850  0.0028 -2.3685
 2237SOL     OW18343   4.235   4.164   9.824  0.3906  0.5725 -0.7086
 2237SOL    HW118344   4.246   4.109   9.901 -0.6535 -0.2710 -1.1586
 2237SOL    HW218345   4.198   4.242   9.864  0.3015 -0.3036  0.9111
 2238SOL     OW18346   2.678   1.956   2.247  0.0863  0.1560  0.0776
 2238SOL    HW118347   2.656   1.955   2.154  1.3922 -1.1180 -0.2257
 2238SOL    HW218348   2.593   1.932   2.284  0.5244  0.6478  1.4336
 2239SOL     OW18349   1.060   2.813   1.199 -0.2267  0.2439  0.6702
 2239SOL    HW118350   1.098   2.898   1.180 -0.0125 -0.1651 -0.7152
 2239SOL    HW218351   1.064   2.776   1.111 -0.8549 -0.4812  0.9385
 2240SOL     OW18352   1.921   0.130   8.680  0.2509 -0.1942  0.1372
 2240SOL    HW118353   1.865   0.167   8.748 -0.1969 -2.0016  0.7492
 2240SOL    HW218354   2.003   0.171   8.708  0.0064 -0.0145  0.5855
 2241SOL     OW18355   1.967   2.149   6.367  0.3628 -0.4540 -0.3203
 2241SOL    HW118356   1.984   2.065   6.409  2.2174  1.3911  2.5653
 2241SOL    HW218357   1.929   2.113   6.287  1.1639 -0.0430 -0.8814
 2242SOL     OW18358   0.327   0.555   1.513 -0.0017  0.6763 -0.6315
 2242SOL    HW118359   0.391   0.575   1.581 -1.4132  3.0021  0.0365
 2242SOL    HW218360   0.370   0.603   1.443 -1.6431  2.3258 -0.5194
 2243SOL     OW18361   3.045   2.660   2.511  0.2065 -0.3931 -0.1560
 2243SOL    HW118362   3.121   2.604   2.529  0.2037 -0.5289 -0.5583
 2243SOL    HW218363   2.974   2.601   2.485  0.3816 -1.0834  0.9357
 2244SOL     OW18364   3.272   2.394   9.738 -0.7101  0.2064 -0.0465
 2244SOL    HW118365   3.327   2.472   9.738 -0.5985  0.1224  2.5876
 2244SOL    HW218366   3.272   2.377   9.832  0.6011 -1.3587 -0.3206
 2245SOL     OW18367   4.503   4.660  12.551 -0.3992 -0.7788  0.0141
 2245SOL    HW118368   4.539   0.011  12.523  1.0579 -1.6695 -0.7785
 2245SOL    HW218369   4.546   4.607  12.484 -0.4306 -1.6113  0.6507
 2246SOL     OW18370   2.118   0.851   9.251  0.5319 -0.7117 -0.5020
 2246SOL    HW118371   2.211   0.836   9.269 -0.0239 -1.0873  2.1098
 2246SOL    HW218372   2.107   0.792   9.177 -0.2328 -0.0157 -0.9417
 2247SOL     OW18373   2.175   2.763   7.555  0.7214  0.1889 -0.4306
 2247SOL    HW118374   2.226   2.843   7.544 -1.5850  1.8355  0.9911
 2247SOL    HW218375   2.197   2.740   7.645 -0.4746  2.3958  0.4104
 2248SOL     OW18376   4.671   0.891   7.659 -0.4166  0.2438 -0.3068
 2248SOL    HW118377   4.633   0.832   7.594 -1.3526 -1.2873  1.6118
 2248SOL    HW218378   4.657   0.979   7.626 -1.3587  0.0501 -0.4246
 2249SOL     OW18379   0.049   3.140   4.456 -0.4353  0.0389  0.2502
 2249SOL    HW118380   0.019   3.102   4.539  0.4949 -0.0753  0.5289
 2249SOL    HW218381   4.710   3.199   4.432 -0.7280  0.1967  1.5090
 2250SOL     OW18382   0.878   2.206   0.352  0.3823  0.3830  0.2709
 2250SOL    HW118383   0.918   2.208   0.266 -0.7052  1.0617 -0.2184
 2250SOL    HW218384   0.796   2.173   0.315  0.0824  1.5422 -0.0848
 2251SOL     OW18385   3.739   0.522   9.691 -0.2030 -0.2078  0.1934
 2251SOL    HW118386   3.776   0.516   9.779 -0.7020  0.4974  0.4466
 2251SOL    HW218387   3.742   0.617   9.682 -0.8543 -0.2631 -0.6258
 2252SOL     OW18388   3.270   0.307   9.546 -0.1864 -0.1011 -0.4596
 2252SOL    HW118389   3.330   0.233   9.551 -0.5015 -0.3492 -0.3857
 2252SOL    HW218390   3.255   0.321   9.640  0.8700  2.4629 -0.6472
 2253SOL     OW18391   2.795   1.776   2.819 -0.3435 -0.1959 -0.2535
 2253SOL    HW118392   2.850   1.715   2.770  0.0696  0.4342 -0.5843
 2253SOL    HW218393   2.867   1.838   2.834 -0.6108 -0.0785  0.5077
 2254SOL     OW18394   0.414   3.383   8.119  0.6922 -0.2769  0.0648
 2254SOL    HW118395   0.408   3.330   8.040 -1.4874  0.0234  0.0324
 2254SOL    HW218396   0.409   3.470   8.080 -0.3079 -0.3665 -0.0028
 2255SOL     OW18397   4.273   4.228   6.018  0.2126 -0.3727 -0.1756
 2255SOL    HW118398   4.250   4.198   6.106  1.5452 -1.4716 -0.2099
 2255SOL    HW218399   4.222   4.176   5.955 -1.7524  1.6696 -0.2691
 2256SOL     OW18400   2.313   3.811   6.182 -0.9488  0.3127 -0.0680
 2256SOL    HW118401   2.301   3.899   6.218  0.0897  0.9027 -1.1674
 2256SOL    HW218402   2.236   3.766   6.216 -0.3096 -0.1779  0.7304
 2257SOL     OW18403   4.465   0.084  15.593 -0.3962 -0.1490 -0.1412
 2257SOL    HW118404   4.439   0.174  15.615 -1.4923 -0.9680  1.8672
 2257SOL    HW218405   4.415   0.075  15.512 -0.3162  2.3188 -0.4814
 2258SOL     OW18406   0.749   0.388   8.242  0.5322  0.0015  0.1988
 2258SOL    HW118407   0.792   0.400   8.327 -0.4761 -0.2509  0.7380
 2258SOL    HW218408   0.724   0.478   8.223  0.7088  0.3925  1.8455
 2259SOL     OW18409   0.503   4.060   4.379 -0.2537 -0.0910  0.3021
 2259SOL    HW118410   0.432   4.080   4.318  1.4128  0.6068 -1.4060
 2259SOL    HW218411   0.456   4.036   4.459  1.2125  0.3632  1.3028
 2260SOL     OW18412   2.674   0.440   5.361  0.6251  0.1913 -0.9649
 2260SOL    HW118413   2.755   0.462   5.406 -0.5350 -2.0458  2.2390
 2260SOL    HW218414   2.623   0.394   5.428  2.4059 -2.7633 -1.6551
 2261SOL     OW18415   4.648   0.955   4.664  0.1369 -0.1424  0.2956
 2261SOL    HW118416   4.732   0.937   4.622 -0.2462 -0.1493 -0.4738
 2261SOL    HW218417   4.611   1.008   4.593  0.1418 -0.7605 -0.1607
 2262SOL     OW18418   0.815   0.831   9.875 -0.5039 -0.5376 -0.2166
 2262SOL    HW118419   0.862   0.783   9.943  1.2141  2.4323  0.7022
 2262SOL    HW218420   0.870   0.809   9.799  0.0978  0.6499 -0.1375
 2263SOL     OW18421   2.649   2.369  10.647 -0.3994 -0.0355 -0.0633
 2263SOL    HW118422   2.645   2.406  10.735  0.3424  1.0394 -0.4711
 2263SOL    HW218423   2.666   2.278  10.669 -0.6689  0.2387  1.2822
 2264SOL     OW18424   4.459   3.554   2.785  0.2975  0.7377  0.2789
 2264SOL    HW118425   4.399   3.497   2.736  0.0444  0.6737  0.6661
 2264SOL    HW218426   4.420   3.549   2.872 -0.9830 -0.3765 -0.3609
 2265SOL     OW18427   0.890   0.429   5.798 -0.3288 -0.1555 -0.3483
 2265SOL    HW118428   0.839   0.348   5.799  1.8494 -1.5164  1.3234
 2265SOL    HW218429   0.976   0.390   5.808 -0.2981  0.3167  1.3459
 2266SOL     OW18430   2.114   0.371   2.080 -0.6039  0.3807  0.2380
 2266SOL    HW118431   2.065   0.343   2.003  2.8849 -0.1790 -1.8007
 2266SOL    HW218432   2.202   0.336   2.065 -0.4717  0.4503  0.8536
 2267SOL     OW18433   4.658   0.430  11.512 -0.3347 -0.3154  0.2731
 2267SOL    HW118434   4.656   0.469  11.424  0.7138  1.4249  1.0220
 2267SOL    HW218435   4.690   0.342  11.490 -0.2939  0.1411 -1.5574
 2268SOL     OW18436   4.304   4.090   8.735  0.4867 -0.0607 -0.8518
 2268SOL    HW118437   4.309   4.152   8.808 -1.1836 -1.2185  0.2680
 2268SOL    HW218438   4.395   4.062   8.725  0.6912  0.3154 -0.0548
 2269SOL     OW18439   0.557   0.670   1.685  0.5488  0.7299 -0.3060
 2269SOL    HW118440   0.600   0.744   1.642  1.5197 -0.4423 -1.3296
 2269SOL    HW218441   0.603   0.678   1.769 -0.6185 -0.0294  0.4008
 2270SOL     OW18442   4.657   4.366   1.319 -0.1846  0.5068  0.6044
 2270SOL    HW118443   4.583   4.388   1.262 -0.2754  0.9445  0.8932
 2270SOL    HW218444   4.637   4.409   1.403 -0.8176  3.9537 -1.3314
 2271SOL     OW18445   0.366   1.072   5.430 -0.0407 -0.2278 -0.1104
 2271SOL    HW118446   0.386   1.006   5.496 -0.6148  0.8043  1.0992
 2271SOL    HW218447   0.436   1.059   5.365  0.1509 -0.0101  0.0547
 2272SOL     OW18448   3.026   1.611   7.155  0.2196  0.0743 -0.0722
 2272SOL    HW118449   2.948   1.570   7.192  0.5983  0.3051  0.9604
 2272SOL    HW218450   3.086   1.536   7.154 -1.6870 -1.4542  0.7296
 2273SOL     OW18451   0.873   1.394  13.293  0.1456  0.6453  0.1438
 2273SOL    HW118452   0.835   1.478  13.319 -1.9877  0.2886 -1.8793
 2273SOL    HW218453   0.862   1.344  13.374  1.2625  0.4679  0.1887
 2274SOL     OW18454   1.809   2.613  10.617  0.1951  0.1667  0.4495
 2274SOL    HW118455   1.900   2.625  10.646  0.7972 -1.6994 -0.6923
 2274SOL    HW218456   1.805   2.679  10.548 -2.0996 -0.3230  0.1366
 2275SOL     OW18457   1.620   3.150  12.564  0.3256 -0.0012 -0.0548
 2275SOL    HW118458   1.617   3.063  12.603 -0.2845 -0.1013 -0.3098
 2275SOL    HW218459   1.613   3.136  12.469  0.8659  0.0665 -0.1013
 2276SOL     OW18460   3.874   3.285   7.878  0.3418 -0.0508 -0.0376
 2276SOL    HW118461   3.806   3.253   7.819 -0.8043  2.3618 -0.0544
 2276SOL    HW218462   3.888   3.202   7.924 -1.2441  0.3362  1.1306
 2277SOL     OW18463   0.822   4.001   7.457 -0.0827 -0.0297 -0.1032
 2277SOL    HW118464   0.837   3.909   7.481  0.0041  0.3604  1.3174
 2277SOL    HW218465   0.910   4.028   7.432 -0.2579  0.2920 -0.3746
 2278SOL     OW18466   1.613   3.839  13.327 -0.4957  0.5353  0.1381
 2278SOL    HW118467   1.680   3.831  13.259  0.3968  1.4804  0.9205
 2278SOL    HW218468   1.577   3.922  13.295 -0.5874  1.0014  1.4632
 2279SOL     OW18469   1.655   1.739  13.120 -0.0513  0.0451  0.0027
 2279SOL    HW118470   1.603   1.736  13.201 -3.6409  3.2490 -2.2223
 2279SOL    HW218471   1.594   1.780  13.060 -0.5385  0.7457  0.9677
 2280SOL     OW18472   0.263   4.108   4.223  0.0521  0.5497  0.3385
 2280SOL    HW118473   0.226   4.030   4.265  0.8808 -1.2504 -2.2595
 2280SOL    HW218474   0.196   4.110   4.155  2.5658  0.2519 -2.1760
 2281SOL     OW18475   4.672   0.346   6.632  0.3879 -0.5485  0.0772
 2281SOL    HW118476   4.711   0.320   6.716  2.6518  1.5520 -0.3242
 2281SOL    HW218477   0.011   0.393   6.590 -0.5878  1.8896  1.0769
 2282SOL     OW18478   2.682   1.542  12.324 -0.4332  0.2134  0.4226
 2282SOL    HW118479   2.641   1.598  12.390  0.1001 -1.3119  2.0500
 2282SOL    HW218480   2.710   1.474  12.386  0.8955  0.5372  0.1650
 2283SOL     OW18481   3.304   3.756  13.412 -0.2130 -0.8265 -0.3964
 2283SOL    HW118482   3.277   3.805  13.490  1.7349  0.3592 -0.4592
 2283SOL    HW218483   3.263   3.814  13.348 -2.3732  2.8379  4.2663
 2284SOL     OW18484   0.579   0.841  16.564 -0.4312  0.7148  0.4700
 2284SOL    HW118485   0.651   0.893  16.528  0.5993 -2.8832 -2.7274
 2284SOL    HW218486   0.632   0.765  16.591 -3.7074 -2.6051 -2.5735
 2285SOL     OW18487   4.593   1.143   7.230 -0.5709 -0.5972 -0.0154
 2285SOL    HW118488   4.527   1.077   7.208 -1.5907  0.1871  0.6862
 2285SOL    HW218489   4.635   1.140   7.144  0.1457 -0.7989  0.3478
 2286SOL     OW18490   3.757   4.459   3.367  0.3261  0.2359  0.1047
 2286SOL    HW118491   3.749   4.432   3.275 -1.1674  1.2277 -0.0713
 2286SOL    HW218492   3.846   4.429   3.385  0.6647  1.7695  0.9405
 2287SOL     OW18493   3.606   1.300   4.673  0.1206 -0.3454 -0.2602
 2287SOL    HW118494   3.690   1.256   4.667 -0.7411 -2.2830  1.9670
 2287SOL    HW218495   3.608   1.358   4.596  4.5608  0.0666  0.2037
 2288SOL     OW18496   3.415   3.951   5.227  0.6117 -0.6356  0.4516
 2288SOL    HW118497   3.392   4.044   5.231 -1.4877 -1.1705  0.9129
 2288SOL    HW218498   3.360   3.914   5.158 -0.2067 -0.5887  1.0861
 2289SOL     OW18499   3.708   3.603   7.945  0.2085  0.1282 -0.5715
 2289SOL    HW118500   3.636   3.546   7.918 -2.5404  3.1446  0.4071
 2289SOL    HW218501   3.715   3.581   8.038  1.7305  1.5963 -0.3571
 2290SOL     OW18502   2.741   3.812  13.022  0.7322  0.0498 -0.8308
 2290SOL    HW118503   2.768   3.827  12.932  2.9340  1.6030  0.0975
 2290SOL    HW218504   2.661   3.769  12.992 -1.2147  2.0500  1.3569
 2291SOL     OW18505   2.964   3.037   0.717 -0.0108  0.1007  0.0600
 2291SOL    HW118506   2.965   3.026   0.812  0.2448 -0.5585 -0.0204
 2291SOL    HW218507   2.986   3.130   0.724  1.5698 -0.3309  0.8644
 2292SOL     OW18508   0.343   3.288   4.071 -0.3391  0.4679 -0.4183
 2292SOL    HW118509   0.317   3.196   4.075  0.7920  0.2196  1.1390
 2292SOL    HW218510   0.322   3.303   3.978  3.5583  0.7365 -1.2746
 2293SOL     OW18511   1.569   4.381   4.159  0.1305  0.0560 -0.6757
 2293SOL    HW118512   1.593   4.462   4.114 -0.2168 -0.0174 -0.9955
 2293SOL    HW218513   1.589   4.400   4.250 -0.1740  0.6633 -0.7360
 2294SOL     OW18514   1.339   4.321   2.566  0.1664  0.0989 -0.3652
 2294SOL    HW118515   1.377   4.281   2.488 -0.2091 -0.1750 -0.4048
 2294SOL    HW218516   1.319   4.242   2.616  2.4322 -0.9991 -1.2082
 2295SOL     OW18517   3.252   0.521   2.906  0.2056  0.1321 -0.2094
 2295SOL    HW118518   3.290   0.594   2.955  0.2033  0.3727 -0.5698
 2295SOL    HW218519   3.188   0.484   2.967 -1.7661  1.0191 -1.7607
 2296SOL     OW18520   1.397   0.425  14.119  0.0926  0.1423  0.0091
 2296SOL    HW118521   1.427   0.479  14.192  1.3102  2.0495 -1.9046
 2296SOL    HW218522   1.337   0.372  14.171 -0.4035  0.1300 -0.5887
 2297SOL     OW18523   3.743   1.405   3.301 -0.0382 -0.2291 -0.2145
 2297SOL    HW118524   3.649   1.388   3.287  0.2579 -0.5151 -1.8509
 2297SOL    HW218525   3.736   1.500   3.299 -1.0799 -0.3224 -1.4144
 2298SOL     OW18526   4.378   0.197   2.520 -0.9914 -0.2755  0.0291
 2298SOL    HW118527   4.291   0.208   2.559 -0.8988  0.9459 -0.1068
 2298SOL    HW218528   4.370   0.246   2.438  0.1958 -1.1793 -0.6395
 2299SOL     OW18529   2.390   2.016   3.452 -0.9296  0.2462  0.0318
 2299SOL    HW118530   2.480   2.003   3.480 -1.1823 -1.4638  0.0552
 2299SOL    HW218531   2.342   1.941   3.488  1.2954 -1.6136 -0.8092
 2300SOL     OW18532   3.423   3.281   2.889  0.4926 -0.2529 -0.3641
 2300SOL    HW118533   3.383   3.209   2.938  0.9951  0.0727  0.5140
 2300SOL    HW218534   3.514   3.279   2.916  0.2854 -0.1309  0.3567
 2301SOL     OW18535   1.894   0.587   7.191 -0.2944  0.1516 -0.0533
 2301SOL    HW118536   1.935   0.640   7.260  1.2654 -0.5267 -0.4572
 2301SOL    HW218537   1.963   0.608   7.128 -1.2521 -2.3280 -1.9447
 2302SOL     OW18538   1.280   3.568   3.217  0.1827  0.1527 -0.2586
 2302SOL    HW118539   1.201   3.613   3.246  0.9254 -0.2047  2.2564
 2302SOL    HW218540   1.275   3.493   3.275  0.9093 -0.7857 -1.3943
 2303SOL     OW18541   2.428   0.571   3.279  0.0468  0.3481  0.7859
 2303SOL    HW118542   2.389   0.494   3.238  0.8895  0.0404  0.5778
 2303SOL    HW218543   2.515   0.552   3.244 -0.2742 -1.3085  0.8845
 2304SOL     OW18544   0.039   2.817   1.371  0.0264 -0.1230  0.1924
 2304SOL    HW118545   0.091   2.871   1.431 -0.3760 -0.1454  0.5641
 2304SOL    HW218546   4.684   2.852   1.367  0.8326  1.9708  0.8466
 2305SOL     OW18547   2.045   0.067   5.256  0.3569 -0.0688 -0.8798
 2305SOL    HW118548   1.980   4.730   5.259 -1.1534  1.3415 -0.7546
 2305SOL    HW218549   1.987   0.135   5.290 -0.9484 -1.8928  0.5381
 2306SOL     OW18550   1.753   2.003   6.156 -0.3050 -0.6741 -0.5273
 2306SOL    HW118551   1.839   1.989   6.118  0.2197 -0.4210  0.5671
 2306SOL    HW218552   1.755   1.928   6.214  0.5206 -0.0377  0.2679
 2307SOL     OW18553   1.746   0.985   4.332  0.0236 -0.4141  0.2819
 2307SOL    HW118554   1.834   1.009   4.361 -0.2391 -1.4829  1.9398
 2307SOL    HW218555   1.752   0.896   4.297  0.2565 -0.0732 -0.5477
 2308SOL     OW18556   0.880   0.000   4.863  0.0536 -0.5160  0.6011
 2308SOL    HW118557   0.911   0.091   4.865 -1.9045  0.1669  0.0205
 2308SOL    HW218558   0.959   4.681   4.864  0.2214 -0.2235  3.2632
 2309SOL     OW18559   2.091   0.053   4.094  0.4155 -0.0594 -0.1207
 2309SOL    HW118560   2.087   0.094   4.008  1.7453  1.1286  0.3920
 2309SOL    HW218561   2.129   4.702   4.068  1.3091 -0.0349  1.1012
 2310SOL     OW18562   3.353   1.686   3.451 -0.0039 -0.2273 -0.0277
 2310SOL    HW118563   3.323   1.768   3.413  1.0215 -0.2500 -0.8795
 2310SOL    HW218564   3.430   1.717   3.501  2.0129 -2.2358 -1.9003
 2311SOL     OW18565   2.819   1.502   5.847  0.5022 -0.2035  0.0756
 2311SOL    HW118566   2.750   1.566   5.864 -0.1439 -0.8741 -0.0216
 2311SOL    HW218567   2.830   1.466   5.935  0.6753 -0.0330  0.1229
 2312SOL     OW18568   1.216   2.956   6.710  0.7121 -0.3935  0.2946
 2312SOL    HW118569   1.213   3.000   6.795  2.3870 -1.8042  1.0929
 2312SOL    HW218570   1.130   2.974   6.672  1.0102 -1.4132 -0.8662
 2313SOL     OW18571   4.184   4.513   7.880 -0.1496  0.0272 -0.4238
 2313SOL    HW118572   4.189   4.443   7.945 -1.1549  1.3584  1.0893
 2313SOL    HW218573   4.129   4.581   7.920 -1.4092  0.1577 -2.3618
 2314SOL     OW18574   1.125   0.147  10.563 -0.4024  0.1282 -0.2653
 2314SOL    HW118575   1.219   0.146  10.583  0.0359  1.2811 -2.2836
 2314SOL    HW218576   1.103   0.213  10.629 -0.2358 -0.7498  0.6743
 2315SOL     OW18577   1.769   1.201  16.023  0.0186 -0.8505 -0.1421
 2315SOL    HW118578   1.752   1.295  16.011  0.8304 -0.8326 -1.2101
 2315SOL    HW218579   1.856   1.199  15.982  0.3622 -2.1637  0.6795
 2316SOL     OW18580   4.071   0.618   1.991 -0.1636 -0.3569 -0.2833
 2316SOL    HW118581   4.070   0.526   1.966  2.6135 -0.5193  0.2873
 2316SOL    HW218582   4.016   0.611   2.070 -0.9040  1.5391 -0.6328
 2317SOL     OW18583   1.190   2.636   8.175  0.3250 -0.3521 -0.2808
 2317SOL    HW118584   1.117   2.668   8.229  0.5853 -2.4815  1.3526
 2317SOL    HW218585   1.170   2.543   8.163 -0.2061  0.1565 -3.3724
 2318SOL     OW18586   3.602   0.911  11.514 -0.3526  0.1291  0.0593
 2318SOL    HW118587   3.544   0.948  11.448  2.5547  0.9567 -2.0604
 2318SOL    HW218588   3.676   0.897  11.454  1.9538 -0.1785  2.9441
 2319SOL     OW18589   3.521   1.257   4.937 -0.0148 -0.4748  0.3114
 2319SOL    HW118590   3.530   1.308   4.857  0.3339  0.1355  0.7359
 2319SOL    HW218591   3.563   1.316   5.000  0.5120  0.6822 -1.1169
 2320SOL     OW18592   0.580   3.289   4.794 -0.1142 -0.5826  0.1891
 2320SOL    HW118593   0.556   3.381   4.785 -0.1888 -0.4634  1.6570
 2320SOL    HW218594   0.504   3.244   4.756 -0.5977 -0.4892  1.0494
 2321SOL     OW18595   2.502   0.419   6.058 -0.3061  0.3414 -0.0198
 2321SOL    HW118596   2.550   0.338   6.049  0.3343  0.7132  0.0551
 2321SOL    HW218597   2.515   0.462   5.974 -0.5628  2.4307  0.9967
 2322SOL     OW18598   2.896   4.235   8.340  0.0588  0.4042 -0.1519
 2322SOL    HW118599   2.915   4.237   8.434 -1.2068 -1.9043  0.1564
 2322SOL    HW218600   2.899   4.329   8.320  1.7235  0.1002 -1.3694
 2323SOL     OW18601   3.371   0.200   2.851  0.2033  0.1647 -0.0050
 2323SOL    HW118602   3.381   0.292   2.826  0.1351 -0.1624 -1.2378
 2323SOL    HW218603   3.369   0.219   2.945  1.5416  1.3893 -0.2193
 2324SOL     OW18604   3.419   2.714   3.208 -0.0546  0.5124 -0.0378
 2324SOL    HW118605   3.401   2.772   3.282 -0.1137  0.1646  0.2185
 2324SOL    HW218606   3.338   2.663   3.200  0.4186 -0.0512 -1.3538
 2325SOL     OW18607   3.675   3.196   3.475  0.3410 -0.0123  0.5330
 2325SOL    HW118608   3.652   3.193   3.567  0.3662  0.3035  0.5492
 2325SOL    HW218609   3.698   3.288   3.461  2.0943 -0.8282 -2.1827
 2326SOL     OW18610   0.414   2.358   6.212 -0.3006 -0.2666 -0.1751
 2326SOL    HW118611   0.509   2.364   6.209 -0.3927  1.3640  0.4902
 2326SOL    HW218612   0.395   2.395   6.125  0.1800 -0.6804 -0.4542
 2327SOL     OW18613   0.028   1.760  13.275  0.0563 -0.1063  0.6836
 2327SOL    HW118614   0.022   1.843  13.226 -0.1057  0.1772  1.1771
 2327SOL    HW218615   4.731   1.787  13.362 -0.2909 -0.0850  0.5580
 2328SOL     OW18616   3.232   1.356  15.776  0.5531  0.5360  0.2512
 2328SOL    HW118617   3.166   1.366  15.707 -0.6068  0.2619  1.3194
 2328SOL    HW218618   3.183   1.300  15.836 -0.9567  0.6520 -0.8527
 2329SOL     OW18619   1.465   4.127   3.161  0.1888  0.0171  0.7045
 2329SOL    HW118620   1.420   4.110   3.244  0.0708 -1.9525  0.2293
 2329SOL    HW218621   1.436   4.052   3.109  0.8960 -0.1712  0.5948
 2330SOL     OW18622   4.182   2.416   5.585  0.2870  0.0079 -0.0823
 2330SOL    HW118623   4.174   2.324   5.562  0.8103 -0.1868  0.5353
 2330SOL    HW218624   4.273   2.438   5.567  0.4702  0.1112  0.9913
 2331SOL     OW18625   0.381   1.462   4.776  0.3501  0.3915  0.0144
 2331SOL    HW118626   0.442   1.476   4.703 -1.5720  1.2035 -1.4411
 2331SOL    HW218627   0.437   1.402   4.825  0.5580 -0.0813 -0.8004
 2332SOL     OW18628   1.082   0.992  11.155 -0.0455  0.2763  0.1475
 2332SOL    HW118629   1.085   0.959  11.244  0.1244 -0.8892 -0.2890
 2332SOL    HW218630   1.136   0.927  11.110 -0.7997 -0.0910 -0.2287
 2333SOL     OW18631   4.277   0.144  12.330 -0.2325 -0.0208 -0.3000
 2333SOL    HW118632   4.323   0.153  12.247  1.7160 -2.5496  0.4561
 2333SOL    HW218633   4.229   0.226  12.340 -1.1670 -0.7637  1.2668
 2334SOL     OW18634   0.562   2.000   8.724  0.9579  0.4374 -0.6148
 2334SOL    HW118635   0.571   2.029   8.814 -0.1392  0.8716 -0.6492
 2334SOL    HW218636   0.532   2.083   8.688 -3.2810 -1.4837 -1.4733
 2335SOL     OW18637   4.574   4.341   6.218  0.0074  0.4708 -0.3715
 2335SOL    HW118638   4.605   4.309   6.133 -0.1290 -1.0532  0.1606
 2335SOL    HW218639   4.595   4.270   6.278 -0.5528 -0.3513 -1.1434
 2336SOL     OW18640   4.217   0.973   1.568 -0.0397  0.2818 -0.6175
 2336SOL    HW118641   4.191   0.890   1.608  2.2993  0.1940  0.7320
 2336SOL    HW218642   4.186   1.044   1.624 -2.8872 -1.0985 -0.4559
 2337SOL     OW18643   0.075   2.350  11.223  0.7890 -0.1650 -0.4154
 2337SOL    HW118644   0.118   2.277  11.267 -0.0628 -0.9664 -0.9204
 2337SOL    HW218645   0.137   2.350  11.150  0.5413 -0.4960 -0.6258
 2338SOL     OW18646   3.869   2.315  16.015 -0.4578  0.4673  0.1621
 2338SOL    HW118647   3.906   2.401  15.996  0.1962  0.8687  3.2108
 2338SOL    HW218648   3.783   2.325  15.975  0.2750 -2.0332 -2.0558
 2339SOL     OW18649   2.196   3.687   7.173  0.4032  0.3329 -0.3493
 2339SOL    HW118650   2.283   3.652   7.155  0.4429  0.4263 -0.3408
 2339SOL    HW218651   2.144   3.641   7.107  1.4842  1.3302 -1.8932
 2340SOL     OW18652   2.188   3.454   6.751  0.3519 -0.3718 -0.0833
 2340SOL    HW118653   2.270   3.497   6.728 -0.2914  1.3198  0.7460
 2340SOL    HW218654   2.159   3.443   6.661  0.2281  1.2036 -0.2440
 2341SOL     OW18655   4.562   3.347   6.086 -0.1643 -0.2906 -0.1125
 2341SOL    HW118656   4.601   3.381   6.166  0.0962  2.0540 -1.2263
 2341SOL    HW218657   4.469   3.366   6.097 -0.3152 -0.9817 -0.1531
 2342SOL     OW18658   1.776   4.685   9.920  0.1629  0.2338 -0.6269
 2342SOL    HW118659   1.733   4.671   9.836 -2.5047  0.9083  0.6184
 2342SOL    HW218660   1.779   0.048   9.915  0.7497  0.2286 -0.3385
 2343SOL     OW18661   0.057   3.151   7.262  0.2728  0.2343 -0.2426
 2343SOL    HW118662   0.013   3.087   7.318 -4.0128  1.4368 -2.1968
 2343SOL    HW218663   0.022   3.231   7.301  0.1477 -0.2997  0.7354
 2344SOL     OW18664   2.488   1.209   3.685  0.4061 -0.7104 -0.1731
 2344SOL    HW118665   2.401   1.203   3.647 -0.7687  2.7822  2.0389
 2344SOL    HW218666   2.465   1.250   3.768  2.2225 -0.9488  0.4480
 2345SOL     OW18667   0.914   4.015  12.028 -0.0104  0.4156  0.4353
 2345SOL    HW118668   0.923   4.087  12.090 -1.3925  2.2114 -1.4731
 2345SOL    HW218669   0.990   3.963  12.055 -0.9619 -0.6908  1.0205
 2346SOL     OW18670   2.630   1.783   8.154 -0.2898 -0.4188 -0.2024
 2346SOL    HW118671   2.543   1.822   8.154 -0.2713 -0.4208 -2.1609
 2346SOL    HW218672   2.677   1.867   8.151  0.9242 -1.0991 -0.3967
 2347SOL     OW18673   0.062   3.355   8.255  0.3073 -0.1470  0.1675
 2347SOL    HW118674   4.729   3.335   8.189  0.3152  0.8998 -0.1557
 2347SOL    HW218675   0.129   3.293   8.225 -0.2630  0.0803 -1.5946
 2348SOL     OW18676   3.012   3.911   7.095  0.8751  0.1211  0.1202
 2348SOL    HW118677   2.930   3.955   7.118  1.3597  0.1286  1.8197
 2348SOL    HW218678   3.052   3.901   7.181  1.6660  3.0396  0.0776
 2349SOL     OW18679   4.675   1.856   5.790 -0.6963 -0.1427  0.4063
 2349SOL    HW118680   4.660   1.823   5.878 -0.9339 -0.6766  0.1695
 2349SOL    HW218681   4.605   1.812   5.741 -2.6690 -0.1905  3.2930
 2350SOL     OW18682   0.005   0.270   6.900 -0.3585 -0.2775  0.1577
 2350SOL    HW118683   0.043   0.278   6.988  1.0622  2.0810 -0.6773
 2350SOL    HW218684   4.655   0.229   6.922  0.4233 -0.7120  2.3698
 2351SOL     OW18685   3.584   2.255  14.701  0.0675 -0.2918  0.4293
 2351SOL    HW118686   3.604   2.198  14.775 -0.2936 -1.4777 -0.3854
 2351SOL    HW218687   3.606   2.346  14.722 -0.6037 -0.1877  0.6788
 2352SOL     OW18688   3.152   0.852   2.243  0.0413 -0.4544 -0.1383
 2352SOL    HW118689   3.212   0.924   2.261  0.7919 -1.1102 -0.0302
 2352SOL    HW218690   3.161   0.841   2.149  0.6289  0.2398 -0.1581
 2353SOL     OW18691   1.320   1.600   7.022 -0.2812  0.4625 -0.2102
 2353SOL    HW118692   1.371   1.662   6.969 -0.3222 -2.3137 -3.5045
 2353SOL    HW218693   1.384   1.545   7.066 -0.0545  1.0730  0.2304
 2354SOL     OW18694   0.367   3.968   6.053  0.0947 -0.1594 -0.3358
 2354SOL    HW118695   0.362   4.048   6.105  0.0418  0.5455 -1.4214
 2354SOL    HW218696   0.332   3.897   6.106  0.0375  0.7212  0.7855
 2355SOL     OW18697   3.701   1.654   2.223 -0.0176  0.2427 -0.6751
 2355SOL    HW118698   3.767   1.585   2.212 -0.6851 -0.4794 -0.2305
 2355SOL    HW218699   3.631   1.596   2.255 -0.2965  2.0706  2.0344
 2356SOL     OW18700   2.161   2.105   3.283  0.2695  0.2102 -0.5946
 2356SOL    HW118701   2.222   2.105   3.357 -0.0082  0.3224 -0.3655
 2356SOL    HW218702   2.178   2.022   3.238  0.6718  0.4553 -0.8917
 2357SOL     OW18703   0.231   4.154   5.284  0.7861  0.7684  1.1649
 2357SOL    HW118704   0.217   4.205   5.204 -1.9771  0.3011  1.3298
 2357SOL    HW218705   0.258   4.069   5.248 -1.3063 -0.5101  2.5966
 2358SOL     OW18706   2.290   0.351   3.189 -0.3864 -0.0686  0.6056
 2358SOL    HW118707   2.206   0.315   3.219 -0.2351 -2.1036 -1.4300
 2358SOL    HW218708   2.294   0.341   3.094  1.1172 -0.5200  0.7135
 2359SOL     OW18709   4.532   0.389  15.054 -0.5619  0.2272 -0.3337
 2359SOL    HW118710   4.572   0.445  15.120 -0.2156  0.1205 -0.4505
 2359SOL    HW218711   4.573   0.304  15.072 -0.2428  0.3559 -0.4462
 2360SOL     OW18712   1.227   1.125   4.751 -0.0516 -0.2013 -0.5300
 2360SOL    HW118713   1.233   1.066   4.676 -2.8093  0.2661 -1.1173
 2360SOL    HW218714   1.237   1.213   4.716 -0.3133  1.0160  2.5225
 2361SOL     OW18715   4.272   2.790   6.226 -0.2660  0.0192 -0.0330
 2361SOL    HW118716   4.322   2.854   6.276 -1.2851  1.9972 -1.5697
 2361SOL    HW218717   4.317   2.776   6.142  1.0777  1.1740  0.4882
 2362SOL     OW18718   3.440   2.720   5.588  0.0616 -0.6580  0.5221
 2362SOL    HW118719   3.429   2.815   5.599 -3.0143 -0.8083 -1.3233
 2362SOL    HW218720   3.467   2.692   5.675 -0.9295 -1.3006  0.6191
 2363SOL     OW18721   3.668   2.671   6.190  0.2940 -0.0355 -0.1936
 2363SOL    HW118722   3.721   2.732   6.138 -1.9527 -0.0411 -2.4790
 2363SOL    HW218723   3.735   2.608   6.218 -0.4777 -1.6950 -2.1412
 2364SOL     OW18724   1.066   3.365   9.752 -0.4238  0.2284  0.0347
 2364SOL    HW118725   1.153   3.355   9.791 -0.6956  2.9212  1.3433
 2364SOL    HW218726   1.077   3.350   9.659  0.5339 -3.4376  0.7351
 2365SOL     OW18727   0.141   4.321   1.599 -0.1009  0.0574  0.3092
 2365SOL    HW118728   0.047   4.331   1.617  0.3802  1.4119  2.0101
 2365SOL    HW218729   0.162   4.255   1.665 -0.0980  0.5328  0.7784
 2366SOL     OW18730   2.791   2.344  11.327  0.2720  1.0104  0.6349
 2366SOL    HW118731   2.781   2.295  11.409 -0.2220  1.5192  0.8838
 2366SOL    HW218732   2.863   2.300  11.281 -1.1715 -1.2616  0.4999
 2367SOL     OW18733   2.983   3.848   5.331 -0.5033 -0.5038 -0.2169
 2367SOL    HW118734   2.957   3.921   5.275  1.4678  0.4241  0.0591
 2367SOL    HW218735   3.014   3.781   5.270 -0.0389 -1.2558  0.8369
 2368SOL     OW18736   4.073   0.608   9.570  0.1815  0.1869 -0.3694
 2368SOL    HW118737   4.119   0.681   9.531  3.0366 -1.2995  0.2320
 2368SOL    HW218738   4.051   0.645   9.656  1.1478  1.2846 -0.5945
 2369SOL     OW18739   3.035   1.759   8.507  0.2622  0.7251  0.0649
 2369SOL    HW118740   3.022   1.681   8.561  1.6924  1.1365  0.9913
 2369SOL    HW218741   3.060   1.832   8.563  0.4011 -0.1673  1.1719
 2370SOL     OW18742   4.449   2.108  15.037  0.1208  0.5073 -0.6596
 2370SOL    HW118743   4.502   2.183  15.010  1.3848  0.1447  0.7794
 2370SOL    HW218744   4.366   2.132  14.995 -0.8818 -1.8897 -0.0614
 2371SOL     OW18745   0.345   4.132   3.553 -0.6845 -0.7502  0.1636
 2371SOL    HW118746   0.437   4.132   3.527 -1.0379  1.7708 -1.0836
 2371SOL    HW218747   0.351   4.143   3.648 -0.2424  1.1159 -0.0851
 2372SOL     OW18748   1.151   4.598  14.340 -0.3199  0.4521  0.3556
 2372SOL    HW118749   1.165   4.582  14.247 -0.1915  1.3758  0.2136
 2372SOL    HW218750   1.110   4.685  14.341 -1.2158  0.0233  0.7415
 2373SOL     OW18751   2.418   1.981   8.279 -0.6609  0.2201  0.5741
 2373SOL    HW118752   2.362   2.044   8.233 -1.5777 -1.2680 -0.3237
 2373SOL    HW218753   2.429   2.013   8.369  0.3175  0.7673  0.2536
 2374SOL     OW18754   1.417   4.463   6.874 -0.5876  0.1412  0.3582
 2374SOL    HW118755   1.466   4.461   6.956  0.2579 -2.8462 -0.2530
 2374SOL    HW218756   1.470   4.534   6.836  2.4186 -0.6151  3.1048
 2375SOL     OW18757   0.034   2.620   6.322 -0.2768  0.2081 -0.1215
 2375SOL    HW118758   4.692   2.658   6.277 -0.1976 -0.8821 -1.1557
 2375SOL    HW218759   0.107   2.681   6.309  0.8603 -1.1063  0.1542
 2376SOL     OW18760   3.106   1.082   1.941 -0.0329 -0.4744  0.4236
 2376SOL    HW118761   3.078   1.022   1.872  1.0701  1.4049 -1.6826
 2376SOL    HW218762   3.028   1.101   1.994  0.4406 -2.4451  1.7952
 2377SOL     OW18763   2.736   4.302   4.890 -0.5446  0.7457  0.3717
 2377SOL    HW118764   2.708   4.301   4.982 -1.2131  1.4310  0.1767
 2377SOL    HW218765   2.703   4.220   4.853 -1.6060 -0.0302  3.0467
 2378SOL     OW18766   2.681   2.077   6.750 -0.4925 -0.1039 -0.3395
 2378SOL    HW118767   2.771   2.077   6.782 -0.4057 -0.4245 -0.5793
 2378SOL    HW218768   2.688   2.115   6.663 -2.1611 -0.5219 -0.6545
 2379SOL     OW18769   2.168   4.691  13.748 -0.0828 -0.1842 -0.7445
 2379SOL    HW118770   2.090   4.727  13.705 -0.5406  0.8431  0.9443
 2379SOL    HW218771   2.178   0.011  13.827 -1.0289 -0.1092 -0.6694
 2380SOL     OW18772   0.240   2.331  16.039  0.3386  0.0843 -0.1470
 2380SOL    HW118773   0.286   2.323  15.956 -0.7663 -0.3679 -0.7160
 2380SOL    HW218774   0.271   2.419  16.059 -0.1057 -0.1007  1.3995
 2381SOL     OW18775   4.070   2.210   3.514  0.4660  0.1029 -0.0880
 2381SOL    HW118776   3.998   2.273   3.514 -0.2025 -0.6577 -0.1377
 2381SOL    HW218777   4.045   2.143   3.450 -1.0248 -0.5140  1.1299
 2382SOL     OW18778   3.559   0.621  12.606 -0.4302 -0.0479 -0.0771
 2382SOL    HW118779   3.645   0.660  12.590 -0.6026  0.4961  0.2976
 2382SOL    HW218780   3.534   0.565  12.532  3.0226  1.1074 -2.1092
 2383SOL     OW18781   3.168   3.051  11.563 -0.2893  0.2765 -0.0485
 2383SOL    HW118782   3.225   3.114  11.520 -0.2735 -0.4738 -1.1211
 2383SOL    HW218783   3.099   3.112  11.588  0.1283  0.1447  1.4521
 2384SOL     OW18784   2.774   2.781   1.344 -0.1140  0.1262  0.1535
 2384SOL    HW118785   2.767   2.703   1.290  0.6537  1.1262 -1.3901
 2384SOL    HW218786   2.868   2.781   1.360 -0.3149 -0.6337  1.2888
 2385SOL     OW18787   4.357   1.091   8.684  0.0743  0.0935 -0.1366
 2385SOL    HW118788   4.290   1.025   8.704  0.9659 -0.6306  0.4386
 2385SOL    HW218789   4.314   1.174   8.704 -1.2029 -1.0420  1.8531
 2386SOL     OW18790   4.663   3.190   5.902  0.1714 -0.5022  0.1739
 2386SOL    HW118791   0.006   3.197   5.959  1.3460 -1.1896 -1.3095
 2386SOL    HW218792   4.597   3.236   5.953  1.2907 -0.7280  1.8463
 2387SOL     OW18793   3.996   2.916   8.951  0.0908  0.0493 -0.0871
 2387SOL    HW118794   3.954   2.834   8.925  0.9195  0.0568 -1.4352
 2387SOL    HW218795   4.038   2.937   8.868 -0.8545  0.7686 -0.3859
 2388SOL     OW18796   1.144   2.303  12.501 -0.5043  0.2290  0.0453
 2388SOL    HW118797   1.169   2.389  12.468  1.5475 -1.5458 -3.0303
 2388SOL    HW218798   1.065   2.332  12.546  1.1155  3.2320  0.9019
 2389SOL     OW18799   3.490   0.940   5.136 -0.2139  0.0253 -0.1484
 2389SOL    HW118800   3.514   0.928   5.044 -1.8446  0.1966 -0.6044
 2389SOL    HW218801   3.428   1.013   5.132  0.5573  0.6279 -1.0321
 2390SOL     OW18802   0.683   4.344   6.506  0.0906 -0.1502  0.1296
 2390SOL    HW118803   0.591   4.326   6.521  0.1815 -1.5800 -1.0144
 2390SOL    HW218804   0.681   4.439   6.501  0.2764 -0.0368  1.9126
 2391SOL     OW18805   0.871   1.900   8.448 -0.6317 -0.5354  0.3962
 2391SOL    HW118806   0.908   1.814   8.468 -0.3010 -0.2638  0.9618
 2391SOL    HW218807   0.884   1.904   8.353  2.4499  1.3106  0.8847
 2392SOL     OW18808   2.837   4.223   3.775 -0.3051 -0.2855  0.0083
 2392SOL    HW118809   2.809   4.245   3.686  0.1949 -2.9127 -0.7807
 2392SOL    HW218810   2.900   4.295   3.783 -1.1119  0.0123  3.7100
 2393SOL     OW18811   3.347   0.857   4.592  0.7219 -0.2107 -0.0635
 2393SOL    HW118812   3.361   0.945   4.627 -2.2169  0.0836  0.3833
 2393SOL    HW218813   3.272   0.840   4.648  0.2195  0.2026 -0.6105
 2394SOL     OW18814   0.436   3.656   1.703  0.3246 -0.1086 -0.1491
 2394SOL    HW118815   0.523   3.686   1.727  0.5316 -1.6866  1.1101
 2394SOL    HW218816   0.452   3.673   1.610 -2.8324  2.5184 -0.2182
 2395SOL     OW18817   3.039   0.391  14.438  0.1963  0.2604 -0.2397
 2395SOL    HW118818   3.014   0.395  14.531  3.2297  2.0928  0.4915
 2395SOL    HW218819   3.056   0.297  14.426  0.0351 -0.1516  2.5465
 2396SOL     OW18820   2.023   2.403  15.438 -0.0961  0.4140  0.2080
 2396SOL    HW118821   2.034   2.316  15.477  0.5860  0.1977 -0.4616
 2396SOL    HW218822   1.989   2.449  15.514  0.2361 -0.3134  0.7941
 2397SOL     OW18823   2.255   1.869  14.051 -0.3004 -0.0215 -0.4041
 2397SOL    HW118824   2.217   1.908  13.972  1.9796  1.9143 -0.5052
 2397SOL    HW218825   2.293   1.790  14.012  1.1309  0.0794  0.8485
 2398SOL     OW18826   1.480   1.032   5.827 -0.3910 -0.0250 -0.2733
 2398SOL    HW118827   1.524   1.003   5.907 -1.0179  0.8008  0.3714
 2398SOL    HW218828   1.392   0.995   5.834  0.0090 -0.8774  0.2014
 2399SOL     OW18829   4.368   4.494  12.733  0.0028  0.8108 -0.5752
 2399SOL    HW118830   4.385   4.551  12.657  0.2900 -0.6941 -1.6491
 2399SOL    HW218831   4.445   4.511  12.787 -1.0592 -0.0826  1.1886
 2400SOL     OW18832   1.982   3.410   8.391 -0.4054 -0.5928 -0.3029
 2400SOL    HW118833   1.984   3.459   8.473  3.6598  0.5449 -1.0510
 2400SOL    HW218834   1.930   3.468   8.336 -1.7084 -0.7247  0.7890
 2401SOL     OW18835   4.086   1.935   4.964  0.3894  0.1417 -0.1863
 2401SOL    HW118836   4.106   1.898   4.879  2.8010  1.5115 -0.2159
 2401SOL    HW218837   4.063   2.020   4.927 -1.4337  0.3686  1.4282
 2402SOL     OW18838   2.561   4.601   5.584 -0.7017 -0.3817  0.3666
 2402SOL    HW118839   2.593   4.605   5.675  1.3665  0.5116 -0.3907
 2402SOL    HW218840   2.580   4.508   5.574  1.0574 -0.1997  1.9866
 2403SOL     OW18841   2.167   0.496   8.907 -0.5060  0.4695 -0.4720
 2403SOL    HW118842   2.110   0.571   8.888 -1.7682 -0.8683 -1.9622
 2403SOL    HW218843   2.116   0.460   8.979  0.6578  0.3190  0.2738
 2404SOL     OW18844   2.044   2.900   5.312  0.1709  0.4356 -0.2124
 2404SOL    HW118845   2.023   2.993   5.313  1.6086  0.7536  1.1331
 2404SOL    HW218846   2.027   2.876   5.403  0.7962  0.9403  0.0341
 2405SOL     OW18847   2.381   0.222   6.359  0.4361  0.6231  0.3532
 2405SOL    HW118848   2.407   0.249   6.448 -1.4535 -0.0948  1.1345
 2405SOL    HW218849   2.347   0.306   6.327 -1.3327 -0.5732 -0.8840
 2406SOL     OW18850   0.571   2.337  11.600 -0.3031 -0.2310  0.1334
 2406SOL    HW118851   0.567   2.300  11.688 -1.7771  0.2686  0.2735
 2406SOL    HW218852   0.663   2.363  11.605 -0.8066  1.2643  1.7133
 2407SOL     OW18853   1.210   4.612  11.596  0.1738  0.3510  0.2156
 2407SOL    HW118854   1.131   4.597  11.544 -0.4392  0.7511  1.0263
 2407SOL    HW218855   1.256   4.650  11.522 -0.3124 -0.9900 -0.7770
 2408SOL     OW18856   0.935   1.808   4.819  0.0023  0.2233  0.5886
 2408SOL    HW118857   0.871   1.821   4.890 -1.1248  1.8656 -0.7368
 2408SOL    HW218858   0.937   1.716   4.793  0.6493  0.4849 -0.2702
 2409SOL     OW18859   3.673   2.281   2.102  0.2795 -0.3937  0.5022
 2409SOL    HW118860   3.589   2.310   2.135 -1.1540 -2.5905 -1.2148
 2409SOL    HW218861   3.651   2.270   2.009  0.6152  0.2963  0.3298
 2410SOL     OW18862   4.425   1.196   2.654 -0.2211  0.3589  0.6234
 2410SOL    HW118863   4.461   1.285   2.652 -0.4230  0.4747  2.2676
 2410SOL    HW218864   4.395   1.188   2.563  0.2338  0.7442  0.4399
 2411SOL     OW18865   3.627   1.426   5.126  0.0297 -0.1063  0.5790
 2411SOL    HW118866   3.564   1.428   5.199 -0.3917  0.7509  0.1850
 2411SOL    HW218867   3.678   1.502   5.152  2.7299 -1.5795 -0.4355
 2412SOL     OW18868   4.159   3.679  16.076  0.2977  0.1507 -0.7792
 2412SOL    HW118869   4.240   3.721  16.048  0.4351 -0.1466 -0.8276
 2412SOL    HW218870   4.110   3.752  16.113 -1.4446 -0.4966 -1.8445
 2413SOL     OW18871   3.298   0.378   5.504 -0.0685 -0.4531 -0.0503
 2413SOL    HW118872   3.265   0.447   5.562 -1.6441 -0.8282 -0.4867
 2413SOL    HW218873   3.301   0.425   5.421  1.3855 -0.2690  0.1165
 2414SOL     OW18874   0.223   1.903  16.316 -0.3157  0.2974  1.0134
 2414SOL    HW118875   0.153   1.961  16.285 -0.4316  0.5834  1.7979
 2414SOL    HW218876   0.284   1.904  16.243 -0.1007 -0.8039  1.1818
 2415SOL     OW18877   4.061   1.859   6.315 -0.5715 -0.2519  0.0188
 2415SOL    HW118878   4.116   1.781   6.321  0.0353  0.1489 -0.2752
 2415SOL    HW218879   4.086   1.908   6.393  1.0731  0.7729 -1.1300
 2416SOL     OW18880   1.415   3.661   8.450  0.1449 -0.4577 -0.0653
 2416SOL    HW118881   1.338   3.676   8.504 -0.9834 -3.1794 -0.9116
 2416SOL    HW218882   1.432   3.568   8.467  2.2934 -0.3976 -1.9699
 2417SOL     OW18883   4.275   1.720   4.085 -0.1821 -0.4556 -0.4499
 2417SOL    HW118884   4.212   1.776   4.039 -2.5334 -2.2727  0.5359
 2417SOL    HW218885   4.238   1.726   4.173  1.9816 -1.7523  0.5525
 2418SOL     OW18886   1.979   1.427   4.447  0.6457  0.4478  0.1324
 2418SOL    HW118887   1.973   1.375   4.367 -0.2012  2.2302 -0.9653
 2418SOL    HW218888   1.950   1.362   4.510 -0.3857 -0.1642 -0.9591
 2419SOL     OW18889   1.553   2.935   8.596 -0.2149 -0.2499 -0.2432
 2419SOL    HW118890   1.564   2.840   8.596  1.5541 -0.0399 -1.3957
 2419SOL    HW218891   1.535   2.946   8.690  0.5250 -0.5432 -0.0732
 2420SOL     OW18892   2.164   0.521   7.890  0.0664  0.7036 -0.3303
 2420SOL    HW118893   2.089   0.508   7.948  1.1745 -0.6796  0.8034
 2420SOL    HW218894   2.213   0.590   7.934 -0.9932  0.6184  0.9922
 2421SOL     OW18895   3.357   2.314   3.314  0.0871  0.3007 -0.6172
 2421SOL    HW118896   3.445   2.333   3.282 -0.2880  0.8496 -1.3146
 2421SOL    HW218897   3.295   2.356   3.256 -0.0771  0.0196 -0.6459
 2422SOL     OW18898   0.591   0.831  17.476  0.2495  0.1599  0.0016
 2422SOL    HW118899   0.561   0.773  17.406  0.2362 -1.5808  1.4461
 2422SOL    HW218900   0.677   0.858  17.443 -0.1306  0.1146 -1.0345
 2423SOL     OW18901   2.538   3.671   4.636  0.1402 -0.1698  0.8382
 2423SOL    HW118902   2.495   3.596   4.596  1.5809  0.6683 -2.2611
 2423SOL    HW218903   2.618   3.678   4.584 -0.6663  1.0329 -0.2154
 2424SOL     OW18904   3.971   4.501   2.639 -0.2122 -0.4786  0.3258
 2424SOL    HW118905   3.878   4.494   2.661  0.0981  1.1635  2.2386
 2424SOL    HW218906   4.012   4.455   2.713  0.7145 -1.7723 -1.0075
 2425SOL     OW18907   0.984   1.750   1.414 -0.6750  0.0542  0.7062
 2425SOL    HW118908   0.894   1.780   1.405 -0.2371  0.9061 -0.9794
 2425SOL    HW218909   1.035   1.832   1.415  0.7859 -0.8736  2.1815
 2426SOL     OW18910   3.358   1.942   3.677  0.2055 -0.5405  0.2605
 2426SOL    HW118911   3.309   2.008   3.630  0.0062 -0.3165  0.7836
 2426SOL    HW218912   3.339   1.970   3.767  0.7378  0.9298 -0.0929
 2427SOL     OW18913   1.546   2.502   7.171 -0.5053 -1.0072 -0.1099
 2427SOL    HW118914   1.530   2.420   7.218 -0.1303  0.2514  2.2295
 2427SOL    HW218915   1.557   2.576   7.231 -0.5250 -1.3224  0.2785
 2428SOL     OW18916   4.459   1.935  10.000 -0.1317 -0.0776 -0.4101
 2428SOL    HW118917   4.422   2.022   9.988  0.4678  0.3425  0.7518
 2428SOL    HW218918   4.435   1.915  10.091  0.4017  1.0579 -0.0245
 2429SOL     OW18919   1.530   3.846   6.418  0.0564 -0.7295  0.3172
 2429SOL    HW118920   1.483   3.781   6.470 -0.4198 -0.8441 -0.2709
 2429SOL    HW218921   1.521   3.806   6.332 -1.4125  0.8765 -0.2833
 2430SOL     OW18922   2.911   2.657   7.647  0.3379  0.2724 -0.3807
 2430SOL    HW118923   2.988   2.606   7.619 -0.0653  0.3851 -1.6921
 2430SOL    HW218924   2.859   2.671   7.568  0.0266  1.2782  0.0001
 2431SOL     OW18925   4.405   0.292   8.152 -0.0658 -0.2557 -0.4822
 2431SOL    HW118926   4.498   0.314   8.148  0.3247 -1.9157 -0.7374
 2431SOL    HW218927   4.408   0.221   8.217  1.1048  0.2717  0.0515
 2432SOL     OW18928   3.623   2.809   6.454 -0.1399 -0.0158 -0.3245
 2432SOL    HW118929   3.603   2.760   6.374  0.2821 -2.0064  0.7775
 2432SOL    HW218930   3.647   2.897   6.427  0.8953 -0.6234 -1.3987
 2433SOL     OW18931   4.293   3.486   7.667 -0.3740  0.5145  0.1315
 2433SOL    HW118932   4.364   3.471   7.605 -0.8138  2.3276 -0.7976
 2433SOL    HW218933   4.335   3.482   7.753 -0.9032  2.5450  0.4778
 2434SOL     OW18934   4.720   0.825   3.958 -0.3110 -0.1746  0.1216
 2434SOL    HW118935   4.733   0.869   3.873 -1.3530 -0.2759 -0.0908
 2434SOL    HW218936   0.029   0.740   3.948 -0.3556 -0.0425 -1.2105
 2435SOL     OW18937   2.172   1.559   8.419  0.3925 -0.2277  0.1424
 2435SOL    HW118938   2.076   1.558   8.415  0.3742  2.2554 -0.2600
 2435SOL    HW218939   2.195   1.650   8.399  1.7512 -0.5767  0.1684
 2436SOL     OW18940   3.440   3.768   2.733 -0.0752 -0.6680  0.5478
 2436SOL    HW118941   3.390   3.695   2.768  0.6253 -1.0552  0.7408
 2436SOL    HW218942   3.523   3.754   2.779 -0.3772 -0.1389  1.2510
 2437SOL     OW18943   4.658   1.386   3.286 -0.2282  0.4400  1.0773
 2437SOL    HW118944   4.585   1.429   3.330 -0.4271  2.1573 -0.9517
 2437SOL    HW218945   4.725   1.454   3.281  1.0443 -0.8300  1.0391
 2438SOL     OW18946   0.342   2.180   4.082  0.1654  0.3983 -0.1826
 2438SOL    HW118947   0.398   2.236   4.029  0.8604  1.3383  1.5640
 2438SOL    HW218948   0.295   2.131   4.014 -2.0075 -0.1461  1.6759
 2439SOL     OW18949   3.605   4.269  12.947 -0.2975 -0.1239  0.2381
 2439SOL    HW118950   3.653   4.315  12.878  0.2955 -0.6448  0.3091
 2439SOL    HW218951   3.527   4.325  12.947 -1.0050 -1.1315  1.5378
 2440SOL     OW18952   0.994   0.509   7.313  0.3175  0.0237  0.0143
 2440SOL    HW118953   0.984   0.579   7.377  1.0539 -0.3751  0.5512
 2440SOL    HW218954   1.003   0.430   7.365  1.2767  0.7152  0.8870
 2441SOL     OW18955   4.146   0.258   2.653  0.3594  0.4001 -0.2445
 2441SOL    HW118956   4.072   0.306   2.691 -1.3550 -0.5165 -2.4838
 2441SOL    HW218957   4.152   0.189   2.720 -0.0272 -0.3717 -1.0161
 2442SOL     OW18958   4.292   2.963  11.261 -0.0537  0.4754 -0.3933
 2442SOL    HW118959   4.205   2.995  11.236 -0.3723 -0.8052 -0.9777
 2442SOL    HW218960   4.320   2.899  11.195  0.4381 -0.1809  0.4539
 2443SOL     OW18961   0.933   1.931   8.200  0.3241 -0.1266  0.3130
 2443SOL    HW118962   1.026   1.952   8.189  0.6239 -0.2736  2.4036
 2443SOL    HW218963   0.901   1.901   8.115  0.0018 -0.5321  0.5736
 2444SOL     OW18964   1.661   2.738   4.181  0.4033 -0.2557  0.3825
 2444SOL    HW118965   1.716   2.817   4.180 -1.2604  0.9022 -0.7486
 2444SOL    HW218966   1.734   2.677   4.191 -0.1756 -0.9537  0.3467
 2445SOL     OW18967   3.442   3.887  17.043 -0.4501 -0.0080 -0.2761
 2445SOL    HW118968   3.383   3.863  17.114  0.5293 -1.2033  0.1382
 2445SOL    HW218969   3.387   3.863  16.968  0.9395 -1.4105 -0.8628
 2446SOL     OW18970   3.390   2.617   8.672  0.1712 -0.6343 -0.2329
 2446SOL    HW118971   3.340   2.566   8.609 -2.2226  2.2306 -0.6706
 2446SOL    HW218972   3.478   2.598   8.641 -0.1695  0.0607 -1.5973
 2447SOL     OW18973   4.035   3.192  16.756  0.0001 -0.1898 -0.9024
 2447SOL    HW118974   4.106   3.149  16.707  1.1662 -0.0292  0.6546
 2447SOL    HW218975   4.054   3.279  16.721  2.4675 -1.2868 -2.3124
 2448SOL     OW18976   1.720   4.155   3.256  0.1891 -0.3098  0.8705
 2448SOL    HW118977   1.700   4.173   3.347  0.5525 -2.1564  1.3063
 2448SOL    HW218978   1.633   4.150   3.218 -0.2507  2.1372  1.5597
 2449SOL     OW18979   3.340   3.385   4.052 -0.6070  0.4298  0.1586
 2449SOL    HW118980   3.303   3.363   3.967 -2.0609  0.6507  0.7312
 2449SOL    HW218981   3.272   3.342   4.105  0.3433 -0.3605  0.7364
 2450SOL     OW18982   0.755   0.320  13.778 -0.0081 -0.0963 -0.4520
 2450SOL    HW118983   0.720   0.361  13.856  0.8712  0.4789 -0.3602
 2450SOL    HW218984   0.676   0.284  13.738 -0.8354  1.3538 -0.1114
 2451SOL     OW18985   4.334   1.395  11.729 -0.1562 -0.1006  0.4616
 2451SOL    HW118986   4.304   1.456  11.661  1.9079  0.4945  0.0648
 2451SOL    HW218987   4.401   1.346  11.681  1.7403  0.0208  2.9798
 2452SOL     OW18988   3.638   4.478   6.593  0.3849 -0.2258 -0.0216
 2452SOL    HW118989   3.582   4.418   6.545  0.0569  0.8963 -1.0204
 2452SOL    HW218990   3.683   4.533   6.529  0.6403  1.9299  1.9962
 2453SOL     OW18991   1.311   1.123   6.114 -0.6158  0.0306  0.3330
 2453SOL    HW118992   1.283   1.096   6.026 -3.2448  2.7682  0.3012
 2453SOL    HW218993   1.300   1.217   6.099  0.3749  0.1949  0.6845
 2454SOL     OW18994   4.223   2.864   9.103 -0.3734  0.1060  0.0592
 2454SOL    HW118995   4.159   2.916   9.054 -3.0059 -1.4670  1.7940
 2454SOL    HW218996   4.232   2.789   9.043 -1.9310  1.0154 -1.3114
 2455SOL     OW18997   3.792   4.405  12.784  0.2113  0.5277  0.0349
 2455SOL    HW118998   3.887   4.414  12.786  0.1469  0.6766  2.0799
 2455SOL    HW218999   3.778   4.463  12.709  1.0970 -0.5900 -0.9975
 2456SOL     OW19000   2.452   1.751   0.289 -0.0860  0.2345 -0.1310
 2456SOL    HW119001   2.360   1.758   0.263  0.4937  0.1169 -2.1834
 2456SOL    HW219002   2.467   1.657   0.296  0.4106  0.2892 -0.4905
 2457SOL     OW19003   0.440   2.960   3.149 -0.5629 -0.5396  0.2725
 2457SOL    HW119004   0.429   2.999   3.063  1.0615  2.4475  1.4225
 2457SOL    HW219005   0.507   3.017   3.188 -1.7793  0.8140  0.3956
 2458SOL     OW19006   4.433   2.414   5.482 -0.4092 -0.0113 -0.0959
 2458SOL    HW119007   4.441   2.319   5.477 -1.5246 -0.1761  1.2600
 2458SOL    HW219008   4.410   2.430   5.390  0.2000 -1.9174 -0.5775
 2459SOL     OW19009   2.771   2.495   6.639  0.3845 -0.4477 -0.4203
 2459SOL    HW119010   2.739   2.537   6.558 -1.2522 -2.6965 -0.9290
 2459SOL    HW219011   2.703   2.532   6.696  0.0114  0.4945 -1.4640
 2460SOL     OW19012   3.552   4.166  10.951  0.3700  0.1617  0.0685
 2460SOL    HW119013   3.581   4.220  11.025 -1.6336  1.6854 -0.2741
 2460SOL    HW219014   3.529   4.240  10.895 -1.5108 -1.3032 -1.1051
 2461SOL     OW19015   3.454   0.377   5.164  0.0099 -0.1344 -0.5669
 2461SOL    HW119016   3.358   0.381   5.169  0.1953  0.2538  2.5012
 2461SOL    HW219017   3.462   0.297   5.216  0.5596  0.4360  0.2088
 2462SOL     OW19018   4.234   3.443   6.024 -0.4678  0.0739  0.0318
 2462SOL    HW119019   4.225   3.533   6.056 -0.8875  0.4795 -1.2134
 2462SOL    HW219020   4.243   3.387   6.101 -1.9812 -0.0474  0.1248
 2463SOL     OW19021   2.800   4.502  17.406 -0.5113 -0.5899  0.1672
 2463SOL    HW119022   2.872   4.441  17.393  0.1412  0.2026  0.0805
 2463SOL    HW219023   2.803   4.542  17.319 -0.4512 -0.1883  0.3525
 2464SOL     OW19024   4.710   0.980   6.392 -0.8098  0.5609  0.5998
 2464SOL    HW119025   4.698   1.027   6.309 -1.9513  1.4030  1.2556
 2464SOL    HW219026   4.677   1.039   6.460 -1.4726 -1.4641  2.0085
 2465SOL     OW19027   0.924   2.030   7.420  0.3648 -0.2193  0.2191
 2465SOL    HW119028   0.919   1.937   7.401  3.2921 -0.4749  0.6905
 2465SOL    HW219029   0.862   2.061   7.354  0.0360 -0.3092  0.4849
 2466SOL     OW19030   0.373   1.065   4.365 -0.5319 -0.3218 -0.7747
 2466SOL    HW119031   0.412   1.054   4.452  1.2389  0.7933 -1.4259
 2466SOL    HW219032   0.291   1.110   4.385  0.1874  2.3500 -3.8366
 2467SOL     OW19033   1.339   1.432  11.668  0.1666 -0.8216 -0.1087
 2467SOL    HW119034   1.327   1.371  11.595  1.8304 -3.0293  1.4709
 2467SOL    HW219035   1.352   1.367  11.736 -3.5301 -1.8893 -0.4387
 2468SOL     OW19036   1.760   1.531   1.380  0.2644 -0.0305  0.1391
 2468SOL    HW119037   1.679   1.521   1.430  0.0406 -1.8271 -0.5790
 2468SOL    HW219038   1.835   1.506   1.434  0.9875  0.2099 -0.7489
 2469SOL     OW19039   2.072   2.299   1.787  0.5829 -1.0395 -0.3956
 2469SOL    HW119040   2.013   2.302   1.862  1.6908  0.2161  0.4253
 2469SOL    HW219041   2.097   2.207   1.778  0.8922 -0.9347 -0.6224
 2470SOL     OW19042   2.076   3.207   7.780 -0.6372  0.2949 -0.1502
 2470SOL    HW119043   2.035   3.283   7.737 -0.4009  0.5066  0.0038
 2470SOL    HW219044   2.050   3.212   7.872  3.4781 -0.0593  1.0330
 2471SOL     OW19045   1.010   3.348   7.964  0.1921  0.2362  0.5090
 2471SOL    HW119046   1.081   3.308   7.914 -1.3162 -0.9784 -0.6370
 2471SOL    HW219047   1.024   3.441   7.946  0.0288  0.5788  2.0960
 2472SOL     OW19048   1.040   3.121   2.256 -0.0734 -0.1622  0.6368
 2472SOL    HW119049   0.998   3.206   2.241 -0.2970 -0.6766 -1.5881
 2472SOL    HW219050   1.125   3.154   2.284  0.7258 -1.1948 -0.5875
 2473SOL     OW19051   1.307   1.931   7.720  0.1112 -0.2920  0.4207
 2473SOL    HW119052   1.259   1.878   7.783 -2.2898 -0.4308 -1.5243
 2473SOL    HW219053   1.384   1.962   7.767 -0.7039  1.8585  0.3454
 2474SOL     OW19054   2.504   3.454   5.172 -0.3746 -0.0302  0.1389
 2474SOL    HW119055   2.451   3.534   5.166 -2.9689 -1.7361  0.0074
 2474SOL    HW219056   2.434   3.391   5.192  0.6377 -1.5548 -1.1366
 2475SOL     OW19057   4.645   0.321  11.262  0.3248  0.0206  1.1560
 2475SOL    HW119058   4.661   0.315  11.168 -1.0580  0.6390  0.8879
 2475SOL    HW219059   4.638   0.226  11.268 -2.7469  0.1199 -0.9758
 2476SOL     OW19060   1.332   1.272  11.425  0.0392  0.1552  0.6212
 2476SOL    HW119061   1.290   1.268  11.339 -0.2363 -0.4609  0.7847
 2476SOL    HW219062   1.421   1.306  11.413  0.7003 -0.5726  3.3277
 2477SOL     OW19063   2.998   2.277  15.477  0.5119 -0.3905 -0.2260
 2477SOL    HW119064   2.960   2.286  15.564 -3.0064  2.4052 -2.0877
 2477SOL    HW219065   2.933   2.328  15.429  1.1420  1.6586  1.0875
 2478SOL     OW19066   3.835   4.383   7.340 -0.2158 -0.4372 -0.3836
 2478SOL    HW119067   3.790   4.462   7.312  0.6000  0.1707  0.0141
 2478SOL    HW219068   3.847   4.393   7.434 -0.7885  0.5329 -0.4200
 2479SOL     OW19069   3.484   4.664   2.729 -0.2371  0.4157  0.0986
 2479SOL    HW119070   3.444   4.587   2.771 -1.9192  0.9447 -0.5409
 2479SOL    HW219071   3.469   4.733   2.793  0.1071  0.5827  0.0001
 2480SOL     OW19072   3.744   4.214   3.535  0.9221 -0.7950  0.2368
 2480SOL    HW119073   3.651   4.214   3.556  0.5843 -2.7270 -1.3772
 2480SOL    HW219074   3.768   4.307   3.527 -0.1241 -0.5742 -0.2834
 2481SOL     OW19075   4.417   1.432   6.405 -0.1411  0.0784  0.7426
 2481SOL    HW119076   4.411   1.426   6.501 -1.4788 -1.5411  0.5692
 2481SOL    HW219077   4.504   1.470   6.394 -1.2548  2.1412 -0.8554
 2482SOL     OW19078   2.541   3.069  12.291  0.0670 -0.3592 -0.1666
 2482SOL    HW119079   2.595   3.119  12.229  0.3216 -0.0948  0.2692
 2482SOL    HW219080   2.560   3.114  12.373 -3.0683 -0.6800  0.7380
 2483SOL     OW19081   2.224   3.064   5.579 -0.0238  0.2979  0.0369
 2483SOL    HW119082   2.141   3.021   5.562 -0.6842  0.8888  1.8110
 2483SOL    HW219083   2.243   3.028   5.665  0.5062  3.2910  1.1884
 2484SOL     OW19084   4.085   3.255   2.839  0.6758  0.0107 -0.3918
 2484SOL    HW119085   4.072   3.160   2.831  1.0271  0.0620 -1.6923
 2484SOL    HW219086   4.090   3.262   2.934 -0.0390  0.5375 -0.3952
 2485SOL     OW19087   1.025   1.335  17.568 -0.0904  0.0819  0.6760
 2485SOL    HW119088   1.065   1.408  17.521 -0.2954 -0.3235 -0.1227
 2485SOL    HW219089   0.935   1.326  17.538 -0.4640  0.3978  1.6991
 2486SOL     OW19090   1.408   1.938   1.247 -0.3759 -0.1496 -0.3076
 2486SOL    HW119091   1.417   1.922   1.153  0.2177 -2.0208  0.0705
 2486SOL    HW219092   1.341   2.006   1.253  2.0924  2.1953  0.6532
 2487SOL     OW19093   4.192   0.991  15.008  0.1764 -0.7033  0.0636
 2487SOL    HW119094   4.183   1.084  14.988 -1.0262 -1.3921 -2.6357
 2487SOL    HW219095   4.101   0.962  14.998  0.1194 -1.2951  2.2417
 2488SOL     OW19096   0.738   0.575  11.408  0.0557 -0.4939 -0.2489
 2488SOL    HW119097   0.660   0.522  11.391 -0.3883  0.4113 -1.0617
 2488SOL    HW219098   0.727   0.655  11.357  0.7693  0.8850  1.7562
 2489SOL     OW19099   0.316   2.566   5.907 -0.2409 -0.2684  0.4313
 2489SOL    HW119100   0.259   2.631   5.947  0.4743  0.2027  0.6760
 2489SOL    HW219101   0.248   2.508   5.872  1.6136 -3.0234  1.4353
 2490SOL     OW19102   1.470   2.374   6.679 -0.2084  0.3957  0.4528
 2490SOL    HW119103   1.451   2.467   6.694  0.0407  0.4056  0.7180
 2490SOL    HW219104   1.536   2.361   6.747  1.0700 -0.9040 -1.0301
 2491SOL     OW19105   4.473   1.569   5.011  0.0501 -0.3414 -0.2434
 2491SOL    HW119106   4.466   1.518   4.930 -1.0397 -1.6036  0.6532
 2491SOL    HW219107   4.441   1.505   5.074 -2.8248 -0.0521 -1.4333
 2492SOL     OW19108   3.334   3.731  14.814  0.1258 -0.2740 -0.4666
 2492SOL    HW119109   3.244   3.699  14.818  0.6067 -1.2406  2.4929
 2492SOL    HW219110   3.355   3.740  14.907 -0.7953 -1.0217 -0.1927
 2493SOL     OW19111   2.577   4.731   3.119 -0.4954  0.4023  0.6419
 2493SOL    HW119112   2.668   4.732   3.089 -1.7211 -2.1066 -3.1023
 2493SOL    HW219113   2.585   4.664   3.186  0.2925 -1.0646 -0.9232
 2494SOL     OW19114   2.433   1.411  13.362  0.1375 -0.0853  0.2186
 2494SOL    HW119115   2.369   1.482  13.371 -0.1971 -0.4845  1.0262
 2494SOL    HW219116   2.506   1.458  13.401  1.3578 -0.9796 -0.9744
 2495SOL     OW19117   3.854   0.696   5.175  0.6269 -0.5321  0.8991
 2495SOL    HW119118   3.852   0.776   5.122 -1.4041 -1.4317 -0.3928
 2495SOL    HW219119   3.791   0.729   5.238  0.1649  0.4953 -0.0982
 2496SOL     OW19120   1.418   3.535   2.564 -1.3596 -0.1901 -0.0989
 2496SOL    HW119121   1.346   3.474   2.581 -1.3551  0.1501  1.1380
 2496SOL    HW219122   1.390   3.575   2.481  0.7934 -0.1927 -0.8102
 2497SOL     OW19123   2.138   4.061   2.898 -0.1997  0.2720 -0.5267
 2497SOL    HW119124   2.111   3.970   2.910  0.6218  0.0391 -0.3847
 2497SOL    HW219125   2.221   4.047   2.852  0.0168 -1.8696  0.5225
 2498SOL     OW19126   3.413   3.679   1.878  0.0646  0.0499 -0.6060
 2498SOL    HW119127   3.318   3.691   1.875  0.0185 -0.2526 -0.4343
 2498SOL    HW219128   3.421   3.732   1.957 -1.1956 -1.5865  0.6402
 2499SOL     OW19129   3.046   0.102   0.915 -0.3306 -0.1281 -0.1331
 2499SOL    HW119130   2.980   0.106   0.847  0.3352  2.0411 -0.6644
 2499SOL    HW219131   3.079   0.192   0.913  0.8348 -0.5884 -2.0313
 2500SOL     OW19132   4.439   0.983   0.649  0.0740 -0.0663  0.0943
 2500SOL    HW119133   4.366   0.923   0.634  2.5197 -3.5058  1.9291
 2500SOL    HW219134   4.458   1.022   0.564 -1.8421 -2.8067 -1.5758
 2501SOL     OW19135   0.383   0.512   7.735 -0.2889  0.1012  0.7970
 2501SOL    HW119136   0.347   0.535   7.821  2.8482 -0.5071  2.2740
 2501SOL    HW219137   0.464   0.562   7.739  0.0343 -0.4014  0.4862
 2502SOL     OW19138   1.063   0.992  17.250 -0.2602  0.0443 -0.0524
 2502SOL    HW119139   1.100   1.054  17.313 -1.0259 -0.1501  0.5968
 2502SOL    HW219140   1.131   0.926  17.251  0.2264  0.5389 -0.3909
 2503SOL     OW19141   4.121   1.179   2.016  0.2845 -0.5457 -0.0541
 2503SOL    HW119142   4.212   1.180   1.985  0.6699 -3.0499  0.9503
 2503SOL    HW219143   4.102   1.085   2.007 -3.1650  0.1649  0.1366
 2504SOL     OW19144   2.214   2.416   9.529  0.4111  0.0328  0.3807
 2504SOL    HW119145   2.222   2.429   9.623 -0.7750 -3.7465  0.9831
 2504SOL    HW219146   2.295   2.455   9.497  0.1090  1.3667  1.2549
 2505SOL     OW19147   0.034   0.953   3.732 -0.0721 -0.2504 -0.2717
 2505SOL    HW119148   0.125   0.936   3.708 -0.3708 -3.1190  0.6034
 2505SOL    HW219149   4.720   0.942   3.650  0.1585  0.3078 -0.4767
 2506SOL     OW19150   0.069   2.288   8.843 -0.2972 -0.1666  0.5361
 2506SOL    HW119151   0.009   2.289   8.769 -0.5937  2.5666  0.8392
 2506SOL    HW219152   0.023   2.354   8.895 -0.7238  0.5340 -0.7386
 2507SOL     OW19153   3.490   1.590   2.586 -0.3782 -0.3706  0.1644
 2507SOL    HW119154   3.550   1.648   2.539  1.8009 -1.8896  1.0665
 2507SOL    HW219155   3.402   1.609   2.553 -0.6228  0.4609  1.3225
 2508SOL     OW19156   3.638   1.398   6.742  0.2424 -0.0127  1.2356
 2508SOL    HW119157   3.704   1.367   6.804 -0.1578 -0.5148  1.4101
 2508SOL    HW219158   3.560   1.397   6.797 -0.7790  1.8856 -0.1661
 2509SOL     OW19159   0.806   4.152   5.756  0.4234  0.3756 -0.2718
 2509SOL    HW119160   0.749   4.082   5.722  2.1452 -0.5019 -1.3450
 2509SOL    HW219161   0.741   4.221   5.765 -0.1933 -0.4643  1.7433
 2510SOL     OW19162   3.414   3.354   4.592 -0.2923  0.2469  0.1350
 2510SOL    HW119163   3.373   3.404   4.522 -0.5734  1.2857  1.0328
 2510SOL    HW219164   3.345   3.367   4.658  1.0614 -0.3066  1.6669
 2511SOL     OW19165   1.447   1.449   2.516 -0.0627  0.9247  0.2050
 2511SOL    HW119166   1.353   1.447   2.496  0.2561  1.6622 -1.3833
 2511SOL    HW219167   1.462   1.540   2.541  0.6367  1.4206 -2.0204
 2512SOL     OW19168   3.534   0.132  11.859 -0.0863 -0.2423 -0.3217
 2512SOL    HW119169   3.512   0.206  11.803  2.1590  1.8080  1.4550
 2512SOL    HW219170   3.618   0.158  11.897 -1.2471  2.1437  0.5650
 2513SOL     OW19171   0.108   3.417  11.890 -0.2575 -0.2358  0.0145
 2513SOL    HW119172   0.050   3.478  11.936  0.5808  0.2996  0.3501
 2513SOL    HW219173   0.113   3.453  11.801  2.1194 -1.6160 -0.4066
 2514SOL     OW19174   3.563   4.613   1.706  0.2846 -0.3719  0.5988
 2514SOL    HW119175   3.647   4.658   1.697  0.4698 -1.3668 -2.8226
 2514SOL    HW219176   3.577   4.541   1.768  1.4490  1.0388  1.9642
 2515SOL     OW19177   0.770   0.327  10.994  0.1693  0.4038 -0.2941
 2515SOL    HW119178   0.768   0.422  10.982 -1.3009  0.2087 -1.6282
 2515SOL    HW219179   0.689   0.307  11.042  0.5076  0.5792  0.3487
 2516SOL     OW19180   3.152   2.729   8.655 -0.2708 -0.0514  0.5527
 2516SOL    HW119181   3.232   2.696   8.694  0.8313 -0.4339 -2.0677
 2516SOL    HW219182   3.180   2.810   8.613 -0.5790 -0.5238 -0.5542
 2517SOL     OW19183   2.161   4.394   8.476  0.2199  0.4310  0.1277
 2517SOL    HW119184   2.218   4.418   8.403  0.7867 -0.5273  0.2484
 2517SOL    HW219185   2.161   4.299   8.470  0.3783  0.3993  0.5897
 2518SOL     OW19186   0.099   2.310   7.905  0.4517  0.4096 -0.4087
 2518SOL    HW119187   0.052   2.229   7.925  3.6415 -0.6276  2.9675
 2518SOL    HW219188   0.032   2.378   7.908 -0.3793 -0.4035 -0.5353
 2519SOL     OW19189   0.535   0.661   8.352  0.2482 -0.1145  0.1840
 2519SOL    HW119190   0.619   0.683   8.394 -0.8102  1.0784  1.6901
 2519SOL    HW219191   0.568   0.644   8.264  1.1445 -2.8988  1.0663
 2520SOL     OW19192   3.600   3.673   8.364 -0.0028 -0.0357 -0.2524
 2520SOL    HW119193   3.620   3.693   8.455  1.8845  1.1488 -0.9513
 2520SOL    HW219194   3.504   3.681   8.370 -0.0212  0.1392 -0.8031
 2521SOL     OW19195   2.567   4.569   2.541  0.1603  0.0003 -0.3403
 2521SOL    HW119196   2.651   4.536   2.508  0.6102 -0.8989  1.7284
 2521SOL    HW219197   2.604   4.629   2.606 -1.0699 -1.4297  1.6896
 2522SOL     OW19198   3.057   2.235   0.248  0.5796  0.3046 -1.0114
 2522SOL    HW119199   3.086   2.287   0.322  1.5603 -2.5771  0.6409
 2522SOL    HW219200   2.967   2.216   0.274  1.0763 -0.9938 -0.2150
 2523SOL     OW19201   0.772   4.184  17.208  0.0781 -0.5695 -0.2294
 2523SOL    HW119202   0.858   4.142  17.205  0.3116 -0.1404  0.3944
 2523SOL    HW219203   0.726   4.153  17.130  1.0819  1.6879 -1.7239
 2524SOL     OW19204   4.283   3.981   2.752 -0.1207 -0.2171  0.3597
 2524SOL    HW119205   4.301   3.987   2.658 -0.4495  1.0305  0.3800
 2524SOL    HW219206   4.355   3.921   2.770  0.0948 -0.0872 -0.0749
 2525SOL     OW19207   3.680   2.682   6.889 -0.0412 -0.0547  0.4085
 2525SOL    HW119208   3.603   2.733   6.863  0.5154  0.7849  0.4251
 2525SOL    HW219209   3.735   2.700   6.813  1.4911 -0.5746  1.3974
 2526SOL     OW19210   3.784   4.543  10.162 -0.1644 -0.0152 -0.6127
 2526SOL    HW119211   3.830   4.619  10.198  1.0498 -0.6085 -0.9160
 2526SOL    HW219212   3.692   4.553  10.184  0.4538 -0.9792  2.3428
 2527SOL     OW19213   0.945   4.214  12.241 -0.0103  0.1322 -0.0959
 2527SOL    HW119214   0.865   4.259  12.269  0.3922  1.2388 -0.7356
 2527SOL    HW219215   0.977   4.259  12.163 -0.7532  2.4826  0.9399
 2528SOL     OW19216   0.277   2.441   4.968  0.2556  0.3497 -0.0312
 2528SOL    HW119217   0.243   2.371   5.023  1.8707  1.3451  2.2550
 2528SOL    HW219218   0.240   2.419   4.883  0.4078 -0.9850  0.2474
 2529SOL     OW19219   2.157   2.900  11.523  0.0358 -0.7970  0.2743
 2529SOL    HW119220   2.224   2.844  11.563  0.8020 -0.4246 -0.4914
 2529SOL    HW219221   2.221   2.969  11.507  0.3133 -1.0592  0.2503
 2530SOL     OW19222   3.444   3.302   7.631 -0.0582  0.5071 -0.1192
 2530SOL    HW119223   3.512   3.318   7.566 -0.3056 -1.4696 -0.8615
 2530SOL    HW219224   3.366   3.335   7.586  0.3217  0.1610 -1.0269
 2531SOL     OW19225   2.225   4.527   5.944 -1.1145 -0.1167 -0.3982
 2531SOL    HW119226   2.173   4.598   5.982 -0.0615  0.4082  0.0573
 2531SOL    HW219227   2.269   4.500   6.025  0.3458  0.1842 -1.0900
 2532SOL     OW19228   0.885   4.717   5.712 -0.4681 -0.2209  0.3488
 2532SOL    HW119229   0.876   4.653   5.641 -1.6433 -0.1415  0.4230
 2532SOL    HW219230   0.980   4.719   5.715 -0.4805  1.5481 -0.2644
 2533SOL     OW19231   3.667   1.111  10.913 -0.2658 -0.5612  0.3994
 2533SOL    HW119232   3.731   1.178  10.933 -1.2648  0.0399  1.5806
 2533SOL    HW219233   3.641   1.094  11.004  1.0002 -1.8953  0.4981
 2534SOL     OW19234   3.892   1.830   8.433 -0.0370  0.2298 -0.1708
 2534SOL    HW119235   3.828   1.881   8.384 -1.3320 -1.6786 -0.4667
 2534SOL    HW219236   3.849   1.794   8.511 -1.5988 -0.1390 -1.1994
 2535SOL     OW19237   3.055   1.552   5.705 -0.7223  0.1308 -0.9526
 2535SOL    HW119238   3.000   1.520   5.776  0.8483  0.0393  0.2353
 2535SOL    HW219239   2.995   1.621   5.675  0.7179  0.3976 -3.2289
 2536SOL     OW19240   0.615   2.142   0.244  0.2644 -0.1945  0.4535
 2536SOL    HW119241   0.592   2.226   0.285 -0.6948  0.1795 -0.8701
 2536SOL    HW219242   0.533   2.096   0.261 -0.5272  0.8741 -0.4482
 2537SOL     OW19243   2.042   3.298   3.162  0.5980 -0.1190  0.0208
 2537SOL    HW119244   2.107   3.368   3.152  0.8237  0.2532  3.7131
 2537SOL    HW219245   1.976   3.352   3.204  0.8114  0.6893 -0.6937
 2538SOL     OW19246   2.317   1.425  16.898 -0.6881  0.0111 -0.1354
 2538SOL    HW119247   2.353   1.514  16.907  1.1020 -0.8436  1.2185
 2538SOL    HW219248   2.347   1.403  16.809 -0.2358  0.2154 -0.0318
 2539SOL     OW19249   4.318   4.613  15.037  0.3916 -0.0646 -0.2827
 2539SOL    HW119250   4.324   4.536  15.094 -0.4968 -0.4287 -0.6915
 2539SOL    HW219251   4.225   4.601  15.021  0.8936 -2.3581 -1.4605
 2540SOL     OW19252   3.790   0.314   5.179  0.2111 -0.3350 -0.1306
 2540SOL    HW119253   3.736   0.255   5.127 -0.1323  0.0413 -0.2010
 2540SOL    HW219254   3.857   0.254   5.211 -0.5198  0.3669  2.6320
 2541SOL     OW19255   1.838   2.245  12.147 -0.2517 -0.3368  0.1302
 2541SOL    HW119256   1.903   2.199  12.094 -1.8743 -0.2169 -1.9398
 2541SOL    HW219257   1.882   2.274  12.227 -0.3507  0.4041 -0.0878
 2542SOL     OW19258   4.360   0.490  12.321 -0.3751  0.2527 -0.0091
 2542SOL    HW119259   4.363   0.469  12.415 -0.5447 -0.6307 -0.1956
 2542SOL    HW219260   4.284   0.434  12.306 -0.6692  0.4465  0.7195
 2543SOL     OW19261   0.120   3.791  13.460 -0.3141  0.1580 -0.1293
 2543SOL    HW119262   0.101   3.856  13.528 -1.9635  0.9514 -1.3393
 2543SOL    HW219263   0.149   3.854  13.394  1.4479  0.4118  0.8850
 2544SOL     OW19264   3.212   2.706   7.871 -0.1022  0.4263 -0.0445
 2544SOL    HW119265   3.148   2.773   7.846  0.5494  0.7584 -0.8403
 2544SOL    HW219266   3.219   2.658   7.789  2.2878 -0.0065  0.4189
 2545SOL     OW19267   1.620   3.643   8.143 -0.0009 -0.4176  0.4535
 2545SOL    HW119268   1.543   3.674   8.095  1.7309  1.6364 -0.9819
 2545SOL    HW219269   1.605   3.550   8.163  2.8223 -1.6533 -3.2412
 2546SOL     OW19270   3.155   4.445   8.736  0.3574  0.2816 -0.4284
 2546SOL    HW119271   3.130   4.535   8.756 -2.9459 -0.4256 -1.4908
 2546SOL    HW219272   3.084   4.413   8.680  1.3393  0.7190 -1.9225
 2547SOL     OW19273   2.285   4.500   9.956  0.4203 -0.3015 -0.3000
 2547SOL    HW119274   2.295   4.447  10.035  1.1966 -0.7920 -0.7303
 2547SOL    HW219275   2.369   4.489   9.913  0.3808  2.6110 -1.0897
 2548SOL     OW19276   0.446   4.615   8.408 -0.0681 -0.1504  0.0759
 2548SOL    HW119277   0.498   4.536   8.426 -0.8669  0.2751  4.3263
 2548SOL    HW219278   0.510   4.671   8.365  0.0945 -0.2166  0.2308
 2549SOL     OW19279   0.433   1.183   4.009 -0.1279  0.3205 -0.1022
 2549SOL    HW119280   0.381   1.262   3.995  0.6013  1.0517  1.2597
 2549SOL    HW219281   0.363   1.120   4.028 -2.3135  2.7065 -0.3840
 2550SOL     OW19282   3.978   4.168  17.655 -0.0251 -0.5649  0.1968
 2550SOL    HW119283   4.048   4.171  17.720  1.4932  0.5282 -1.4733
 2550SOL    HW219284   3.923   4.242  17.680  0.6271  0.1380 -0.4182
 2551SOL     OW19285   0.893   1.600  16.846  0.5005 -0.0230 -0.4839
 2551SOL    HW119286   0.955   1.528  16.853 -1.3911 -1.7141 -1.3260
 2551SOL    HW219287   0.833   1.567  16.779  1.8704 -0.4365 -1.5098
 2552SOL     OW19288   0.839   1.270   3.474  0.5390 -0.4536  0.0548
 2552SOL    HW119289   0.856   1.176   3.481  2.3972  0.0721  2.8318
 2552SOL    HW219290   0.774   1.291   3.541  0.0101 -0.4880 -0.4549
 2553SOL     OW19291   1.919   2.860   1.185  0.1281  0.1111 -0.8006
 2553SOL    HW119292   1.927   2.859   1.090 -2.1445 -2.1691 -0.9690
 2553SOL    HW219293   1.896   2.768   1.199  2.3709 -0.1748  1.0946
 2554SOL     OW19294   3.684   0.807   5.349 -0.0192  0.0788 -0.3326
 2554SOL    HW119295   3.676   0.902   5.340 -0.3212  0.1516  0.6569
 2554SOL    HW219296   3.596   0.771   5.345  0.2275 -0.4597 -0.9725
 2555SOL     OW19297   0.098   2.818   8.054 -0.3141  0.2753 -0.2399
 2555SOL    HW119298   0.007   2.842   8.034 -0.7151 -1.1313 -0.0922
 2555SOL    HW219299   0.123   2.786   7.967  0.8653 -2.5210  1.1090
 2556SOL     OW19300   2.624   0.195   1.935 -0.0367  0.1456 -0.5474
 2556SOL    HW119301   2.630   0.181   1.841 -0.4981  3.7935 -1.1294
 2556SOL    HW219302   2.548   0.143   1.961  0.0098 -0.0638 -0.8338
 2557SOL     OW19303   1.575   2.298   7.376 -0.3620 -0.0487  0.0988
 2557SOL    HW119304   1.559   2.361   7.446  0.5113  1.9096 -1.4434
 2557SOL    HW219305   1.633   2.248   7.433  0.7750  1.7030  0.4905
 2558SOL     OW19306   4.201   0.056   6.278 -0.2945  0.1616  0.1959
 2558SOL    HW119307   4.118   0.097   6.304  0.9693  2.2898  0.8956
 2558SOL    HW219308   4.166   4.733   6.209 -2.8368  0.2433  1.3958
 2559SOL     OW19309   4.304   0.462   2.061 -0.5092 -0.0432 -0.1353
 2559SOL    HW119310   4.256   0.544   2.052 -0.5847 -0.0616  0.0906
 2559SOL    HW219311   4.301   0.440   1.968  0.4447  1.1660 -0.4458
 2560SOL     OW19312   0.370   3.802   4.116  0.9212 -0.1976 -0.6378
 2560SOL    HW119313   0.282   3.812   4.153  1.5948  0.5933  0.7701
 2560SOL    HW219314   0.409   3.758   4.191 -0.6702 -1.0023 -0.2703
 2561SOL     OW19315   1.497   3.163   5.670 -0.2262 -0.0044  0.3377
 2561SOL    HW119316   1.460   3.150   5.757  1.2938 -0.3384  0.9219
 2561SOL    HW219317   1.512   3.077   5.633  3.0617  0.9617 -0.5893
 2562SOL     OW19318   0.970   0.680   5.343  0.1297 -0.0218 -0.0678
 2562SOL    HW119319   1.007   0.762   5.310 -1.0257  1.2573  1.7655
 2562SOL    HW219320   1.052   0.632   5.348  1.0082  1.5464  0.6814
 2563SOL     OW19321   1.654   4.720  15.428  0.1598  0.1696 -0.2031
 2563SOL    HW119322   1.565   4.686  15.426  0.2885 -0.1642 -0.1953
 2563SOL    HW219323   1.705   4.643  15.404 -0.8786 -0.8856  0.9547
 2564SOL     OW19324   0.270   1.403  16.903 -0.5299  0.4018  0.4375
 2564SOL    HW119325   0.225   1.402  16.819  0.7152 -2.3616 -0.2095
 2564SOL    HW219326   0.292   1.496  16.910  0.0416  0.4998 -2.7953
 2565SOL     OW19327   1.077   4.549  10.249  0.4261 -0.5953  0.0209
 2565SOL    HW119328   1.039   4.518  10.331  1.0885 -0.2053  0.4786
 2565SOL    HW219329   1.079   4.640  10.278 -2.0735 -0.7586  0.6982
 2566SOL     OW19330   1.211   1.839   4.880 -0.1666 -0.6250  0.8539
 2566SOL    HW119331   1.219   1.788   4.960  1.6939  0.0156  1.0861
 2566SOL    HW219332   1.119   1.846   4.855  0.2727 -0.3905 -0.6981
 2567SOL     OW19333   4.398   0.329  15.631 -0.1795 -0.9296 -0.1028
 2567SOL    HW119334   4.422   0.386  15.704 -1.6812 -0.0025 -0.3302
 2567SOL    HW219335   4.428   0.375  15.552  0.3193 -2.4525 -0.7919
 2568SOL     OW19336   3.010   0.005   4.095 -0.1002 -0.1464  0.1569
 2568SOL    HW119337   2.960   0.071   4.143 -2.6426 -0.5412 -1.9182
 2568SOL    HW219338   3.099   0.032   4.117 -1.3539  2.2557  2.2928
 2569SOL     OW19339   4.685   3.917   8.067  0.0349 -0.3803 -0.1206
 2569SOL    HW119340   4.727   3.983   8.122 -1.3050 -0.4305  0.9563
 2569SOL    HW219341   0.029   3.883   8.022  0.7372 -0.0215  0.8371
 2570SOL     OW19342   3.584   1.414   7.148 -0.3186 -0.2895 -0.0506
 2570SOL    HW119343   3.614   1.492   7.194  0.6428 -1.4426  1.2672
 2570SOL    HW219344   3.646   1.404   7.076  0.5117 -2.7943  1.0094
 2571SOL     OW19345   1.684   3.503   7.178 -0.2020  0.2259 -0.2542
 2571SOL    HW119346   1.753   3.488   7.113  0.9127  1.0095  0.7595
 2571SOL    HW219347   1.604   3.490   7.127 -0.5214  0.8595  0.0945
 2572SOL     OW19348   4.013   0.862   7.791  0.1790 -0.3659 -0.7760
 2572SOL    HW119349   3.947   0.807   7.832  0.7390 -0.4248  0.0454
 2572SOL    HW219350   4.065   0.897   7.864  0.8895  1.4865 -2.1541
 2573SOL     OW19351   4.134   2.981   6.766  0.7478 -0.1831  0.6674
 2573SOL    HW119352   4.172   2.994   6.853  1.6600  2.5529 -0.1524
 2573SOL    HW219353   4.138   2.886   6.763 -1.6869 -0.3276  1.7341
 2574SOL     OW19354   2.065   3.557   4.425 -0.1905  0.0532  0.1167
 2574SOL    HW119355   2.060   3.518   4.338 -0.3812 -0.0092  0.1562
 2574SOL    HW219356   1.977   3.558   4.462 -1.5415  2.3129 -3.2204
 2575SOL     OW19357   1.171   0.678   4.491 -0.7388  0.3935 -0.3948
 2575SOL    HW119358   1.109   0.656   4.561 -0.3279 -1.4157 -0.5875
 2575SOL    HW219359   1.190   0.592   4.453  2.3233  0.7854  0.3227
 2576SOL     OW19360   4.550   0.185   4.037 -0.2955  0.0149 -0.0393
 2576SOL    HW119361   4.490   0.193   4.112 -2.0482 -3.1043 -1.1302
 2576SOL    HW219362   4.561   0.090   4.036 -0.7605 -0.0397 -0.0322
 2577SOL     OW19363   1.259   0.879   6.262  0.6176 -0.5755 -0.2690
 2577SOL    HW119364   1.192   0.888   6.330  0.3155 -0.5646 -0.5628
 2577SOL    HW219365   1.248   0.962   6.214  0.3142 -0.1321  0.5766
 2578SOL     OW19366   0.435   4.064  10.054  0.6674 -0.5966  0.3652
 2578SOL    HW119367   0.423   4.046   9.961 -0.9635 -1.3585  0.7153
 2578SOL    HW219368   0.523   4.030  10.070  0.8573  0.2355  1.0772
 2579SOL     OW19369   2.202   3.052   2.885  0.0236 -0.2321  0.5228
 2579SOL    HW119370   2.240   3.081   2.802 -0.5282 -3.3263 -0.8310
 2579SOL    HW219371   2.260   3.109   2.935  0.9613  1.9883 -3.1383
 2580SOL     OW19372   2.221   2.130   2.402  0.1883 -0.1018  0.3487
 2580SOL    HW119373   2.187   2.170   2.482 -2.1441 -1.0573 -0.1593
 2580SOL    HW219374   2.314   2.151   2.411 -0.0112  0.6558  0.6764
 2581SOL     OW19375   2.679   4.461   3.950  0.0304  0.1858 -0.3151
 2581SOL    HW119376   2.594   4.490   3.919 -0.3354 -1.8550 -1.2008
 2581SOL    HW219377   2.651   4.449   4.041  1.3138  1.6549  0.2983
 2582SOL     OW19378   0.627   1.324   3.661  0.1801  0.5353  0.2485
 2582SOL    HW119379   0.548   1.346   3.612 -1.6075  0.3132  2.9886
 2582SOL    HW219380   0.622   1.387   3.733 -0.3948  1.4502 -0.5975
 2583SOL     OW19381   3.527   3.414   7.844 -0.2409 -0.7288  0.0355
 2583SOL    HW119382   3.485   3.369   7.771  0.0325 -2.6575  1.0760
 2583SOL    HW219383   3.503   3.359   7.918  0.5638 -1.3254 -0.1394
 2584SOL     OW19384   4.058   4.432   8.900  0.1368 -0.0432 -0.1967
 2584SOL    HW119385   3.996   4.359   8.909 -0.7704  0.8770  0.9236
 2584SOL    HW219386   4.018   4.493   8.839  2.3284 -1.5894 -3.1933
 2585SOL     OW19387   4.400   0.279   2.253 -0.0598 -0.1589  0.3051
 2585SOL    HW119388   4.362   0.329   2.180  0.1700  1.3678  1.2247
 2585SOL    HW219389   4.401   0.197   2.203 -1.7430 -0.1996  0.3424
 2586SOL     OW19390   4.507   1.705   3.893 -0.2817  0.1850  0.0649
 2586SOL    HW119391   4.425   1.696   3.942  0.1527 -0.5829  0.6536
 2586SOL    HW219392   4.468   1.725   3.808  0.0297 -0.7860 -0.3128
 2587SOL     OW19393   3.913   3.967  10.975 -0.3147  0.1971  0.5930
 2587SOL    HW119394   3.943   3.931  10.891  0.0204  1.9191 -0.0195
 2587SOL    HW219395   3.911   4.062  10.969  0.2909  0.0657 -1.6333
 2588SOL     OW19396   0.217   3.820   3.232 -0.4397  0.0238 -0.3770
 2588SOL    HW119397   0.264   3.811   3.315 -0.5105  3.0719 -0.0051
 2588SOL    HW219398   0.283   3.798   3.166  0.0679 -1.3799  0.5991
 2589SOL     OW19399   3.604   0.949   0.266  0.0240 -0.3573  0.0988
 2589SOL    HW119400   3.615   1.001   0.187 -4.1350 -1.0824 -0.9561
 2589SOL    HW219401   3.513   0.965   0.291  0.3856  2.9313 -0.8210
 2590SOL     OW19402   1.381   2.290  12.014  0.3139  0.0538 -0.2042
 2590SOL    HW119403   1.346   2.268  12.100 -2.1689 -0.4555 -1.3226
 2590SOL    HW219404   1.468   2.320  12.040 -0.8552  2.0494  1.3782
 2591SOL     OW19405   3.756   3.678   9.704 -0.1109 -0.5638  0.2234
 2591SOL    HW119406   3.764   3.691   9.609  0.9232  0.9321  0.5023
 2591SOL    HW219407   3.835   3.629   9.722  0.3488 -0.4171 -1.3880
 2592SOL     OW19408   2.951   2.065   8.538 -0.3868 -0.2865  0.0119
 2592SOL    HW119409   3.001   2.147   8.543  1.7375 -1.5852  0.2511
 2592SOL    HW219410   2.907   2.065   8.623  0.0994 -0.4602  0.2645
 2593SOL     OW19411   4.071   0.666  16.440 -0.1806 -0.2124  0.5589
 2593SOL    HW119412   4.065   0.761  16.441 -1.1915 -0.2465 -1.2652
 2593SOL    HW219413   4.003   0.653  16.374  0.2179 -0.8146  0.2705
 2594SOL     OW19414   1.272   4.644   2.489  0.1399 -0.2734 -0.2821
 2594SOL    HW119415   1.215   4.720   2.504  1.6403  0.5719  1.1209
 2594SOL    HW219416   1.253   4.632   2.396 -0.3591 -0.8400 -0.1104
 2595SOL     OW19417   4.254   1.834   5.549 -0.3308  0.6493 -0.1712
 2595SOL    HW119418   4.303   1.782   5.612 -2.4933 -0.6149  0.4836
 2595SOL    HW219419   4.326   1.845   5.487 -0.3118  0.2223 -0.2252
 2596SOL     OW19420   0.683   2.105   0.939 -0.1391 -0.4487  0.4562
 2596SOL    HW119421   0.613   2.077   0.879 -0.7382 -3.5303  2.5952
 2596SOL    HW219422   0.654   2.195   0.959 -1.2477 -0.2155 -2.1462
 2597SOL     OW19423   1.279   2.514   7.821 -0.2725  0.0734  0.1569
 2597SOL    HW119424   1.335   2.438   7.837 -1.9359 -1.0005  0.8570
 2597SOL    HW219425   1.259   2.551   7.908  0.6003  2.1706 -0.5300
 2598SOL     OW19426   2.805   1.455   9.687  0.2504  0.1934  0.2451
 2598SOL    HW119427   2.819   1.528   9.748  2.1266  1.2639 -1.4909
 2598SOL    HW219428   2.791   1.376   9.739  1.8729  0.2657  0.7764
 2599SOL     OW19429   2.861   1.059   0.528  0.6324  0.4331  0.1074
 2599SOL    HW119430   2.879   1.060   0.622 -0.5565  0.6212  0.3332
 2599SOL    HW219431   2.779   1.109   0.521  0.0301 -0.7272 -1.1346
 2600SOL     OW19432   0.194   3.028   0.427 -0.6907 -0.3055  0.4568
 2600SOL    HW119433   0.182   3.089   0.355 -0.3721 -0.8211 -0.0280
 2600SOL    HW219434   0.279   2.985   0.425 -1.7325 -2.4925  2.2970
 2601SOL     OW19435   3.463   2.082   6.610 -0.5078  0.5316 -0.2173
 2601SOL    HW119436   3.523   2.036   6.669  0.0756  3.0900  1.2045
 2601SOL    HW219437   3.487   2.169   6.644  1.7396 -0.7357  1.4518
 2602SOL     OW19438   2.486   1.888   6.869  0.2813  0.2007 -0.4615
 2602SOL    HW119439   2.456   1.903   6.779 -0.9236  0.1627 -0.0600
 2602SOL    HW219440   2.561   1.947   6.868 -0.4538  1.0831 -2.7222
 2603SOL     OW19441   1.131   1.746   7.561 -0.0840 -0.1621  0.0669
 2603SOL    HW119442   1.146   1.747   7.466  1.2443 -1.6356  0.2602
 2603SOL    HW219443   1.131   1.837   7.588 -1.6643 -0.6129  1.6285
 2604SOL     OW19444   1.395   0.402   3.535  0.1869 -0.1599  0.0946
 2604SOL    HW119445   1.456   0.337   3.568 -1.3509 -1.0557  1.2125
 2604SOL    HW219446   1.378   0.466   3.604  0.0309  2.1140 -2.0326
 2605SOL     OW19447   3.658   1.278   5.813  0.0215 -0.0020 -0.5137
 2605SOL    HW119448   3.669   1.342   5.743 -0.1133  0.1691 -0.3761
 2605SOL    HW219449   3.563   1.291   5.815 -0.1263 -1.1344 -0.0896
 2606SOL     OW19450   0.925   4.564   8.528  1.1189 -0.2922  0.1263
 2606SOL    HW119451   0.921   4.655   8.496 -4.2410 -0.9827 -1.1341
 2606SOL    HW219452   1.014   4.532   8.511  1.0936 -1.2915  1.9141
 2607SOL     OW19453   0.093   1.837   7.609  0.1075  0.1437  0.2872
 2607SOL    HW119454   0.013   1.813   7.562  1.2147 -2.0316 -0.5346
 2607SOL    HW219455   0.093   1.932   7.612 -1.0998  0.1601 -0.2276
 2608SOL     OW19456   3.782   2.201   4.526 -0.0306  0.4441 -0.5275
 2608SOL    HW119457   3.695   2.236   4.503 -1.6256 -2.1750  1.5302
 2608SOL    HW219458   3.804   2.144   4.452  1.9778 -1.6574  1.7167
 2609SOL     OW19459   0.944   3.464   5.022 -1.0478 -0.1380 -0.5787
 2609SOL    HW119460   0.889   3.528   4.977  0.6329  1.2067 -0.7105
 2609SOL    HW219461   0.940   3.497   5.112 -1.3074  0.2811 -0.7442
 2610SOL     OW19462   0.056   3.963   6.177 -0.6146  0.0762  0.3320
 2610SOL    HW119463   0.005   3.958   6.096 -0.3575 -0.4493  0.2018
 2610SOL    HW219464   0.105   3.883   6.161 -0.6185  0.0112  0.6587
 2611SOL     OW19465   3.294   1.844  16.061 -0.1260  0.3652 -0.6227
 2611SOL    HW119466   3.252   1.830  15.976 -0.1250  0.7173 -0.6808
 2611SOL    HW219467   3.338   1.759  16.066  1.5631  1.1118 -2.8251
 2612SOL     OW19468   2.272   3.533   1.044  0.1820  0.5697  0.3032
 2612SOL    HW119469   2.298   3.622   1.019 -1.1605  1.2407  1.2967
 2612SOL    HW219470   2.351   3.484   1.022 -0.5734 -0.0408 -1.0075
 2613SOL     OW19471   0.383   0.216   7.906  0.0308  0.1741  0.2345
 2613SOL    HW119472   0.325   0.140   7.898 -0.0571  0.4564 -1.9260
 2613SOL    HW219473   0.362   0.255   7.991  1.9839  2.5613 -0.3936
 2614SOL     OW19474   4.329   0.799   6.107  0.1972 -0.3577  0.4853
 2614SOL    HW119475   4.305   0.826   6.196 -0.7578 -0.1362  0.1658
 2614SOL    HW219476   4.320   0.704   6.119 -0.3745 -0.4244 -0.4482
 2615SOL     OW19477   3.464   0.006   6.922 -0.1884 -0.6761 -0.0139
 2615SOL    HW119478   3.492   4.651   6.899 -2.0997 -1.5361  0.9101
 2615SOL    HW219479   3.444   4.714   7.012 -3.3748 -0.8102 -0.7720
 2616SOL     OW19480   0.384   3.059   0.675  0.6146  0.5682  0.2264
 2616SOL    HW119481   0.361   3.107   0.595 -0.1189 -0.7956 -0.3899
 2616SOL    HW219482   0.447   3.003   0.629  1.2582  0.8704  0.7350
 2617SOL     OW19483   0.416   1.893   1.381 -0.0053  0.0898  1.1563
 2617SOL    HW119484   0.381   1.878   1.469  1.0808  2.1423  1.9403
 2617SOL    HW219485   0.420   1.802   1.351  0.4213  1.1599 -2.0715
 2618SOL     OW19486   3.709   3.618   4.527 -0.0006 -0.0850 -0.5216
 2618SOL    HW119487   3.726   3.573   4.609 -3.0250 -0.3988 -0.0629
 2618SOL    HW219488   3.788   3.672   4.519 -0.3937  0.2571 -2.1527
 2619SOL     OW19489   1.739   1.187  15.437  0.1931 -0.0388  0.3940
 2619SOL    HW119490   1.715   1.116  15.378 -0.9819  1.7271 -1.2407
 2619SOL    HW219491   1.830   1.164  15.458 -0.1703 -0.4408  1.5625
 2620SOL     OW19492   2.648   1.097   4.605  0.5649 -0.1289  0.2622
 2620SOL    HW119493   2.575   1.075   4.546  0.3649  0.5646  0.2446
 2620SOL    HW219494   2.715   1.111   4.538  0.0185 -1.2726 -0.5200
 2621SOL     OW19495   1.729   4.288  16.512 -0.3708  0.1022 -0.3198
 2621SOL    HW119496   1.638   4.317  16.505  0.2790  2.2215  0.1795
 2621SOL    HW219497   1.739   4.215  16.450  2.5454  0.8668 -0.7290
 2622SOL     OW19498   4.587   0.731   9.776  0.8025  0.3202  0.4444
 2622SOL    HW119499   4.638   0.744   9.696 -0.9563  1.3462 -0.5062
 2622SOL    HW219500   4.500   0.763   9.754  1.6091  1.3590 -1.1978
 2623SOL     OW19501   4.152   0.037   5.122  0.3993  0.1360 -0.3149
 2623SOL    HW119502   4.190   0.097   5.186  1.4500  1.0899 -1.8325
 2623SOL    HW219503   4.058   0.056   5.118  0.8246  2.2023 -0.7976
 2624SOL     OW19504   1.342   2.489  12.356  0.1156 -0.1041  0.2954
 2624SOL    HW119505   1.415   2.495  12.418  1.0364  0.8125 -0.8955
 2624SOL    HW219506   1.360   2.563  12.299  2.4740 -3.0136 -2.7062
 2625SOL     OW19507   1.091   2.215   5.081  0.7695 -0.1389 -0.3399
 2625SOL    HW119508   1.141   2.215   5.163 -0.7465  0.5916  0.5650
 2625SOL    HW219509   1.152   2.171   5.021  2.1118  1.6263 -0.2850
 2626SOL     OW19510   4.600   2.257   2.593 -0.3128  0.3382  0.0563
 2626SOL    HW119511   4.563   2.336   2.633 -0.4868  1.4589 -2.3260
 2626SOL    HW219512   4.526   2.222   2.543 -0.5931 -1.5382  1.8143
 2627SOL     OW19513   2.034   0.733  10.199  0.1090 -0.3207 -0.3737
 2627SOL    HW119514   2.090   0.674  10.149 -0.1339  1.3602 -2.6083
 2627SOL    HW219515   2.003   0.678  10.271  1.8897  2.0917  2.2403
 2628SOL     OW19516   3.260   2.129   3.487 -0.5565 -0.0866 -0.0909
 2628SOL    HW119517   3.311   2.181   3.424 -0.4139  0.9923  0.9114
 2628SOL    HW219518   3.181   2.182   3.496  0.3533  1.2817 -0.2124
 2629SOL     OW19519   0.773   3.586   2.741 -0.2404  0.3060 -0.4622
 2629SOL    HW119520   0.700   3.646   2.752  0.5362  0.7392  2.2972
 2629SOL    HW219521   0.735   3.498   2.743  0.1660  0.1995  3.1046
 2630SOL     OW19522   3.077   0.116   8.493 -0.1305  0.2444  0.0709
 2630SOL    HW119523   3.116   0.137   8.577 -1.0113  0.9952  0.2896
 2630SOL    HW219524   3.005   0.055   8.510  2.3998 -2.3796  1.3093
 2631SOL     OW19525   2.562   3.465  14.145 -0.6570 -0.8375  0.8034
 2631SOL    HW119526   2.626   3.402  14.113 -0.2543 -0.6912  1.3333
 2631SOL    HW219527   2.575   3.537  14.082  0.6946 -1.8183 -0.0151
 2632SOL     OW19528   2.058   2.402   2.288  0.5485 -0.1633 -0.5241
 2632SOL    HW119529   2.111   2.332   2.327  0.8153 -0.5484 -1.5781
 2632SOL    HW219530   1.988   2.415   2.352  0.7408 -0.7808 -0.1831
 2633SOL     OW19531   0.596   4.286   7.361 -0.0369  0.1213  0.1790
 2633SOL    HW119532   0.644   4.331   7.431 -2.4999  0.2704  1.7852
 2633SOL    HW219533   0.665   4.289   7.294  0.8454 -0.1732  1.0856
 2634SOL     OW19534   0.052   0.057  13.141  0.1221  0.2098 -0.1458
 2634SOL    HW119535   0.017   0.115  13.074 -0.4238 -0.4670 -0.4397
 2634SOL    HW219536   0.085   4.712  13.097 -1.8609  0.3040 -1.7514
 2635SOL     OW19537   3.691   4.068   5.488 -0.2614  0.4662  0.4248
 2635SOL    HW119538   3.741   3.988   5.506 -1.5165 -0.3162  0.4464
 2635SOL    HW219539   3.748   4.123   5.435  0.9826  0.1668  1.4413
 2636SOL     OW19540   3.353   2.296  14.045  0.6501 -0.3808  0.4027
 2636SOL    HW119541   3.396   2.270  13.964  0.3347  1.3662 -0.3329
 2636SOL    HW219542   3.395   2.380  14.064  0.8110 -0.5719  0.9079
 2637SOL     OW19543   1.300   1.496   6.600  0.0868  0.0870  0.2254
 2637SOL    HW119544   1.278   1.420   6.654  2.8694  0.5102  1.9578
 2637SOL    HW219545   1.261   1.569   6.649 -1.7727 -2.6373  2.7503
 2638SOL     OW19546   1.848   0.335  16.702  0.0128 -0.9602  0.2214
 2638SOL    HW119547   1.775   0.284  16.738 -1.5223  0.5883 -0.7018
 2638SOL    HW219548   1.921   0.325  16.762  0.5875  0.7748 -0.1962
 2639SOL     OW19549   0.350   3.875   2.297  0.2699  0.5826  0.3449
 2639SOL    HW119550   0.339   3.936   2.224 -0.4768  2.2815  1.8659
 2639SOL    HW219551   0.270   3.887   2.347 -1.3507 -0.1786 -2.0737
 2640SOL     OW19552   0.853   3.611   3.941 -0.2630 -0.3499  0.0135
 2640SOL    HW119553   0.858   3.564   3.858  3.1935  0.9180 -0.5187
 2640SOL    HW219554   0.922   3.678   3.945 -0.9652  0.4686 -1.3999
 2641SOL     OW19555   0.114   3.095   6.988  0.0050  0.5455 -0.0218
 2641SOL    HW119556   0.085   3.117   7.077  1.0846  0.2212  0.4116
 2641SOL    HW219557   0.133   3.182   6.954 -1.2940 -0.1411 -2.5328
 2642SOL     OW19558   3.509   0.053   1.273  0.0101 -0.0577 -0.3692
 2642SOL    HW119559   3.604   0.050   1.282  0.2728 -0.9397 -3.2331
 2642SOL    HW219560   3.487   4.693   1.282 -1.9349  0.3729 -0.5961
 2643SOL     OW19561   4.260   2.446   7.902 -0.2662  0.1686 -0.0976
 2643SOL    HW119562   4.230   2.496   7.825 -0.9534 -0.4284 -0.2217
 2643SOL    HW219563   4.238   2.359   7.869 -2.8631  0.8486 -0.1663
 2644SOL     OW19564   4.417   3.384   4.834  0.6062  0.2907  0.5881
 2644SOL    HW119565   4.338   3.420   4.794  1.5538  1.2651 -0.3888
 2644SOL    HW219566   4.472   3.460   4.815  0.0760  0.7183  0.7549
 2645SOL     OW19567   0.583   0.548   4.653 -0.1938  0.1736  0.1008
 2645SOL    HW119568   0.489   0.534   4.643 -0.3549  1.3912 -0.1334
 2645SOL    HW219569   0.606   0.476   4.711 -0.8793  0.2484  0.4663
 2646SOL     OW19570   3.544   3.572   0.954  0.1107  0.5091  0.2923
 2646SOL    HW119571   3.588   3.552   0.872  0.0010 -0.1392  0.3910
 2646SOL    HW219572   3.568   3.493   1.001  1.1183  0.8309  0.3208
 2647SOL     OW19573   1.341   1.322   3.786 -0.3862  0.1910 -0.0447
 2647SOL    HW119574   1.358   1.390   3.851  0.3547  1.0432 -1.1335
 2647SOL    HW219575   1.246   1.319   3.797 -0.3384 -0.4281  0.1697
 2648SOL     OW19576   4.723   0.926  11.458  0.4144  0.4896 -0.3358
 2648SOL    HW119577   4.672   0.973  11.392  0.0972 -1.7489 -1.6783
 2648SOL    HW219578   4.732   0.839  11.418  2.7231  0.8766 -0.6545
 2649SOL     OW19579   2.345   0.895   6.680  0.2587  0.8338 -0.1761
 2649SOL    HW119580   2.266   0.941   6.653 -0.6792 -1.4546 -1.3193
 2649SOL    HW219581   2.404   0.969   6.691 -0.3198  1.2402  0.1908
 2650SOL     OW19582   1.927   1.825   7.895 -0.3257  0.3074  0.3249
 2650SOL    HW119583   1.836   1.819   7.869 -0.0785 -0.9119 -0.2330
 2650SOL    HW219584   1.974   1.844   7.814  0.6218  2.1713  1.3120
 2651SOL     OW19585   3.898   0.162   6.347  0.7622  0.0371 -0.2062
 2651SOL    HW119586   3.888   0.219   6.424  2.5397  0.8214 -0.5544
 2651SOL    HW219587   3.890   0.226   6.277 -2.4190  1.9442  1.8654
 2652SOL     OW19588   1.411   1.302   7.702  0.2926  0.5702  0.7151
 2652SOL    HW119589   1.465   1.253   7.764  1.3318  2.5765  1.3970
 2652SOL    HW219590   1.372   1.232   7.650  2.3718  1.9372 -2.6235
 2653SOL     OW19591   0.977   1.077   6.174  0.1534  0.1296  0.2037
 2653SOL    HW119592   0.934   1.128   6.105  0.6761  2.0917  1.3284
 2653SOL    HW219593   1.052   1.132   6.196 -0.5439  1.0412  0.3308
 2654SOL     OW19594   0.402   1.389   5.560 -0.8923  0.2186 -0.4219
 2654SOL    HW119595   0.397   1.318   5.624 -1.7864  0.8271  0.1958
 2654SOL    HW219596   0.460   1.350   5.495  0.3320  0.5604  0.4558
 2655SOL     OW19597   1.230   2.669  14.743 -0.0594  0.7626 -0.0247
 2655SOL    HW119598   1.271   2.745  14.786  2.5036 -0.7554  0.2108
 2655SOL    HW219599   1.307   2.626  14.705  0.6414 -0.4558  2.7507
 2656SOL     OW19600   3.727   0.236   1.586  0.1356  0.2314  0.0273
 2656SOL    HW119601   3.727   0.161   1.527 -1.0381  1.0972 -1.0881
 2656SOL    HW219602   3.645   0.277   1.559 -0.0208  0.1870  0.4403
 2657SOL     OW19603   1.075   4.265   4.724 -0.5921 -0.4153 -0.4509
 2657SOL    HW119604   1.141   4.243   4.658 -1.8047 -1.2155 -1.3931
 2657SOL    HW219605   1.002   4.292   4.669 -0.3215 -0.5051 -0.8585
 2658SOL     OW19606   0.166   0.641  10.202  0.2025  0.0357 -0.2939
 2658SOL    HW119607   0.120   0.566  10.162 -0.3926 -0.1353  0.7256
 2658SOL    HW219608   0.121   0.705  10.147  0.1708  0.8623  0.7215
 2659SOL     OW19609   0.384   4.603   5.594  0.3289 -0.1948 -0.0672
 2659SOL    HW119610   0.422   4.594   5.681 -0.7873 -0.2846  0.4050
 2659SOL    HW219611   0.304   4.650   5.616 -0.4546 -2.8818  2.8853
 2660SOL     OW19612   0.142   0.021   5.654 -0.1554  0.0017  0.7231
 2660SOL    HW119613   0.058   4.712   5.635 -0.1392  0.1979  0.2075
 2660SOL    HW219614   0.123   0.051   5.742  0.0529  0.8071  0.4883
 2661SOL     OW19615   0.346   1.534   5.197  0.3334 -0.4892 -0.2766
 2661SOL    HW119616   0.388   1.459   5.238  0.1368  0.2448  1.2519
 2661SOL    HW219617   0.425   1.586   5.178  0.4837  0.7984  4.0090
 2662SOL     OW19618   1.863   1.800   3.776 -0.3934 -0.0898 -0.2479
 2662SOL    HW119619   1.929   1.824   3.841  0.0378 -3.0065  0.3777
 2662SOL    HW219620   1.848   1.710   3.805 -0.0627 -0.2065 -0.4331
 2663SOL     OW19621   2.218   1.946   6.379 -0.7245 -0.0555 -0.2238
 2663SOL    HW119622   2.174   1.964   6.296  0.0289  1.7392 -0.2399
 2663SOL    HW219623   2.245   2.033   6.408  3.2548 -1.7050  1.0435
 2664SOL     OW19624   3.737   3.782   2.096  0.5514 -0.0486 -0.0381
 2664SOL    HW119625   3.779   3.789   2.181  0.6415 -1.1346 -0.0058
 2664SOL    HW219626   3.812   3.747   2.047  0.3828  0.1337 -0.4231
 2665SOL     OW19627   1.531   4.532   0.008 -0.3858 -0.1574 -0.2027
 2665SOL    HW119628   1.563   4.443  17.729 -2.2256 -0.7411 -0.7451
 2665SOL    HW219629   1.444   4.500   0.034 -0.6747 -1.1437 -2.4236
 2666SOL     OW19630   2.161   0.104   7.513  0.3447  0.1839 -0.7419
 2666SOL    HW119631   2.207   0.090   7.430  1.1066  0.3642 -0.3493
 2666SOL    HW219632   2.139   0.196   7.498 -0.7769 -0.0788 -0.6585
 2667SOL     OW19633   2.242   4.207   2.149  0.3375 -0.6914 -0.5685
 2667SOL    HW119634   2.179   4.220   2.078 -0.7760 -0.4742  0.4642
 2667SOL    HW219635   2.245   4.111   2.153 -0.7525 -0.8053 -2.3747
 2668SOL     OW19636   2.622   4.241   6.582 -0.4968  0.1906  0.2878
 2668SOL    HW119637   2.651   4.326   6.616  0.2583 -1.0662  2.8046
 2668SOL    HW219638   2.593   4.196   6.661 -0.6516 -0.0344  0.1026
 2669SOL     OW19639   4.699   1.419   3.684 -0.3696 -0.3627  0.1870
 2669SOL    HW119640   4.666   1.342   3.730  0.5670 -0.7739  0.1671
 2669SOL    HW219641   4.691   1.477   3.759 -0.5760  0.3872 -0.4167
 2670SOL     OW19642   2.483   4.403   7.158 -0.5229 -0.3714  0.0736
 2670SOL    HW119643   2.491   4.427   7.250 -0.9578  0.5554 -0.1323
 2670SOL    HW219644   2.397   4.441   7.141  0.6847  2.2695 -0.2677
 2671SOL     OW19645   0.197   4.469  10.354  0.5322  0.5619 -0.1151
 2671SOL    HW119646   0.282   4.512  10.345  1.6761 -1.4498  0.8104
 2671SOL    HW219647   0.153   4.539  10.307  0.8010  0.9478  0.2073
 2672SOL     OW19648   4.675   0.771   3.238  0.3160  0.4429 -0.1805
 2672SOL    HW119649   4.732   0.704   3.200  0.5618  2.1078 -2.7411
 2672SOL    HW219650   4.666   0.846   3.180  1.6013 -1.0376 -2.2890
 2673SOL     OW19651   3.398   0.098   1.811 -0.1887  0.1629 -0.1135
 2673SOL    HW119652   3.464   0.141   1.865  0.6038  0.3875 -1.2709
 2673SOL    HW219653   3.446   0.025   1.773 -0.6605  0.5659 -1.4852
 2674SOL     OW19654   3.262   1.778  15.322 -0.2723 -0.1794 -0.3464
 2674SOL    HW119655   3.329   1.778  15.390  0.2428 -1.6805 -0.8522
 2674SOL    HW219656   3.190   1.829  15.359  0.9033  0.5071  0.9665
 2675SOL     OW19657   1.028   3.987   4.626  0.7221  0.4138  0.1410
 2675SOL    HW119658   1.040   3.900   4.664 -2.9802 -0.9906 -1.8188
 2675SOL    HW219659   0.991   4.033   4.702  0.5426 -1.1320  0.9810
 2676SOL     OW19660   1.619   0.600   5.744 -0.0810  0.0296  0.2139
 2676SOL    HW119661   1.675   0.526   5.767 -2.3823 -1.3631  1.3189
 2676SOL    HW219662   1.607   0.588   5.650  0.0084  0.4631  0.1467
 2677SOL     OW19663   2.793   1.092   1.034 -0.2419 -0.2108  0.1713
 2677SOL    HW119664   2.795   1.076   1.128 -0.3190  2.5302  0.6327
 2677SOL    HW219665   2.703   1.061   1.019  0.3800 -1.9406 -0.0333
 2678SOL     OW19666   2.878   4.332   6.396  0.3749 -0.0438 -0.1599
 2678SOL    HW119667   2.894   4.312   6.488  4.0232  1.1748 -0.5694
 2678SOL    HW219668   2.904   4.423   6.393  0.2425  0.0167  0.3974
 2679SOL     OW19669   3.261   1.128   3.382 -0.6380 -0.3307 -0.4018
 2679SOL    HW119670   3.229   1.211   3.418  2.3255  1.0809 -1.0124
 2679SOL    HW219671   3.269   1.139   3.287 -2.6939 -3.8879 -0.9673
 2680SOL     OW19672   0.035   3.017   2.993  0.6172  0.0075  0.1333
 2680SOL    HW119673   0.048   3.109   3.013  1.0560 -0.7861  3.4510
 2680SOL    HW219674   0.041   3.021   2.897  1.9109  3.8682  0.3812
 2681SOL     OW19675   2.339   3.280  10.533  0.0651 -0.3916 -0.2321
 2681SOL    HW119676   2.412   3.336  10.560 -0.4474  0.0269  0.3247
 2681SOL    HW219677   2.357   3.205  10.590  1.0134  1.2899  1.7253
 2682SOL     OW19678   0.687   2.085   4.817 -0.3820  0.3183  0.3455
 2682SOL    HW119679   0.672   2.007   4.871 -0.6594  0.6690  0.7757
 2682SOL    HW219680   0.604   2.084   4.771  0.5330  0.4835 -1.2809
 2683SOL     OW19681   1.542   1.930   4.589 -0.3848 -0.8037  0.3496
 2683SOL    HW119682   1.472   1.868   4.567 -1.3388 -0.3730  2.2337
 2683SOL    HW219683   1.577   1.908   4.675 -1.3293  0.3167  1.0023
 2684SOL     OW19684   0.830   1.585   5.393  0.0889 -0.8606 -0.0863
 2684SOL    HW119685   0.795   1.498   5.414  0.9172 -0.9740  0.7632
 2684SOL    HW219686   0.894   1.610   5.459  0.0771 -0.1556 -0.3367
 2685SOL     OW19687   0.530   1.390   1.504  0.2532  0.2763  0.4808
 2685SOL    HW119688   0.527   1.315   1.445 -1.7962 -0.7482  1.8636
 2685SOL    HW219689   0.610   1.368   1.552  0.7888 -0.8731 -0.9462
 2686SOL     OW19690   1.338   0.041  11.396  0.2707 -0.1074  0.4337
 2686SOL    HW119691   1.334   0.125  11.351 -0.9537  1.0892  2.7893
 2686SOL    HW219692   1.433   0.044  11.403  0.3003 -1.0244  0.5442
 2687SOL     OW19693   3.526   2.211   2.460  0.2902  0.8654  0.1469
 2687SOL    HW119694   3.540   2.289   2.406 -1.5286  1.0128 -0.1233
 2687SOL    HW219695   3.430   2.213   2.453  0.1665 -1.2422  1.2251
 2688SOL     OW19696   0.417   2.224   3.681 -0.0589 -0.1016  0.3598
 2688SOL    HW119697   0.473   2.158   3.641  1.5028  1.3386  0.2008
 2688SOL    HW219698   0.466   2.251   3.759  0.7086 -0.6573  0.0653
 2689SOL     OW19699   3.054   4.195   9.508 -0.1716 -0.2950  0.3972
 2689SOL    HW119700   3.103   4.241   9.440  4.0408 -3.2060  1.5060
 2689SOL    HW219701   3.099   4.111   9.509 -0.8999 -0.6920 -0.2547
 2690SOL     OW19702   1.627   2.508   2.432 -0.4576 -0.1671  0.1031
 2690SOL    HW119703   1.577   2.533   2.510 -0.5327 -1.4753  0.4702
 2690SOL    HW219704   1.647   2.593   2.392 -0.9438  0.2385  0.7119
 2691SOL     OW19705   2.518   1.244   4.819  0.2025 -0.3162  0.3982
 2691SOL    HW119706   2.566   1.310   4.869  0.5005  0.1008 -0.4422
 2691SOL    HW219707   2.580   1.211   4.753  0.2597  1.7023 -0.5514
 2692SOL     OW19708   2.820   2.737   4.060  0.3007 -0.0911  0.0202
 2692SOL    HW119709   2.848   2.714   3.971  0.2175  3.3539 -0.9091
 2692SOL    HW219710   2.902   2.711   4.103 -0.4472 -0.3440  1.2753
 2693SOL     OW19711   2.376   4.164   6.272  0.0304  0.4473  0.0844
 2693SOL    HW119712   2.335   4.211   6.344 -0.9780 -0.1915 -0.0648
 2693SOL    HW219713   2.298   4.115   6.244 -0.6254  0.9699  1.0120
 2694SOL     OW19714   3.826   0.847   8.693 -0.5966 -0.5690  0.5229
 2694SOL    HW119715   3.818   0.942   8.686 -1.1068 -0.8711 -2.7109
 2694SOL    HW219716   3.910   0.816   8.660 -0.0824  1.7768 -0.3868
 2695SOL     OW19717   1.579   0.193  16.325  0.1921  0.6054 -0.4375
 2695SOL    HW119718   1.655   0.247  16.348  0.5966 -0.0920 -0.1538
 2695SOL    HW219719   1.528   0.204  16.405 -1.0208 -0.4065 -1.0794
 2696SOL     OW19720   4.458   3.553   1.970 -0.1654  0.1494  0.2183
 2696SOL    HW119721   4.519   3.627   1.966  0.0793 -0.0761 -0.2451
 2696SOL    HW219722   4.476   3.511   2.054  1.3519  2.4658  1.0857
 2697SOL     OW19723   1.919   0.668   8.750 -0.6346  0.7532 -0.0779
 2697SOL    HW119724   1.993   0.724   8.726 -1.8646  2.0359 -0.9317
 2697SOL    HW219725   1.845   0.729   8.750 -0.9785  0.3082  5.1161
 2698SOL     OW19726   2.031   3.499   2.904  0.1982  0.3160 -0.0877
 2698SOL    HW119727   2.127   3.501   2.905  0.2022 -0.4238  1.2513
 2698SOL    HW219728   2.005   3.559   2.834  1.9471  1.2988  0.1032
 2699SOL     OW19729   0.361   1.515   0.862 -0.2413  0.6424  0.2060
 2699SOL    HW119730   0.403   1.532   0.946  1.3521  0.2470 -0.4989
 2699SOL    HW219731   0.441   1.513   0.809  0.5247  0.7040  1.3765
 2700SOL     OW19732   2.191   3.796   4.481 -0.0597 -0.7699  0.1292
 2700SOL    HW119733   2.151   3.710   4.493 -0.6637 -0.4464  0.4006
 2700SOL    HW219734   2.253   3.811   4.552 -3.6367  0.9919  2.8697
 2701SOL     OW19735   4.709   1.057   0.646 -0.0001  0.7002 -0.5592
 2701SOL    HW119736   4.696   1.009   0.564  2.7636 -1.7130  0.4151
 2701SOL    HW219737   4.638   1.017   0.697 -2.0740  3.3305 -1.3685
 2702SOL     OW19738   3.292   3.843   2.473 -0.3678 -0.1893  0.3929
 2702SOL    HW119739   3.366   3.852   2.534 -1.8136 -1.6202  2.3562
 2702SOL    HW219740   3.287   3.748   2.464 -1.1796 -0.2887  1.8515
 2703SOL     OW19741   3.265   2.482   5.890  0.7792 -0.4814  0.3583
 2703SOL    HW119742   3.294   2.570   5.868 -0.8255 -0.4208 -1.6331
 2703SOL    HW219743   3.256   2.486   5.985 -2.3551 -1.6801  0.1407
 2704SOL     OW19744   3.734   0.601  14.325  0.0054  0.1796  0.4370
 2704SOL    HW119745   3.736   0.603  14.229 -1.7656  1.0211  0.4259
 2704SOL    HW219746   3.722   0.696  14.334 -1.7979 -0.1831  1.8298
 2705SOL     OW19747   0.097   3.703   4.824  0.1140  0.3529 -0.1685
 2705SOL    HW119748   0.150   3.688   4.746 -1.3403  0.3077 -1.1399
 2705SOL    HW219749   0.102   3.799   4.826  3.0687  0.2058 -0.1860
 2706SOL     OW19750   2.279   4.135   2.545  0.1182  0.0971 -0.3771
 2706SOL    HW119751   2.203   4.182   2.579 -1.0025 -0.2703 -2.3764
 2706SOL    HW219752   2.236   4.085   2.476  2.0000 -0.6120 -1.0060
 2707SOL     OW19753   0.693   1.441   0.872 -0.0537 -0.0439  0.0864
 2707SOL    HW119754   0.766   1.402   0.918  0.3297  0.7134  0.1187
 2707SOL    HW219755   0.729   1.529   0.858  1.5153 -0.7552 -0.2766
 2708SOL     OW19756   2.305   0.246  11.920 -0.7901 -0.3471  0.5317
 2708SOL    HW119757   2.323   0.293  12.002  1.3020 -1.0163  0.4668
 2708SOL    HW219758   2.392   0.240  11.881 -1.1850 -1.8816 -0.1015
 2709SOL     OW19759   2.519   1.221   8.544  0.0818 -0.4089 -0.0899
 2709SOL    HW119760   2.515   1.298   8.486 -1.7463  0.9063  1.7843
 2709SOL    HW219761   2.460   1.239   8.617  1.6857  0.9627  0.8849
 2710SOL     OW19762   3.139   0.599   7.917 -0.1460 -0.1010 -0.2910
 2710SOL    HW119763   3.094   0.600   7.833  1.3107 -0.0140 -1.0836
 2710SOL    HW219764   3.171   0.690   7.912 -3.6498  1.0666 -1.3361
 2711SOL     OW19765   2.367   3.398  17.502 -0.2445  0.2461  0.3763
 2711SOL    HW119766   2.284   3.352  17.510  0.4264 -1.0624 -0.2889
 2711SOL    HW219767   2.436   3.354  17.552 -0.8894 -0.6596  0.4617
 2712SOL     OW19768   2.704   0.678  14.534 -0.0243  0.1829  0.1368
 2712SOL    HW119769   2.636   0.745  14.550  0.3322  1.2550 -2.8434
 2712SOL    HW219770   2.770   0.732  14.491 -1.3156  1.1853 -0.6094
 2713SOL     OW19771   2.669   4.260   6.999 -0.4221  0.4671 -0.2713
 2713SOL    HW119772   2.617   4.327   7.044  0.0805  0.0785  0.8794
 2713SOL    HW219773   2.684   4.308   6.918 -1.3075 -1.3723 -1.5285
 2714SOL     OW19774   2.951   3.593   6.693  0.0309 -0.1517  0.1108
 2714SOL    HW119775   2.999   3.670   6.723 -1.3457  0.5929  0.3590
 2714SOL    HW219776   2.862   3.620   6.669  0.2123  0.3412 -0.0207
 2715SOL     OW19777   2.395   1.825   4.208 -0.5214 -0.2833  0.4344
 2715SOL    HW119778   2.464   1.783   4.157  0.2365  0.6227  0.7004
 2715SOL    HW219779   2.412   1.919   4.195 -3.4743  0.2378  0.3514
 2716SOL     OW19780   4.509   0.221  14.766  0.2422 -0.7082 -0.1827
 2716SOL    HW119781   4.515   0.154  14.834  0.1201  1.3735  1.8987
 2716SOL    HW219782   4.425   0.210  14.722  0.4166 -1.3080 -0.3664
 2717SOL     OW19783   3.291   3.461  10.091  0.2759  0.0001  0.1111
 2717SOL    HW119784   3.296   3.408  10.012 -2.5136  0.3638 -0.3028
 2717SOL    HW219785   3.348   3.529  10.055  2.7015 -2.3675 -0.4569
 2718SOL     OW19786   1.568   1.944   7.906  0.0604  0.3905 -0.1327
 2718SOL    HW119787   1.622   1.910   7.977  0.7950 -2.4688 -2.0299
 2718SOL    HW219788   1.513   2.009   7.949 -1.7199 -0.0013 -1.8492
 2719SOL     OW19789   0.127   2.368   7.018 -0.1576 -0.3532  0.4706
 2719SOL    HW119790   0.129   2.367   6.923  2.2341  0.9252  0.5023
 2719SOL    HW219791   0.041   2.335   7.042 -0.6294 -0.3616 -1.2734
 2720SOL     OW19792   0.029   0.450   7.553  0.2358  0.7649 -0.2041
 2720SOL    HW119793   0.050   0.372   7.605 -1.0251 -0.6892 -1.8952
 2720SOL    HW219794   0.112   0.498   7.556  2.1437 -2.6776  2.0183
 2721SOL     OW19795   2.045   0.901   8.419  0.8461  0.1168  0.2235
 2721SOL    HW119796   1.973   0.851   8.380  0.6150  1.1240 -0.6386
 2721SOL    HW219797   2.118   0.840   8.413  0.8841  0.2358 -0.5824
 2722SOL     OW19798   0.177   1.802   8.767 -1.0674  0.0706 -0.1491
 2722SOL    HW119799   0.188   1.817   8.861 -0.7048 -2.4334  0.1856
 2722SOL    HW219800   0.121   1.725   8.772  3.2130 -2.8236  2.3597
 2723SOL     OW19801   2.778   1.098  16.086 -0.3225 -0.1874  0.2516
 2723SOL    HW119802   2.833   1.067  16.014 -1.6129 -1.7157 -0.0702
 2723SOL    HW219803   2.817   1.037  16.148  2.5295  0.9163 -0.4675
 2724SOL     OW19804   0.194   2.238  16.453  0.1173  0.1253  0.3498
 2724SOL    HW119805   0.236   2.311  16.408  0.1062  0.4299  0.8294
 2724SOL    HW219806   0.261   2.170  16.443  0.0282 -0.1034  1.2947
 2725SOL     OW19807   0.638   3.925   5.659 -0.8156  0.1828  0.3381
 2725SOL    HW119808   0.598   3.928   5.746 -0.2468  0.7507  0.5774
 2725SOL    HW219809   0.572   3.875   5.610  1.3840 -1.5519 -0.8813
 2726SOL     OW19810   2.376   2.775  11.640 -0.0509  0.3239 -0.5382
 2726SOL    HW119811   2.449   2.720  11.609 -0.2164  0.1946 -0.7057
 2726SOL    HW219812   2.421   2.834  11.700  0.0154 -0.9132  0.6394
 2727SOL     OW19813   3.694   2.306  13.627 -0.4420  0.1566  0.7879
 2727SOL    HW119814   3.653   2.383  13.667 -1.3885  1.1765 -2.1016
 2727SOL    HW219815   3.654   2.227  13.664 -0.7691 -0.4761 -0.9192
 2728SOL     OW19816   4.489   1.553   3.426  0.4464  0.1445  0.2472
 2728SOL    HW119817   4.568   1.581   3.473 -1.2425 -1.0103  3.7960
 2728SOL    HW219818   4.464   1.482   3.485 -0.9269  1.6829  1.5473
 2729SOL     OW19819   1.171   1.786  15.457  0.2733  0.3813 -0.1244
 2729SOL    HW119820   1.085   1.825  15.474  0.1916 -0.2564  0.9389
 2729SOL    HW219821   1.174   1.736  15.539  0.2549 -0.6428 -0.7520
 2730SOL     OW19822   4.334   2.492   5.229  0.0090 -0.0633 -0.6579
 2730SOL    HW119823   4.265   2.427   5.213 -0.8574  0.8636 -0.6903
 2730SOL    HW219824   4.314   2.574   5.184 -1.3066 -0.2900 -0.4952
 2731SOL     OW19825   0.618   1.829   0.673  0.4119  0.4434 -0.1479
 2731SOL    HW119826   0.566   1.763   0.628 -2.5520  1.2886  2.0353
 2731SOL    HW219827   0.551   1.849   0.738  2.7037  1.1900  1.9953
 2732SOL     OW19828   3.882   0.132  13.371  0.1413  0.0806  0.3758
 2732SOL    HW119829   3.914   0.122  13.282  0.0309 -1.5110  0.5082
 2732SOL    HW219830   3.934   0.205  13.404 -1.1575  0.5054  1.5032
 2733SOL     OW19831   3.670   4.579   6.040 -0.1649  0.2012 -0.0614
 2733SOL    HW119832   3.696   4.507   6.098  0.8067 -1.2247 -2.2417
 2733SOL    HW219833   3.604   4.537   5.985  1.4932 -1.3491 -0.8516
 2734SOL     OW19834   0.677   3.182   8.766 -0.6993 -0.2416  0.0137
 2734SOL    HW119835   0.659   3.092   8.794 -2.7562  0.6238  1.4789
 2734SOL    HW219836   0.601   3.220   8.810 -1.1860  1.2880 -2.1721
 2735SOL     OW19837   1.031   4.088   7.332  0.4666  0.2936 -0.1604
 2735SOL    HW119838   0.988   4.079   7.248 -1.1025 -1.6994  0.8687
 2735SOL    HW219839   1.097   4.156   7.317 -0.9237  1.3191 -1.4751
 2736SOL     OW19840   0.094   3.879   4.310 -0.1304 -0.7094 -0.2179
 2736SOL    HW119841   0.078   3.874   4.404 -1.3035  2.3700 -0.2640
 2736SOL    HW219842   0.008   3.849   4.280 -0.2166  0.6174 -1.3089
 2737SOL     OW19843   3.724   3.936   6.578  0.2556  0.0902 -0.2140
 2737SOL    HW119844   3.639   3.932   6.621  0.2136 -0.2090 -0.3248
 2737SOL    HW219845   3.762   4.018   6.612  0.3084 -0.9389  2.1804
 2738SOL     OW19846   2.260   1.358   3.040 -0.1249 -0.0189  0.1463
 2738SOL    HW119847   2.220   1.413   3.108 -1.5283 -0.4941 -0.2810
 2738SOL    HW219848   2.279   1.277   3.088  0.2765  1.0346  1.7556
 2739SOL     OW19849   0.716   4.543  16.846 -0.3068  0.6208  0.0030
 2739SOL    HW119850   0.775   4.605  16.889  0.9265 -1.6149  1.5782
 2739SOL    HW219851   0.725   4.473  16.911 -0.6138 -1.3586 -2.1135
 2740SOL     OW19852   0.904   0.648   5.608 -0.3383 -0.6980 -0.0250
 2740SOL    HW119853   0.958   0.654   5.529  2.8371  0.3532  2.2691
 2740SOL    HW219854   0.876   0.557   5.600  0.5714 -1.1025  1.5526
 2741SOL     OW19855   0.312   2.910   2.779  0.0679  0.1308  0.3118
 2741SOL    HW119856   0.315   2.833   2.722 -0.6588  0.9593 -0.8576
 2741SOL    HW219857   0.370   2.879   2.848  1.9030  0.8438 -0.8891
 2742SOL     OW19858   1.988   1.020   5.502 -0.2387 -0.0845  0.2733
 2742SOL    HW119859   1.972   0.927   5.488  1.0168 -0.5517  1.8583
 2742SOL    HW219860   1.909   1.054   5.462  0.7189  0.1235 -1.4422
 2743SOL     OW19861   1.440   1.676  11.713 -0.0707 -0.0492  0.3366
 2743SOL    HW119862   1.385   1.600  11.694 -2.0895  0.7713  2.9269
 2743SOL    HW219863   1.379   1.744  11.741  0.3004 -0.7500  2.8204
 2744SOL     OW19864   1.747   2.836   9.700  0.0490 -0.3050  0.3459
 2744SOL    HW119865   1.666   2.881   9.676  0.3650  0.4030  0.5942
 2744SOL    HW219866   1.806   2.893   9.650 -1.2522  0.0538 -0.7668
 2745SOL     OW19867   1.402   4.082   5.643 -0.1796  0.0862  0.4509
 2745SOL    HW119868   1.418   4.099   5.550  1.9087 -0.9809  0.6183
 2745SOL    HW219869   1.440   3.995   5.656  0.6116  0.2622 -0.7430
 2746SOL     OW19870   2.221   4.301   4.493  0.0407  0.4740 -0.2520
 2746SOL    HW119871   2.242   4.314   4.585  0.8041 -3.0670  0.0680
 2746SOL    HW219872   2.203   4.207   4.492 -1.5129  0.7821 -1.3043
 2747SOL     OW19873   3.978   1.200   3.925 -0.1241  0.1682  0.0819
 2747SOL    HW119874   3.919   1.271   3.899 -0.6619 -1.2930 -2.6373
 2747SOL    HW219875   3.933   1.164   4.001  0.5269 -0.0390  0.3618
 2748SOL     OW19876   3.761   4.401   2.439  0.3848  0.3957  0.3115
 2748SOL    HW119877   3.707   4.416   2.362 -1.2583  0.2551  1.4298
 2748SOL    HW219878   3.754   4.492   2.469 -1.7609  0.0203  0.9329
 2749SOL     OW19879   1.359   1.961   7.459  0.2003  0.1262  0.3292
 2749SOL    HW119880   1.339   1.951   7.552  0.8118 -0.3626  0.4140
 2749SOL    HW219881   1.400   1.876   7.442 -0.5646 -0.3219  0.7638
 2750SOL     OW19882   0.805   4.178  16.645 -0.0658 -0.6833  0.2650
 2750SOL    HW119883   0.851   4.133  16.574  3.3360  1.3109  1.2321
 2750SOL    HW219884   0.836   4.268  16.643 -0.1695 -0.6696 -0.4976
 2751SOL     OW19885   0.182   3.202   7.680 -0.5460 -0.0500  0.1349
 2751SOL    HW119886   0.205   3.128   7.624 -0.1849  0.9583 -1.0548
 2751SOL    HW219887   0.090   3.213   7.656 -0.1300 -1.5308 -2.1369
 2752SOL     OW19888   2.958   3.591   0.019  0.7196  0.9750  0.2141
 2752SOL    HW119889   2.870   3.623   0.035  0.4980  0.7958 -0.6692
 2752SOL    HW219890   2.954   3.495   0.026 -0.7744  1.1898  2.1267
 2753SOL     OW19891   1.815   3.308   2.945  0.0703  0.2627 -0.3749
 2753SOL    HW119892   1.781   3.370   2.880  0.5155  0.5605 -0.3226
 2753SOL    HW219893   1.896   3.353   2.968 -0.8371  1.5644  0.2684
 2754SOL     OW19894   1.814   0.898   5.833 -0.1430  0.8999  0.0718
 2754SOL    HW119895   1.832   0.987   5.805 -1.5018  0.8459 -0.9625
 2754SOL    HW219896   1.754   0.928   5.902 -1.0858 -2.5783  0.7861
 2755SOL     OW19897   1.461   4.318   5.813  0.1475 -0.3078 -0.1610
 2755SOL    HW119898   1.369   4.296   5.798  0.4387 -0.9429 -0.9818
 2755SOL    HW219899   1.505   4.241   5.779  3.5106  1.1194  0.9223
 2756SOL     OW19900   2.505   3.663   4.258  0.0695 -0.0202 -0.1978
 2756SOL    HW119901   2.452   3.635   4.183 -0.7091 -0.1109  0.3959
 2756SOL    HW219902   2.450   3.622   4.325 -1.4554  0.8723 -0.9090
 2757SOL     OW19903   0.201   2.787   4.513 -0.7078 -0.3679  0.6958
 2757SOL    HW119904   0.138   2.729   4.470  0.6618 -0.4837 -1.1649
 2757SOL    HW219905   0.140   2.839   4.565 -0.3218 -0.2843  1.0629
 2758SOL     OW19906   2.355   1.928   6.656  0.3890 -0.3994  0.5863
 2758SOL    HW119907   2.297   1.874   6.602 -3.1581  2.5523  1.4925
 2758SOL    HW219908   2.374   2.000   6.596 -2.0791  0.4512  0.8315
 2759SOL     OW19909   4.233   0.957   5.121 -0.1291  0.0283 -0.5418
 2759SOL    HW119910   4.279   0.910   5.190  1.5366  3.3116  0.6092
 2759SOL    HW219911   4.148   0.962   5.164  2.0238 -0.2720  3.7299
 2760SOL     OW19912   3.188   4.581   0.678  0.2624  0.0643 -0.0065
 2760SOL    HW119913   3.141   4.664   0.687 -0.7095 -0.5939  1.0234
 2760SOL    HW219914   3.248   4.594   0.751 -0.5321 -0.6493  0.7700
 2761SOL     OW19915   2.273   2.027   8.739 -0.1579  0.9111 -0.0534
 2761SOL    HW119916   2.359   2.022   8.697  0.2967  3.1347  0.6230
 2761SOL    HW219917   2.287   1.947   8.789  0.5318  2.8498  2.8371
 2762SOL     OW19918   2.424   4.016   7.881 -0.1918  0.9518  0.4712
 2762SOL    HW119919   2.435   3.931   7.839  0.7947  2.3986 -2.2615
 2762SOL    HW219920   2.411   4.070   7.802 -0.9560  2.7306  1.7974
 2763SOL     OW19921   2.479   0.204   9.051 -0.3860  0.6508  0.2498
 2763SOL    HW119922   2.440   0.134   8.999 -0.0994  0.8320 -0.2065
 2763SOL    HW219923   2.443   0.185   9.138 -3.1864 -0.4524 -1.1440
 2764SOL     OW19924   0.398   0.072   4.293 -0.1411 -0.2311 -0.6678
 2764SOL    HW119925   0.352   0.153   4.316 -1.7079 -1.4647  0.5569
 2764SOL    HW219926   0.324   0.030   4.250 -0.3002 -1.6349  0.9638
 2765SOL     OW19927   1.127   0.608   6.229  0.5096 -0.4672 -0.1224
 2765SOL    HW119928   1.180   0.680   6.266 -0.4686  0.9146 -1.4037
 2765SOL    HW219929   1.041   0.621   6.269  0.5523 -1.0792  0.1638
 2766SOL     OW19930   1.614   3.195   6.565  0.2924  0.3211  0.2437
 2766SOL    HW119931   1.691   3.168   6.515 -0.7283  2.4428 -2.4560
 2766SOL    HW219932   1.650   3.191   6.653  1.0480  2.9014  0.0556
 2767SOL     OW19933   0.714   0.048   2.824 -0.6655  0.1783 -0.0664
 2767SOL    HW119934   0.627   0.009   2.817 -0.5456  0.1814 -1.7427
 2767SOL    HW219935   0.766   0.010   2.752 -0.5308 -1.3123  0.8073
 2768SOL     OW19936   0.650   2.942   1.891  0.5996 -0.5699 -0.2420
 2768SOL    HW119937   0.648   3.033   1.921  1.4937 -0.2974 -0.9967
 2768SOL    HW219938   0.581   2.903   1.944  2.5009  0.3186  2.9218
 2769SOL     OW19939   2.255   4.639  15.667 -0.1531 -0.3226 -0.3679
 2769SOL    HW119940   2.274   4.704  15.600  1.1267 -0.9663 -0.6309
 2769SOL    HW219941   2.175   4.673  15.708  0.2142  0.9612 -0.7368
 2770SOL     OW19942   4.110   0.184   0.286 -0.5938  0.5712 -0.1272
 2770SOL    HW119943   4.185   0.184   0.227  0.1089  0.6530  0.7602
 2770SOL    HW219944   4.155   0.158   0.366 -2.4476 -0.6176  0.5140
 2771SOL     OW19945   2.577   2.640   4.084  0.1623 -0.3871  0.6682
 2771SOL    HW119946   2.656   2.694   4.077  1.1945 -1.9184  0.4262
 2771SOL    HW219947   2.579   2.594   4.168 -0.1344 -0.7712  0.4677
 2772SOL     OW19948   3.999   1.393   9.915 -1.1831 -0.2077  0.0044
 2772SOL    HW119949   3.956   1.434   9.839 -1.1084  0.0639  0.1099
 2772SOL    HW219950   3.921   1.353   9.953 -1.4128 -1.8803 -2.2425
 2773SOL     OW19951   0.105   0.227   1.290 -0.0293  0.8019 -0.4160
 2773SOL    HW119952   0.191   0.190   1.269  0.5338  0.8334  1.8764
 2773SOL    HW219953   0.122   0.318   1.314 -1.0322  1.4387 -2.1162
 2774SOL     OW19954   3.776   3.039   7.470  0.4500  0.0606  0.2178
 2774SOL    HW119955   3.771   2.968   7.534  0.1825 -0.6984 -0.6469
 2774SOL    HW219956   3.826   2.996   7.401  0.1400 -0.2040  0.1570
 2775SOL     OW19957   3.723   0.324  17.030  0.1012 -0.3117 -0.2454
 2775SOL    HW119958   3.792   0.309  17.095 -1.1236  1.1787  1.4126
 2775SOL    HW219959   3.753   0.401  16.981 -0.2571 -0.2964 -0.4383
 2776SOL     OW19960   2.887   4.646   8.501 -0.0691  0.5109  0.5437
 2776SOL    HW119961   2.808   4.595   8.516  0.4374 -1.0406 -2.1906
 2776SOL    HW219962   2.931   4.601   8.429 -0.8792  0.9255 -0.2094
 2777SOL     OW19963   1.528   2.761  12.207 -0.6491 -0.1091  0.2981
 2777SOL    HW119964   1.597   2.755  12.142  0.6383 -1.2191  1.7732
 2777SOL    HW219965   1.452   2.798  12.163 -1.2462  0.8295  2.0871
 2778SOL     OW19966   1.895   3.301   6.174  0.1494  0.0197 -0.4911
 2778SOL    HW119967   1.878   3.361   6.247  1.0799  1.1308 -1.1863
 2778SOL    HW219968   1.873   3.355   6.098 -1.0329  1.2667  0.7383
 2779SOL     OW19969   4.591   3.630   6.241 -0.5180 -0.4453 -0.1492
 2779SOL    HW119970   4.657   3.673   6.295 -1.8436 -0.3418  1.4019
 2779SOL    HW219971   4.533   3.608   6.313  0.8028  0.1008  1.0813
 2780SOL     OW19972   3.861   4.476  11.163 -0.1801 -0.2354  0.1909
 2780SOL    HW119973   3.793   4.408  11.162 -0.0117 -0.4038 -0.1276
 2780SOL    HW219974   3.921   4.440  11.229 -0.6341  0.0344  0.7494
 2781SOL     OW19975   3.287   4.403   4.281  0.2717  0.1313  0.2962
 2781SOL    HW119976   3.242   4.336   4.333 -0.1290  1.1562  1.2616
 2781SOL    HW219977   3.231   4.408   4.203 -1.9961  3.7313  2.1537
 2782SOL     OW19978   0.866   2.978  10.375  0.5645 -0.1794 -0.4806
 2782SOL    HW119979   0.862   2.943  10.286  0.9911  1.3104 -1.0896
 2782SOL    HW219980   0.921   3.056  10.365  1.7593 -0.9131  0.2973
 2783SOL     OW19981   3.649   4.588   7.359  0.2738  0.0109  0.4331
 2783SOL    HW119982   3.688   4.671   7.330  0.1281  0.4457  1.4831
 2783SOL    HW219983   3.623   4.614   7.447 -0.3260  0.8823  0.0014
 2784SOL     OW19984   1.835   3.880  15.855 -0.4064  0.3678 -0.3512
 2784SOL    HW119985   1.767   3.862  15.790 -0.3157  3.1186 -1.2098
 2784SOL    HW219986   1.915   3.890  15.804 -1.3713 -2.4508 -2.4217
 2785SOL     OW19987   1.797   0.441   7.831  0.0635  0.5469  0.1267
 2785SOL    HW119988   1.705   0.460   7.813  0.1727  0.8981 -0.0483
 2785SOL    HW219989   1.846   0.426   7.751 -1.5247  0.6093 -0.8650
 2786SOL     OW19990   1.808   4.375  14.477  0.0430  0.7938  0.0551
 2786SOL    HW119991   1.785   4.326  14.398 -0.3662  0.0547  0.6346
 2786SOL    HW219992   1.719   4.390  14.509 -1.4678 -1.2888 -3.2496
 2787SOL     OW19993   3.576   2.311   3.572  0.3947 -0.6481 -0.9441
 2787SOL    HW119994   3.555   2.403   3.585  1.8322 -0.3384 -0.8268
 2787SOL    HW219995   3.515   2.267   3.630  0.8126  0.4606  0.3330
 2788SOL     OW19996   4.209   0.286   8.625 -0.4557  0.1154  0.3038
 2788SOL    HW119997   4.115   0.270   8.631 -0.5779 -0.2549 -2.6657
 2788SOL    HW219998   4.245   0.199   8.641 -0.7158 -0.1921 -0.8043
 2789SOL     OW19999   2.086   1.242  16.420 -0.0940  0.6185  0.3410
 2789SOL    HW120000   2.115   1.321  16.467  0.0381  1.1224 -0.5841
 2789SOL    HW220001   2.165   1.230  16.367 -0.9816  2.0352 -1.2668
 2790SOL     OW20002   4.358   2.230   7.116 -0.0082 -0.3439  0.4852
 2790SOL    HW120003   4.293   2.296   7.095 -0.2502 -1.5259 -2.4857
 2790SOL    HW220004   4.349   2.180   7.035 -0.1604  0.6412 -0.0926
 2791SOL     OW20005   0.822   3.205   4.660 -0.1490  0.4906 -0.1086
 2791SOL    HW120006   0.752   3.208   4.724 -1.3510  0.3590 -1.4242
 2791SOL    HW220007   0.829   3.295   4.626  1.1428 -0.2643 -1.8304
 2792SOL     OW20008   2.681   2.951   5.290  0.5680  0.6412 -0.3382
 2792SOL    HW120009   2.743   2.979   5.358  0.1372  2.8446 -0.8412
 2792SOL    HW220010   2.706   2.994   5.208  0.0800  0.8289 -0.3874
 2793SOL     OW20011   0.092   3.891   9.002  0.1032 -0.7272  0.1854
 2793SOL    HW120012   0.048   3.807   8.988  0.6308 -1.2918  1.8535
 2793SOL    HW220013   0.076   3.944   8.924 -0.4438 -1.1142  0.0324
 2794SOL     OW20014   2.603   0.851   3.073  0.4689 -0.6325 -0.0907
 2794SOL    HW120015   2.633   0.846   3.163 -3.4154 -1.9788  1.1441
 2794SOL    HW220016   2.558   0.934   3.060 -2.2017 -2.1258 -0.4494
 2795SOL     OW20017   1.929   1.398  14.540 -0.1950 -0.4379 -0.1066
 2795SOL    HW120018   1.859   1.398  14.605 -1.2407  3.1601 -1.2479
 2795SOL    HW220019   1.924   1.475  14.484  1.9711  0.4611  0.9318
 2796SOL     OW20020   1.225   4.203   4.049  0.3234  0.1502 -0.1475
 2796SOL    HW120021   1.266   4.122   4.080  3.0742  1.1212 -1.2058
 2796SOL    HW220022   1.137   4.192   4.084 -0.1253 -1.5057 -1.8311
 2797SOL     OW20023   0.588   0.090  17.268  0.2973 -0.2241  0.1007
 2797SOL    HW120024   0.534   0.067  17.193 -0.5868 -0.6552  0.8749
 2797SOL    HW220025   0.581   0.185  17.276  2.1680 -0.1189  0.4124
 2798SOL     OW20026   2.881   4.216   7.371  0.1525 -0.1900 -0.3193
 2798SOL    HW120027   2.951   4.212   7.436 -1.4930 -2.2646  1.3175
 2798SOL    HW220028   2.832   4.134   7.376 -0.5471  0.2112 -0.5087
 2799SOL     OW20029   1.551   0.639   4.898  0.1469 -0.2996 -0.5145
 2799SOL    HW120030   1.581   0.597   4.817  1.5940  1.0016 -0.6708
 2799SOL    HW220031   1.627   0.633   4.956  1.5592  1.2389 -2.1773
 2800SOL     OW20032   0.122   1.920   1.103  0.3884 -0.4732  0.3528
 2800SOL    HW120033   0.039   1.871   1.098  0.6700 -1.0567  1.2814
 2800SOL    HW220034   0.111   1.957   1.191  0.6537  1.2787 -0.3447
 2801SOL     OW20035   1.652   3.612   0.038 -0.2131 -0.0306 -0.5513
 2801SOL    HW120036   1.706   3.682   0.000 -2.1525  2.3681  1.1181
 2801SOL    HW220037   1.601   3.655   0.107 -0.3676 -1.6698  0.3477
 2802SOL     OW20038   2.802   4.397   5.325 -0.0781 -0.0802  0.0692
 2802SOL    HW120039   2.754   4.374   5.405 -1.5225  2.0511 -0.1828
 2802SOL    HW220040   2.891   4.380   5.355 -0.8910  0.6789  2.9316
 2803SOL     OW20041   1.839   1.185   9.496 -0.2183 -0.4505 -0.2462
 2803SOL    HW120042   1.914   1.142   9.454  0.2516  0.8847 -0.7497
 2803SOL    HW220043   1.835   1.275   9.464 -0.3554  0.1438  1.4577
 2804SOL     OW20044   4.721   3.653   7.693 -0.2873  0.0738 -0.3766
 2804SOL    HW120045   4.683   3.681   7.609 -2.1303  1.1231  0.8161
 2804SOL    HW220046   4.651   3.646   7.758  1.0121  0.4800  1.0496
 2805SOL     OW20047   3.130   2.744  13.138  0.2656  0.1626  0.0205
 2805SOL    HW120048   3.052   2.739  13.083  1.5195 -2.1828 -1.5787
 2805SOL    HW220049   3.189   2.691  13.084 -0.4900  0.2015 -0.8547
 2806SOL     OW20050   1.743   2.468  15.641 -0.6873  0.5033 -0.1165
 2806SOL    HW120051   1.810   2.536  15.645 -0.5010  0.1510  2.5379
 2806SOL    HW220052   1.718   2.475  15.549 -0.0058  0.2758 -0.3126
 2807SOL     OW20053   3.953   3.465   5.890  0.0427 -0.1269 -0.2324
 2807SOL    HW120054   4.017   3.454   5.820  0.5228 -1.0161  0.3440
 2807SOL    HW220055   3.963   3.383   5.938  0.1427  0.3111  0.5087
 2808SOL     OW20056   4.456   0.067   4.992 -0.3180 -0.3464  0.2288
 2808SOL    HW120057   4.481   0.159   5.002  0.2885 -0.3744 -0.9890
 2808SOL    HW220058   4.531   0.050   4.935 -0.0838  1.8417 -0.1379
 2809SOL     OW20059   2.850   2.448   5.476  0.3634 -0.3092 -0.1920
 2809SOL    HW120060   2.819   2.483   5.393  1.9155  1.6561  0.0664
 2809SOL    HW220061   2.774   2.396   5.502  0.4719 -0.5289 -0.3130
 2810SOL     OW20062   4.532   2.946   2.152 -0.1968  0.3649 -0.8375
 2810SOL    HW120063   4.440   2.953   2.126 -0.0389 -0.8933 -1.7265
 2810SOL    HW220064   4.573   2.974   2.070  1.0867  0.8271 -0.0328
 2811SOL     OW20065   2.327   2.510   9.131  0.3489  0.1443 -0.2734
 2811SOL    HW120066   2.332   2.547   9.219  0.1763 -0.5103  0.0080
 2811SOL    HW220067   2.378   2.578   9.087 -0.0114  1.9853  2.1494
 2812SOL     OW20068   2.944   3.840   8.908  0.2716 -0.0466 -0.1242
 2812SOL    HW120069   2.995   3.816   8.985  3.3213 -0.5371 -2.2883
 2812SOL    HW220070   3.013   3.876   8.852 -1.1104  2.6985 -0.0664
 2813SOL     OW20071   4.121   4.251   4.246  0.1136 -0.5505  0.0854
 2813SOL    HW120072   4.093   4.221   4.333  1.5863 -1.2694  0.3033
 2813SOL    HW220073   4.033   4.282   4.224  0.2499 -0.7532 -0.7479
 2814SOL     OW20074   3.928   4.663   3.441 -0.0920 -0.0885 -0.2561
 2814SOL    HW120075   3.856   4.611   3.405  0.5408 -1.5069  0.5104
 2814SOL    HW220076   3.874   4.699   3.512  3.0511  2.3677  0.9375
 2815SOL     OW20077   3.170   4.027   8.296 -0.1692  0.0647 -0.8824
 2815SOL    HW120078   3.220   4.083   8.356 -1.4714 -0.7894  0.9846
 2815SOL    HW220079   3.245   4.000   8.242 -0.8263 -0.4302 -1.5347
 2816SOL     OW20080   0.615   1.441   6.924  0.2677 -0.2365  0.3083
 2816SOL    HW120081   0.584   1.501   6.856  1.2887  0.0197  0.0694
 2816SOL    HW220082   0.709   1.458   6.923  0.3201 -0.5719 -1.1132
 2817SOL     OW20083   4.248   4.115   5.004 -0.2873  0.0017  0.6363
 2817SOL    HW120084   4.343   4.108   5.015 -0.1487  1.4952  0.3747
 2817SOL    HW220085   4.216   4.064   5.078  2.9906  0.6977  2.5389
 2818SOL     OW20086   0.738   1.664  13.650  0.3109  0.2307  0.1453
 2818SOL    HW120087   0.730   1.654  13.555  1.0692 -1.2725  0.2481
 2818SOL    HW220088   0.782   1.583  13.674  0.0328 -0.0924 -0.4308
 2819SOL     OW20089   2.884   1.145   5.757 -0.0590 -0.1052  0.0408
 2819SOL    HW120090   2.807   1.189   5.793  0.0064  0.8386 -0.9789
 2819SOL    HW220091   2.878   1.161   5.663 -2.3815  0.9329  0.3521
 2820SOL     OW20092   3.982   2.081   1.317 -0.3287 -0.1890  0.6334
 2820SOL    HW120093   3.928   2.005   1.295 -0.8601  0.5198 -0.5301
 2820SOL    HW220094   4.055   2.075   1.255  0.5975  0.5276  1.6582
 2821SOL     OW20095   1.419   1.460   3.436  0.3568  0.5992  0.2859
 2821SOL    HW120096   1.493   1.432   3.489  2.0105  2.8670 -0.8408
 2821SOL    HW220097   1.354   1.445   3.505 -2.3739  1.4763 -2.1218
 2822SOL     OW20098   2.982   2.411   0.427  0.2580 -0.5268 -0.2235
 2822SOL    HW120099   2.929   2.486   0.453 -1.5197 -1.2286 -1.7633
 2822SOL    HW220100   2.986   2.364   0.510  0.8725 -0.2120 -0.0742
 2823SOL     OW20101   1.717   3.562   2.118 -0.9130  0.1496  0.0199
 2823SOL    HW120102   1.765   3.611   2.052  0.4592 -1.7152 -0.3703
 2823SOL    HW220103   1.642   3.621   2.115 -0.8387  0.1977 -0.9588
 2824SOL     OW20104   1.590   0.162  12.711  0.1395 -0.1775 -1.0842
 2824SOL    HW120105   1.583   0.160  12.615 -1.1017  0.5218 -1.0029
 2824SOL    HW220106   1.633   0.077  12.722  0.1237  0.0489  0.6239
 2825SOL     OW20107   4.314   1.614   2.781  0.4428  0.1477 -0.1473
 2825SOL    HW120108   4.262   1.683   2.739 -0.7690 -1.6823 -1.6513
 2825SOL    HW220109   4.243   1.575   2.833 -0.7062 -0.7171 -2.3972
 2826SOL     OW20110   1.351   4.271  12.296  0.3132  0.1481 -0.6401
 2826SOL    HW120111   1.336   4.337  12.228 -1.2118  0.5489  0.0808
 2826SOL    HW220112   1.276   4.287  12.354  1.5703 -0.0476  1.0549
 2827SOL     OW20113   2.857   1.063   8.964  0.1150  0.8906  0.2380
 2827SOL    HW120114   2.844   1.158   8.961 -1.5430  0.6172 -0.9766
 2827SOL    HW220115   2.913   1.050   8.887 -2.4739  0.1797 -1.4888
 2828SOL     OW20116   0.894   2.770   8.677 -0.5993  0.0326 -0.1065
 2828SOL    HW120117   0.852   2.698   8.724 -0.8415  0.4768  0.3551
 2828SOL    HW220118   0.819   2.816   8.638 -0.9705 -1.8637 -1.6559
 2829SOL     OW20119   0.610   4.381   1.996 -1.4685  0.2434  0.2954
 2829SOL    HW120120   0.641   4.294   1.973  4.0424  1.8231  1.6784
 2829SOL    HW220121   0.621   4.384   2.091  1.6005  0.2155 -0.0417
 2830SOL     OW20122   0.168   4.339   9.012  0.8242  0.6624  0.6155
 2830SOL    HW120123   0.135   4.375   9.094  0.1911  0.4944  0.4375
 2830SOL    HW220124   0.224   4.412   8.983 -0.1054 -0.1966 -3.4332
 2831SOL     OW20125   1.370   1.096   7.164 -0.1919 -0.2249 -0.0633
 2831SOL    HW120126   1.385   1.131   7.252 -0.8167  0.4230 -0.2161
 2831SOL    HW220127   1.411   1.167   7.113  0.7787 -0.1177  0.8685
 2832SOL     OW20128   3.316   0.500   8.310 -0.8668  0.0520 -0.2146
 2832SOL    HW120129   3.374   0.427   8.332 -0.7699  0.5506  1.1882
 2832SOL    HW220130   3.229   0.462   8.325  0.3644 -3.2840 -1.3849
 2833SOL     OW20131   2.971   0.943   1.749  0.0077  0.1138  0.2791
 2833SOL    HW120132   2.987   0.886   1.674 -1.0389 -0.8742  0.8105
 2833SOL    HW220133   2.876   0.941   1.740  0.0815  0.7805 -0.6093
 2834SOL     OW20134   2.331   1.871  16.313 -0.3960 -0.1754 -0.7259
 2834SOL    HW120135   2.351   1.964  16.309  0.9451 -0.3666  1.5946
 2834SOL    HW220136   2.263   1.865  16.246 -0.0249 -0.3454 -1.0867
 2835SOL     OW20137   1.999   4.492   7.614 -0.2168 -0.5332 -0.4183
 2835SOL    HW120138   2.005   4.573   7.664  0.1771 -0.9297  0.1875
 2835SOL    HW220139   2.030   4.430   7.681 -0.2903  1.1684  1.1787
 2836SOL     OW20140   1.608   4.505   1.524 -0.2194 -0.0092  0.1557
 2836SOL    HW120141   1.698   4.537   1.519 -0.4591  0.1650 -3.4731
 2836SOL    HW220142   1.551   4.574   1.557 -1.2123 -0.8902  0.2706
 2837SOL     OW20143   1.809   2.692   6.965 -0.2252  0.2948 -0.5257
 2837SOL    HW120144   1.837   2.760   7.026 -2.1291  0.7089 -0.1073
 2837SOL    HW220145   1.830   2.732   6.881 -2.4704  2.7212  0.0343
 2838SOL     OW20146   3.007   4.021   3.723 -0.2426 -0.1418 -0.4541
 2838SOL    HW120147   2.929   4.057   3.764 -0.2792  0.9928 -1.5161
 2838SOL    HW220148   2.987   4.019   3.629 -0.2881  0.2752 -0.4518
 2839SOL     OW20149   3.463   0.521   8.703 -0.1087  0.1185  0.0838
 2839SOL    HW120150   3.473   0.616   8.706  1.5408  0.0397 -2.4397
 2839SOL    HW220151   3.423   0.504   8.788 -0.2496 -0.8298 -0.1671
 2840SOL     OW20152   0.310   3.744   5.884 -0.0226  0.1574 -0.0313
 2840SOL    HW120153   0.330   3.685   5.956  0.5304  0.5974  0.1769
 2840SOL    HW220154   0.343   3.824   5.926 -1.4691 -0.3180  1.9944
 2841SOL     OW20155   3.902   2.686  12.967 -0.1594 -0.1337 -0.5138
 2841SOL    HW120156   3.962   2.654  12.899  0.4463  1.6663 -0.8084
 2841SOL    HW220157   3.882   2.602  13.008 -1.9955  0.9748  0.8325
 2842SOL     OW20158   2.128   3.496   5.778  0.2320  0.0781 -0.6629
 2842SOL    HW120159   2.077   3.453   5.846 -1.1340 -0.5142 -2.0557
 2842SOL    HW220160   2.145   3.428   5.714  2.2431 -0.3220  0.3242
 2843SOL     OW20161   0.709   3.269   5.943 -0.1381 -0.2878  0.4396
 2843SOL    HW120162   0.800   3.251   5.917 -0.1309 -0.2688  0.4521
 2843SOL    HW220163   0.718   3.364   5.942 -3.4235  0.0264  2.4143
 2844SOL     OW20164   3.257   4.072   5.646  0.7130  0.0836 -0.5857
 2844SOL    HW120165   3.244   3.977   5.640  1.8174 -0.2147  1.6664
 2844SOL    HW220166   3.172   4.101   5.614  0.6398  1.3402  0.7495
 2845SOL     OW20167   1.580   2.274   6.445 -0.6583 -0.3326 -0.4577
 2845SOL    HW120168   1.530   2.283   6.525  0.6733 -0.2749  0.3679
 2845SOL    HW220169   1.657   2.330   6.457  0.2064 -1.4206 -0.8371
 2846SOL     OW20170   3.133   1.838   4.177 -0.5912  1.2824 -0.1321
 2846SOL    HW120171   3.049   1.835   4.131 -0.7704  0.6526  0.2284
 2846SOL    HW220172   3.193   1.784   4.126 -2.4876 -1.4563  0.5017
 2847SOL     OW20173   4.061   4.298   2.814 -0.2347  0.2990  0.2542
 2847SOL    HW120174   4.080   4.264   2.901 -2.9413 -1.2810  0.2112
 2847SOL    HW220175   4.042   4.214   2.772  0.9156 -0.8358  2.0110
 2848SOL     OW20176   0.074   2.871   7.502 -0.0198 -0.7409  0.1270
 2848SOL    HW120177   0.089   2.822   7.421  2.0685 -3.3877  2.1298
 2848SOL    HW220178   0.152   2.924   7.522 -1.6525  2.5930 -2.4604
 2849SOL     OW20179   1.131   1.393   2.458  0.4033 -0.1185 -0.0855
 2849SOL    HW120180   1.080   1.391   2.539  0.8030 -0.2387  0.1627
 2849SOL    HW220181   1.172   1.308   2.474  1.2311  0.7392  2.3819
 2850SOL     OW20182   3.484   4.314  16.367 -0.3128 -0.1182 -0.0985
 2850SOL    HW120183   3.486   4.218  16.371  0.9504 -0.1058 -0.3441
 2850SOL    HW220184   3.486   4.325  16.272 -1.5381 -0.0159 -0.1059
 2851SOL     OW20185   0.787   2.638   7.710 -0.5990 -0.3208  0.3737
 2851SOL    HW120186   0.794   2.667   7.801  0.9130  0.4902  0.0089
 2851SOL    HW220187   0.878   2.658   7.688 -0.7908  0.1494  0.0163
 2852SOL     OW20188   1.071   2.029   1.056  0.4359 -0.6006  0.0541
 2852SOL    HW120189   1.005   1.959   1.059 -0.5437  0.2744 -0.8408
 2852SOL    HW220190   1.044   2.070   0.974 -2.6939 -1.1650  0.8007
 2853SOL     OW20191   4.534   0.992  17.506  0.3173 -0.1799 -0.2665
 2853SOL    HW120192   4.567   1.029  17.588  0.8087 -2.2666  0.4770
 2853SOL    HW220193   4.579   1.043  17.440  0.5716 -0.0601 -0.0010
 2854SOL     OW20194   1.263   2.301  15.393  0.3085  0.3306 -0.4514
 2854SOL    HW120195   1.347   2.295  15.440 -0.1129 -2.9637 -0.0852
 2854SOL    HW220196   1.210   2.330  15.467 -1.4193  0.3085 -1.6823
 2855SOL     OW20197   3.945   2.478   7.322  0.7265  0.6388 -0.3189
 2855SOL    HW120198   3.912   2.414   7.386 -0.8013  1.2811 -0.4543
 2855SOL    HW220199   4.025   2.513   7.361 -1.5264  4.0271  1.2525
 2856SOL     OW20200   0.914   0.463  13.597 -0.0578 -0.0445  0.2608
 2856SOL    HW120201   0.961   0.389  13.559 -1.1706 -2.6731  3.9484
 2856SOL    HW220202   0.846   0.423  13.652 -1.7243  2.7723  0.2418
 2857SOL     OW20203   2.958   4.712   2.767  0.2331  0.1080 -0.7923
 2857SOL    HW120204   2.999   4.693   2.683  2.2934 -0.1868  0.2863
 2857SOL    HW220205   3.025   0.020   2.821  0.7109 -0.7915 -0.7016
 2858SOL     OW20206   1.824   0.414  15.254  0.6712 -0.2389 -0.6080
 2858SOL    HW120207   1.789   0.326  15.241  0.8497 -0.6464  1.7241
 2858SOL    HW220208   1.769   0.453  15.186 -0.4284 -0.9822 -0.1496
 2859SOL     OW20209   3.288   0.747   2.705 -0.2095 -0.0049  0.0030
 2859SOL    HW120210   3.251   0.684   2.644 -1.6821  2.1039 -1.2909
 2859SOL    HW220211   3.283   0.696   2.785 -2.6353  0.6262  0.2555
 2860SOL     OW20212   0.166   4.640   6.951  0.2601  0.2956  0.0993
 2860SOL    HW120213   0.156   4.699   6.877 -0.1507 -0.5374 -0.5138
 2860SOL    HW220214   0.199   4.698   7.020 -0.8700  1.2124 -0.1415
 2861SOL     OW20215   4.522   1.511  16.535 -0.2149 -0.2101  0.4922
 2861SOL    HW120216   4.432   1.495  16.507 -0.1531  0.1032  0.1079
 2861SOL    HW220217   4.517   1.601  16.569  1.8156  0.6782 -1.5422
 2862SOL     OW20218   3.810   4.318   6.386  0.0272 -0.2976  0.0732
 2862SOL    HW120219   3.885   4.292   6.334 -0.3033 -1.1206 -0.0017
 2862SOL    HW220220   3.840   4.399   6.427 -2.3820  0.1865  0.8913
 2863SOL     OW20221   1.939   0.571   3.052  0.3833 -0.0884  0.0731
 2863SOL    HW120222   1.953   0.642   2.989  1.6835 -1.4046 -1.1247
 2863SOL    HW220223   1.844   0.570   3.055  0.2707  1.8297 -2.2574
 2864SOL     OW20224   1.002   2.505   2.000 -0.0013  0.5575 -0.6477
 2864SOL    HW120225   1.021   2.416   2.029  1.5619  0.8947 -0.5954
 2864SOL    HW220226   0.957   2.494   1.916  0.4347  1.1261 -0.9616
 2865SOL     OW20227   2.902   2.054  11.024 -0.7466 -0.4903 -0.1053
 2865SOL    HW120228   2.856   2.033  11.105 -0.5750 -0.0959  0.0913
 2865SOL    HW220229   2.969   1.985  11.029  1.1226  1.2494 -1.3793
 2866SOL     OW20230   2.256   3.913  17.462  0.2631 -0.0186  0.0249
 2866SOL    HW120231   2.297   3.829  17.444 -1.9421 -0.7995 -1.2864
 2866SOL    HW220232   2.314   3.982  17.430 -0.2139  0.0912 -0.5952
 2867SOL     OW20233   2.416   0.748   4.245 -0.4048 -0.2112 -0.1341
 2867SOL    HW120234   2.453   0.770   4.159 -1.8363  4.2402  0.3772
 2867SOL    HW220235   2.397   0.656   4.227  0.6688 -0.3013 -0.8446
 2868SOL     OW20236   4.044   1.854   9.399 -0.6433 -0.5162  0.4555
 2868SOL    HW120237   4.131   1.821   9.422 -1.3238 -1.0312  2.3186
 2868SOL    HW220238   3.977   1.791   9.422 -2.1343  1.2687  1.0442
 2869SOL     OW20239   0.430   4.704   2.784 -0.3989  0.2150  0.5328
 2869SOL    HW120240   0.385   4.648   2.846 -0.6733 -0.5683 -0.3761
 2869SOL    HW220241   0.408   4.665   2.699 -1.0161 -2.7817  2.0989
 2870SOL     OW20242   1.317   3.025   9.000  0.5451 -1.0484  1.3141
 2870SOL    HW120243   1.344   2.937   9.025  0.4585 -1.0246  1.4903
 2870SOL    HW220244   1.380   3.050   8.932  0.2624  2.2204  2.2230
 2871SOL     OW20245   4.655   1.096  13.336 -0.0520  0.0885 -0.4235
 2871SOL    HW120246   4.724   1.042  13.296  1.0795  0.8799  0.4668
 2871SOL    HW220247   4.633   1.157  13.265  0.4794  3.8658  2.6799
 2872SOL     OW20248   3.632   2.448   9.635  0.4487 -0.6767  0.0578
 2872SOL    HW120249   3.603   2.357   9.647  1.7439 -1.4899 -2.7785
 2872SOL    HW220250   3.618   2.502   9.712 -0.5103  0.2656 -0.7844
 2873SOL     OW20251   4.529   2.798   8.784  0.2744 -0.0561  0.0139
 2873SOL    HW120252   4.500   2.723   8.836 -2.1388  0.8826  0.0305
 2873SOL    HW220253   4.553   2.747   8.707 -0.1521 -2.5009  1.5122
 2874SOL     OW20254   1.524   1.110   5.530 -0.5156 -0.4872 -0.1736
 2874SOL    HW120255   1.535   1.073   5.618  1.1584  0.0201 -0.1586
 2874SOL    HW220256   1.512   1.032   5.477  2.4257 -1.3835  0.4737
 2875SOL     OW20257   3.527   4.625  12.619  0.6018  0.0845 -0.1027
 2875SOL    HW120258   3.562   4.707  12.653  1.7349  0.1522 -1.4302
 2875SOL    HW220259   3.496   4.657  12.534 -0.7035  2.1057  1.1460
 2876SOL     OW20260   3.836   3.836   6.352  0.2340 -0.0695  0.5906
 2876SOL    HW120261   3.799   3.871   6.433  0.1031  1.8307 -0.2798
 2876SOL    HW220262   3.773   3.863   6.284  2.8313  0.1173 -1.7625
 2877SOL     OW20263   0.451   3.718   9.901 -0.5094 -0.2137 -0.5442
 2877SOL    HW120264   0.464   3.623   9.897 -2.3804 -0.4175 -1.7306
 2877SOL    HW220265   0.539   3.738   9.931  0.3482 -0.6670 -2.7910
 2878SOL     OW20266   1.540   3.900   5.951 -0.6815 -0.2014 -0.2777
 2878SOL    HW120267   1.520   3.830   5.889 -0.6536  1.4167 -2.1105
 2878SOL    HW220268   1.604   3.945   5.896  0.5839 -0.0421  1.2971
 2879SOL     OW20269   2.746   2.143   4.555  0.1155 -0.0197 -0.6574
 2879SOL    HW120270   2.797   2.207   4.507  1.4054  0.0333  0.7841
 2879SOL    HW220271   2.660   2.185   4.545  0.8817  1.4347 -1.1703
 2880SOL     OW20272   2.973   0.053   9.372 -0.1277  0.1653  0.6358
 2880SOL    HW120273   2.929   0.130   9.336  1.9601  1.0406 -0.0931
 2880SOL    HW220274   3.021   0.017   9.297 -0.1379  0.9774  0.2337
 2881SOL     OW20275   1.185   1.736   5.139 -0.3541  0.1581  0.1802
 2881SOL    HW120276   1.107   1.681   5.128 -1.8042  1.9784  1.1482
 2881SOL    HW220277   1.203   1.715   5.230  0.9842 -0.8288 -0.3207
 2882SOL     OW20278   2.225   1.218   6.093  0.0723  0.0618  0.3620
 2882SOL    HW120279   2.243   1.260   6.009  1.8128 -0.7662  0.3344
 2882SOL    HW220280   2.205   1.296   6.144  3.8257  0.2149  1.5855
 2883SOL     OW20281   0.597   1.445   8.055 -0.6674  0.3098 -0.7697
 2883SOL    HW120282   0.553   1.495   7.985  1.0362  2.5114 -0.2494
 2883SOL    HW220283   0.642   1.382   7.998 -0.0523 -2.3162  2.6160
 2884SOL     OW20284   3.637   0.918   4.565  0.6827  0.2418 -0.9835
 2884SOL    HW120285   3.666   0.829   4.547 -0.7463 -0.2326 -0.9364
 2884SOL    HW220286   3.542   0.911   4.560  0.8645 -2.1154 -0.9758
 2885SOL     OW20287   2.806   3.825   6.582 -0.3972  0.1548 -0.3683
 2885SOL    HW120288   2.868   3.875   6.529  0.1926 -1.4895 -1.1974
 2885SOL    HW220289   2.802   3.855   6.673 -2.5198 -1.8682  0.1979
 2886SOL     OW20290   0.899   4.216   6.627  0.0168 -0.6479  0.2226
 2886SOL    HW120291   0.833   4.277   6.593 -0.2782 -1.3005 -0.3765
 2886SOL    HW220292   0.985   4.252   6.603  0.2599 -1.2163  0.2368
 2887SOL     OW20293   3.706   4.295   4.711 -0.0445 -0.0917  0.0872
 2887SOL    HW120294   3.766   4.345   4.656  0.0967  0.5485  0.8250
 2887SOL    HW220295   3.630   4.308   4.655 -0.9444  1.8479  1.7838
 2888SOL     OW20296   3.140   2.117   4.303 -0.0648 -0.3621 -0.4363
 2888SOL    HW120297   3.201   2.144   4.373  0.1281  0.4576 -0.9187
 2888SOL    HW220298   3.140   2.023   4.321 -3.0174 -0.4153 -0.8021
 2889SOL     OW20299   0.947   1.017  12.532 -0.5468 -0.1328  0.1139
 2889SOL    HW120300   0.971   0.930  12.566 -0.5085  0.2086  0.9627
 2889SOL    HW220301   0.897   1.059  12.602  1.8410  1.0340  1.1245
 2890SOL     OW20302   2.681   1.399   4.590  0.4512  0.3618 -0.2922
 2890SOL    HW120303   2.602   1.367   4.547  1.3365 -3.0450  0.5905
 2890SOL    HW220304   2.651   1.482   4.626  1.4221  1.1210 -1.2389
 2891SOL     OW20305   1.165   3.414   0.691  0.1066  0.1508 -0.1636
 2891SOL    HW120306   1.247   3.395   0.645  1.7174  2.6857  1.6713
 2891SOL    HW220307   1.193   3.424   0.782  0.3441 -1.3825 -0.0707
 2892SOL     OW20308   1.486   2.140  14.104  0.3468  0.1336 -0.1435
 2892SOL    HW120309   1.401   2.123  14.146  1.4376 -2.8350  0.8363
 2892SOL    HW220310   1.503   2.234  14.113 -0.6920  0.3125 -0.0441
 2893SOL     OW20311   2.657   0.452   6.304  0.3104  0.3413  1.0761
 2893SOL    HW120312   2.661   0.428   6.212  1.3354  0.2492  1.1400
 2893SOL    HW220313   2.576   0.502   6.300  0.0567  0.1364  3.5635
 2894SOL     OW20314   0.454   4.069   5.115 -0.0146 -0.0876 -0.2040
 2894SOL    HW120315   0.516   4.068   5.042 -0.6204  0.3797 -0.7261
 2894SOL    HW220316   0.474   4.159   5.138 -2.3980  0.7027 -1.1766
 2895SOL     OW20317   3.771   2.077  14.918  0.2518 -0.0207  0.2237
 2895SOL    HW120318   3.768   2.170  14.939  1.1032  0.5114 -2.0037
 2895SOL    HW220319   3.864   2.075  14.896  0.5681 -0.0174  1.5920
 2896SOL     OW20320   3.642   2.361  15.906 -0.6770 -0.1498 -0.5826
 2896SOL    HW120321   3.557   2.344  15.946 -0.0615  1.6001  1.4908
 2896SOL    HW220322   3.611   2.433  15.851 -2.2939  0.4181  1.0568
 2897SOL     OW20323   4.092   2.336   5.152  0.2567  0.4950  0.2019
 2897SOL    HW120324   4.025   2.291   5.101 -0.7739  1.0135  1.0736
 2897SOL    HW220325   4.127   2.390   5.082 -0.4640 -0.0715 -0.6001
 2898SOL     OW20326   1.280   1.144   1.714 -0.5509  0.6085  0.1582
 2898SOL    HW120327   1.296   1.198   1.636  0.0604 -2.5827 -1.9366
 2898SOL    HW220328   1.366   1.105   1.730 -1.2856 -0.3339  1.7263
 2899SOL     OW20329   1.258   0.596  13.141  0.3086  0.2921  0.4416
 2899SOL    HW120330   1.304   0.653  13.202  1.3637 -0.3391  0.2404
 2899SOL    HW220331   1.313   0.604  13.063  0.4379 -3.1486  0.1418
 2900SOL     OW20332   1.110   2.593   8.561  0.5426 -0.8294  0.1043
 2900SOL    HW120333   1.074   2.620   8.477  1.0598 -2.4487 -0.6449
 2900SOL    HW220334   1.041   2.628   8.616  1.2746  0.1472  0.4002
 2901SOL     OW20335   3.530   3.245   9.074  0.1163 -0.2098  0.1446
 2901SOL    HW120336   3.591   3.180   9.039 -2.1957 -2.1530 -0.2098
 2901SOL    HW220337   3.565   3.258   9.162 -0.0039 -2.1253  0.4711
 2902SOL     OW20338   0.737   0.326   3.723  0.0139 -0.1319  0.0229
 2902SOL    HW120339   0.681   0.259   3.763 -0.2259 -0.7219 -1.3304
 2902SOL    HW220340   0.728   0.312   3.629  0.6273 -0.0138 -0.0511
 2903SOL     OW20341   4.678   1.400  12.296 -0.5367  0.1315  0.8300
 2903SOL    HW120342   0.030   1.438  12.317  0.6829 -1.6832 -0.7762
 2903SOL    HW220343   4.698   1.313  12.330  0.6408  0.4831  1.0363
 2904SOL     OW20344   4.204   3.710   2.094 -0.4864 -0.3425  0.0829
 2904SOL    HW120345   4.199   3.621   2.129 -0.9378 -0.1750  0.4536
 2904SOL    HW220346   4.229   3.761   2.171 -1.7862 -2.1598  1.7046
 2905SOL     OW20347   1.252   3.786   5.024 -0.0586 -0.6054 -0.5445
 2905SOL    HW120348   1.214   3.864   5.065 -0.7164 -1.0369 -0.3274
 2905SOL    HW220349   1.245   3.721   5.094  0.3982  0.5989  0.6046
 2906SOL     OW20350   1.063   0.907  11.419  0.5092 -0.1679  0.6359
 2906SOL    HW120351   0.983   0.903  11.472 -1.5081 -3.1091 -2.5855
 2906SOL    HW220352   1.118   0.958  11.477  2.2923  0.0763 -1.2944
 2907SOL     OW20353   2.674   2.677  15.484  0.2534  0.2350 -0.6961
 2907SOL    HW120354   2.592   2.726  15.473  1.9472  3.2264 -0.0910
 2907SOL    HW220355   2.715   2.716  15.561  1.3138 -0.6201 -0.8425
 2908SOL     OW20356   3.929   4.618  14.071 -0.0606 -0.2416  0.2606
 2908SOL    HW120357   3.887   4.554  14.128  1.4317 -1.2632  0.2193
 2908SOL    HW220358   3.962   4.679  14.137  0.2215 -1.2680  1.0666
 2909SOL     OW20359   1.173   0.972   8.350  0.4554  0.3183 -0.1358
 2909SOL    HW120360   1.104   1.019   8.398 -1.0148  0.8299 -2.7250
 2909SOL    HW220361   1.136   0.961   8.263  0.9671 -0.8287 -0.1994
 2910SOL     OW20362   1.462   3.496   3.032  0.7814  0.3303 -0.2438
 2910SOL    HW120363   1.474   3.565   2.966 -0.7689  3.4112  2.6772
 2910SOL    HW220364   1.371   3.509   3.058 -0.3049 -0.8373 -3.5509
 2911SOL     OW20365   2.996   1.226  10.921  0.3871 -0.1403  0.2053
 2911SOL    HW120366   3.059   1.236  10.850 -0.2818 -0.2655 -0.4081
 2911SOL    HW220367   2.953   1.143  10.902 -1.6626  1.4816 -2.3693
 2912SOL     OW20368   1.827   1.923  13.365 -0.0963  0.6340 -0.1730
 2912SOL    HW120369   1.876   1.987  13.417 -0.6302 -1.0783  2.3800
 2912SOL    HW220370   1.789   1.973  13.292  0.3054 -0.5880 -1.2009
 2913SOL     OW20371   1.563   1.837  12.404 -0.6126  0.0854  0.0472
 2913SOL    HW120372   1.541   1.856  12.312  0.6893 -1.7286 -0.6412
 2913SOL    HW220373   1.624   1.905  12.434  0.0941 -1.6954  2.5546
 2914SOL     OW20374   0.224   0.610   2.009  0.2692 -0.0998  0.0401
 2914SOL    HW120375   0.274   0.532   2.033 -1.2621 -1.0372  0.1645
 2914SOL    HW220376   0.206   0.578   1.921  1.1636 -1.6411  0.4023
 2915SOL     OW20377   2.525   3.921   3.410 -0.2953  0.3311 -0.0721
 2915SOL    HW120378   2.471   3.943   3.486 -1.6646 -0.1225 -0.9135
 2915SOL    HW220379   2.567   3.837   3.433  0.0254  0.2591 -0.9378
 2916SOL     OW20380   4.552   3.220   8.912 -0.5663  0.0313 -0.1547
 2916SOL    HW120381   4.510   3.168   8.980 -0.8138 -1.6794 -1.6231
 2916SOL    HW220382   4.636   3.245   8.950  0.4708 -0.7548 -1.9152
 2917SOL     OW20383   1.081   1.327  10.132 -0.1964 -0.2758  0.2489
 2917SOL    HW120384   1.008   1.374  10.173 -0.0015  0.3556 -0.1349
 2917SOL    HW220385   1.135   1.391  10.087 -1.0162 -1.6459 -2.6752
 2918SOL     OW20386   4.608   4.389   8.571  0.5248 -0.1171 -0.1689
 2918SOL    HW120387   4.695   4.429   8.568  1.0599 -1.2648  0.1541
 2918SOL    HW220388   4.592   4.367   8.479 -2.3147 -0.2932  0.3401
 2919SOL     OW20389   2.184   0.711   4.930 -0.4791 -0.5576 -0.7913
 2919SOL    HW120390   2.097   0.713   4.969 -0.4922  0.4728 -0.8628
 2919SOL    HW220391   2.221   0.632   4.970  0.3161 -0.9880 -2.3352
 2920SOL     OW20392   1.583   1.319   9.606 -0.3122  0.2651  0.5944
 2920SOL    HW120393   1.672   1.292   9.584 -1.3263 -2.1396 -0.5904
 2920SOL    HW220394   1.540   1.270   9.535  0.7757  0.1137  0.0408
 2921SOL     OW20395   0.823   3.356   8.299  0.7174 -0.0040 -0.4472
 2921SOL    HW120396   0.861   3.287   8.243 -1.2149 -0.8931 -0.6919
 2921SOL    HW220397   0.759   3.304   8.348  0.5902 -0.5713 -1.1998
 2922SOL     OW20398   2.884   3.838   4.218 -0.0175  0.3004  0.0145
 2922SOL    HW120399   2.827   3.802   4.150  1.7051  1.8980 -2.2938
 2922SOL    HW220400   2.855   3.929   4.225 -2.1140 -0.2325 -1.8738
 2923SOL     OW20401   2.647   3.387  11.726 -0.2527 -0.0759 -0.5341
 2923SOL    HW120402   2.691   3.315  11.772 -1.0846 -0.0676  0.2931
 2923SOL    HW220403   2.616   3.432  11.805 -2.0930 -1.2818 -0.5582
 2924SOL     OW20404   3.018   0.328   3.141  0.5158  0.1740  0.3527
 2924SOL    HW120405   3.108   0.310   3.114  0.2028 -1.3533  0.3007
 2924SOL    HW220406   2.971   0.347   3.060  0.0302  0.7325  0.7645
 2925SOL     OW20407   2.399   4.598   0.613  0.0871 -0.0391 -0.5077
 2925SOL    HW120408   2.336   4.545   0.564 -0.7655  0.3794  0.1341
 2925SOL    HW220409   2.376   4.576   0.704  0.7483 -0.4547 -0.4456
 2926SOL     OW20410   0.414   2.062   2.745  0.7099  0.1565 -0.2104
 2926SOL    HW120411   0.423   2.121   2.820  2.7096  0.1997 -0.4827
 2926SOL    HW220412   0.475   2.107   2.687  0.1086 -0.5003 -1.3445
 2927SOL     OW20413   4.723   2.879   8.953 -0.1533 -0.1732 -0.4828
 2927SOL    HW120414   4.652   2.857   8.892  0.4275  0.3514 -1.3499
 2927SOL    HW220415   0.023   2.956   8.907 -1.2867  1.2164  1.0257
 2928SOL     OW20416   2.973   1.154  16.763 -0.1733  0.3879  0.3010
 2928SOL    HW120417   3.018   1.199  16.835  0.7884  1.8948 -1.2411
 2928SOL    HW220418   2.912   1.218  16.729  0.4038 -0.5212 -2.4311
 2929SOL     OW20419   4.631   3.471  15.132 -0.3217  0.2377 -0.4070
 2929SOL    HW120420   4.635   3.538  15.064  0.4502 -0.3725 -0.9668
 2929SOL    HW220421   4.539   3.451  15.147  0.3704 -0.5260  2.6940
 2930SOL     OW20422   3.806   4.091  11.700 -0.8709  0.0703 -0.5111
 2930SOL    HW120423   3.716   4.121  11.685 -0.6236  0.6512 -0.8332
 2930SOL    HW220424   3.828   4.074  11.609 -1.2126  1.5802 -0.8680
 2931SOL     OW20425   2.111   1.356   4.878 -0.0497  0.3182 -0.2394
 2931SOL    HW120426   2.078   1.411   4.949 -1.8356  0.2860 -1.0575
 2931SOL    HW220427   2.178   1.308   4.927 -1.2023 -1.8810 -0.7984
 2932SOL     OW20428   3.037   0.940  17.264 -0.0151  0.0315 -0.2721
 2932SOL    HW120429   3.026   1.024  17.307 -1.0062  0.0256 -0.5166
 2932SOL    HW220430   2.946   0.919  17.244  0.0844  0.9598 -1.7276
 2933SOL     OW20431   2.217   0.240   7.867 -0.6162  0.3605  0.2136
 2933SOL    HW120432   2.292   0.252   7.925 -1.5092  0.1432  1.4138
 2933SOL    HW220433   2.178   0.327   7.879 -0.7224 -0.0738  3.0678
 2934SOL     OW20434   4.666   2.195   4.598 -0.1514 -0.1604  0.6526
 2934SOL    HW120435   4.572   2.208   4.597 -0.6516 -3.9695 -2.0225
 2934SOL    HW220436   4.682   2.241   4.680  2.4430  0.2300 -0.0681
 2935SOL     OW20437   1.662   4.167   2.913  0.2123  0.4646 -0.3467
 2935SOL    HW120438   1.754   4.157   2.939  0.3337  0.5211 -0.7512
 2935SOL    HW220439   1.633   4.193   3.000 -0.0989 -0.6177 -0.1287
 2936SOL     OW20440   0.091   2.123   1.791 -0.0327  0.1469  0.3216
 2936SOL    HW120441   0.181   2.091   1.781  0.3422  1.9019 -1.6818
 2936SOL    HW220442   0.034   2.060   1.747  2.7681 -1.5772 -0.7941
 2937SOL     OW20443   4.539   3.328   5.420 -0.3294 -0.3151  0.1953
 2937SOL    HW120444   4.547   3.418   5.452 -1.0498  0.2992 -1.3557
 2937SOL    HW220445   4.496   3.334   5.334 -1.1407 -0.9836  0.5511
 2938SOL     OW20446   1.092   1.179   7.159 -0.1831  0.3579  0.1647
 2938SOL    HW120447   1.025   1.112   7.177 -0.9809  1.4209  1.1370
 2938SOL    HW220448   1.165   1.130   7.122  0.2256 -1.6159  3.5506
 2939SOL     OW20449   0.707   0.430   9.934 -0.2148  0.2827 -0.0127
 2939SOL    HW120450   0.669   0.342   9.936  0.5822 -0.1069 -1.5199
 2939SOL    HW220451   0.654   0.468  10.004 -0.5086 -0.3493  0.1090
 2940SOL     OW20452   1.860   3.405   6.468 -0.3630 -0.1202 -0.4771
 2940SOL    HW120453   1.807   3.413   6.547  0.2215  0.0653 -0.1004
 2940SOL    HW220454   1.858   3.495   6.437  0.4297  0.0906  0.0822
 2941SOL     OW20455   0.876   1.092   5.186 -0.5450 -0.8774 -0.0810
 2941SOL    HW120456   0.883   1.140   5.103  2.8743 -2.3479 -0.6269
 2941SOL    HW220457   0.848   1.003   5.163 -0.3879 -1.2030  1.0205
 2942SOL     OW20458   2.087   1.496   0.167 -0.4619 -0.2386  0.2188
 2942SOL    HW120459   2.093   1.405   0.138 -2.0069  0.1885 -1.4805
 2942SOL    HW220460   2.045   1.531   0.088  1.1881 -0.5386 -0.7952
 2943SOL     OW20461   1.645   2.627   5.510  0.3072 -0.2629 -0.2691
 2943SOL    HW120462   1.698   2.658   5.584 -1.7221 -0.3377  1.2042
 2943SOL    HW220463   1.601   2.560   5.561  0.3571 -1.9650 -2.4633
 2944SOL     OW20464   0.505   2.413   7.189  0.0492  0.3909  0.1654
 2944SOL    HW120465   0.525   2.437   7.099 -1.0289  0.1026 -0.1565
 2944SOL    HW220466   0.454   2.334   7.171 -0.1289  0.2249  1.4123
 2945SOL     OW20467   4.425   4.067   5.828 -0.3415 -0.4563 -0.6368
 2945SOL    HW120468   4.388   4.114   5.902  0.1910 -0.6443 -0.2529
 2945SOL    HW220469   4.404   4.133   5.762 -1.7583 -2.1188 -1.8418
 2946SOL     OW20470   0.322   2.794  15.339  0.8173 -0.1535 -0.0179
 2946SOL    HW120471   0.388   2.766  15.275 -0.3569 -0.5102 -1.0756
 2946SOL    HW220472   0.264   2.848  15.285 -0.3091  0.5780  1.9198
 2947SOL     OW20473   3.814   3.048   6.249  0.2452 -0.7133  0.5966
 2947SOL    HW120474   3.885   2.989   6.274  0.3651  0.2027  2.4319
 2947SOL    HW220475   3.768   2.987   6.191  1.3649 -0.7658 -0.2313
 2948SOL     OW20476   1.512   2.297   2.302  0.5793 -0.7384  0.1172
 2948SOL    HW120477   1.585   2.240   2.325  0.7886  0.1103  1.6398
 2948SOL    HW220478   1.550   2.373   2.346 -1.5282 -1.3548  3.0256
 2949SOL     OW20479   4.060   3.959   4.039 -0.2635 -0.3111 -0.5885
 2949SOL    HW120480   3.987   3.939   3.981 -0.8518  0.6573 -0.1810
 2949SOL    HW220481   4.007   3.967   4.118  1.4069  1.5103  0.3453
 2950SOL     OW20482   0.361   4.637   4.922  0.6963  0.1352  0.0405
 2950SOL    HW120483   0.386   4.687   4.844  1.1527 -0.2428 -0.0599
 2950SOL    HW220484   0.304   4.698   4.967 -0.8615 -2.0785  1.0421
 2951SOL     OW20485   3.346   2.928   6.475  0.0840  0.4970  0.2910
 2951SOL    HW120486   3.341   2.865   6.403 -0.2950 -0.0115  0.7625
 2951SOL    HW220487   3.440   2.946   6.482  0.0218  0.4611  1.2137
 2952SOL     OW20488   4.690   1.673   2.461 -0.1807  0.7839 -0.4145
 2952SOL    HW120489   4.608   1.680   2.414 -0.4169  0.9065  0.0159
 2952SOL    HW220490   0.018   1.644   2.394 -0.3399 -0.2087 -0.1402
 2953SOL     OW20491   0.816   1.609   4.513  0.1208  0.2305 -0.5714
 2953SOL    HW120492   0.843   1.552   4.441 -1.7336  1.2019 -2.0731
 2953SOL    HW220493   0.721   1.616   4.501 -0.3259 -3.6285  0.8540
 2954SOL     OW20494   4.349   1.271   4.569  0.3116  0.1265 -0.0244
 2954SOL    HW120495   4.321   1.235   4.485  1.5130  0.3430 -0.5243
 2954SOL    HW220496   4.346   1.190   4.621 -0.2735 -0.0901 -0.3925
 2955SOL     OW20497   3.441   0.812   7.998 -0.3009 -0.3080 -0.7333
 2955SOL    HW120498   3.400   0.736   8.039  2.5830 -0.7353  1.3440
 2955SOL    HW220499   3.525   0.784   7.962 -0.1657 -0.5477 -0.2216
 2956SOL     OW20500   1.649   4.189  13.836 -0.3778  0.2651  0.0227
 2956SOL    HW120501   1.661   4.117  13.899  0.6753  2.3087  2.1631
 2956SOL    HW220502   1.649   4.132  13.759 -1.6763  0.1094  0.1266
 2957SOL     OW20503   4.486   3.591   7.131 -0.4759  0.1348 -0.1574
 2957SOL    HW120504   4.419   3.525   7.112 -1.9664  1.5877  0.0484
 2957SOL    HW220505   4.451   3.680   7.132  0.4996  0.5063  0.4245
 2958SOL     OW20506   0.892   3.708  15.542  0.7723  0.1247 -0.2796
 2958SOL    HW120507   0.853   3.766  15.477 -0.8498 -0.9326 -0.2714
 2958SOL    HW220508   0.971   3.749  15.577 -0.1692  2.4528 -0.9282
 2959SOL     OW20509   2.299   2.535   4.044  0.4435 -0.3723 -0.2059
 2959SOL    HW120510   2.289   2.455   4.096 -1.0945  0.0246  0.1168
 2959SOL    HW220511   2.388   2.534   4.008  0.3186 -0.4992 -0.5164
 2960SOL     OW20512   4.632   4.263   6.934 -0.4604  0.1481  0.3553
 2960SOL    HW120513   4.635   4.311   6.851  3.5207 -1.1523 -0.2650
 2960SOL    HW220514   4.694   4.321   6.979  0.5534 -0.7789  0.1671
 2961SOL     OW20515   2.743   3.108  10.028 -0.0220  0.2185 -0.3060
 2961SOL    HW120516   2.660   3.060  10.028  0.2616 -0.2150  2.1943
 2961SOL    HW220517   2.718   3.180  10.085  0.7136  0.3379 -0.1379
 2962SOL     OW20518   2.737   3.697   4.439 -0.1115 -0.3743  0.5925
 2962SOL    HW120519   2.701   3.662   4.358 -0.2312  0.1186  0.4288
 2962SOL    HW220520   2.814   3.744   4.406 -1.6527  1.0040 -1.0467
 2963SOL     OW20521   1.305   2.267   4.230  0.4390  0.0285  0.3641
 2963SOL    HW120522   1.316   2.323   4.153  0.3290  0.2349  0.4986
 2963SOL    HW220523   1.266   2.191   4.188  1.6131 -1.2003  1.5015
 2964SOL     OW20524   3.560   3.682  12.573 -0.4358  0.4333 -0.7006
 2964SOL    HW120525   3.640   3.654  12.529 -2.8210 -3.0540 -2.7552
 2964SOL    HW220526   3.599   3.752  12.626  1.9511 -0.7734 -0.8651
 2965SOL     OW20527   3.073   1.469   2.919  0.7416 -0.0623 -0.2148
 2965SOL    HW120528   3.108   1.534   2.979 -1.9914  0.2399  1.0706
 2965SOL    HW220529   2.986   1.448   2.953  0.0969  2.5399 -0.2454
 2966SOL     OW20530   4.270   2.559   8.399 -0.2239  0.2062 -0.1336
 2966SOL    HW120531   4.353   2.547   8.352  0.6999  1.1668  1.2363
 2966SOL    HW220532   4.209   2.510   8.344 -0.3050  2.7590 -2.3402
 2967SOL     OW20533   3.870   4.286   5.425 -0.1468 -0.6542 -0.0907
 2967SOL    HW120534   3.825   4.369   5.438  0.7040 -0.3438  0.8652
 2967SOL    HW220535   3.922   4.271   5.504  0.9083 -1.8250 -1.0144
 2968SOL     OW20536   0.054   1.997   6.359  0.1266  0.0765  0.7791
 2968SOL    HW120537   0.075   1.925   6.419  0.8761  0.4769  0.9955
 2968SOL    HW220538   0.130   2.004   6.300 -0.1274 -0.6166  0.3666
 2969SOL     OW20539   1.735   0.888   8.462 -0.4213  0.3787  0.0825
 2969SOL    HW120540   1.748   0.888   8.557 -1.3021  0.8751  0.2048
 2969SOL    HW220541   1.785   0.967   8.441 -0.7792  0.6823  0.3630
 2970SOL     OW20542   1.509   3.199  16.916 -0.1146  0.1802 -0.3914
 2970SOL    HW120543   1.435   3.227  16.862  0.2227 -0.2339 -1.0609
 2970SOL    HW220544   1.581   3.246  16.873  0.6354  1.4943  2.3054
 2971SOL     OW20545   3.907   1.451   4.127 -0.3345 -0.2776 -0.0030
 2971SOL    HW120546   3.855   1.372   4.117 -1.5619  0.4746  0.4555
 2971SOL    HW220547   3.855   1.524   4.094 -1.1889 -1.3200 -0.9283
 2972SOL     OW20548   3.306   4.671   1.547  0.2419  0.9442  0.2811
 2972SOL    HW120549   3.371   4.605   1.571 -2.3960 -1.6538  0.2022
 2972SOL    HW220550   3.367   0.012   1.546  1.2447  0.1081 -2.8316
 2973SOL     OW20551   3.576   0.630   3.892 -0.1464  0.3997  0.7192
 2973SOL    HW120552   3.490   0.659   3.862  0.6139  0.2386 -1.6428
 2973SOL    HW220553   3.623   0.591   3.819  2.1783  2.2915  1.1772
 2974SOL     OW20554   3.465   3.997  13.746 -0.7945  0.6616  0.1349
 2974SOL    HW120555   3.404   3.931  13.778  0.0305 -1.6688 -3.1234
 2974SOL    HW220556   3.469   3.984  13.651  1.9213 -3.3734  0.8144
 2975SOL     OW20557   1.453   3.380   6.420  0.0396 -0.3008 -0.3829
 2975SOL    HW120558   1.379   3.339   6.465 -0.7665 -0.2063 -1.6009
 2975SOL    HW220559   1.515   3.317   6.455 -1.0123 -0.2385  1.6279
 2976SOL     OW20560   0.632   0.737   4.883 -0.1029 -0.4872  0.1170
 2976SOL    HW120561   0.658   0.692   4.802 -2.0478  1.4140 -1.5653
 2976SOL    HW220562   0.695   0.809   4.877  1.2137 -1.6021  0.5322
 2977SOL     OW20563   4.026   3.488   1.536 -0.1311 -0.0800 -0.6844
 2977SOL    HW120564   4.060   3.536   1.612  0.6813  0.2103 -1.2302
 2977SOL    HW220565   3.933   3.506   1.548  0.0215 -1.3327  2.3538
 2978SOL     OW20566   0.892   0.153   2.990  0.2029  0.3249  0.3307
 2978SOL    HW120567   0.842   0.112   2.919 -0.3051 -1.6573  1.8106
 2978SOL    HW220568   0.836   0.227   3.013  1.3536  0.9601  1.0461
 2979SOL     OW20569   2.659   3.836  12.433 -0.0999 -0.5497  0.4920
 2979SOL    HW120570   2.631   3.787  12.511  0.9251  0.4550  1.4825
 2979SOL    HW220571   2.579   3.888  12.425  0.4172  0.7723  4.0189
 2980SOL     OW20572   3.291   2.166   0.655  0.5408 -0.2693 -0.1641
 2980SOL    HW120573   3.366   2.175   0.595  0.3417  0.5379 -0.2979
 2980SOL    HW220574   3.247   2.251   0.646  0.3034 -0.4517 -0.7279
 2981SOL     OW20575   3.834   3.088   5.695  0.0667  0.6271  0.5919
 2981SOL    HW120576   3.824   3.025   5.624  1.5705  1.3565 -0.2636
 2981SOL    HW220577   3.929   3.090   5.703  0.0966  0.0982  0.3117
 2982SOL     OW20578   0.712   4.633   6.461 -0.0638 -0.5329  0.0798
 2982SOL    HW120579   0.688   4.720   6.430 -1.6428 -0.8941  0.3118
 2982SOL    HW220580   0.805   4.644   6.481  0.1130  0.6305 -1.4080
 2983SOL     OW20581   0.720   0.007  16.443 -0.5381  0.3578 -0.3679
 2983SOL    HW120582   0.668   0.026  16.521 -1.8302  1.8691 -1.6001
 2983SOL    HW220583   0.657   4.713  16.377 -0.2612  0.9111 -0.8662
 2984SOL     OW20584   3.404   3.952   9.184 -0.1040 -0.1813 -0.2558
 2984SOL    HW120585   3.424   3.949   9.090 -2.3765 -0.2963 -0.7291
 2984SOL    HW220586   3.493   3.965   9.215  0.0422  4.2435 -2.5728
 2985SOL     OW20587   3.904   1.129   2.331 -0.6501  0.4353  0.1193
 2985SOL    HW120588   3.962   1.191   2.375  1.0723 -0.9528 -0.1852
 2985SOL    HW220589   3.821   1.173   2.348  0.6254  2.8436  0.1242
 2986SOL     OW20590   1.703   4.388   7.573  0.0667  0.0201 -0.2646
 2986SOL    HW120591   1.711   4.393   7.668  0.6725 -0.9916 -0.2662
 2986SOL    HW220592   1.794   4.404   7.548 -0.0002  1.1677  0.2012
 2987SOL     OW20593   0.366   3.074  15.182  0.1973  0.0628 -0.0088
 2987SOL    HW120594   0.425   3.045  15.251  0.5960  1.8195  0.3853
 2987SOL    HW220595   0.302   3.004  15.173 -1.6690  1.5364  1.8777
 2988SOL     OW20596   3.862   4.647   5.187 -0.5900  0.7768 -0.1639
 2988SOL    HW120597   3.785   4.692   5.222 -0.8239 -0.0889  0.4374
 2988SOL    HW220598   3.929   4.661   5.253 -1.2487  3.1677 -0.0039
 2989SOL     OW20599   4.072   3.249   3.313 -0.3299  0.6694  0.3251
 2989SOL    HW120600   4.082   3.170   3.259 -1.7968  0.5542  0.2030
 2989SOL    HW220601   4.081   3.220   3.404 -0.7183 -2.3998 -0.5930
 2990SOL     OW20602   2.024   0.404  17.635  0.0060 -0.3186 -0.0624
 2990SOL    HW120603   1.943   0.367  17.669  1.0693 -0.7307  1.9951
 2990SOL    HW220604   2.079   0.327  17.643 -1.3012 -1.4020 -1.4933
 2991SOL     OW20605   3.946   0.462   1.270 -0.5457  0.4061 -0.6353
 2991SOL    HW120606   3.903   0.498   1.192  1.6900  1.2583 -1.4645
 2991SOL    HW220607   3.873   0.455   1.332 -1.2391  0.6464 -1.4283
 2992SOL     OW20608   1.010   0.089   3.419  0.1701  0.6202 -0.1810
 2992SOL    HW120609   1.057   0.172   3.419 -0.1060  0.7598  3.9614
 2992SOL    HW220610   1.042   0.060   3.333 -2.4588 -0.7221 -0.6804
 2993SOL     OW20611   4.394   0.592   4.447 -0.5058  0.5364 -0.0265
 2993SOL    HW120612   4.408   0.657   4.516  0.8748  0.6396 -0.3999
 2993SOL    HW220613   4.318   0.626   4.400 -1.1904 -1.1969 -0.1781
 2994SOL     OW20614   0.817   3.485  15.705 -0.0038 -0.4753 -0.5409
 2994SOL    HW120615   0.728   3.508  15.734  1.6729  1.2905  3.2601
 2994SOL    HW220616   0.855   3.573  15.712  1.0279 -0.9420 -0.3993
 2995SOL     OW20617   3.700   4.366   7.046 -0.0610 -0.0030 -0.1925
 2995SOL    HW120618   3.786   4.406   7.040  0.8713 -1.6859  1.8612
 2995SOL    HW220619   3.646   4.420   6.988 -2.4661 -2.5032 -0.2917
 2996SOL     OW20620   2.132   1.742   7.004  0.0080 -0.4962 -0.1925
 2996SOL    HW120621   2.175   1.723   6.921  0.9831 -0.3090  0.2659
 2996SOL    HW220622   2.115   1.835   6.989  1.5058 -0.3461 -0.9654
 2997SOL     OW20623   4.021   3.195  15.754  0.4211 -0.0598 -0.3690
 2997SOL    HW120624   4.052   3.256  15.820 -3.4789  2.0519 -0.4786
 2997SOL    HW220625   4.099   3.152  15.720  0.0857 -2.4269  1.8778
 2998SOL     OW20626   1.413   2.734   4.283 -0.1227  0.2098 -0.2979
 2998SOL    HW120627   1.500   2.727   4.243  0.1827 -0.0972  0.4127
 2998SOL    HW220628   1.382   2.815   4.243 -0.1809  0.6849  0.7149
 2999SOL     OW20629   3.853   0.064   7.667  0.3690 -1.1339  0.4191
 2999SOL    HW120630   3.938   0.067   7.711  1.8356  1.5708 -2.5859
 2999SOL    HW220631   3.843   4.705   7.645 -0.8076 -0.3693 -2.3091
 3000SOL     OW20632   4.182   1.669   4.348  0.2379  0.4511 -0.5662
 3000SOL    HW120633   4.153   1.610   4.418  1.9720 -0.0365 -0.2629
 3000SOL    HW220634   4.116   1.735   4.369  0.1907 -0.1087  1.1094
 3001SOL     OW20635   2.224   2.125   4.364  0.3872  0.3728 -0.3443
 3001SOL    HW120636   2.231   2.035   4.332  0.1873  0.6191 -1.0725
 3001SOL    HW220637   2.192   2.111   4.453 -0.5164 -2.1819 -1.0767
 3002SOL     OW20638   1.185   1.900  15.872 -0.2761 -0.2770 -0.2180
 3002SOL    HW120639   1.218   1.827  15.820  2.0380  2.0529 -1.9829
 3002SOL    HW220640   1.195   1.872  15.963 -0.8954  2.9130  0.8290
 3003SOL     OW20641   4.001   2.964  10.857 -0.3134 -0.4143  0.5573
 3003SOL    HW120642   4.025   2.987  10.767 -2.2867 -1.2326 -0.1829
 3003SOL    HW220643   3.912   3.000  10.861  0.8748  2.7300 -1.2138
 3004SOL     OW20644   2.779   0.408   7.826  0.1224 -0.4333 -0.4043
 3004SOL    HW120645   2.701   0.403   7.881  0.9359  1.4118  0.9072
 3004SOL    HW220646   2.768   0.498   7.797 -0.0823 -0.6618 -1.0412
 3005SOL     OW20647   4.475   2.564   7.997  0.0189 -0.1949  0.1055
 3005SOL    HW120648   4.391   2.525   7.971  0.7093 -1.2517 -0.5259
 3005SOL    HW220649   4.492   2.516   8.077  1.7305  1.3632  0.6842
 3006SOL     OW20650   2.246   3.227  10.266 -0.3717  0.4557  0.5645
 3006SOL    HW120651   2.159   3.260  10.241 -1.4477 -1.2244  2.0766
 3006SOL    HW220652   2.244   3.243  10.360 -3.9368  0.9799  0.4029
 3007SOL     OW20653   0.277   1.643  16.701  0.0243 -0.1245 -0.3234
 3007SOL    HW120654   0.278   1.725  16.651 -0.1842  1.0874  1.6265
 3007SOL    HW220655   0.367   1.611  16.688 -0.0475  0.5315 -2.3675
 3008SOL     OW20656   3.850   0.238   7.467 -0.3212  0.0724  0.5329
 3008SOL    HW120657   3.841   0.183   7.544  0.4195  0.7731  1.1123
 3008SOL    HW220658   3.940   0.270   7.473  0.3819 -1.2908 -2.5962
 3009SOL     OW20659   3.117   3.625   3.597  0.8524 -0.4176  0.2875
 3009SOL    HW120660   3.040   3.569   3.586 -0.1913  1.1893 -0.5758
 3009SOL    HW220661   3.087   3.686   3.663 -1.6285 -1.5674  0.2226
 3010SOL     OW20662   1.197   1.802   0.396 -0.1344 -0.1742  0.0478
 3010SOL    HW120663   1.127   1.831   0.337 -0.0086  0.7045  0.3280
 3010SOL    HW220664   1.196   1.709   0.378 -0.5067 -0.0863 -0.3782
 3011SOL     OW20665   3.713   1.073   2.834  0.6021  0.0151  0.3811
 3011SOL    HW120666   3.686   1.070   2.926  1.9009  2.3335  0.8491
 3011SOL    HW220667   3.800   1.113   2.829  1.1238 -0.9781  1.5472
 3012SOL     OW20668   0.978   3.090  15.206  0.3111 -0.3869  0.2297
 3012SOL    HW120669   1.020   3.125  15.285  0.8447  2.1324 -1.1496
 3012SOL    HW220670   1.013   3.003  15.188 -1.9324 -1.1844 -0.2613
 3013SOL     OW20671   1.730   3.278   2.109 -0.0448 -0.1888 -0.1828
 3013SOL    HW120672   1.753   3.369   2.089  1.0364  0.0542  2.1024
 3013SOL    HW220673   1.636   3.288   2.116  0.1315  0.0280  2.0432
 3014SOL     OW20674   2.637   0.288  14.591 -0.5224  0.1316  0.0511
 3014SOL    HW120675   2.688   0.325  14.519  0.4524  1.1191  1.2495
 3014SOL    HW220676   2.682   0.204  14.588  0.7873  0.8314 -0.2807
 3015SOL     OW20677   3.727   1.845   6.497  0.6361 -0.5251  0.0390
 3015SOL    HW120678   3.763   1.801   6.574  1.4666  1.9740  1.0748
 3015SOL    HW220679   3.642   1.802   6.489  1.0118 -1.2480 -0.1252
 3016SOL     OW20680   1.942   2.591  13.075 -1.0127 -0.4852 -0.1533
 3016SOL    HW120681   1.986   2.530  13.016  0.9191  0.9744 -0.2212
 3016SOL    HW220682   1.956   2.549  13.159  1.8680  0.7377 -0.0351
 3017SOL     OW20683   3.251   2.834  11.395  0.6082  0.1902  0.0508
 3017SOL    HW120684   3.252   2.898  11.465  0.1939  0.5395 -0.2615
 3017SOL    HW220685   3.224   2.764  11.455  0.7616  1.2544  1.3578
 3018SOL     OW20686   1.202   3.617  10.594  0.2461 -0.0837 -0.6113
 3018SOL    HW120687   1.258   3.587  10.666 -0.6536 -0.5243 -0.0988
 3018SOL    HW220688   1.222   3.711  10.597 -2.0838  0.3404  1.3296
 3019SOL     OW20689   3.291   2.046   9.982 -0.4976  0.2134  0.1926
 3019SOL    HW120690   3.218   2.103   9.958 -2.2890 -2.7342 -1.4094
 3019SOL    HW220691   3.278   2.044  10.077 -0.4832 -0.3364  0.1821
 3020SOL     OW20692   0.244   3.362   0.178 -0.1314 -0.5790 -0.2590
 3020SOL    HW120693   0.329   3.404   0.195 -0.4172  0.3891 -1.1918
 3020SOL    HW220694   0.189   3.398   0.248  0.5455 -0.8013  0.3847
 3021SOL     OW20695   2.975   1.633   8.941  0.0927 -0.3705  0.6436
 3021SOL    HW120696   2.976   1.557   8.999  1.3784  0.2614  1.4396
 3021SOL    HW220697   2.924   1.692   8.998  0.3774 -0.0239  0.5415
 3022SOL     OW20698   3.344   2.295  16.876 -0.5775  0.4497  0.6267
 3022SOL    HW120699   3.351   2.211  16.922  2.1553  0.8882  0.9995
 3022SOL    HW220700   3.308   2.345  16.949  0.3185  1.2795  0.5027
 3023SOL     OW20701   3.422   3.884   2.081 -0.7670  0.5890 -0.0793
 3023SOL    HW120702   3.351   3.926   2.129  0.4345  1.4240  0.9997
 3023SOL    HW220703   3.470   3.966   2.067 -0.9740  0.9862  1.4555
 3024SOL     OW20704   4.008   4.480  11.388  0.1949 -0.1297  0.7198
 3024SOL    HW120705   4.049   4.447  11.468 -0.9771 -0.2874  1.2439
 3024SOL    HW220706   4.014   4.575  11.395 -0.5092  0.0112 -0.7222
 3025SOL     OW20707   3.225   2.017   4.905  0.0623 -0.2765 -0.2912
 3025SOL    HW120708   3.297   2.043   4.847 -0.0265 -2.1405 -1.2431
 3025SOL    HW220709   3.260   2.028   4.993 -0.4442  1.2666 -0.2739
 3026SOL     OW20710   0.776   1.324   4.754  0.0790  0.3498  0.5286
 3026SOL    HW120711   0.757   1.379   4.678 -2.5282  1.2909  1.8477
 3026SOL    HW220712   0.784   1.236   4.716 -1.3797 -0.4336  2.0257
 3027SOL     OW20713   1.610   1.508  15.319 -0.0657  0.2680  0.4576
 3027SOL    HW120714   1.677   1.526  15.254  0.7793  0.2080  1.3018
 3027SOL    HW220715   1.565   1.443  15.267 -0.8382  1.3628 -0.2416
 3028SOL     OW20716   3.837   1.302  15.608 -0.1190 -0.2258  0.1554
 3028SOL    HW120717   3.898   1.293  15.536 -0.5182 -0.4170 -0.1562
 3028SOL    HW220718   3.867   1.223  15.653  1.2187  0.3004  0.1873
 3029SOL     OW20719   2.720   1.933  17.153 -0.0015 -0.1318 -0.1637
 3029SOL    HW120720   2.784   2.004  17.162 -1.3948  1.2869 -1.5199
 3029SOL    HW220721   2.787   1.864  17.151  1.1880  0.9791  1.1774
 3030SOL     OW20722   0.679   4.133   2.319 -0.1533 -0.1267  0.1929
 3030SOL    HW120723   0.755   4.189   2.306 -0.7059  0.3170 -1.1505
 3030SOL    HW220724   0.632   4.138   2.236 -0.1202 -0.6803  0.1465
 3031SOL     OW20725   1.833   1.636   3.469  0.4211  0.0043 -0.5073
 3031SOL    HW120726   1.864   1.721   3.437  1.1101 -0.1057 -0.1248
 3031SOL    HW220727   1.775   1.615   3.396 -0.4296  0.2449  0.0979
 3032SOL     OW20728   2.930   1.471   6.521  0.5572 -0.4885  0.4342
 3032SOL    HW120729   2.972   1.460   6.436 -2.1414  1.5087 -1.1774
 3032SOL    HW220730   2.942   1.564   6.539  3.9272 -0.3838 -2.4417
 3033SOL     OW20731   2.460   2.984   6.148 -0.3758  0.2618 -0.3644
 3033SOL    HW120732   2.534   2.931   6.119  0.7499  2.2276 -1.0805
 3033SOL    HW220733   2.393   2.958   6.085 -0.6956 -0.0831  0.1211
 3034SOL     OW20734   1.355   4.708   8.098  0.0760 -0.3524 -0.2062
 3034SOL    HW120735   1.264   4.687   8.117 -0.0514 -1.8410 -2.4259
 3034SOL    HW220736   1.378   0.025   8.176  0.3510  2.1864 -1.9545
 3035SOL     OW20737   2.155   0.180  13.956 -0.0405 -0.1067  0.0973
 3035SOL    HW120738   2.196   0.257  13.917  1.1780 -1.4862 -1.3630
 3035SOL    HW220739   2.151   0.199  14.050 -0.9751 -1.2460  0.2809
 3036SOL     OW20740   1.924   2.921   8.713 -0.4170 -0.0403  0.2613
 3036SOL    HW120741   2.000   2.869   8.686 -0.5010 -0.2400  0.4076
 3036SOL    HW220742   1.856   2.876   8.662 -0.8281 -0.5181  1.2316
 3037SOL     OW20743   2.497   3.881   6.008 -0.3945  0.1184 -0.5180
 3037SOL    HW120744   2.532   3.791   6.013  1.5009  0.9649  1.7817
 3037SOL    HW220745   2.421   3.850   6.056 -1.6397  0.6166 -2.1757
 3038SOL     OW20746   2.618   0.306   8.331 -0.4599  0.5096  0.0909
 3038SOL    HW120747   2.601   0.315   8.425  0.5822 -3.5204  0.6569
 3038SOL    HW220748   2.529   0.321   8.301 -1.2537  0.0065  2.2026
 3039SOL     OW20749   4.357   0.229   5.253  0.0776 -0.0735 -0.0979
 3039SOL    HW120750   4.449   0.209   5.233  0.3871  2.8953 -1.7343
 3039SOL    HW220751   4.366   0.208   5.346 -1.9260 -1.6047 -0.2682
 3040SOL     OW20752   1.242   3.048   8.316 -0.1231  0.1794 -0.1154
 3040SOL    HW120753   1.253   2.956   8.341  3.1642  0.3667 -0.8701
 3040SOL    HW220754   1.212   3.044   8.225 -0.4406 -0.0869  0.0016
 3041SOL     OW20755   2.020   3.848  13.103 -0.4318 -0.1437  0.1142
 3041SOL    HW120756   2.013   3.762  13.143  0.1505 -1.4199 -2.5191
 3041SOL    HW220757   1.930   3.880  13.104 -0.6404 -0.7014 -0.5836
 3042SOL     OW20758   2.747   1.194  10.364  0.1424 -0.6905  0.2362
 3042SOL    HW120759   2.670   1.141  10.384 -0.8031 -0.2669 -2.3211
 3042SOL    HW220760   2.790   1.168  10.446  0.8287 -1.0738 -0.2385
 3043SOL     OW20761   1.961   0.914  15.318  0.5122 -0.1377 -0.6313
 3043SOL    HW120762   2.050   0.888  15.292  1.3799  2.2793 -0.1172
 3043SOL    HW220763   1.958   0.851  15.391  2.0147 -1.4756 -1.7075
 3044SOL     OW20764   0.228   4.267   5.982  0.4048 -0.3677 -0.4266
 3044SOL    HW120765   0.229   4.250   6.076  1.1566  1.6120 -0.0893
 3044SOL    HW220766   0.286   4.343   5.978  0.0854 -0.1289 -0.5199
 3045SOL     OW20767   0.610   2.561   1.494  0.2961  0.2695  0.0921
 3045SOL    HW120768   0.675   2.615   1.448 -0.7936  1.8815  0.4301
 3045SOL    HW220769   0.634   2.472   1.469  2.6124  0.8178  0.2796
 3046SOL     OW20770   0.658   4.197   6.877  0.0981 -0.1327  0.3510
 3046SOL    HW120771   0.564   4.181   6.866 -0.1685  1.5648  0.2032
 3046SOL    HW220772   0.671   4.284   6.840 -0.5556 -0.5835 -0.9467
 3047SOL     OW20773   0.478   1.610   7.122 -0.2308  0.1870 -0.2548
 3047SOL    HW120774   0.448   1.685   7.071 -2.5881 -0.6118 -0.0401
 3047SOL    HW220775   0.529   1.553   7.065 -2.0336 -1.3431 -0.3363
 3048SOL     OW20776   0.438   2.998  10.626 -0.3820 -0.1895 -0.2545
 3048SOL    HW120777   0.533   3.005  10.615 -0.6200  0.6565 -1.7903
 3048SOL    HW220778   0.424   2.928  10.562 -1.3436  0.5743 -0.8797
 3049SOL     OW20779   0.130   3.520  13.716  0.0401  0.0316 -0.2601
 3049SOL    HW120780   0.083   3.589  13.764 -0.9150  0.3116 -1.5901
 3049SOL    HW220781   0.165   3.459  13.781  1.1138 -0.5994 -1.4366
 3050SOL     OW20782   0.688   4.119   1.922  0.5111 -0.1161 -0.0196
 3050SOL    HW120783   0.755   4.074   1.972 -0.2222  0.2720  1.3079
 3050SOL    HW220784   0.621   4.051   1.912 -0.6148  1.0180 -0.2578
 3051SOL     OW20785   0.060   0.340   4.105  0.1033  0.2832 -0.4180
 3051SOL    HW120786   4.701   0.350   4.130 -0.2978 -3.1894 -0.4726
 3051SOL    HW220787   0.049   0.256   4.060  1.0824  0.0852 -0.2916
 3052SOL     OW20788   4.383   4.636  14.697 -0.1810  0.1965 -0.4258
 3052SOL    HW120789   4.441   4.640  14.621 -2.3571 -1.0442 -2.1658
 3052SOL    HW220790   4.440   4.671  14.766 -2.4567 -0.0994  1.6092
 3053SOL     OW20791   1.867   1.442   7.308  0.0023  0.1861  0.4921
 3053SOL    HW120792   1.939   1.504   7.294  1.4866 -1.7771 -0.5635
 3053SOL    HW220793   1.872   1.400   7.222  2.2041 -1.3650  1.3942
 3054SOL     OW20794   2.940   4.686   9.605 -0.1756 -0.2041 -0.5562
 3054SOL    HW120795   2.943   4.717   9.514 -1.7358  1.1178 -0.1643
 3054SOL    HW220796   3.001   4.613   9.607  1.4598  1.1785 -0.2011
 3055SOL     OW20797   0.539   2.221   7.523 -0.1978 -0.0512  0.2840
 3055SOL    HW120798   0.562   2.283   7.592  0.8206  0.2367 -0.3137
 3055SOL    HW220799   0.450   2.252   7.506  0.1273  0.8646  0.2700
 3056SOL     OW20800   1.971   4.053   4.055 -0.1581  0.2811  0.1028
 3056SOL    HW120801   1.933   4.026   4.139  0.9992 -0.3365  0.4179
 3056SOL    HW220802   2.019   4.130   4.085 -0.9700  1.4338 -1.5529
 3057SOL     OW20803   0.459   2.758   2.246 -0.3290  0.1274  0.9961
 3057SOL    HW120804   0.437   2.749   2.154 -0.5566  1.1879  0.9506
 3057SOL    HW220805   0.512   2.680   2.266 -1.1867 -1.3749 -2.7157
 3058SOL     OW20806   1.714   1.662   9.376  0.0034  0.3859  0.1718
 3058SOL    HW120807   1.685   1.708   9.455 -0.3100  0.1042  0.2186
 3058SOL    HW220808   1.753   1.727   9.317 -0.6200  1.1658  0.6243
 3059SOL     OW20809   2.339   1.041   2.196  0.2540 -0.0440  0.2219
 3059SOL    HW120810   2.417   0.992   2.168 -0.3749 -1.4338  0.9220
 3059SOL    HW220811   2.339   1.013   2.287 -0.2378 -0.8636 -0.0299
 3060SOL     OW20812   2.291   4.024   9.476 -0.6132  0.5350  0.3853
 3060SOL    HW120813   2.269   4.033   9.569 -0.8723  0.4761  0.3307
 3060SOL    HW220814   2.375   3.981   9.488 -1.0859 -0.7743 -0.9933
 3061SOL     OW20815   0.046   2.989   6.215 -0.4320  0.3875 -0.2653
 3061SOL    HW120816   4.708   3.028   6.266  2.6441  3.3596  1.6598
 3061SOL    HW220817   0.099   3.064   6.190  2.5417 -1.2565  1.1535
 3062SOL     OW20818   4.548   2.655   3.048 -0.1357 -0.2800 -0.1467
 3062SOL    HW120819   4.559   2.708   2.968  1.6797 -0.6873 -0.1740
 3062SOL    HW220820   4.618   2.700   3.095  0.0553 -1.4833  0.7065
 3063SOL     OW20821   3.467   4.357   7.349  0.3824 -0.7641 -0.2260
 3063SOL    HW120822   3.437   4.355   7.440  1.8291  2.4186  0.2899
 3063SOL    HW220823   3.540   4.418   7.356  3.0022 -3.5356 -3.2153
 3064SOL     OW20824   3.389   1.150   6.231  0.4052  0.3787 -0.1050
 3064SOL    HW120825   3.324   1.092   6.271 -0.9478  2.1912  0.2885
 3064SOL    HW220826   3.329   1.217   6.199 -0.9679 -0.4708  0.6759
 3065SOL     OW20827   3.633   1.518   6.098  0.5409 -0.0411 -0.0561
 3065SOL    HW120828   3.658   1.560   6.181  0.5886  0.8098 -0.4969
 3065SOL    HW220829   3.708   1.460   6.084  1.3140  0.5861  1.3909
 3066SOL     OW20830   2.835   3.218   3.608 -0.0219  0.5162 -0.0653
 3066SOL    HW120831   2.823   3.222   3.703 -0.7872  0.8656 -0.1777
 3066SOL    HW220832   2.870   3.306   3.594  2.5917 -0.2425  1.5791
 3067SOL     OW20833   2.917   4.492   7.946 -0.7693  0.0120 -0.2375
 3067SOL    HW120834   2.908   4.503   7.851 -0.7222 -0.4859 -0.2967
 3067SOL    HW220835   2.911   4.584   7.972 -0.1389  0.3341 -1.1899
 3068SOL     OW20836   2.043   3.964  11.008  0.2939  0.6278  0.6517
 3068SOL    HW120837   2.022   4.057  10.994 -1.1987  0.0931 -0.6200
 3068SOL    HW220838   1.975   3.941  11.071  0.6300  1.7114  1.4213
 3069SOL     OW20839   4.177   2.425   4.385  0.4711 -0.5962  0.1725
 3069SOL    HW120840   4.233   2.411   4.309  2.0405 -0.5727  1.3175
 3069SOL    HW220841   4.168   2.521   4.379  0.7802 -0.6365 -0.9949
 3070SOL     OW20842   2.804   1.059   5.304 -0.0713 -0.0865 -0.7207
 3070SOL    HW120843   2.833   0.989   5.361 -3.0769  0.4480  1.4547
 3070SOL    HW220844   2.876   1.048   5.241  1.1913  1.2481  0.4943
 3071SOL     OW20845   0.826   3.801  17.067  0.0403 -0.2254  0.3037
 3071SOL    HW120846   0.822   3.769  16.977  0.5344  1.0862 -0.1801
 3071SOL    HW220847   0.874   3.884  17.063 -0.9308  0.2661 -1.1200
 3072SOL     OW20848   4.007   3.561   8.641 -0.0998  0.4894  0.0497
 3072SOL    HW120849   4.043   3.616   8.572  1.0500  0.8452  0.9449
 3072SOL    HW220850   3.933   3.529   8.590 -0.5507 -0.1965  1.1429
 3073SOL     OW20851   4.231   3.929   7.432  0.1125 -0.2062  0.0493
 3073SOL    HW120852   4.188   3.871   7.495  1.3610 -0.2297  0.8955
 3073SOL    HW220853   4.157   3.984   7.407  1.4580  1.3875 -0.4607
 3074SOL     OW20854   3.816   1.385   3.767 -0.0680 -0.2521  0.0630
 3074SOL    HW120855   3.839   1.376   3.674 -0.6120  2.4059 -0.3147
 3074SOL    HW220856   3.721   1.373   3.763  0.0615 -0.8851 -1.1311
 3075SOL     OW20857   0.501   0.247  13.692  0.4229 -0.3430  0.0447
 3075SOL    HW120858   0.516   0.256  13.597  2.3058  0.1012  0.3831
 3075SOL    HW220859   0.408   0.238  13.708  0.4970 -1.8070 -0.3753
 3076SOL     OW20860   0.967   1.717   5.687 -0.2831 -0.1507 -0.2408
 3076SOL    HW120861   1.028   1.716   5.761 -0.9007 -0.9004  0.2608
 3076SOL    HW220862   0.886   1.689   5.731  0.8076 -1.7723  0.7378
 3077SOL     OW20863   1.035   3.822   9.092 -0.1215  0.1977 -0.1971
 3077SOL    HW120864   1.045   3.917   9.094 -2.0075  0.3603  1.4781
 3077SOL    HW220865   1.003   3.802   9.180  0.9936 -1.6103 -0.1958
 3078SOL     OW20866   3.405   1.333   6.944 -0.3777 -0.0090  0.1073
 3078SOL    HW120867   3.451   1.345   7.027  0.6299 -1.5804 -0.2394
 3078SOL    HW220868   3.342   1.406   6.951  1.8950  1.9955 -0.3262
 3079SOL     OW20869   0.417   1.584   3.002 -0.7274  0.1600 -0.3877
 3079SOL    HW120870   0.476   1.509   3.006 -1.3126 -0.3101 -0.5905
 3079SOL    HW220871   0.436   1.618   2.915 -0.3668 -3.4543 -1.7347
 3080SOL     OW20872   1.050   0.147   7.270  0.5548  0.4623  0.0272
 3080SOL    HW120873   0.983   0.133   7.336  0.0775 -1.9057 -0.9615
 3080SOL    HW220874   1.118   0.081   7.279 -0.9709 -1.2600 -1.1816
 3081SOL     OW20875   0.655   1.509   3.412 -0.2092 -0.1477 -0.1325
 3081SOL    HW120876   0.593   1.580   3.428  0.8885  1.1486 -1.6501
 3081SOL    HW220877   0.593   1.441   3.383  0.6684 -0.7845 -0.5227
 3082SOL     OW20878   4.527   1.092  10.004 -0.7670  0.1364 -0.2171
 3082SOL    HW120879   4.537   1.166  10.064 -1.3080  0.7132 -0.8428
 3082SOL    HW220880   4.556   1.027  10.068  0.3453  1.0909  0.2599
 3083SOL     OW20881   0.320   1.829  17.278 -0.2664  0.6040  0.1746
 3083SOL    HW120882   0.320   1.819  17.374 -0.9840  0.3207  0.1440
 3083SOL    HW220883   0.266   1.906  17.262 -0.8233  0.1811  0.0041
 3084SOL     OW20884   3.459   0.575   6.651  0.5326  0.2124  0.8441
 3084SOL    HW120885   3.510   0.652   6.627 -0.0982  0.3168 -0.1569
 3084SOL    HW220886   3.387   0.626   6.688 -0.1039 -0.8325  1.0317
 3085SOL     OW20887   3.313   1.137   5.115 -0.0867  0.0279  0.1242
 3085SOL    HW120888   3.234   1.189   5.107 -0.6628 -1.1147 -1.3851
 3085SOL    HW220889   3.381   1.182   5.065  0.2927  0.5707  1.1166
 3086SOL     OW20890   0.496   3.941   1.852 -0.0718 -0.2535 -0.4224
 3086SOL    HW120891   0.550   3.863   1.841 -1.0616 -1.0781  0.5033
 3086SOL    HW220892   0.505   3.986   1.768  1.9418  3.3723  1.7352
 3087SOL     OW20893   0.094   1.514  16.366  0.1579  0.1987 -0.1476
 3087SOL    HW120894   0.062   1.525  16.276  1.9421  0.8149 -0.6973
 3087SOL    HW220895   0.104   1.420  16.380 -3.2013 -0.1617  0.0119
 3088SOL     OW20896   1.161   0.465   7.894  0.0195  1.0345 -0.4087
 3088SOL    HW120897   1.088   0.405   7.878  0.2400  0.7133 -0.2132
 3088SOL    HW220898   1.230   0.432   7.836  1.0972  1.2442  0.7601
 3089SOL     OW20899   1.791   3.710   2.879 -0.2197 -0.4373  0.2905
 3089SOL    HW120900   1.822   3.772   2.813  1.6058 -0.6075  0.9729
 3089SOL    HW220901   1.758   3.637   2.826 -2.1279 -0.0512  0.9494
 3090SOL     OW20902   3.422   4.216  17.583 -0.2252  1.0003 -0.1692
 3090SOL    HW120903   3.458   4.300  17.611 -1.1460  1.2388  0.3102
 3090SOL    HW220904   3.375   4.179  17.658 -1.0144 -0.3787 -1.3345
 3091SOL     OW20905   4.416   3.994  16.211  0.3300 -0.4558 -0.6496
 3091SOL    HW120906   4.352   4.060  16.186 -0.0885 -1.2089 -1.5788
 3091SOL    HW220907   4.499   4.037  16.194 -0.9994  1.6358 -1.7697
 3092SOL     OW20908   0.828   1.557   7.835 -0.1019 -0.5712  0.3678
 3092SOL    HW120909   0.772   1.480   7.824 -0.8477  0.0274 -0.0293
 3092SOL    HW220910   0.797   1.616   7.766  0.0811  0.9986  1.6327
 3093SOL     OW20911   2.187   1.688   7.476 -0.4818  0.4133 -0.6803
 3093SOL    HW120912   2.282   1.674   7.473 -0.6742 -1.2836  0.6245
 3093SOL    HW220913   2.150   1.657   7.393 -1.0521 -0.8498  0.0406
 3094SOL     OW20914   4.554   4.034   1.556  0.8295 -0.1247  0.3804
 3094SOL    HW120915   4.479   3.977   1.569 -1.4006  2.7980  0.2727
 3094SOL    HW220916   4.617   3.963   1.567  0.0900 -0.7062  0.7949
 3095SOL     OW20917   1.115   3.943  13.036 -0.9099  0.0650  0.1390
 3095SOL    HW120918   1.098   4.022  13.088 -1.3603 -0.6035  1.0054
 3095SOL    HW220919   1.197   3.909  13.073 -1.2154 -1.0468 -0.1990
 3096SOL     OW20920   3.329   1.642   7.213 -0.1003  0.3892 -0.4029
 3096SOL    HW120921   3.349   1.549   7.203 -1.0452  0.0262  1.0604
 3096SOL    HW220922   3.255   1.637   7.274  1.0697  2.2606  1.1700
 3097SOL     OW20923   3.829   2.474   2.224 -0.4606  0.3931 -0.5085
 3097SOL    HW120924   3.852   2.554   2.176 -1.4932  0.1817 -1.3557
 3097SOL    HW220925   3.766   2.430   2.168 -0.3662 -1.3562  0.7444
 3098SOL     OW20926   2.770   1.327   4.312  0.3483 -0.0693 -0.2621
 3098SOL    HW120927   2.702   1.259   4.316  0.5593 -0.4033 -2.2809
 3098SOL    HW220928   2.770   1.338   4.217 -1.4235 -0.2580 -0.2856
 3099SOL     OW20929   3.460   0.281  15.244  0.7762  0.2099  0.5836
 3099SOL    HW120930   3.500   0.200  15.211  2.0146  1.4066 -0.8217
 3099SOL    HW220931   3.463   0.332  15.163 -0.6679 -1.4030 -0.4932
 3100SOL     OW20932   1.491   1.671  15.511  0.1613 -0.2375 -0.2465
 3100SOL    HW120933   1.498   1.598  15.450  0.7795 -0.7544  0.4464
 3100SOL    HW220934   1.504   1.743  15.448  2.3747  1.0323  1.6600
 3101SOL     OW20935   3.766   0.312   3.253  0.7049 -0.0244 -0.4793
 3101SOL    HW120936   3.680   0.338   3.220  1.1626  1.6447 -0.3426
 3101SOL    HW220937   3.750   0.217   3.256 -0.3492  0.1949  0.6891
 3102SOL     OW20938   3.570   3.270   4.196 -0.1936  0.1327  0.3278
 3102SOL    HW120939   3.485   3.305   4.167 -1.3355 -1.7278  1.4410
 3102SOL    HW220940   3.580   3.193   4.140  1.0465  2.2091 -2.2817
 3103SOL     OW20941   1.290   3.027  14.733  0.6160  0.2021  0.1011
 3103SOL    HW120942   1.369   3.012  14.680  2.1216  0.5811  2.2156
 3103SOL    HW220943   1.310   2.959  14.798 -2.3456 -1.1397 -0.4266
 3104SOL     OW20944   2.550   0.536   2.461  0.3096  0.0949 -0.1843
 3104SOL    HW120945   2.534   0.602   2.528  2.1381 -1.0087  1.3329
 3104SOL    HW220946   2.523   0.453   2.501  1.5680 -0.2355 -0.0293
 3105SOL     OW20947   1.882   4.274   5.247  0.5192  0.9579  0.0532
 3105SOL    HW120948   1.872   4.298   5.339 -4.5671 -0.7001 -0.1251
 3105SOL    HW220949   1.852   4.354   5.203  0.8132  1.2663  0.4052
 3106SOL     OW20950   1.182   1.057   8.921  0.2344 -0.5129  0.5068
 3106SOL    HW120951   1.179   0.990   8.853  1.1270 -1.6605  1.5794
 3106SOL    HW220952   1.098   1.102   8.914  0.6167  0.0020 -0.7715
 3107SOL     OW20953   3.045   3.619   2.879 -0.0161  0.1679 -0.1615
 3107SOL    HW120954   3.137   3.631   2.854  0.2222 -0.2607  0.5243
 3107SOL    HW220955   3.045   3.662   2.965  1.2483  0.1199 -0.1431
 3108SOL     OW20956   2.963   0.966   7.740 -0.1453 -0.8664  0.4373
 3108SOL    HW120957   2.931   1.021   7.812  1.8633  0.4137  0.3291
 3108SOL    HW220958   3.049   0.941   7.773 -0.3523 -0.2942  1.4277
 3109SOL     OW20959   1.395   4.230   2.324 -0.0166  0.4187 -0.8435
 3109SOL    HW120960   1.490   4.235   2.336 -0.3361 -0.7680  2.4282
 3109SOL    HW220961   1.384   4.140   2.294 -0.9338  0.7241 -1.4223
 3110SOL     OW20962   1.818   0.944  16.581 -0.3194 -0.3409  0.3216
 3110SOL    HW120963   1.741   0.907  16.538 -0.7471  0.7028  0.1934
 3110SOL    HW220964   1.881   0.956  16.510 -3.1497  2.6881 -1.7065
 3111SOL     OW20965   2.854   0.502  11.679  0.5640  0.0395 -0.4780
 3111SOL    HW120966   2.778   0.465  11.723  0.7198  2.8609  2.2236
 3111SOL    HW220967   2.820   0.587  11.651  0.6294  0.6317  1.2261
 3112SOL     OW20968   2.065   3.082   4.967  0.2670  0.5067 -0.1912
 3112SOL    HW120969   2.054   2.992   4.936  1.7944  0.0414  0.6209
 3112SOL    HW220970   2.060   3.138   4.889  0.8955 -0.1493 -0.6954
 3113SOL     OW20971   3.822   4.142   2.348 -0.1673 -0.6463 -0.1084
 3113SOL    HW120972   3.800   4.230   2.380  1.4166  0.9190 -3.2828
 3113SOL    HW220973   3.736   4.102   2.334 -0.8370  0.4792  0.7760
 3114SOL     OW20974   1.973   0.844   0.115  0.2395  0.2541 -0.7214
 3114SOL    HW120975   1.994   0.921   0.168  1.3587  0.5781 -1.6383
 3114SOL    HW220976   1.945   0.885   0.033 -1.7469 -0.4090 -0.3705
 3115SOL     OW20977   2.016   3.015   3.095 -0.4781  0.5618  0.2588
 3115SOL    HW120978   1.988   3.100   3.129  1.1724  0.8639  0.8638
 3115SOL    HW220979   2.065   3.048   3.020  0.9240  2.3512  1.9689
 3116SOL     OW20980   4.447   2.051  16.735  0.0548  0.1021 -0.4564
 3116SOL    HW120981   4.357   2.055  16.702  0.1361  0.0896 -0.6781
 3116SOL    HW220982   4.467   2.143  16.750  1.4057  0.4573 -4.3447
 3117SOL     OW20983   2.604   0.369  13.185 -0.7137 -0.0552 -0.2466
 3117SOL    HW120984   2.672   0.427  13.217 -0.1578 -1.2860  0.8049
 3117SOL    HW220985   2.646   0.335  13.106 -2.1066  0.7005 -1.3180
 3118SOL     OW20986   0.410   4.323   1.807  0.3029 -0.3465  0.2596
 3118SOL    HW120987   0.468   4.354   1.876 -0.6403 -0.5775  1.1526
 3118SOL    HW220988   0.469   4.321   1.732  0.4274 -0.1904  0.3550
 3119SOL     OW20989   0.301   3.583  13.524 -0.7287  0.3180  0.3017
 3119SOL    HW120990   0.242   3.658  13.520 -0.9372  0.2375  1.7406
 3119SOL    HW220991   0.256   3.536  13.593  0.3715 -0.1858  0.6839
 3120SOL     OW20992   2.641   3.747  10.247  0.0339  0.3658 -0.2662
 3120SOL    HW120993   2.605   3.668  10.206  1.2686 -0.6033  0.5076
 3120SOL    HW220994   2.719   3.770  10.198 -0.2698  1.3828 -0.2729
 3121SOL     OW20995   1.633   3.904  16.557 -0.1152  0.2484 -0.0833
 3121SOL    HW120996   1.708   3.845  16.555  0.2916  0.8359 -1.7939
 3121SOL    HW220997   1.645   3.937  16.468  1.2348 -0.4802 -0.1807
 3122SOL     OW20998   3.103   1.658   1.356  0.2015 -0.1536 -0.2036
 3122SOL    HW120999   3.092   1.753   1.352 -3.2281 -0.5783 -1.1607
 3122SOL    HW221000   3.173   1.643   1.293  0.4056  1.8561 -0.4346
 3123SOL     OW21001   3.350   3.774   0.305 -0.4147  0.4781  0.3097
 3123SOL    HW121002   3.440   3.759   0.275  0.1845  1.2761  1.6952
 3123SOL    HW221003   3.320   3.814   0.223 -1.8305 -3.3898 -1.0447
 3124SOL     OW21004   3.818   3.647  12.359 -0.2619 -0.0769  0.1994
 3124SOL    HW121005   3.905   3.661  12.398  0.5851 -1.4806 -1.1979
 3124SOL    HW221006   3.826   3.554  12.341  3.2027  0.1119  0.7376
 3125SOL     OW21007   3.289   3.115   8.508  0.3939  0.4694 -0.3274
 3125SOL    HW121008   3.219   3.167   8.546  1.1492  1.3926 -0.1796
 3125SOL    HW221009   3.234   3.067   8.447  3.1472 -1.4701 -1.2851
 3126SOL     OW21010   2.421   1.974   0.565 -0.2574  0.0602 -0.2513
 3126SOL    HW121011   2.334   2.005   0.541 -0.6314 -0.1218  0.8515
 3126SOL    HW221012   2.397   1.958   0.656 -1.7420 -2.2375 -1.0372
 3127SOL     OW21013   4.545   4.661   3.908 -0.1763  0.0440 -0.2575
 3127SOL    HW121014   4.599   4.629   3.836  1.0796 -2.7635  1.9470
 3127SOL    HW221015   4.467   4.677   3.856  0.5997  3.1002 -0.4953
 3128SOL     OW21016   4.516   2.724   4.106  0.0903 -0.2742  0.2603
 3128SOL    HW121017   4.495   2.785   4.034  1.8950  0.0746  0.0190
 3128SOL    HW221018   4.520   2.636   4.068  1.4470 -0.8567  1.7728
 3129SOL     OW21019   2.759   0.261  16.466  0.0869  0.0635  0.2669
 3129SOL    HW121020   2.772   0.195  16.398  2.7847 -0.0622  0.8886
 3129SOL    HW221021   2.835   0.250  16.523  0.1646 -1.2106 -0.0773
 3130SOL     OW21022   1.911   1.920   5.528 -0.3067 -0.1173  0.0520
 3130SOL    HW121023   1.944   1.944   5.615 -2.8144 -0.0728  0.9839
 3130SOL    HW221024   1.994   1.923   5.481  0.0092  0.7806  0.6532
 3131SOL     OW21025   2.693   3.327  10.232  0.1127 -0.3099  0.2071
 3131SOL    HW121026   2.633   3.400  10.217  0.1840 -0.1170  0.8528
 3131SOL    HW221027   2.746   3.362  10.304 -0.0990  1.2863 -0.4051
 3132SOL     OW21028   0.249   3.311   3.063  0.3480 -0.4306  0.9111
 3132SOL    HW121029   0.270   3.294   3.154 -1.6038 -3.0653  0.8746
 3132SOL    HW221030   0.159   3.345   3.065  0.9273  1.0678  1.2974
 3133SOL     OW21031   4.231   1.446   1.473  0.5228 -0.5676 -0.3896
 3133SOL    HW121032   4.280   1.528   1.471 -1.1781  0.4991  2.0425
 3133SOL    HW221033   4.291   1.387   1.426  1.9671 -1.2905  2.3377
 3134SOL     OW21034   1.330   4.657   5.877 -0.2293  0.0904  0.1752
 3134SOL    HW121035   1.342   4.612   5.961 -0.5968  0.7921  0.6007
 3134SOL    HW221036   1.299   0.008   5.910  0.5538  0.9005 -1.1799
 3135SOL     OW21037   4.580   4.714   6.051 -0.3093 -0.2001 -0.8415
 3135SOL    HW121038   4.488   0.004   6.047  0.1574  1.6927 -0.6405
 3135SOL    HW221039   4.588   4.653   5.978 -1.5166 -0.8442 -0.4346
 3136SOL     OW21040   1.427   4.042   9.036  0.1317  0.2424  0.3270
 3136SOL    HW121041   1.368   4.012   8.968 -0.8747 -0.2163  1.3927
 3136SOL    HW221042   1.499   4.084   8.989 -1.5929  3.0125  0.1922
 3137SOL     OW21043   0.563   2.255   7.868 -0.3285  0.0638 -0.2215
 3137SOL    HW121044   0.592   2.169   7.839 -1.2720  0.2236 -1.6400
 3137SOL    HW221045   0.619   2.306   7.810  1.5297 -1.8618 -0.1376
 3138SOL     OW21046   2.879   3.795   2.778 -0.3328 -0.0046 -0.2352
 3138SOL    HW121047   2.931   3.721   2.809 -0.0643  0.5722  0.7050
 3138SOL    HW221048   2.944   3.864   2.781  0.1286 -0.4580  0.2442
 3139SOL     OW21049   1.741   2.254   4.227  0.0332 -0.3410 -0.1955
 3139SOL    HW121050   1.752   2.192   4.299 -1.2191 -0.6090 -0.2380
 3139SOL    HW221051   1.824   2.298   4.247 -0.0928  0.6850 -1.9402
 3140SOL     OW21052   0.322   0.678   7.248  0.2348 -0.1569 -0.2535
 3140SOL    HW121053   0.317   0.627   7.329  1.4968 -1.0754 -0.7578
 3140SOL    HW221054   0.250   0.739   7.261  0.4099  0.7088 -3.1961
 3141SOL     OW21055   1.414   1.002  15.774  0.1471  0.5517 -0.2131
 3141SOL    HW121056   1.375   1.085  15.802 -0.3362  0.7451 -1.4708
 3141SOL    HW221057   1.405   0.950  15.854 -3.0846  1.1656 -0.1701
 3142SOL     OW21058   1.188   1.414   9.160  0.4664 -0.4053  0.6476
 3142SOL    HW121059   1.174   1.507   9.142 -0.3244 -0.5488  0.5087
 3142SOL    HW221060   1.114   1.370   9.116  0.7431 -0.5817  0.3591
 3143SOL     OW21061   4.207   3.992  13.905 -0.0268 -0.5444 -0.1278
 3143SOL    HW121062   4.140   3.924  13.899  0.5567 -1.0535 -0.7842
 3143SOL    HW221063   4.209   4.003  14.001 -0.5898 -1.2639 -0.0380
 3144SOL     OW21064   4.246   0.612   5.330  0.2331  0.3379  0.0292
 3144SOL    HW121065   4.218   0.684   5.386  1.8940  0.8719  0.1676
 3144SOL    HW221066   4.159   0.581   5.304 -0.2990 -0.5420  2.7537
 3145SOL     OW21067   4.002   0.849   6.499 -0.1143 -0.3625 -0.4034
 3145SOL    HW121068   3.916   0.827   6.463 -0.3030  0.0086 -0.1769
 3145SOL    HW221069   4.021   0.774   6.556  0.6769  0.4421  0.3787
 3146SOL     OW21070   4.059   3.479   4.930  0.2143 -0.3098 -0.1124
 3146SOL    HW121071   4.057   3.417   5.002  2.6707  0.3986  0.6000
 3146SOL    HW221072   4.089   3.559   4.974 -0.1268  0.2238 -0.8454
 3147SOL     OW21073   2.311   1.309   2.171  0.3375 -0.1693  0.0163
 3147SOL    HW121074   2.340   1.218   2.173 -0.5846 -0.4448  0.9802
 3147SOL    HW221075   2.237   1.300   2.231 -0.9839 -2.1528 -1.8741
 3148SOL     OW21076   4.226   3.853   2.338  0.0780 -0.7062 -0.5522
 3148SOL    HW121077   4.275   3.776   2.368 -1.5715 -1.1051  1.0852
 3148SOL    HW221078   4.153   3.871   2.397  0.2972 -1.3392 -0.0924
 3149SOL     OW21079   4.298   1.351   1.032  0.6963  0.0157 -0.4067
 3149SOL    HW121080   4.390   1.331   1.052  0.7794 -0.5252 -1.3482
 3149SOL    HW221081   4.276   1.283   0.969 -0.6903 -1.6043  1.8475
 3150SOL     OW21082   0.340   2.290  14.922  0.3345  0.3010 -0.2609
 3150SOL    HW121083   0.319   2.366  14.977 -0.2790 -0.0900  0.0524
 3150SOL    HW221084   0.418   2.251  14.963  0.3470 -0.3988 -0.9586
 3151SOL     OW21085   2.288   2.827   4.398  0.5712  0.2658  0.3810
 3151SOL    HW121086   2.277   2.836   4.304 -0.7889  0.1577  0.5356
 3151SOL    HW221087   2.199   2.813   4.428  1.0797  0.0979  1.8108
 3152SOL     OW21088   4.296   3.285  12.349 -0.0029  0.1229 -0.2621
 3152SOL    HW121089   4.247   3.205  12.332  1.1361 -0.4667 -0.7965
 3152SOL    HW221090   4.339   3.257  12.429  1.0826  1.2472 -0.4481
 3153SOL     OW21091   1.059   1.555   1.605 -0.5377  0.3133 -0.1442
 3153SOL    HW121092   1.030   1.618   1.539 -2.8854 -0.0027  0.5865
 3153SOL    HW221093   1.108   1.619   1.658 -0.4061 -1.4402  1.8357
 3154SOL     OW21094   0.540   0.127   5.070  0.3013 -0.1653 -0.2981
 3154SOL    HW121095   0.491   0.050   5.046  2.6155 -2.0045  0.8157
 3154SOL    HW221096   0.504   0.138   5.158 -1.2256 -1.7811 -0.7419
 3155SOL     OW21097   1.208   0.810   3.880  0.3707  0.1760  0.2068
 3155SOL    HW121098   1.171   0.893   3.909 -0.8806 -0.0956 -0.6086
 3155SOL    HW221099   1.182   0.753   3.952 -1.0447 -0.0439 -0.4886
 3156SOL     OW21100   1.793   1.792   6.326 -0.4948  0.3536  0.1112
 3156SOL    HW121101   1.885   1.769   6.310 -1.3652 -1.3272 -2.5360
 3156SOL    HW221102   1.761   1.702   6.339 -2.0462  0.4376 -3.2658
 3157SOL     OW21103   3.846   2.254   6.815 -0.2548  0.2672 -0.4064
 3157SOL    HW121104   3.879   2.276   6.728 -1.8465 -1.0196 -1.3578
 3157SOL    HW221105   3.905   2.190   6.855  0.5976  0.1183 -1.8783
 3158SOL     OW21106   1.314   1.614   4.431  0.2369 -0.0807 -0.3958
 3158SOL    HW121107   1.275   1.700   4.418 -3.0019 -1.7255 -1.7076
 3158SOL    HW221108   1.330   1.608   4.525  1.4872  0.5933 -0.5683
 3159SOL     OW21109   4.714   3.530  12.169 -0.3373  0.2722 -0.3369
 3159SOL    HW121110   0.027   3.448  12.186  1.6515  1.2424 -1.0110
 3159SOL    HW221111   4.643   3.501  12.112 -0.1979  0.3105 -0.5315
 3160SOL     OW21112   1.437   3.039   2.315  0.4193  0.2972 -0.2339
 3160SOL    HW121113   1.387   2.957   2.304 -0.4162  1.1835 -2.9573
 3160SOL    HW221114   1.364   3.098   2.334  1.6311  0.8667  2.7336
 3161SOL     OW21115   1.997   0.755   2.874  0.5145  0.3061  0.3113
 3161SOL    HW121116   2.079   0.779   2.831  0.6539 -0.7090 -0.0060
 3161SOL    HW221117   1.942   0.826   2.842  0.8437 -0.3683 -1.7699
 3162SOL     OW21118   1.641   0.798   2.781 -0.2339 -0.0594  0.0440
 3162SOL    HW121119   1.714   0.858   2.794  1.1315 -1.3125 -1.8868
 3162SOL    HW221120   1.664   0.740   2.709 -0.2794  0.3516 -0.2978
 3163SOL     OW21121   1.857   3.822   4.878 -0.0946  0.3377 -0.5117
 3163SOL    HW121122   1.924   3.799   4.942  0.6586  1.2180 -0.9891
 3163SOL    HW221123   1.783   3.842   4.937  0.0907  0.1072 -0.1995
 3164SOL     OW21124   1.099   1.986   1.485  0.3319  0.5903 -0.5614
 3164SOL    HW121125   1.163   2.000   1.555  0.3074  1.1584 -0.6558
 3164SOL    HW221126   1.139   2.033   1.412  1.1050  0.4103 -0.2546
 3165SOL     OW21127   3.182   3.335  10.398 -0.1154  0.0462 -0.2373
 3165SOL    HW121128   3.225   3.250  10.404 -0.5583 -0.2668 -1.5529
 3165SOL    HW221129   3.150   3.346  10.488 -2.2216 -0.9386 -0.8618
 3166SOL     OW21130   0.813   0.593   4.516 -0.5088 -0.0811 -0.1322
 3166SOL    HW121131   0.738   0.555   4.561 -0.4319 -0.4907 -0.3446
 3166SOL    HW221132   0.873   0.597   4.591 -1.8370 -1.1471  0.9804
 3167SOL     OW21133   3.292   4.306   1.950  0.2993  0.2199  0.1353
 3167SOL    HW121134   3.243   4.386   1.934 -0.7692 -1.0311 -2.8291
 3167SOL    HW221135   3.218   4.245   1.954 -0.8779  1.5214 -2.0494
 3168SOL     OW21136   2.236   1.074   3.087 -0.0165 -0.0791 -0.3896
 3168SOL    HW121137   2.142   1.083   3.102  0.0889  3.0669 -1.6868
 3168SOL    HW221138   2.237   0.980   3.067  2.2641 -0.1920  0.1951
 3169SOL     OW21139   3.072   2.743  12.062  0.0322  0.0338  0.7239
 3169SOL    HW121140   3.071   2.809  11.993  0.5171 -0.4247  0.2809
 3169SOL    HW221141   3.166   2.724  12.066  0.8924  4.1462  0.5335
 3170SOL     OW21142   0.919   2.609  13.558  0.2861 -0.4019  0.1068
 3170SOL    HW121143   0.921   2.662  13.638 -1.0350  1.3798 -1.0382
 3170SOL    HW221144   0.860   2.537  13.578 -0.7358  0.3591 -0.1377
 3171SOL     OW21145   0.362   0.869  14.783  0.4379 -0.5550 -0.1820
 3171SOL    HW121146   0.379   0.908  14.698 -0.2831 -0.3444 -0.2320
 3171SOL    HW221147   0.450   0.839  14.804  0.5641  0.1020  0.2285
 3172SOL     OW21148   1.268   2.697   5.680  0.1514 -0.2237  0.5350
 3172SOL    HW121149   1.355   2.665   5.656 -0.6980 -1.5947 -0.6856
 3172SOL    HW221150   1.257   2.774   5.624  1.0685 -1.0024 -0.7273
 3173SOL     OW21151   1.558   3.665  16.862  0.0560  0.0471 -0.0800
 3173SOL    HW121152   1.634   3.643  16.915 -0.2442 -0.0362  0.3168
 3173SOL    HW221153   1.572   3.615  16.781 -2.4587  1.5747 -1.4593
 3174SOL     OW21154   2.076   1.374   4.012  0.3688  0.2514 -1.1036
 3174SOL    HW121155   2.168   1.401   4.009  0.9794 -1.9422 -2.0484
 3174SOL    HW221156   2.090   1.280   4.022 -0.1950  0.2472 -0.3435
 3175SOL     OW21157   1.680   0.914  15.632 -0.1868 -0.0217 -0.1992
 3175SOL    HW121158   1.735   0.991  15.618  0.3520 -0.9746 -3.3457
 3175SOL    HW221159   1.593   0.946  15.657 -0.1826  0.7944 -1.2321
 3176SOL     OW21160   4.393   0.945   7.194 -0.4952 -0.1203  0.3872
 3176SOL    HW121161   4.383   0.854   7.224  2.1717 -0.5032  0.1492
 3176SOL    HW221162   4.413   0.930   7.101 -2.3626  1.1734 -0.2095
 3177SOL     OW21163   0.645   1.343   7.803  0.2375 -0.0236 -0.6586
 3177SOL    HW121164   0.552   1.324   7.817 -0.0981  0.7736 -1.8483
 3177SOL    HW221165   0.681   1.260   7.773  1.2352  1.1132 -2.6063
 3178SOL     OW21166   1.138   3.795   6.720 -0.1999 -0.2587 -0.2396
 3178SOL    HW121167   1.162   3.880   6.681  0.4547 -0.2779  0.1126
 3178SOL    HW221168   1.215   3.786   6.776  0.6679 -1.0557 -1.5498
 3179SOL     OW21169   4.362   3.392   7.387 -0.0065  0.4755 -0.5442
 3179SOL    HW121170   4.353   3.487   7.374  1.0081  0.9421  2.2353
 3179SOL    HW221171   4.272   3.361   7.394 -0.5187  1.9151 -0.6816
 3180SOL     OW21172   0.774   1.103  11.294 -0.1428 -0.0167  0.5235
 3180SOL    HW121173   0.813   1.171  11.240 -1.3370  0.2993  0.0691
 3180SOL    HW221174   0.803   1.129  11.381 -0.4487 -0.2037  0.6822
 3181SOL     OW21175   4.496   0.033   9.421 -0.2355 -0.0770 -0.2818
 3181SOL    HW121176   4.584   0.008   9.394 -0.7240 -0.5552 -1.4477
 3181SOL    HW221177   4.507   0.082   9.502 -0.1925 -0.8884  0.2042
 3182SOL     OW21178   1.535   2.785   5.317  0.1688  0.4075 -0.1352
 3182SOL    HW121179   1.562   2.736   5.394 -1.7838  1.2492  1.0927
 3182SOL    HW221180   1.478   2.718   5.278 -1.5627  0.3614  2.4952
 3183SOL     OW21181   1.040   0.156  14.304  0.3640  0.3702 -0.1930
 3183SOL    HW121182   1.109   0.177  14.241  1.5986  0.2238  1.1095
 3183SOL    HW221183   1.023   0.238  14.350 -1.0515 -0.4106  0.6745
 3184SOL     OW21184   2.368   2.583   9.393 -0.3389  0.0769  0.1079
 3184SOL    HW121185   2.448   2.632   9.373  1.3066 -2.5907  0.1699
 3184SOL    HW221186   2.350   2.624   9.478 -0.7247  0.3987 -0.1313
 3185SOL     OW21187   3.521   4.035  12.836 -0.4123  0.0588  0.4395
 3185SOL    HW121188   3.563   4.112  12.873  0.1226  0.4732 -1.0281
 3185SOL    HW221189   3.595   3.977  12.816 -0.6481 -0.2845  0.5763
 3186SOL     OW21190   2.956   2.644   9.813 -0.2025 -0.0730  0.2472
 3186SOL    HW121191   2.964   2.615   9.904 -2.1468  0.9060  0.7167
 3186SOL    HW221192   2.960   2.739   9.816 -0.2978 -0.0539 -0.2563
 3187SOL     OW21193   0.119   2.282  14.766 -0.0158 -0.2524 -0.5742
 3187SOL    HW121194   0.107   2.377  14.767 -2.2958 -0.5584 -0.1123
 3187SOL    HW221195   0.210   2.285  14.795  0.3704  2.5811 -2.0793
 3188SOL     OW21196   1.974   3.316  10.231 -0.2903  0.1351  0.3661
 3188SOL    HW121197   1.926   3.330  10.313 -1.4177  1.3406 -0.5013
 3188SOL    HW221198   1.996   3.406  10.208  0.6035 -0.2369 -0.2387
 3189SOL     OW21199   3.378   0.203   7.939  0.3190 -0.3153  0.3895
 3189SOL    HW121200   3.341   0.115   7.929 -1.7429  0.6951 -0.9767
 3189SOL    HW221201   3.300   0.255   7.960  0.0312  0.3265 -2.3037
 3190SOL     OW21202   4.200   3.427   4.699  0.0869 -0.0383 -0.2537
 3190SOL    HW121203   4.154   3.455   4.620 -0.8191 -0.3435  0.1651
 3190SOL    HW221204   4.137   3.437   4.770  0.0607 -2.3226  0.0459
 3191SOL     OW21205   1.174   2.861   5.263  0.3518  0.0893  0.1786
 3191SOL    HW121206   1.220   2.779   5.249 -0.9297 -0.4310 -1.0287
 3191SOL    HW221207   1.081   2.837   5.260  0.3722  0.0096  0.1803
 3192SOL     OW21208   1.295   3.033   6.328  0.4011  0.3651  0.3650
 3192SOL    HW121209   1.282   2.940   6.307 -2.2321  0.5187  1.2322
 3192SOL    HW221210   1.230   3.078   6.274  0.1883  1.3143  1.4196
 3193SOL     OW21211   4.408   3.493  11.773 -0.3671 -0.1966  0.3888
 3193SOL    HW121212   4.463   3.480  11.850  2.3458  2.1961 -1.1128
 3193SOL    HW221213   4.344   3.546  11.820  0.3921  0.4721  0.6822
 3194SOL     OW21214   4.680   0.415  13.187  0.2874  0.1182 -0.3084
 3194SOL    HW121215   4.732   0.347  13.146  1.8627  1.0099  0.2052
 3194SOL    HW221216   4.657   0.475  13.116 -0.5389 -1.3786 -1.3012
 3195SOL     OW21217   1.540   1.547   9.212  0.1176 -0.2549 -0.0765
 3195SOL    HW121218   1.498   1.565   9.296  1.4437  2.3054  0.0314
 3195SOL    HW221219   1.627   1.556   9.252 -0.5023  1.7859  0.8168
 3196SOL     OW21220   0.619   1.443   6.402  0.2976  0.7099 -0.5008
 3196SOL    HW121221   0.689   1.454   6.465  0.6167 -1.0802 -0.5584
 3196SOL    HW221222   0.656   1.376   6.344 -2.3740 -1.5183  0.3852
 3197SOL     OW21223   4.726   2.745   2.172  0.5124 -0.1299  0.1654
 3197SOL    HW121224   4.690   2.680   2.231  0.4920 -0.1311  0.1513
 3197SOL    HW221225   4.654   2.808   2.163  0.7448 -0.1371 -1.8458
 3198SOL     OW21226   1.805   1.218   6.190  0.1816  0.0369  0.2645
 3198SOL    HW121227   1.827   1.270   6.268  1.3031  0.1083 -0.0921
 3198SOL    HW221228   1.724   1.182   6.227 -1.1603  1.6535 -1.1281
 3199SOL     OW21229   2.071   3.646   8.134  0.6251  0.2956  0.2350
 3199SOL    HW121230   2.039   3.706   8.067  2.1215  1.0449  0.1828
 3199SOL    HW221231   1.997   3.632   8.192  0.2315 -1.0938 -0.5993
 3200SOL     OW21232   2.707   3.520   2.754 -0.4539 -0.1122 -0.6103
 3200SOL    HW121233   2.724   3.606   2.792  2.1003 -1.0913  0.4768
 3200SOL    HW221234   2.621   3.538   2.718 -0.4194  3.2037  0.9849
 3201SOL     OW21235   0.801   0.858  15.532 -0.2651 -0.1716 -0.2454
 3201SOL    HW121236   0.822   0.764  15.527  1.9438  0.3017  0.5503
 3201SOL    HW221237   0.842   0.899  15.456 -1.6113  0.3115 -0.7185
 3202SOL     OW21238   2.739   0.053   5.407 -0.4757 -0.1796 -0.1481
 3202SOL    HW121239   2.782   0.103   5.477 -2.1202  1.1243 -0.0678
 3202SOL    HW221240   2.706   4.716   5.463  1.4315 -1.4409 -0.6097
 3203SOL     OW21241   2.987   0.995   7.353 -0.2958  0.4835 -0.3750
 3203SOL    HW121242   2.990   1.086   7.383  1.5293  1.3109 -3.0416
 3203SOL    HW221243   2.926   0.951   7.412  2.0860  2.4952  3.5438
 3204SOL     OW21244   1.702   2.160   4.937  0.0312  0.3268 -0.8822
 3204SOL    HW121245   1.736   2.106   4.865  1.4615 -2.0133  1.5658
 3204SOL    HW221246   1.744   2.242   4.912  1.6316 -0.2933 -0.2366
 3205SOL     OW21247   1.798   4.234   8.739  0.2557  0.6094 -0.0402
 3205SOL    HW121248   1.836   4.320   8.722  0.3001  0.2172 -1.8505
 3205SOL    HW221249   1.775   4.203   8.652 -0.3513  0.9318  0.0071
 3206SOL     OW21250   0.568   2.030   3.581  0.1050  0.0851 -0.2183
 3206SOL    HW121251   0.583   1.957   3.641  2.0720 -0.2909 -1.1934
 3206SOL    HW221252   0.654   2.032   3.539  0.3522 -3.4131  0.1619
 3207SOL     OW21253   1.978   3.844   7.959 -0.3038 -0.5974  0.0019
 3207SOL    HW121254   2.032   3.840   7.880  0.4038  1.3798  0.3784
 3207SOL    HW221255   1.890   3.830   7.924  0.5492 -0.6651 -2.0918
 3208SOL     OW21256   3.278   4.212  13.841  0.3162  0.0696  0.1837
 3208SOL    HW121257   3.259   4.293  13.793 -1.6051 -0.7939 -0.5507
 3208SOL    HW221258   3.356   4.179  13.796  0.1587  0.1678 -0.1614
 3209SOL     OW21259   4.249   4.550  13.733  0.3384  0.6339 -0.2014
 3209SOL    HW121260   4.215   4.479  13.678  0.3452 -1.0937  2.0082
 3209SOL    HW221261   4.168   4.572  13.779  0.3580  0.7873 -0.2390
 3210SOL     OW21262   2.543   1.497   0.320  0.5865  0.3165 -0.1535
 3210SOL    HW121263   2.632   1.504   0.354  0.2972 -0.8236  0.8341
 3210SOL    HW221264   2.539   1.402   0.312 -2.8801  0.3900  0.6206
 3211SOL     OW21265   2.598   1.389   7.474  0.8507 -0.1765  0.0870
 3211SOL    HW121266   2.629   1.480   7.468 -0.0314  0.1540  0.5602
 3211SOL    HW221267   2.509   1.398   7.439  1.3453  0.4357 -1.0006
 3212SOL     OW21268   3.142   2.886  11.817 -0.0655  0.1337  0.0061
 3212SOL    HW121269   3.185   2.971  11.816  1.8706 -0.7724  4.4308
 3212SOL    HW221270   3.128   2.878  11.723 -0.9195  0.9216  0.0619
 3213SOL     OW21271   0.432   2.186   1.041  0.0507 -0.0224  0.5743
 3213SOL    HW121272   0.448   2.122   0.972 -1.2223 -1.0664  1.2347
 3213SOL    HW221273   0.375   2.132   1.096 -1.1240  0.1045 -0.5038
 3214SOL     OW21274   1.195   1.504   2.813  0.0427  0.5476  0.4200
 3214SOL    HW121275   1.159   1.576   2.866 -3.8243  0.6396 -2.3390
 3214SOL    HW221276   1.113   1.461   2.788 -0.4317  0.8682  1.4003
 3215SOL     OW21277   2.673   3.670   2.374  0.1139 -0.0123 -0.1296
 3215SOL    HW121278   2.665   3.578   2.348 -2.5837  0.6690 -1.6229
 3215SOL    HW221279   2.761   3.675   2.413 -1.2860  1.7576  2.8442
 3216SOL     OW21280   4.237   4.243   5.396 -0.3934 -0.1479  0.5918
 3216SOL    HW121281   4.296   4.319   5.397 -0.7065  0.1058 -1.5188
 3216SOL    HW221282   4.166   4.288   5.442 -0.2402 -0.8461  1.5214
 3217SOL     OW21283   3.304   2.090   9.334 -0.6211 -0.3982  0.2471
 3217SOL    HW121284   3.307   2.117   9.426 -0.2477 -0.0244  0.1279
 3217SOL    HW221285   3.240   2.157   9.312 -1.9420 -2.4853 -2.2988
 3218SOL     OW21286   4.438   4.242   9.666 -0.0358  0.7435 -0.3686
 3218SOL    HW121287   4.515   4.221   9.719  0.0181 -1.7586 -1.4500
 3218SOL    HW221288   4.363   4.213   9.717  0.2019 -0.0127 -0.4537
 3219SOL     OW21289   4.158   1.894   8.748  0.0395  0.4215  0.2557
 3219SOL    HW121290   4.206   1.938   8.819 -0.5537  0.7780  0.4374
 3219SOL    HW221291   4.127   1.978   8.714 -0.5763 -0.0173 -0.2668
 3220SOL     OW21292   2.128   1.869   8.119 -0.3707  0.0656 -0.1540
 3220SOL    HW121293   2.063   1.938   8.133 -0.0144  0.2839  0.4310
 3220SOL    HW221294   2.081   1.830   8.045 -0.4535  3.3327 -1.8020
 3221SOL     OW21295   1.061   4.164  16.780  0.3605  0.2852 -0.0093
 3221SOL    HW121296   1.102   4.105  16.716 -2.1482 -0.7737 -0.6594
 3221SOL    HW221297   0.973   4.157  16.743 -0.2690  4.3946  0.6925
 3222SOL     OW21298   3.984   3.194   8.460 -0.6587 -0.1497  0.2862
 3222SOL    HW121299   4.067   3.158   8.429 -2.6702 -4.2128 -0.3975
 3222SOL    HW221300   3.921   3.130   8.425 -0.0794 -0.1381 -0.7863
 3223SOL     OW21301   3.795   3.885   8.284  0.1988 -0.1758  0.0181
 3223SOL    HW121302   3.884   3.852   8.280 -0.1741 -1.0239 -1.2258
 3223SOL    HW221303   3.751   3.802   8.299 -4.0406  2.2965  1.3503
 3224SOL     OW21304   2.228   3.969   7.118 -0.4352  0.1966 -0.2120
 3224SOL    HW121305   2.148   3.961   7.170 -0.9830  3.1373 -0.6016
 3224SOL    HW221306   2.232   3.878   7.089 -1.0348  0.3618 -0.8067
 3225SOL     OW21307   0.144   4.412   9.306 -0.8328  0.2416 -0.1700
 3225SOL    HW121308   0.212   4.433   9.369  0.8398  1.2694 -2.3487
 3225SOL    HW221309   0.088   4.360   9.364 -1.3284  2.2352  1.1077
 3226SOL     OW21310   4.126   0.890   2.580  0.1255  0.4101 -0.4907
 3226SOL    HW121311   4.082   0.821   2.629  0.7685  0.2781 -0.0967
 3226SOL    HW221312   4.113   0.873   2.487  1.4251 -0.9464 -0.4244
 3227SOL     OW21313   0.801   4.381   3.773 -0.1324 -0.1964  0.5234
 3227SOL    HW121314   0.714   4.348   3.793 -0.4485  1.9136  2.6355
 3227SOL    HW221315   0.838   4.420   3.852  1.6699  0.4816 -0.6348
 3228SOL     OW21316   1.572   4.404   4.951 -0.1613  0.3636  0.0001
 3228SOL    HW121317   1.486   4.371   4.927 -0.1349  0.2684  0.0374
 3228SOL    HW221318   1.625   4.389   4.873 -1.1560  1.0180 -0.7938
 3229SOL     OW21319   2.327   0.088   5.144 -0.2886  0.3320  0.0155
 3229SOL    HW121320   2.350   0.012   5.198  0.8412  1.7526  1.4870
 3229SOL    HW221321   2.237   0.104   5.173 -1.0358 -0.3881 -1.8799
 3230SOL     OW21322   1.483   1.054   9.030  0.4407  0.1929 -0.7858
 3230SOL    HW121323   1.546   1.026   9.095 -1.4871  2.0633  1.8700
 3230SOL    HW221324   1.467   1.143   9.061 -1.0178 -0.6212  0.7878
 3231SOL     OW21325   1.439   2.473   1.619 -0.1246  0.3678 -0.5138
 3231SOL    HW121326   1.474   2.390   1.586  1.9788  1.1421 -0.2072
 3231SOL    HW221327   1.348   2.452   1.639 -0.2253  2.0969  0.7672
 3232SOL     OW21328   0.919   2.838   1.905  0.3447 -0.1171 -0.3428
 3232SOL    HW121329   0.836   2.883   1.921 -0.2252 -0.9819 -0.8729
 3232SOL    HW221330   0.959   2.897   1.841  0.6060  1.8511  1.6305
 3233SOL     OW21331   0.866   3.713   6.780 -0.5724 -0.3961 -0.0990
 3233SOL    HW121332   0.933   3.776   6.751 -0.8491 -0.1982 -0.3097
 3233SOL    HW221333   0.845   3.761   6.860 -1.8642  1.6083 -1.6484
 3234SOL     OW21334   1.628   1.687   5.129 -0.1595 -0.0789  0.4477
 3234SOL    HW121335   1.620   1.637   5.210  0.3018 -0.4948  0.2329
 3234SOL    HW221336   1.624   1.776   5.164 -1.8117  1.2090 -2.9297
 3235SOL     OW21337   4.494   2.761   8.503  0.3684  0.2170 -0.4602
 3235SOL    HW121338   4.457   2.693   8.447  0.1366  0.0648 -0.1188
 3235SOL    HW221339   4.420   2.809   8.541 -0.3658 -0.5198 -0.9643
 3236SOL     OW21340   0.843   3.395   5.401  0.1732 -0.3762  0.0035
 3236SOL    HW121341   0.872   3.485   5.415 -1.4080  0.2880 -0.9840
 3236SOL    HW221342   0.759   3.404   5.356  0.7147  1.5360 -0.6265
 3237SOL     OW21343   2.699   0.622   8.471  0.6687  0.3507  0.1047
 3237SOL    HW121344   2.781   0.578   8.448  0.3153 -1.9248  3.1220
 3237SOL    HW221345   2.723   0.647   8.560 -0.8514 -1.6029  1.0807
 3238SOL     OW21346   0.099   0.715  16.269  0.0405 -0.3616  0.1254
 3238SOL    HW121347   0.113   0.657  16.343  1.7817 -0.3307 -0.1793
 3238SOL    HW221348   0.007   0.695  16.249 -0.8161  2.1050  1.5285
 3239SOL     OW21349   4.589   0.998   5.592 -0.6176 -0.4251 -0.4262
 3239SOL    HW121350   4.542   0.916   5.600 -0.4622 -0.7777 -3.3899
 3239SOL    HW221351   4.523   1.062   5.621 -0.8223 -0.9304  0.2285
 3240SOL     OW21352   3.676   2.514   8.678 -0.5243 -0.0489  0.4463
 3240SOL    HW121353   3.690   2.468   8.761 -0.3133  0.8566  0.9160
 3240SOL    HW221354   3.708   2.455   8.610  1.7278  0.4103  1.1166
 3241SOL     OW21355   1.808   2.263   3.552 -0.5675 -0.0679 -0.7925
 3241SOL    HW121356   1.852   2.271   3.468  1.4915  0.0015  0.3064
 3241SOL    HW221357   1.771   2.350   3.565 -0.4962 -0.0253 -0.8816
 3242SOL     OW21358   4.094   0.296   9.347  0.1627 -0.1053 -0.0395
 3242SOL    HW121359   4.077   0.390   9.351  0.4646  0.0363 -2.1212
 3242SOL    HW221360   4.177   0.287   9.394  1.4216 -0.3533 -2.3455
 3243SOL     OW21361   3.683   0.414   8.579 -0.4880 -0.8807 -0.1658
 3243SOL    HW121362   3.592   0.427   8.605 -0.3422  1.5483 -0.8356
 3243SOL    HW221363   3.719   0.503   8.576  0.1624 -1.0724  1.7248
 3244SOL     OW21364   0.513   3.564   3.915 -0.2080  0.9696 -0.1615
 3244SOL    HW121365   0.509   3.564   4.011 -4.7251 -0.4753 -0.3685
 3244SOL    HW221366   0.523   3.659   3.906  0.7728  0.9107  0.2747
 3245SOL     OW21367   4.038   3.715   8.315  0.1606 -0.3058  1.0161
 3245SOL    HW121368   4.125   3.753   8.309 -0.2500  0.5016  0.2253
 3245SOL    HW221369   4.049   3.621   8.328 -0.9518 -0.5674  0.0561
 3246SOL     OW21370   4.364   3.005   5.939  0.2541  0.3539  0.1979
 3246SOL    HW121371   4.273   2.988   5.914  0.0043  2.8569 -0.5876
 3246SOL    HW221372   4.345   3.041   6.025  1.0617 -0.1194  0.5676
 3247SOL     OW21373   2.569   4.532   3.481 -0.0582 -0.1924 -0.1278
 3247SOL    HW121374   2.614   4.607   3.519  1.7165 -0.7444 -1.1616
 3247SOL    HW221375   2.496   4.521   3.542  0.6873 -1.0793  0.6075
 3248SOL     OW21376   2.100   3.225   4.508 -0.2601  0.5202 -0.0947
 3248SOL    HW121377   2.031   3.184   4.456  0.8750  1.3361 -2.2698
 3248SOL    HW221378   2.137   3.283   4.441  0.6263  2.5528  2.1453
 3249SOL     OW21379   0.238   1.280   8.470  0.0582  0.5835 -0.3062
 3249SOL    HW121380   0.222   1.374   8.460 -0.5989  0.7179  1.8206
 3249SOL    HW221381   0.164   1.240   8.425  0.3666  1.0951 -1.2510
 3250SOL     OW21382   0.453   4.531   5.357 -0.8435  0.2792  0.0814
 3250SOL    HW121383   0.429   4.549   5.448  1.9740  0.7242  0.7168
 3250SOL    HW221384   0.513   4.604   5.342 -0.6574  0.2096  0.5021
 3251SOL     OW21385   4.525   1.933  11.546  0.4112  0.0550  0.2614
 3251SOL    HW121386   4.619   1.914  11.554 -0.1951 -2.4418  1.2047
 3251SOL    HW221387   4.502   1.845  11.517 -0.2919  0.3531 -0.0744
 3252SOL     OW21388   4.608   3.284  13.663  0.1368 -0.0802  0.0859
 3252SOL    HW121389   4.696   3.247  13.672 -0.4890 -1.5198  0.2633
 3252SOL    HW221390   4.560   3.204  13.645  0.8205 -0.5916  0.5312
 3253SOL     OW21391   0.021   4.061   4.033 -0.2770  0.3391  0.2822
 3253SOL    HW121392   4.672   4.044   3.987  0.1657  1.3060 -0.8556
 3253SOL    HW221393   0.068   3.988   3.993  1.0039  0.4112  1.6614
 3254SOL     OW21394   1.930   1.627  10.255 -0.0428  0.4590 -0.2460
 3254SOL    HW121395   2.016   1.622  10.298 -0.3124 -0.3662  0.2094
 3254SOL    HW221396   1.939   1.587  10.169 -2.7810  3.2428 -1.8011
 3255SOL     OW21397   4.717   1.048   8.822  0.3071  0.3761 -0.3681
 3255SOL    HW121398   4.633   1.041   8.867  0.1254 -1.2834 -0.9586
 3255SOL    HW221399   4.695   1.043   8.729 -0.0376  0.7189 -0.3029
 3256SOL     OW21400   1.861   2.325   7.909  0.1920  0.1238 -0.0118
 3256SOL    HW121401   1.795   2.292   7.849 -1.0349  2.4758  0.0535
 3256SOL    HW221402   1.813   2.393   7.957 -1.0200 -1.6448  1.2648
 3257SOL     OW21403   3.700   2.413   8.941  0.5945 -0.3223 -0.3202
 3257SOL    HW121404   3.616   2.457   8.934  1.4990  1.1363 -2.0788
 3257SOL    HW221405   3.688   2.377   9.029  2.7705 -1.6850 -0.5872
 3258SOL     OW21406   0.971   2.526   3.779  0.8332 -0.1582 -0.1909
 3258SOL    HW121407   0.977   2.433   3.756  1.7780 -0.3137  0.6504
 3258SOL    HW221408   0.921   2.520   3.860  0.1516 -2.3190 -0.7799
 3259SOL     OW21409   2.593   4.584   4.981  0.6505 -0.0311 -0.0939
 3259SOL    HW121410   2.632   4.497   4.986  0.5691 -0.0870 -0.4224
 3259SOL    HW221411   2.557   4.596   5.069  2.9307  1.0958  0.6906
 3260SOL     OW21412   0.962   1.743   2.687 -0.1338  0.1254 -0.1086
 3260SOL    HW121413   1.025   1.737   2.616  0.6332 -1.9304  0.7390
 3260SOL    HW221414   0.978   1.833   2.717  0.4460 -0.8002  2.3788
 3261SOL     OW21415   4.697   4.289  14.685  0.1539  0.4886  0.8931
 3261SOL    HW121416   4.721   4.357  14.748 -0.8784  0.3837  1.4014
 3261SOL    HW221417   4.606   4.302  14.659  0.3793 -0.5933 -0.4318
 3262SOL     OW21418   0.556   4.674  13.810  0.8152 -0.2370 -0.7230
 3262SOL    HW121419   0.574   4.650  13.900 -0.1328 -0.4520 -0.5950
 3262SOL    HW221420   0.559   0.037  13.809  0.2048 -0.2008  2.0063
 3263SOL     OW21421   2.802   0.816   7.980 -0.1334 -0.1122 -0.2428
 3263SOL    HW121422   2.816   0.774   8.065  1.8506 -1.7238 -1.3898
 3263SOL    HW221423   2.806   0.908   8.008  1.3267 -1.0399  2.5139
 3264SOL     OW21424   1.310   4.195  16.436  0.1315 -0.5614  0.2582
 3264SOL    HW121425   1.323   4.286  16.465  1.5942  0.2576 -2.9530
 3264SOL    HW221426   1.286   4.210  16.344 -2.0961 -3.6234  0.3642
 3265SOL     OW21427   2.091   2.987   2.250  0.0588 -0.3556  0.4811
 3265SOL    HW121428   2.016   3.047   2.255  0.0255 -0.3859  0.3506
 3265SOL    HW221429   2.173   3.033   2.265  1.3440 -2.1139 -1.1732
 3266SOL     OW21430   1.028   2.164  14.986 -0.4828 -0.0172  0.2020
 3266SOL    HW121431   0.988   2.246  15.015 -0.5248 -0.6490  1.9042
 3266SOL    HW221432   1.107   2.156  15.039 -0.7977  1.1766  0.8410
 3267SOL     OW21433   0.092   2.190   0.597 -0.3637 -0.1757 -0.5183
 3267SOL    HW121434   0.115   2.100   0.622 -0.6801 -0.6579 -1.9355
 3267SOL    HW221435   0.095   2.233   0.682 -1.0140 -0.3596 -0.4011
 3268SOL     OW21436   0.550   1.824  16.334 -0.4078 -0.2658  0.3415
 3268SOL    HW121437   0.520   1.839  16.244  0.5069  1.6811  0.3567
 3268SOL    HW221438   0.590   1.740  16.317  0.7741 -0.3922  3.7428
 3269SOL     OW21439   1.879   3.160   5.181 -0.1851  0.3766 -0.1788
 3269SOL    HW121440   1.930   3.105   5.122 -0.3871 -0.2515  0.2227
 3269SOL    HW221441   1.802   3.103   5.186 -0.0148  0.2624  1.3318
 3270SOL     OW21442   1.244   4.579   3.722  0.7903  0.0077  0.9626
 3270SOL    HW121443   1.184   4.505   3.716  1.1304 -0.3083  1.4508
 3270SOL    HW221444   1.182   4.652   3.733  1.9330  0.7840  2.3115
 3271SOL     OW21445   0.732   4.443   4.147 -0.1141 -0.1591  0.1185
 3271SOL    HW121446   0.710   4.530   4.114 -0.1371 -0.5971 -1.0141
 3271SOL    HW221447   0.827   4.436   4.137 -0.2078 -0.4962 -0.5160
 3272SOL     OW21448   1.503   1.412  10.112  0.4059  0.1618 -0.5690
 3272SOL    HW121449   1.520   1.498  10.151 -0.0962 -0.4209  0.9470
 3272SOL    HW221450   1.574   1.395  10.050 -0.9265  0.4769 -2.1690
 3273SOL     OW21451   0.442   1.112   8.549  0.1444  0.0462  0.0230
 3273SOL    HW121452   0.377   1.180   8.528 -0.1341  0.3252  1.7948
 3273SOL    HW221453   0.524   1.161   8.556 -0.1517  0.5126  0.2640
 3274SOL     OW21454   2.400   0.577  11.910 -0.0208 -0.0838  0.6264
 3274SOL    HW121455   2.372   0.554  11.998 -0.2410 -2.8009 -0.1719
 3274SOL    HW221456   2.314   0.589  11.870  0.6789 -2.5709 -1.6180
 3275SOL     OW21457   2.522   4.293   8.011 -0.3866  0.1452  0.0276
 3275SOL    HW121458   2.539   4.353   7.939  1.0917  0.8959  0.9951
 3275SOL    HW221459   2.571   4.215   7.989 -0.1915 -0.5484  2.9067
 3276SOL     OW21460   0.827   0.853   6.150  0.0442 -0.0987  0.3469
 3276SOL    HW121461   0.847   0.818   6.063 -0.3461 -0.3049  0.3434
 3276SOL    HW221462   0.877   0.935   6.150  0.7984 -0.5409 -2.6598
 3277SOL     OW21463   4.434   0.778   1.793 -0.1478 -0.0608 -1.0275
 3277SOL    HW121464   4.454   0.760   1.701 -0.8680  1.8468 -1.5503
 3277SOL    HW221465   4.342   0.750   1.796 -0.5696  1.6296  1.4460
 3278SOL     OW21466   4.294   3.835   8.290 -0.0616  0.1051 -0.5413
 3278SOL    HW121467   4.266   3.903   8.228  0.4812  1.4807  0.7362
 3278SOL    HW221468   4.375   3.798   8.256  0.6954  0.8384  0.4824
 3279SOL     OW21469   0.283   0.785   6.961 -0.5470  0.4443  0.0239
 3279SOL    HW121470   0.290   0.755   7.052 -0.2489  1.7909  0.4512
 3279SOL    HW221471   0.332   0.867   6.962  2.6858 -1.5069  1.6162
 3280SOL     OW21472   2.495   1.761   3.855  0.0178  0.1190 -0.1310
 3280SOL    HW121473   2.511   1.848   3.820 -0.2958 -0.3538 -1.4333
 3280SOL    HW221474   2.400   1.771   3.869  0.0152 -0.8146  0.5680
 3281SOL     OW21475   1.760   1.397   5.619 -0.0056 -0.2435 -0.7947
 3281SOL    HW121476   1.763   1.439   5.534 -1.5053  0.6919 -0.3844
 3281SOL    HW221477   1.696   1.455   5.661  1.7477  0.0023  1.5178
 3282SOL     OW21478   2.190   1.457   2.783  0.2912  0.3645  0.0070
 3282SOL    HW121479   2.219   1.414   2.863  3.4244  1.9366 -0.2831
 3282SOL    HW221480   2.098   1.433   2.788  0.5282 -0.4001  0.7390
 3283SOL     OW21481   4.524   1.775   6.078  1.0073  0.2606 -0.1217
 3283SOL    HW121482   4.513   1.771   6.173  1.1529  2.7134 -0.0030
 3283SOL    HW221483   4.616   1.749   6.067  0.5361 -2.4643  2.2863
 3284SOL     OW21484   4.579   4.633  14.522  0.4196 -0.1606 -0.5213
 3284SOL    HW121485   4.596   4.644  14.429  1.5109 -0.0525 -0.3027
 3284SOL    HW221486   4.553   4.541  14.511 -0.6856  0.2696 -1.5523
 3285SOL     OW21487   3.945   4.665   7.980  0.1677  0.2516  0.3690
 3285SOL    HW121488   3.983   4.701   7.900  5.0311  0.9273  3.0069
 3285SOL    HW221489   3.875   4.722   8.012 -0.4289 -1.0115  1.2929
 3286SOL     OW21490   1.663   4.292   2.423 -0.1828  0.3452  0.0464
 3286SOL    HW121491   1.737   4.248   2.465 -0.7105 -1.1386 -0.5982
 3286SOL    HW221492   1.699   4.331   2.343 -1.8226 -0.6444 -1.1624
 3287SOL     OW21493   4.383   2.547   6.969 -0.5253  0.2008 -0.2558
 3287SOL    HW121494   4.448   2.489   6.929 -0.0192 -0.2752  1.2679
 3287SOL    HW221495   4.314   2.495   7.010 -1.0770  0.6155 -0.6512
 3288SOL     OW21496   1.929   0.317   3.196  0.2339  0.1005  0.1502
 3288SOL    HW121497   1.900   0.381   3.131  0.5242 -2.1281 -2.1714
 3288SOL    HW221498   1.934   0.233   3.150 -1.3977  0.5500 -0.8847
 3289SOL     OW21499   2.899   2.620  12.245  0.4087  0.5346  0.1651
 3289SOL    HW121500   2.916   2.557  12.174  1.5946  1.8545 -0.7301
 3289SOL    HW221501   2.932   2.696  12.198 -1.7861  1.4645  0.1328
 3290SOL     OW21502   0.269   0.014  10.048  0.6160  0.4365  0.4177
 3290SOL    HW121503   0.270   0.078   9.977  0.3427  0.2979  0.2883
 3290SOL    HW221504   0.317   4.680   9.999 -0.2373  0.1451 -0.0082
 3291SOL     OW21505   1.436   3.262   9.591  0.3877  0.4797 -0.4274
 3291SOL    HW121506   1.396   3.298   9.670 -0.1744 -2.8336  0.8111
 3291SOL    HW221507   1.373   3.287   9.523  0.8360  0.9580 -0.6629
 3292SOL     OW21508   4.422   1.148   5.757 -0.1324 -0.1121  0.5032
 3292SOL    HW121509   4.333   1.180   5.767 -0.3095 -1.2543  2.4605
 3292SOL    HW221510   4.426   1.078   5.823  0.3465  0.1126  0.7125
 3293SOL     OW21511   4.189   3.819   6.236 -0.8056  0.0267 -0.3857
 3293SOL    HW121512   4.109   3.822   6.184 -0.2525  0.8175 -1.1873
 3293SOL    HW221513   4.249   3.883   6.198 -0.6905 -0.0863 -0.3925
 3294SOL     OW21514   1.561   1.662  10.955  0.5277 -0.1883 -0.2880
 3294SOL    HW121515   1.583   1.755  10.957  1.9416 -0.5215 -1.1480
 3294SOL    HW221516   1.499   1.647  10.883  2.2430  0.4380 -1.8759
 3295SOL     OW21517   1.358   3.828  17.558 -0.1906  0.0265  0.0693
 3295SOL    HW121518   1.296   3.836  17.485 -1.4966  0.8769  1.2865
 3295SOL    HW221519   1.304   3.869  17.625  1.7869 -0.3051  1.8654
 3296SOL     OW21520   2.795   3.667   7.480  0.4149  0.1755 -0.3583
 3296SOL    HW121521   2.843   3.713   7.549  1.0720  0.5301 -1.0477
 3296SOL    HW221522   2.852   3.593   7.459  1.1011  0.3361  0.9263
 3297SOL     OW21523   2.351   1.627  13.975  0.2189  0.1865  0.7243
 3297SOL    HW121524   2.276   1.579  14.011  1.4461 -0.9057  1.8137
 3297SOL    HW221525   2.417   1.558  13.966 -0.6748 -0.5898  0.0794
 3298SOL     OW21526   1.209   0.873   7.188  0.0886 -0.0713  0.6178
 3298SOL    HW121527   1.244   0.821   7.261  0.5405 -0.4249  0.1571
 3298SOL    HW221528   1.266   0.949   7.177 -1.0912  0.6629 -0.2793
 3299SOL     OW21529   1.732   3.961   3.597 -0.2986 -0.1136 -0.4062
 3299SOL    HW121530   1.776   4.011   3.666 -0.3152  1.3402 -1.4526
 3299SOL    HW221531   1.680   4.030   3.555 -1.1776 -0.0102  0.8542
 3300SOL     OW21532   4.415   0.641  16.784  0.3357  0.1281 -0.6222
 3300SOL    HW121533   4.323   0.617  16.788 -0.0668  1.8353  0.7920
 3300SOL    HW221534   4.412   0.720  16.729  1.3900  0.5870 -0.0384
 3301SOL     OW21535   1.989   2.435   7.286  0.4163  0.2854 -0.0727
 3301SOL    HW121536   2.050   2.361   7.291  1.1297  1.0011  2.0793
 3301SOL    HW221537   1.949   2.422   7.200 -0.5642 -2.1862  0.7469
 3302SOL     OW21538   0.567   0.978  11.065  0.0559 -0.4573 -0.0493
 3302SOL    HW121539   0.635   1.034  11.102 -0.4935 -0.8853  1.6338
 3302SOL    HW221540   0.494   1.039  11.056 -0.9452 -1.7180 -0.4609
 3303SOL     OW21541   4.622   2.952   5.089 -0.3592  0.1856  0.2287
 3303SOL    HW121542   4.552   2.998   5.043 -0.2961  1.1149  1.0597
 3303SOL    HW221543   4.675   2.918   5.016 -0.7732  0.5335 -0.2308
 3304SOL     OW21544   4.567   0.675  10.742 -0.3691  0.3422 -0.1187
 3304SOL    HW121545   4.543   0.583  10.749  0.1345  0.4163  2.6213
 3304SOL    HW221546   4.577   0.691  10.648  1.5791  2.6243  0.4636
 3305SOL     OW21547   4.655   2.568  11.250  0.0867 -0.0201  0.4534
 3305SOL    HW121548   4.666   2.476  11.225  1.3030  0.6843 -1.6316
 3305SOL    HW221549   4.727   2.600  11.195 -0.6780 -0.7337 -0.9824
 3306SOL     OW21550   0.596   2.347   1.313 -0.2431 -0.2447  0.6650
 3306SOL    HW121551   0.645   2.275   1.354  0.0391 -0.5066 -0.1481
 3306SOL    HW221552   0.509   2.308   1.307  0.2159 -1.0459 -0.8553
 3307SOL     OW21553   2.983   0.457   5.277  0.1213 -0.1425  0.1496
 3307SOL    HW121554   3.069   0.478   5.312  0.4554  0.6217 -1.1748
 3307SOL    HW221555   2.956   0.403   5.352  0.0202 -0.7513 -0.3258
 3308SOL     OW21556   1.031   4.434   7.130 -0.5750  0.8326  0.2131
 3308SOL    HW121557   1.089   4.360   7.148 -2.7961 -1.1114 -0.5977
 3308SOL    HW221558   1.033   4.446   7.035  1.5898  1.4372  0.3224
 3309SOL     OW21559   4.579   0.726  14.258  0.2988  0.3261  0.2807
 3309SOL    HW121560   4.551   0.680  14.337 -0.4817  0.9249  0.3489
 3309SOL    HW221561   4.559   0.656  14.197 -0.0503  0.4102  0.3010
 3310SOL     OW21562   4.517   1.763   6.439  0.4637  0.2514  0.7484
 3310SOL    HW121563   4.588   1.710   6.476 -0.4700 -2.2478 -1.0207
 3310SOL    HW221564   4.449   1.759   6.506  0.8896 -0.7026  1.1338
 3311SOL     OW21565   1.952   0.274   1.880  0.2435 -0.2772  0.0901
 3311SOL    HW121566   1.881   0.275   1.944 -0.5263  2.1735 -0.8032
 3311SOL    HW221567   1.966   0.180   1.893  2.1657 -0.0410 -0.3368
 3312SOL     OW21568   2.082   3.093  14.755 -0.0210  0.1934  0.1290
 3312SOL    HW121569   2.172   3.114  14.777  0.5654 -1.4497 -0.7521
 3312SOL    HW221570   2.090   3.000  14.733 -0.8472  0.4663 -1.3377
 3313SOL     OW21571   4.269   1.079  10.235 -0.5445 -0.2146 -0.4610
 3313SOL    HW121572   4.269   1.152  10.173  1.2220  0.0910 -0.1000
 3313SOL    HW221573   4.175   1.080  10.251 -0.7364 -0.0350 -1.6558
 3314SOL     OW21574   2.121   1.245  17.351  0.2016  0.0229 -0.7441
 3314SOL    HW121575   2.151   1.157  17.376 -2.6928 -0.5131  0.8256
 3314SOL    HW221576   2.064   1.219  17.279 -1.1956 -1.5992  0.9551
 3315SOL     OW21577   1.064   1.690  14.687  0.3846  0.2053  0.3838
 3315SOL    HW121578   1.080   1.772  14.733  1.2035  0.6293 -0.6374
 3315SOL    HW221579   1.134   1.634  14.722  0.1856  1.1471  2.2746
 3316SOL     OW21580   1.397   0.004   7.727 -0.1743 -0.5051 -0.6939
 3316SOL    HW121581   1.306   0.019   7.751  0.3977  0.2433  1.0434
 3316SOL    HW221582   1.442   0.075   7.773  0.8712 -0.1367 -2.2546
 3317SOL     OW21583   1.233   3.315   5.474  0.5072  0.5769  0.4875
 3317SOL    HW121584   1.263   3.247   5.413 -2.3343  0.8838 -1.2502
 3317SOL    HW221585   1.145   3.289   5.502  0.8362  0.5039  1.4503
 3318SOL     OW21586   0.687   3.551   6.640 -0.0685  0.3062 -0.0583
 3318SOL    HW121587   0.672   3.589   6.553 -1.8611  1.0806  0.5957
 3318SOL    HW221588   0.751   3.614   6.673  0.1247  0.0569  0.0419
 3319SOL     OW21589   3.120   3.524   0.603 -0.2698  0.4261  0.4602
 3319SOL    HW121590   3.173   3.522   0.523  2.0383 -1.0894  2.0241
 3319SOL    HW221591   3.116   3.618   0.619  1.0553  0.6483 -0.5400
 3320SOL     OW21592   4.027   2.733   6.564 -0.2439  0.4950  0.9487
 3320SOL    HW121593   4.071   2.741   6.649  1.2136  0.2393  0.2258
 3320SOL    HW221594   3.938   2.740   6.597 -0.1235 -1.1893  1.6741
 3321SOL     OW21595   0.382   4.417  15.933 -0.6704 -0.2194  0.1331
 3321SOL    HW121596   0.361   4.509  15.951  1.9179  0.5434 -0.8106
 3321SOL    HW221597   0.476   4.423  15.921 -0.7358 -0.0271 -0.2838
 3322SOL     OW21598   3.065   3.545   2.582  0.6250 -1.2034 -0.1925
 3322SOL    HW121599   3.025   3.517   2.664 -0.6678 -0.7969 -0.6892
 3322SOL    HW221600   3.099   3.461   2.551  2.5271  0.0395 -1.4622
 3323SOL     OW21601   4.697   3.275   2.021 -0.1323 -0.1999 -0.0729
 3323SOL    HW121602   0.008   3.338   1.964  1.1918  0.4861  1.7034
 3323SOL    HW221603   4.652   3.345   2.068 -0.5555 -0.1940 -0.4943
 3324SOL     OW21604   1.983   4.415   4.902  0.6659 -0.1863 -0.5484
 3324SOL    HW121605   1.970   4.505   4.934  0.4737 -0.2931 -0.3252
 3324SOL    HW221606   2.026   4.429   4.818  0.6441 -1.6428 -0.8054
 3325SOL     OW21607   2.404   1.944  12.794 -0.1642 -0.2922 -0.6731
 3325SOL    HW121608   2.397   1.877  12.725  1.3736 -0.1198 -1.0017
 3325SOL    HW221609   2.428   1.894  12.872 -0.8988 -1.6433 -1.3006
 3326SOL     OW21610   0.881   1.495   3.932  0.1991  0.7748 -0.5718
 3326SOL    HW121611   0.882   1.553   3.856  0.6809  0.0243 -1.1401
 3326SOL    HW221612   0.786   1.499   3.947  0.0294  0.9405 -1.7503
 3327SOL     OW21613   1.406   2.270   6.252 -0.2876 -0.0303 -0.1544
 3327SOL    HW121614   1.457   2.273   6.333 -0.4844  0.7941 -0.0624
 3327SOL    HW221615   1.483   2.249   6.198 -1.5275  0.1910 -2.0024
 3328SOL     OW21616   2.650   0.968   2.546 -0.2763 -0.1959 -0.4554
 3328SOL    HW121617   2.669   1.061   2.557 -1.0951 -0.3011  1.8229
 3328SOL    HW221618   2.629   0.941   2.635  1.7439 -0.5869 -0.1189
 3329SOL     OW21619   3.617   3.538   2.075 -0.2823 -0.2075  1.0038
 3329SOL    HW121620   3.534   3.565   2.036 -0.4712 -0.5133  1.1987
 3329SOL    HW221621   3.640   3.623   2.113  0.9146  0.4273 -1.1309
 3330SOL     OW21622   1.389   1.554   8.151 -0.1048  0.0186  0.2141
 3330SOL    HW121623   1.471   1.516   8.120 -1.2319 -0.8056 -1.7654
 3330SOL    HW221624   1.327   1.488   8.120 -1.4123  0.0500  2.8044
 3331SOL     OW21625   2.232   2.450  11.517 -0.1930  0.5273  0.2329
 3331SOL    HW121626   2.258   2.384  11.452  1.6084  2.9496 -1.5457
 3331SOL    HW221627   2.166   2.505  11.475 -0.6476  1.4532  2.1642
 3332SOL     OW21628   2.279   2.293   4.608  0.0644  0.2496 -0.1698
 3332SOL    HW121629   2.291   2.198   4.616 -2.2624  0.0617  1.0313
 3332SOL    HW221630   2.351   2.332   4.659 -0.3826  0.3155  0.4165
 3333SOL     OW21631   0.937   4.540   7.824 -0.0181 -0.2751 -0.5059
 3333SOL    HW121632   0.960   4.632   7.810  0.7527  0.1016  3.2859
 3333SOL    HW221633   0.847   4.546   7.793 -0.4555  1.4529  1.1262
 3334SOL     OW21634   1.270   1.689   0.074 -0.2571 -0.3318  0.2973
 3334SOL    HW121635   1.219   1.766   0.049  1.4034  0.6446 -0.1069
 3334SOL    HW221636   1.244   1.678   0.165 -0.5379  0.1621  0.2784
 3335SOL     OW21637   2.755   1.507   1.182 -0.5752 -0.1922  0.0262
 3335SOL    HW121638   2.745   1.584   1.127  1.5591  0.0001 -0.0876
 3335SOL    HW221639   2.665   1.475   1.194 -0.2683 -1.1536 -0.2081
 3336SOL     OW21640   1.753   1.212   8.808  0.1532  0.0137  0.3843
 3336SOL    HW121641   1.676   1.162   8.835 -0.0258 -0.3041 -0.6994
 3336SOL    HW221642   1.819   1.153   8.845  0.6712  0.2137 -0.2219
 3337SOL     OW21643   4.241   0.922   2.825 -0.1520 -0.2604  0.4407
 3337SOL    HW121644   4.161   0.898   2.872 -1.5791  0.9692 -1.3315
 3337SOL    HW221645   4.209   0.907   2.736  0.0994  1.1770  0.1057
 3338SOL     OW21646   2.838   2.060   5.076 -0.0144  0.5773  0.8329
 3338SOL    HW121647   2.913   2.020   5.032  1.8926  2.0104  2.7492
 3338SOL    HW221648   2.859   2.151   5.054  0.3528 -0.1393 -1.7597
 3339SOL     OW21649   2.570   2.156  16.206  0.0271 -0.2122  0.2712
 3339SOL    HW121650   2.655   2.119  16.182 -0.0859  1.7412 -3.0960
 3339SOL    HW221651   2.548   2.092  16.274  0.8868 -1.5749 -0.7322
 3340SOL     OW21652   1.618   4.356   4.458  0.1872 -0.4463 -0.2082
 3340SOL    HW121653   1.620   4.449   4.435 -2.9600 -0.2904  0.1468
 3340SOL    HW221654   1.698   4.342   4.508  0.2009 -1.8370 -0.6378
 3341SOL     OW21655   4.696   0.072   8.057  0.5862  0.3198  0.1561
 3341SOL    HW121656   0.054   0.060   8.032  0.5021 -1.0183  0.4971
 3341SOL    HW221657   4.686   0.168   8.056  1.5934  0.4313  1.1337
 3342SOL     OW21658   0.490   3.242  14.692  0.5050  0.2468 -0.2258
 3342SOL    HW121659   0.543   3.247  14.613  0.0065  3.6680 -0.3453
 3342SOL    HW221660   0.541   3.294  14.755  1.4408 -0.4307 -0.4322
 3343SOL     OW21661   1.584   1.424   3.208 -0.0758  0.5894 -0.2188
 3343SOL    HW121662   1.536   1.413   3.290 -1.9843  0.5848 -1.3311
 3343SOL    HW221663   1.676   1.418   3.234 -0.5271  0.0834  1.2549
 3344SOL     OW21664   3.072   1.150   4.167 -0.0568 -0.0602  0.3079
 3344SOL    HW121665   3.082   1.071   4.220  1.5098  0.2089  0.4190
 3344SOL    HW221666   3.017   1.130   4.091 -0.9314 -1.0303  1.1918
 3345SOL     OW21667   1.396   3.655   5.869  0.0468 -0.4603  0.2573
 3345SOL    HW121668   1.361   3.706   5.796  0.4635  0.6481  0.8131
 3345SOL    HW221669   1.375   3.565   5.847  1.1181 -0.6262 -0.1094
 3346SOL     OW21670   1.929   1.132  11.810  0.0015 -0.3845  0.4106
 3346SOL    HW121671   1.903   1.044  11.836 -1.0371 -0.4432 -0.7617
 3346SOL    HW221672   1.869   1.149  11.736  0.1450 -0.3727  0.2968
 3347SOL     OW21673   1.751   3.410   0.207  0.6326  0.2750  0.2612
 3347SOL    HW121674   1.745   3.330   0.155  1.1598 -0.0206  0.6513
 3347SOL    HW221675   1.735   3.475   0.138 -2.1103  2.3190  2.8277
 3348SOL     OW21676   4.345   0.189   4.233 -0.0155  0.2529 -0.0802
 3348SOL    HW121677   4.310   0.251   4.297  0.6088  0.4872  0.0384
 3348SOL    HW221678   4.269   0.160   4.183 -0.6322  2.6705 -0.5240
 3349SOL     OW21679   1.729   2.360  15.882  0.5615 -0.0764 -0.7083
 3349SOL    HW121680   1.753   2.391  15.795  1.5581 -1.7252 -1.0225
 3349SOL    HW221681   1.811   2.371  15.931  1.0499  0.3778 -1.6346
 3350SOL     OW21682   3.831   1.549   7.816 -0.1271  0.4929  0.2404
 3350SOL    HW121683   3.758   1.491   7.836  1.5917 -1.9331 -0.5229
 3350SOL    HW221684   3.853   1.580   7.904  0.7806  0.9191 -0.1322
 3351SOL     OW21685   0.452   1.001   6.452  0.1925 -0.0205 -0.2453
 3351SOL    HW121686   0.528   0.984   6.396 -0.1173 -1.3741 -0.2650
 3351SOL    HW221687   0.480   0.947   6.526 -1.0237 -0.5377 -0.1766
 3352SOL     OW21688   0.452   0.131  16.060 -0.2697 -0.0982 -0.1200
 3352SOL    HW121689   0.453   0.217  16.100  0.7874 -1.1209  2.0093
 3352SOL    HW221690   0.497   0.156  15.979  2.0079 -1.8409  0.6184
 3353SOL     OW21691   3.929   1.594   0.366 -0.0882 -0.3019 -0.5617
 3353SOL    HW121692   4.017   1.568   0.392  0.8033  0.0256 -3.3070
 3353SOL    HW221693   3.936   1.654   0.292 -1.7772  0.5318 -0.0621
 3354SOL     OW21694   1.686   2.848  11.993  0.1447 -1.2531 -0.1208
 3354SOL    HW121695   1.677   2.897  11.911 -1.0971 -2.3640 -0.6534
 3354SOL    HW221696   1.722   2.917  12.049  1.8127 -1.2582 -1.1969
 3355SOL     OW21697   1.306   3.321   8.300  0.0116 -0.5338  0.0216
 3355SOL    HW121698   1.308   3.226   8.287 -0.8048 -0.3330 -1.6145
 3355SOL    HW221699   1.236   3.331   8.364 -0.4788  0.7496 -0.7330
 3356SOL     OW21700   4.533   1.846  16.919 -0.3675 -0.0768 -0.0573
 3356SOL    HW121701   4.525   1.941  16.908  2.9115  0.1060 -0.8338
 3356SOL    HW221702   4.623   1.827  16.892  0.2250  0.7046  1.3535
 3357SOL     OW21703   2.311   3.400   6.239  0.6008  0.0074  0.1683
 3357SOL    HW121704   2.269   3.341   6.176  1.7625 -1.7021  0.9947
 3357SOL    HW221705   2.368   3.446   6.178 -1.6898  3.4895  0.6495
 3358SOL     OW21706   4.708   2.973   1.091  0.7461  0.3057 -0.0537
 3358SOL    HW121707   4.652   2.905   1.129  0.1587  0.3933 -0.7725
 3358SOL    HW221708   4.659   3.049   1.120 -1.0527 -0.7035 -0.4642
 3359SOL     OW21709   3.852   0.960   3.248 -0.7661  0.0507  0.5629
 3359SOL    HW121710   3.821   0.930   3.333 -0.2108  0.6782  0.9845
 3359SOL    HW221711   3.932   1.002   3.279  1.0150 -1.5283 -1.7744
 3360SOL     OW21712   2.760   2.047  10.486  0.1558  0.4229  0.2059
 3360SOL    HW121713   2.807   1.973  10.523  1.0686  0.7995 -0.1875
 3360SOL    HW221714   2.721   2.074  10.569 -1.5377  0.3294 -0.5563
 3361SOL     OW21715   1.698   0.713   0.735 -0.3912 -0.0596 -0.0556
 3361SOL    HW121716   1.688   0.618   0.737 -0.1251 -0.0842  0.2190
 3361SOL    HW221717   1.674   0.734   0.645 -1.9633 -0.0363  0.3733
 3362SOL     OW21718   2.728   4.336   7.614 -0.0806 -0.1726 -0.5101
 3362SOL    HW121719   2.767   4.254   7.646  0.1685  0.2670  0.3057
 3362SOL    HW221720   2.698   4.307   7.528  0.6007  0.6175 -1.0168
 3363SOL     OW21721   2.318   2.982   5.837 -0.6394  0.4971 -0.3224
 3363SOL    HW121722   2.391   3.042   5.821 -0.9297  0.5785 -1.3348
 3363SOL    HW221723   2.366   2.904   5.865  0.7869  1.7196  0.6903
 3364SOL     OW21724   3.536   2.153  15.141 -0.4661  0.2322  0.1701
 3364SOL    HW121725   3.480   2.193  15.207  0.8578 -0.8878  1.9626
 3364SOL    HW221726   3.581   2.220  15.089 -2.0217  0.5190 -0.7806
 3365SOL     OW21727   4.535   2.200  17.283  0.3311  0.0751 -0.0814
 3365SOL    HW121728   4.482   2.231  17.357 -0.9294 -0.1040 -0.9198
 3365SOL    HW221729   4.466   2.180  17.221 -1.2187  1.3357  1.2311
 3366SOL     OW21730   0.750   3.506   6.962 -0.4705 -0.1318  0.3061
 3366SOL    HW121731   0.728   3.582   7.015 -0.4761  0.5274 -0.6444
 3366SOL    HW221732   0.789   3.542   6.882 -1.9412 -0.1027 -0.4153
 3367SOL     OW21733   0.340   2.163   2.374 -0.7268  0.6148  0.2921
 3367SOL    HW121734   0.407   2.177   2.441 -1.0237  0.2559  0.6664
 3367SOL    HW221735   0.268   2.148   2.436 -0.5633 -0.4148  0.2369
 3368SOL     OW21736   2.534   2.767   1.789 -0.1225  0.3057 -0.1020
 3368SOL    HW121737   2.449   2.723   1.783 -1.3554  2.7032  0.2348
 3368SOL    HW221738   2.574   2.748   1.704  0.0126 -0.6431  0.1673
 3369SOL     OW21739   3.560   0.539   9.213 -0.2046 -0.3130  0.1554
 3369SOL    HW121740   3.582   0.476   9.282  0.0178  0.7198  1.0452
 3369SOL    HW221741   3.482   0.575   9.257  1.9374  1.0099  2.8909
 3370SOL     OW21742   2.708   4.466   9.128 -0.2477  0.0586  0.0110
 3370SOL    HW121743   2.745   4.439   9.212 -2.2133 -0.9463  0.5597
 3370SOL    HW221744   2.685   4.557   9.150 -1.5457 -0.3181  0.2521
 3371SOL     OW21745   2.427   0.594   8.476  0.0884  0.3475 -0.2307
 3371SOL    HW121746   2.519   0.618   8.466 -0.3581  1.9654 -0.4883
 3371SOL    HW221747   2.425   0.588   8.572  0.5956  3.3382 -0.0429
 3372SOL     OW21748   4.594   0.781   5.856  0.2675 -0.1714 -0.0279
 3372SOL    HW121749   4.586   0.769   5.951  0.5318  0.5596  0.0906
 3372SOL    HW221750   4.510   0.825   5.839  0.5644  1.0645  1.6774
 3373SOL     OW21751   3.369   3.287   5.961  0.4095  0.3246  0.0258
 3373SOL    HW121752   3.360   3.240   6.044  1.6170  1.5357  0.8517
 3373SOL    HW221753   3.438   3.240   5.914 -1.9330 -0.3869 -2.7122
 3374SOL     OW21754   1.421   1.302   9.110 -0.3830  0.6731  0.1274
 3374SOL    HW121755   1.333   1.339   9.104 -0.6277 -0.2856 -2.2085
 3374SOL    HW221756   1.474   1.381   9.094  0.0232  0.2273 -0.7368
 3375SOL     OW21757   1.223   4.395   1.412  0.3261 -0.3095 -0.1808
 3375SOL    HW121758   1.224   4.445   1.494  0.1041  0.8403 -0.8912
 3375SOL    HW221759   1.132   4.405   1.384  0.6518  2.2469 -0.2935
 3376SOL     OW21760   3.006   2.619   0.616  0.1558 -0.0695  0.1004
 3376SOL    HW121761   2.953   2.696   0.596  0.3043  0.0473  0.1518
 3376SOL    HW221762   3.060   2.659   0.684 -2.7918 -0.0737  2.4087
 3377SOL     OW21763   2.110   4.346   5.776 -0.7336 -0.0087  0.2240
 3377SOL    HW121764   2.151   4.430   5.795  0.6282 -1.2771  2.8428
 3377SOL    HW221765   2.161   4.294   5.837 -0.3567  1.1494  0.8924
 3378SOL     OW21766   3.917   2.212   1.854  0.2957 -0.5752  0.5996
 3378SOL    HW121767   3.958   2.197   1.768  0.9216  0.9834  0.6262
 3378SOL    HW221768   3.847   2.148   1.864 -0.1522  0.0695  1.5579
 3379SOL     OW21769   2.801   3.855   8.005  0.4818 -0.4309  0.1798
 3379SOL    HW121770   2.770   3.766   8.022  0.6690 -0.7134 -0.9678
 3379SOL    HW221771   2.822   3.875   8.096  2.7607  0.7461 -0.6264
 3380SOL     OW21772   2.741   0.164   7.429 -0.0828  0.4853  0.4790
 3380SOL    HW121773   2.703   0.197   7.510 -0.1268 -0.9660  1.0573
 3380SOL    HW221774   2.674   0.192   7.366  0.1869  1.8150  0.7965
 3381SOL     OW21775   1.912   4.354  15.961 -0.3925 -0.2887  0.2549
 3381SOL    HW121776   2.005   4.370  15.946 -0.3972  0.2146  0.7354
 3381SOL    HW221777   1.890   4.444  15.988 -0.0364 -0.8052  2.2867
 3382SOL     OW21778   2.594   1.212   9.302  0.5304 -0.1226  1.2355
 3382SOL    HW121779   2.685   1.216   9.332  1.2469  0.9276 -1.0304
 3382SOL    HW221780   2.543   1.233   9.380 -1.1085  0.3580  0.0237
 3383SOL     OW21781   1.206   2.818   4.665 -0.8343  0.1454 -0.4239
 3383SOL    HW121782   1.241   2.741   4.710 -2.3087  0.0516  0.5530
 3383SOL    HW221783   1.242   2.890   4.716 -2.0918 -0.9415  1.9962
 3384SOL     OW21784   3.569   1.109   6.511 -0.5627 -0.0099  0.0588
 3384SOL    HW121785   3.598   1.085   6.423  1.3323  2.3243  0.0325
 3384SOL    HW221786   3.647   1.139   6.559  0.4214 -0.5220 -1.2094
 3385SOL     OW21787   0.042   1.849   4.856 -0.0175  0.1669 -0.0312
 3385SOL    HW121788   0.041   1.925   4.915 -0.9959  1.4114 -1.6375
 3385SOL    HW221789   0.057   1.776   4.917  1.2847 -0.9179 -1.6693
 3386SOL     OW21790   4.340   1.038   4.737  0.0958 -0.1725  0.4818
 3386SOL    HW121791   4.385   0.967   4.782  3.1702  1.4405 -0.0466
 3386SOL    HW221792   4.325   1.100   4.809 -2.1965  0.2236 -0.3206
 3387SOL     OW21793   3.360   3.609   4.221 -0.2210  0.3526  0.3135
 3387SOL    HW121794   3.338   3.536   4.162 -0.1724  0.0754  0.6344
 3387SOL    HW221795   3.316   3.574   4.299  1.9206  0.7508  1.6864
 3388SOL     OW21796   0.020   1.542  12.801 -0.4094 -0.3155  0.7732
 3388SOL    HW121797   0.052   1.476  12.861  0.5720 -0.1194  0.4794
 3388SOL    HW221798   0.035   1.484  12.726 -0.1220  2.2550 -1.1587
 3389SOL     OW21799   0.412   2.389   0.627  0.0604  0.4374 -0.0404
 3389SOL    HW121800   0.349   2.371   0.697  0.2274  0.9234  0.2268
 3389SOL    HW221801   0.367   2.353   0.550 -0.2618  0.8908 -0.0656
 3390SOL     OW21802   1.816   2.596   1.210 -0.3050 -0.6151 -0.2241
 3390SOL    HW121803   1.758   2.529   1.175 -0.2460 -1.5665  1.5015
 3390SOL    HW221804   1.792   2.587   1.302 -1.3920  0.6620 -0.3842
 3391SOL     OW21805   0.914   3.904  10.424  0.4169  0.1270  0.2133
 3391SOL    HW121806   0.916   3.877  10.516  0.0889  0.7603  0.4049
 3391SOL    HW221807   0.833   3.863  10.392  0.2862 -1.2055  2.2051
 3392SOL     OW21808   4.295   4.284  14.809  0.3878  0.0928  0.1791
 3392SOL    HW121809   4.223   4.346  14.820  1.8773  1.4524  2.3645
 3392SOL    HW221810   4.257   4.201  14.781 -1.9101  0.7652  1.2870
 3393SOL     OW21811   4.231   1.239  14.428 -0.0702 -0.9900 -0.0347
 3393SOL    HW121812   4.151   1.284  14.401 -0.0787 -0.1648  1.3472
 3393SOL    HW221813   4.264   1.199  14.348  1.7761  1.8621 -0.6810
 3394SOL     OW21814   1.137   2.290   6.268 -0.6820 -0.5594 -0.1534
 3394SOL    HW121815   1.128   2.214   6.325 -0.0125 -0.3769  0.1920
 3394SOL    HW221816   1.232   2.287   6.264 -0.5839  2.2614  0.3591
 3395SOL     OW21817   4.129   2.269   2.603 -0.0891 -0.4517  0.5190
 3395SOL    HW121818   4.062   2.311   2.549  0.5013 -0.0345  0.1139
 3395SOL    HW221819   4.150   2.192   2.551 -0.0301  0.4026 -0.7295
 3396SOL     OW21820   0.603   2.860   2.664  0.2459  0.1932  0.3587
 3396SOL    HW121821   0.670   2.792   2.654  0.2272  0.1203  0.7289
 3396SOL    HW221822   0.526   2.813   2.632 -0.5129  1.4498  0.3620
 3397SOL     OW21823   0.301   2.187   7.411 -0.4167 -0.0869 -0.1087
 3397SOL    HW121824   0.283   2.279   7.431  0.4223  0.0040  0.2177
 3397SOL    HW221825   0.318   2.194   7.317  0.2124 -1.2426 -0.0698
 3398SOL     OW21826   0.773   4.473   8.259 -0.3131 -0.8773  0.7149
 3398SOL    HW121827   0.816   4.481   8.344 -2.0824 -0.2888  1.5515
 3398SOL    HW221828   0.731   4.389   8.275 -0.8761 -0.5344  1.0021
 3399SOL     OW21829   0.947   0.643   4.746 -0.5984  0.2430 -0.0415
 3399SOL    HW121830   0.982   0.721   4.790  1.1014 -0.6996  0.2955
 3399SOL    HW221831   0.972   0.580   4.814  1.0516 -0.7782 -1.6076
 3400SOL     OW21832   3.853   0.877   4.863 -0.0157  0.3915  0.5056
 3400SOL    HW121833   3.856   0.966   4.898 -1.3830  0.0022  1.6108
 3400SOL    HW221834   3.758   0.876   4.874 -0.0276 -1.9055  0.1872
 3401SOL     OW21835   0.842   3.154   7.900  0.2176 -0.1494 -1.0095
 3401SOL    HW121836   0.855   3.127   7.991  1.5885 -0.8043 -1.4015
 3401SOL    HW221837   0.904   3.227   7.907  1.7296 -1.2642 -2.9479
 3402SOL     OW21838   4.131   2.789   3.208  0.0576 -0.1047  0.0601
 3402SOL    HW121839   4.154   2.754   3.294 -1.7932  0.2349  0.7003
 3402SOL    HW221840   4.129   2.704   3.165 -3.5477 -1.0381  2.0574
 3403SOL     OW21841   0.807   3.896   5.445  0.2401  0.3643  0.7814
 3403SOL    HW121842   0.762   3.910   5.528 -0.2597  2.0081  0.2448
 3403SOL    HW221843   0.892   3.915   5.485  0.7904  0.4099 -0.3928
 3404SOL     OW21844   0.791   1.690  14.005 -0.7348 -0.2787  0.1006
 3404SOL    HW121845   0.729   1.636  13.957 -0.1292 -1.6177  0.8155
 3404SOL    HW221846   0.728   1.726  14.067 -1.2235 -0.2278 -0.4272
 3405SOL     OW21847   3.868   1.213  14.520 -0.0897  0.2826  0.0593
 3405SOL    HW121848   3.891   1.260  14.440  0.4770 -0.1785 -0.0488
 3405SOL    HW221849   3.870   1.124  14.485 -2.1738 -0.1299  1.0111
 3406SOL     OW21850   4.707   2.798   3.652 -0.4152  1.0970 -0.1083
 3406SOL    HW121851   4.724   2.740   3.577  0.5495  0.5939  0.5009
 3406SOL    HW221852   4.699   2.882   3.607  0.3355  0.5244 -1.3039
 3407SOL     OW21853   1.552   4.181   8.842 -0.3038 -0.2053 -0.0364
 3407SOL    HW121854   1.503   4.199   8.761 -1.2372 -0.2749  0.5068
 3407SOL    HW221855   1.639   4.207   8.811  0.4570 -1.5442  1.0030
 3408SOL     OW21856   1.004   2.741  14.989 -0.1651 -0.1776  0.0573
 3408SOL    HW121857   1.007   2.812  14.925 -1.3301 -0.5114 -0.3684
 3408SOL    HW221858   1.089   2.750  15.032 -0.6373  1.6078  0.6082
 3409SOL     OW21859   3.898   3.821  16.907  0.3129  0.4860  0.4405
 3409SOL    HW121860   3.877   3.815  16.814 -0.2455  0.3850  0.5711
 3409SOL    HW221861   3.913   3.728  16.922 -2.4576 -0.4412 -2.5404
 3410SOL     OW21862   1.318   2.144   2.164  0.6221 -0.5501  0.0282
 3410SOL    HW121863   1.365   2.067   2.197  0.7687 -0.0745  0.9157
 3410SOL    HW221864   1.355   2.213   2.219  0.4360 -0.4073 -0.0300
 3411SOL     OW21865   1.074   1.478  16.316 -0.1170 -0.1491 -0.1300
 3411SOL    HW121866   1.035   1.438  16.394  3.7997 -2.4562  0.6716
 3411SOL    HW221867   1.162   1.506  16.343 -1.5075  2.1641  2.0217
 3412SOL     OW21868   1.096   3.092   8.867  0.3143  0.3065 -0.4762
 3412SOL    HW121869   1.139   3.086   8.782 -1.4252  2.3851 -1.5148
 3412SOL    HW221870   1.176   3.093   8.920  0.8790  0.7032 -1.3359
 3413SOL     OW21871   1.785   2.862  12.406 -0.7179 -0.5759 -0.0165
 3413SOL    HW121872   1.759   2.849  12.497  1.9992  0.1979  0.8563
 3413SOL    HW221873   1.728   2.935  12.382 -0.1807 -0.1289  0.0989
 3414SOL     OW21874   2.035   0.972   6.761 -0.2585 -0.0356  0.0264
 3414SOL    HW121875   2.042   0.881   6.791  0.4261 -0.1440 -0.4771
 3414SOL    HW221876   1.998   1.007   6.842 -1.1855 -2.1737  0.5387
 3415SOL     OW21877   3.713   1.831   3.839  0.2407  0.3970  0.9043
 3415SOL    HW121878   3.799   1.791   3.831 -0.5537 -0.9905 -0.7585
 3415SOL    HW221879   3.735   1.918   3.872  0.4784  0.4995  0.4806
 3416SOL     OW21880   0.804   4.334   8.614  0.0856  0.2912  0.1456
 3416SOL    HW121881   0.844   4.336   8.701 -0.5713 -2.8908  0.5343
 3416SOL    HW221882   0.837   4.416   8.578 -1.2429  0.6255 -0.2920
 3417SOL     OW21883   1.959   4.245  12.326  0.3183 -0.4854 -0.1363
 3417SOL    HW121884   2.043   4.266  12.366  1.9109 -2.7799 -2.2763
 3417SOL    HW221885   1.984   4.211  12.240  0.9404 -1.7047  0.5228
 3418SOL     OW21886   0.565   3.765   2.782  0.1329 -0.0358  0.5203
 3418SOL    HW121887   0.508   3.821   2.835 -1.2921 -0.3978 -0.6574
 3418SOL    HW221888   0.539   3.784   2.692  0.5272 -0.1125  0.3892
 3419SOL     OW21889   0.102   1.558   0.792 -0.1196 -0.0294  0.1846
 3419SOL    HW121890   0.083   1.476   0.747 -1.1884  0.5492 -0.3922
 3419SOL    HW221891   0.197   1.568   0.795  0.3749 -3.9931 -2.3310
 3420SOL     OW21892   2.032   1.260   0.065  0.8141  0.1428 -0.5997
 3420SOL    HW121893   2.060   1.207  17.723  1.1765 -0.2195 -0.2065
 3420SOL    HW221894   2.015   1.186   0.123  0.8794  0.8365  0.3174
 3421SOL     OW21895   4.556   4.532   5.835  0.6132  0.3382  0.4246
 3421SOL    HW121896   4.598   4.447   5.849 -1.5299 -0.6892  0.6604
 3421SOL    HW221897   4.466   4.505   5.813  0.6111 -0.0856  0.9667
 3422SOL     OW21898   3.445   0.960   1.572 -0.1128  0.0253  0.2168
 3422SOL    HW121899   3.486   0.962   1.485 -0.1087 -0.4556  0.2077
 3422SOL    HW221900   3.516   0.927   1.627  0.4732 -0.9434 -1.1116
 3423SOL     OW21901   4.626   3.424   8.472 -0.2824 -0.2779 -0.4211
 3423SOL    HW121902   4.634   3.345   8.524  1.3330  0.1447 -0.0053
 3423SOL    HW221903   4.709   3.418   8.423 -0.0100 -0.0859  0.0158
 3424SOL     OW21904   2.633   4.553   4.218 -0.3469 -0.2033  0.3359
 3424SOL    HW121905   2.641   4.645   4.192  1.2418  0.2697  2.4485
 3424SOL    HW221906   2.722   4.550   4.252 -0.1494 -6.3216 -0.7823
 3425SOL     OW21907   0.535   3.111   2.606 -0.1746  0.2103  0.4348
 3425SOL    HW121908   0.546   3.070   2.520 -0.7377 -1.6924  1.2482
 3425SOL    HW221909   0.574   3.042   2.661 -0.3435 -0.2315  0.0024
 3426SOL     OW21910   1.203   3.137  15.773 -0.3344 -0.3396  0.0839
 3426SOL    HW121911   1.128   3.100  15.727  0.4060  0.6909 -1.9681
 3426SOL    HW221912   1.166   3.220  15.802  2.7066  1.5988 -1.5177
 3427SOL     OW21913   2.050   2.249   4.779  0.4526  0.4965  0.0690
 3427SOL    HW121914   2.126   2.241   4.722 -0.3919 -2.3537 -0.6501
 3427SOL    HW221915   1.982   2.214   4.721  2.1534 -4.4553  1.0907
 3428SOL     OW21916   0.560   1.442   0.028  0.1001 -0.1310 -0.7931
 3428SOL    HW121917   0.596   1.448   0.116  2.2196  0.2809 -1.6822
 3428SOL    HW221918   0.576   1.533   0.004 -1.7037  1.1474  2.8806
 3429SOL     OW21919   1.099   4.711   4.552 -0.3198 -0.0421  0.2418
 3429SOL    HW121920   1.011   4.686   4.581 -0.2877  0.5893  0.8580
 3429SOL    HW221921   1.113   4.657   4.474 -1.6043 -1.0801  0.7346
 3430SOL     OW21922   1.372   1.712   4.698  0.0044 -0.1225  0.3777
 3430SOL    HW121923   1.384   1.657   4.775 -0.0777 -0.5376  0.0941
 3430SOL    HW221924   1.309   1.773   4.737  0.8552 -0.1312  1.7483
 3431SOL     OW21925   3.740   3.991   5.123  0.4617 -0.3805  0.1195
 3431SOL    HW121926   3.768   3.919   5.180  0.6614 -0.1044  0.3681
 3431SOL    HW221927   3.802   4.053   5.160 -0.2429  0.1640  0.3919
 3432SOL     OW21928   4.582   3.431   5.058 -0.8131  0.2062 -0.2760
 3432SOL    HW121929   4.672   3.455   5.039 -1.5137  3.2248  0.2965
 3432SOL    HW221930   4.552   3.417   4.968  1.4324 -0.2701 -0.9345
 3433SOL     OW21931   1.949   2.814  14.938 -0.6193 -0.2020  0.8779
 3433SOL    HW121932   1.908   2.832  15.022 -1.5284 -1.2849  0.6660
 3433SOL    HW221933   1.889   2.750  14.900  2.1229 -1.9599 -0.5088
 3434SOL     OW21934   2.217   3.949  12.411  0.8072 -0.6424 -0.2671
 3434SOL    HW121935   2.189   3.983  12.497 -0.7696  1.4526 -1.5960
 3434SOL    HW221936   2.306   3.981  12.419  0.6749  0.1731 -2.3121
 3435SOL     OW21937   2.124   1.702   0.360 -0.6681  0.2675 -0.7164
 3435SOL    HW121938   2.057   1.766   0.333  0.0435  2.1226  1.9464
 3435SOL    HW221939   2.116   1.644   0.284 -0.5644 -0.8418  0.1348
 3436SOL     OW21940   3.450   1.866   7.727 -0.3566  0.7820 -0.4646
 3436SOL    HW121941   3.370   1.907   7.760  0.3174  0.3309  1.6975
 3436SOL    HW221942   3.418   1.785   7.688 -1.5480  0.7582  0.5729
 3437SOL     OW21943   4.603   1.175   7.641 -0.4113 -0.2279  0.0191
 3437SOL    HW121944   4.593   1.260   7.598  1.8564 -0.0302 -0.0827
 3437SOL    HW221945   4.515   1.136   7.636  0.1742 -1.2234 -2.7239
 3438SOL     OW21946   1.676   2.101   1.292  0.2907  0.3582 -0.4962
 3438SOL    HW121947   1.593   2.054   1.294  0.4361  0.2213  1.6143
 3438SOL    HW221948   1.733   2.057   1.355  0.7786  0.2761 -0.9935
 3439SOL     OW21949   4.163   2.341   5.866 -0.4330  0.0173  0.1872
 3439SOL    HW121950   4.215   2.261   5.874  1.5173  1.3096  0.3768
 3439SOL    HW221951   4.164   2.349   5.770  0.5645  1.8284  0.3400
 3440SOL     OW21952   3.234   2.615   4.237  0.0290  0.1310  0.1269
 3440SOL    HW121953   3.143   2.637   4.251  0.4912  2.9408 -1.2831
 3440SOL    HW221954   3.231   2.526   4.202  0.4276 -0.2941  1.1786
 3441SOL     OW21955   1.076   1.106   5.772 -0.5128  0.5602  0.0584
 3441SOL    HW121956   0.981   1.101   5.762 -0.5980 -0.5661  1.4494
 3441SOL    HW221957   1.096   1.013   5.765  0.2241  0.7894 -0.8543
 3442SOL     OW21958   0.893   4.662   1.288 -0.0039 -0.5058  0.7313
 3442SOL    HW121959   0.836   4.714   1.231  1.6527 -0.2948 -0.7390
 3442SOL    HW221960   0.959   4.726   1.316 -3.5125  3.0692  0.8158
 3443SOL     OW21961   0.996   0.387  10.422  0.2856 -0.1514  0.2105
 3443SOL    HW121962   1.008   0.476  10.455 -2.3743  0.1617  0.3403
 3443SOL    HW221963   1.018   0.339  10.502 -1.9030 -0.8282  0.4148
 3444SOL     OW21964   2.743   2.052   8.071 -0.5110 -0.1303 -0.3143
 3444SOL    HW121965   2.698   2.097   8.000  2.1594 -0.6214 -2.2954
 3444SOL    HW221966   2.801   1.993   8.023  0.0246 -1.1921  1.6459
 3445SOL     OW21967   2.883   1.378  12.882 -0.4462 -0.0376  0.0546
 3445SOL    HW121968   2.845   1.332  12.957 -1.5497 -1.7310 -1.5405
 3445SOL    HW221969   2.810   1.433  12.856 -0.8057  0.2320  1.6240
 3446SOL     OW21970   3.548   0.603   6.327 -0.3272  0.3862  0.4341
 3446SOL    HW121971   3.477   0.596   6.262  0.2179  1.6506 -0.3159
 3446SOL    HW221972   3.506   0.566   6.404  0.6768  0.2826  0.9334
 3447SOL     OW21973   3.493   1.412  16.580  0.0612  0.0558  0.1068
 3447SOL    HW121974   3.465   1.479  16.518  1.0046 -0.9023 -1.3588
 3447SOL    HW221975   3.414   1.357  16.576 -0.2357  0.4416  0.6884
 3448SOL     OW21976   0.830   4.075   3.720 -0.2489 -0.1896  0.2630
 3448SOL    HW121977   0.748   4.077   3.770 -1.7274 -1.7190 -2.0287
 3448SOL    HW221978   0.803   4.131   3.647  0.0820  1.1702  1.1894
 3449SOL     OW21979   0.488   3.073   5.505  1.0801  0.0978 -0.8869
 3449SOL    HW121980   0.450   2.995   5.546  0.2164  0.3433 -1.2288
 3449SOL    HW221981   0.415   3.093   5.446 -0.5677  1.1710  1.5563
 3450SOL     OW21982   2.625   4.011  17.662  0.8735  0.5639  0.1521
 3450SOL    HW121983   2.617   3.924  17.623  3.2301 -0.3308  1.6652
 3450SOL    HW221984   2.705   4.043  17.619  0.6031  1.9114  0.6453
 3451SOL     OW21985   3.687   3.898   3.135  0.3366  0.1138 -0.0212
 3451SOL    HW121986   3.674   3.915   3.229  3.2784 -2.4146  0.8042
 3451SOL    HW221987   3.773   3.938   3.122  0.8200 -1.0357 -0.2963
 3452SOL     OW21988   1.658   4.624   6.887  0.3182 -1.2076  0.4260
 3452SOL    HW121989   1.722   4.692   6.910 -2.3452  1.9453 -1.4411
 3452SOL    HW221990   1.715   4.551   6.863  0.3880 -0.3050 -2.1399
 3453SOL     OW21991   3.336   2.673  12.973  0.1662 -0.3509 -0.4903
 3453SOL    HW121992   3.373   2.755  13.007  0.7138 -0.1507 -1.5868
 3453SOL    HW221993   3.415   2.620  12.979 -0.3615 -1.3923 -2.8163
 3454SOL     OW21994   3.857   3.682   6.638 -0.1426 -0.0672 -0.4441
 3454SOL    HW121995   3.927   3.717   6.692 -0.2107 -0.9210  0.2062
 3454SOL    HW221996   3.823   3.760   6.595  2.5159  0.3558 -1.7462
 3455SOL     OW21997   1.435   3.854  14.169 -0.3543  0.0212 -0.3962
 3455SOL    HW121998   1.349   3.852  14.125 -0.6178  0.1283  0.1197
 3455SOL    HW221999   1.422   3.796  14.244  0.5288 -1.4181 -1.3631
 3456SOL     OW22000   0.769   2.942   6.936 -0.1963  0.1502 -0.1219
 3456SOL    HW122001   0.745   2.922   6.846 -0.3954 -0.9094  0.1598
 3456SOL    HW222002   0.720   3.024   6.943  0.8626  0.8358 -0.8284
 3457SOL     OW22003   0.964   3.634   5.472 -0.6010  0.8670  0.3236
 3457SOL    HW122004   0.914   3.713   5.453 -2.7212 -0.7047 -0.6031
 3457SOL    HW222005   1.033   3.660   5.533 -0.3243 -2.7788  1.5487
 3458SOL     OW22006   2.159   2.577   4.674  0.3146  0.2573 -0.2003
 3458SOL    HW122007   2.167   2.488   4.708 -1.3376 -0.3067 -1.2857
 3458SOL    HW222008   2.236   2.572   4.618 -0.1161 -1.6231 -0.6365
 3459SOL     OW22009   3.944   3.920  16.471  0.4309  0.8704 -0.4373
 3459SOL    HW122010   3.878   3.879  16.527  0.3999 -0.0977 -1.1885
 3459SOL    HW222011   3.938   4.013  16.496  0.3374  0.8418 -0.3545
 3460SOL     OW22012   2.145   3.148   7.265  0.0746 -0.3496  0.3876
 3460SOL    HW122013   2.102   3.108   7.341 -4.0437  1.4973 -0.9525
 3460SOL    HW222014   2.102   3.233   7.263 -1.0536 -0.8912  1.5927
 3461SOL     OW22015   1.992   1.186  15.274  0.1833 -0.1413  0.3616
 3461SOL    HW122016   1.976   1.094  15.295  0.1421 -0.5092 -1.2876
 3461SOL    HW222017   1.923   1.199  15.210  1.1137  2.7328 -0.0579
 3462SOL     OW22018   0.743   2.959  17.643  0.6103  0.2547 -0.2874
 3462SOL    HW122019   0.744   3.011  17.563  2.2527 -0.9923 -1.1025
 3462SOL    HW222020   0.712   3.022  17.708 -0.3167 -0.6309  0.1303
 3463SOL     OW22021   3.570   3.674   6.669  0.4117 -0.2137 -0.1763
 3463SOL    HW122022   3.535   3.588   6.646 -1.6478 -0.1356  2.7934
 3463SOL    HW222023   3.657   3.668   6.628  0.1932 -2.0173 -0.3719
 3464SOL     OW22024   2.556   4.549   2.195 -0.4224  0.1348  0.5256
 3464SOL    HW122025   2.545   4.581   2.285 -0.2705 -1.4423  1.1240
 3464SOL    HW222026   2.633   4.591   2.159  1.0467 -3.2796 -0.3176
 3465SOL     OW22027   3.242   1.356   7.213 -0.5001  0.3043  0.4552
 3465SOL    HW122028   3.244   1.260   7.215  0.1959  0.3050 -0.4168
 3465SOL    HW222029   3.233   1.366   7.308  0.5634  3.4318  0.2096
 3466SOL     OW22030   1.879   0.599   2.269 -0.1683  0.3257  0.1672
 3466SOL    HW122031   1.969   0.624   2.249  0.2306 -1.5858 -0.3567
 3466SOL    HW222032   1.838   0.676   2.309  4.7906  2.3050  1.4321
 3467SOL     OW22033   0.391   1.737   4.827  0.0505 -0.1660  0.2252
 3467SOL    HW122034   0.351   1.756   4.742  1.9693  0.2962 -0.5596
 3467SOL    HW222035   0.356   1.648   4.840 -1.3634  0.3349 -0.1335
 3468SOL     OW22036   3.332   1.096   4.048 -0.2543  0.2938 -0.4393
 3468SOL    HW122037   3.255   1.137   4.088 -1.2499 -2.4641  0.4734
 3468SOL    HW222038   3.396   1.113   4.117 -0.2362  1.5413 -0.7619
 3469SOL     OW22039   4.167   2.605   8.979  0.0557 -0.3986  0.3614
 3469SOL    HW122040   4.248   2.584   8.932  1.1182  0.3743  1.8576
 3469SOL    HW222041   4.097   2.550   8.943 -0.6866  0.7923  0.0101
 3470SOL     OW22042   2.712   3.403   6.452 -0.2970 -0.2642  0.0345
 3470SOL    HW122043   2.696   3.321   6.404 -0.0647  0.7336 -1.7223
 3470SOL    HW222044   2.791   3.430   6.406 -0.5995 -0.7290 -0.7612
 3471SOL     OW22045   1.346   3.077  17.340 -0.2427 -0.0758 -0.6621
 3471SOL    HW122046   1.335   3.131  17.262  0.5724  0.6886 -0.2479
 3471SOL    HW222047   1.400   3.123  17.404  1.3625  0.8722 -2.6860
 3472SOL     OW22048   0.301   1.780   4.557  0.1241  0.5758  0.2802
 3472SOL    HW122049   0.213   1.817   4.551 -0.8404 -1.7176  0.0618
 3472SOL    HW222050   0.293   1.737   4.472  0.6044  0.7358  0.1561
 3473SOL     OW22051   4.179   0.394   3.631 -0.4164 -0.3406 -0.0153
 3473SOL    HW122052   4.238   0.465   3.606 -0.3112 -0.2394  0.5422
 3473SOL    HW222053   4.179   0.359   3.541  0.4443 -0.8090  0.1729
 3474SOL     OW22054   1.087   1.437   5.933  0.0677 -0.7169 -0.0801
 3474SOL    HW122055   1.167   1.490   5.935 -0.7332  0.4322  1.1608
 3474SOL    HW222056   1.090   1.388   6.016 -0.6014 -2.8678 -1.3301
 3475SOL     OW22057   1.130   4.439  16.826 -0.9414  0.0198 -0.2810
 3475SOL    HW122058   1.149   4.357  16.782  1.4281 -0.7114  2.0520
 3475SOL    HW222059   1.068   4.420  16.896  0.2900 -0.0154  0.8097
 3476SOL     OW22060   1.219   4.017   6.574 -0.1074  0.4696 -0.2545
 3476SOL    HW122061   1.188   4.045   6.488 -0.1215 -1.1995 -0.7870
 3476SOL    HW222062   1.244   4.101   6.613 -1.2881  0.0703  1.3611
 3477SOL     OW22063   2.509   2.503   6.707  0.0941 -0.3922  0.1457
 3477SOL    HW122064   2.472   2.463   6.785  0.6326  0.1114  0.6607
 3477SOL    HW222065   2.428   2.529   6.663  0.6258 -1.0530 -1.2264
 3478SOL     OW22066   1.907   0.360   4.376 -0.6805  0.2027 -0.4094
 3478SOL    HW122067   1.998   0.335   4.391 -1.1399 -1.3071 -0.0934
 3478SOL    HW222068   1.892   0.399   4.462 -2.1784 -2.0663  0.3614
 3479SOL     OW22069   3.069   3.969   7.932  0.2989 -0.2546  0.3317
 3479SOL    HW122070   3.034   4.053   7.964  0.7602 -0.0645  0.3303
 3479SOL    HW222071   3.020   3.908   7.987  0.2113  0.6992  1.3219
 3480SOL     OW22072   1.019   1.562   8.185 -0.3689  0.3986 -0.2473
 3480SOL    HW122073   0.958   1.627   8.153  1.2192  2.7103  1.3876
 3480SOL    HW222074   1.033   1.496   8.117  2.6060  0.5753  0.1780
 3481SOL     OW22075   3.248   1.159   8.944 -0.1673 -0.5224  0.5725
 3481SOL    HW122076   3.325   1.113   8.977  0.3474  0.7045  1.0638
 3481SOL    HW222077   3.201   1.166   9.027  1.3627  3.0387  1.1133
 3482SOL     OW22078   2.660   1.973   9.315 -0.3095 -0.2819 -0.1830
 3482SOL    HW122079   2.635   1.911   9.384  0.5772  0.9766  1.2733
 3482SOL    HW222080   2.630   2.055   9.354  3.1807  1.5116 -1.2695
 3483SOL     OW22081   4.169   4.216   4.769  0.3697 -0.0833  0.2755
 3483SOL    HW122082   4.076   4.222   4.789  0.3236 -1.6348  0.5668
 3483SOL    HW222083   4.208   4.188   4.852  1.6571 -0.9969 -0.6320
 3484SOL     OW22084   3.068   3.523  10.232 -0.4641  0.3574 -0.2919
 3484SOL    HW122085   3.149   3.518  10.181 -1.5029 -0.3295 -1.8819
 3484SOL    HW222086   3.093   3.452  10.291 -1.4321 -1.8874 -2.5628
 3485SOL     OW22087   4.155   2.811  16.988 -0.0295  0.5688 -0.1771
 3485SOL    HW122088   4.160   2.862  17.069 -0.2312 -0.4739  0.4876
 3485SOL    HW222089   4.214   2.862  16.932  0.1880  0.6845  0.1532
 3486SOL     OW22090   2.148   2.861   6.121  0.2565 -0.1141  0.1331
 3486SOL    HW122091   2.120   2.895   6.036  0.5412 -0.0522  0.0627
 3486SOL    HW222092   2.076   2.802   6.145 -1.8170  2.3817  0.0858
 3487SOL     OW22093   2.484   3.860   8.118  0.9407  0.0204  0.2738
 3487SOL    HW122094   2.547   3.797   8.084  1.4516  0.4916  0.3471
 3487SOL    HW222095   2.454   3.908   8.041 -0.6316 -0.1329  0.7809
 3488SOL     OW22096   3.124   4.559  11.047  0.1264  0.0910 -0.5674
 3488SOL    HW122097   3.207   4.510  11.051 -0.5916 -1.0687 -0.0533
 3488SOL    HW222098   3.138   4.631  11.109 -1.9127  0.1648 -0.1967
 3489SOL     OW22099   2.673   0.191   6.012 -0.1935 -0.1786 -0.3938
 3489SOL    HW122100   2.619   0.125   5.968  1.6557 -2.4248  0.7091
 3489SOL    HW222101   2.715   0.144   6.084 -0.3910  0.2217 -0.0247
 3490SOL     OW22102   1.315   2.819   7.210 -0.4743  0.2948 -0.0374
 3490SOL    HW122103   1.309   2.736   7.162  0.7369  0.9437 -1.2803
 3490SOL    HW222104   1.226   2.834   7.244 -0.0032 -0.6715  1.6264
 3491SOL     OW22105   2.529   2.070  11.825 -0.3903  0.4945  0.8123
 3491SOL    HW122106   2.492   2.086  11.912 -0.5615  3.0494  0.2764
 3491SOL    HW222107   2.490   2.141  11.774 -1.4065 -0.2994  0.4779
 3492SOL     OW22108   0.728   0.672  15.918 -0.2019  0.1086  0.3504
 3492SOL    HW122109   0.763   0.753  15.883 -1.9959  0.8151  0.1788
 3492SOL    HW222110   0.721   0.705  16.008 -1.4028 -0.4017  0.4447
 3493SOL     OW22111   3.054   3.915  10.377 -0.1098 -0.0542 -0.6081
 3493SOL    HW122112   3.126   3.868  10.336  1.1312 -0.1761  1.7747
 3493SOL    HW222113   3.034   3.979  10.308 -0.5957 -1.4091 -1.7204
 3494SOL     OW22114   1.930   1.983   2.547 -0.2249  0.3297 -0.0688
 3494SOL    HW122115   1.986   1.971   2.470 -2.1205 -0.2056 -1.3622
 3494SOL    HW222116   1.899   1.893   2.560  0.8109 -0.1166 -0.7079
 3495SOL     OW22117   3.138   3.807   0.692  0.1634 -0.1139  0.3267
 3495SOL    HW122118   3.184   3.830   0.773 -1.7312 -0.6657  1.5550
 3495SOL    HW222119   3.163   3.886   0.643  2.4997 -1.0570  0.0265
 3496SOL     OW22120   2.713   2.276   3.831 -0.5434  0.2002  0.1598
 3496SOL    HW122121   2.805   2.295   3.810 -0.5538  2.2535  1.9513
 3496SOL    HW222122   2.678   2.364   3.843  0.3065  0.4569  0.7615
 3497SOL     OW22123   2.553   1.836  13.611 -0.1246  0.2207 -0.1414
 3497SOL    HW122124   2.486   1.877  13.667  0.3530  0.3898  0.3102
 3497SOL    HW222125   2.607   1.800  13.682  0.3313  1.7675  0.3001
 3498SOL     OW22126   1.444   0.067   6.947  0.3532  0.6219  0.7081
 3498SOL    HW122127   1.440   0.051   7.041  1.4433 -2.0495  0.2926
 3498SOL    HW222128   1.523   0.017   6.927  0.0232  0.1599  0.5669
 3499SOL     OW22129   3.176   1.600   7.461 -0.2817  0.4231  0.5192
 3499SOL    HW122130   3.229   1.623   7.537 -2.0413  0.3313  1.7636
 3499SOL    HW222131   3.091   1.631   7.493 -0.0730  1.6583 -0.0939
 3500SOL     OW22132   2.335   1.817   8.953 -0.1610 -0.2767  0.8720
 3500SOL    HW122133   2.310   1.725   8.942 -1.6651  0.3237 -0.6561
 3500SOL    HW222134   2.384   1.808   9.035 -1.4141  0.3695  1.6982
 3501SOL     OW22135   0.803   2.718   4.678  0.0102  0.0206  0.1050
 3501SOL    HW122136   0.766   2.639   4.638 -0.6426  0.7711 -0.7713
 3501SOL    HW222137   0.727   2.776   4.683  3.0502  3.8963  0.5454
 3502SOL     OW22138   3.841   2.329   3.464  0.5036 -0.5177  0.0260
 3502SOL    HW122139   3.761   2.331   3.517  0.6331 -0.3532  0.2131
 3502SOL    HW222140   3.804   2.306   3.378 -0.3524 -1.1976  0.5752
 3503SOL     OW22141   0.120   0.483   1.341  0.8096  0.7009  0.3031
 3503SOL    HW122142   0.194   0.497   1.400  2.3413  0.9245 -1.7041
 3503SOL    HW222143   0.108   0.571   1.306  0.1568  2.0866  3.9398
 3504SOL     OW22144   0.262   4.122   1.462 -0.1533 -0.5487 -0.0981
 3504SOL    HW122145   0.207   4.122   1.384 -0.5625 -0.6394  0.1918
 3504SOL    HW222146   0.247   4.211   1.494 -1.6642 -0.0864 -2.1080
 3505SOL     OW22147   2.558   3.586   6.032 -0.6163  0.1944 -0.3564
 3505SOL    HW122148   2.616   3.587   5.955 -0.8346  0.1544 -0.5201
 3505SOL    HW222149   2.480   3.549   5.992 -0.1908 -1.6428  0.5099
 3506SOL     OW22150   4.090   1.448   2.090 -0.4995  0.1328  0.2855
 3506SOL    HW122151   4.093   1.360   2.051  0.2984 -1.5256  4.0517
 3506SOL    HW222152   4.177   1.479   2.114 -0.2531  0.3810 -0.9590
 3507SOL     OW22153   1.366   4.145  15.094  0.0374  0.1577  0.0204
 3507SOL    HW122154   1.404   4.067  15.052  0.7690  0.4716  0.1093
 3507SOL    HW222155   1.286   4.146  15.041 -0.5373  0.3345  0.8977
 3508SOL     OW22156   0.206   1.172  11.296  0.1591  0.4923 -0.2760
 3508SOL    HW122157   0.294   1.141  11.279 -0.2172  0.1685 -1.5968
 3508SOL    HW222158   0.189   1.138  11.384  0.6748  2.1485  0.4517
 3509SOL     OW22159   0.995   0.983   1.415 -0.3960  0.5588 -0.3674
 3509SOL    HW122160   1.050   0.919   1.460  0.1208 -0.2593 -2.1632
 3509SOL    HW222161   0.986   1.051   1.482  0.2693  0.1329  0.1583
 3510SOL     OW22162   4.413   1.723   7.237  0.1213 -0.7041 -0.2314
 3510SOL    HW122163   4.489   1.778   7.220 -1.6796  2.0345  0.5463
 3510SOL    HW222164   4.460   1.658   7.290  1.7213  0.3539 -0.3478
 3511SOL     OW22165   1.663   3.297   1.794 -0.1258 -0.4961 -0.6399
 3511SOL    HW122166   1.636   3.218   1.746 -0.6109 -0.1777 -0.8969
 3511SOL    HW222167   1.758   3.291   1.793 -0.1899 -1.7732  1.7061
 3512SOL     OW22168   0.827   3.927   6.377 -0.6557 -0.0122 -0.4425
 3512SOL    HW122169   0.873   3.986   6.437 -2.6714  0.1601  0.9431
 3512SOL    HW222170   0.859   3.842   6.407  3.7785  1.4691 -0.9577
 3513SOL     OW22171   4.303   0.331   4.459 -0.5332 -0.3360 -0.5437
 3513SOL    HW122172   4.324   0.425   4.454  0.5511 -0.4599  1.5770
 3513SOL    HW222173   4.326   0.315   4.551 -0.2574  0.3024 -0.4986
 3514SOL     OW22174   4.421   3.734   4.154 -0.4293  0.0212  0.2369
 3514SOL    HW122175   4.441   3.824   4.178 -1.4902  0.6479 -1.1679
 3514SOL    HW222176   4.508   3.696   4.165  0.2719  0.9606 -2.0111
 3515SOL     OW22177   3.667   1.526  11.522  0.2889  0.6070  0.0813
 3515SOL    HW122178   3.684   1.619  11.509  3.1604  0.0669 -0.0549
 3515SOL    HW222179   3.717   1.519  11.604  1.1369  2.6385 -0.2522
 3516SOL     OW22180   3.968   4.571  13.814 -0.8076  0.3705  0.0214
 3516SOL    HW122181   3.939   4.585  13.904 -0.5776  1.1730 -0.0259
 3516SOL    HW222182   3.886   4.533  13.783 -1.4572  1.3407  0.5379
 3517SOL     OW22183   2.572   4.620   5.278  0.1584  0.3726  0.4086
 3517SOL    HW122184   2.623   4.689   5.320  0.4957  0.6074 -0.3935
 3517SOL    HW222185   2.632   4.546   5.269 -0.8091 -0.3183 -0.3818
 3518SOL     OW22186   0.053   0.172   7.662 -0.3657  0.2319 -0.4051
 3518SOL    HW122187   0.068   0.104   7.597 -0.9140  0.1803 -0.4757
 3518SOL    HW222188   4.712   0.129   7.706 -0.2568 -0.7144 -1.1470
 3519SOL     OW22189   2.026   0.495  11.297  0.1493  0.1201 -0.6521
 3519SOL    HW122190   2.027   0.400  11.284  0.8181 -0.3942  3.0498
 3519SOL    HW222191   2.080   0.508  11.375 -0.3594 -0.6838 -0.1624
 3520SOL     OW22192   2.800   0.942   7.538  0.1753 -0.0504 -0.3574
 3520SOL    HW122193   2.856   0.951   7.616  0.1180 -0.4043 -0.2767
 3520SOL    HW222194   2.745   1.017   7.563 -0.6356 -0.9354  0.4917
 3521SOL     OW22195   0.338   3.662   6.431  0.5917  0.0154 -0.3061
 3521SOL    HW122196   0.370   3.577   6.459 -0.6980 -0.8172 -1.3975
 3521SOL    HW222197   0.387   3.722   6.488  0.5825  0.3757 -0.6752
 3522SOL     OW22198   3.039   3.714   5.095 -0.0002 -0.1453 -0.0739
 3522SOL    HW122199   3.117   3.662   5.116  1.5606  0.9963 -2.8884
 3522SOL    HW222200   3.080   3.787   5.047  1.0556 -0.5119  0.2623
 3523SOL     OW22201   0.841   2.912   4.927  0.4105  0.4971 -0.1320
 3523SOL    HW122202   0.766   2.908   4.868  2.3139 -1.0326 -2.4241
 3523SOL    HW222203   0.798   2.882   5.008  1.7658  0.3718  0.5413
 3524SOL     OW22204   2.631   0.016   0.302 -0.3243 -0.4393 -0.3252
 3524SOL    HW122205   2.589   0.010   0.216  1.0212 -0.8749 -0.9454
 3524SOL    HW222206   2.623   0.111   0.309 -3.2135 -0.6646 -0.6638
 3525SOL     OW22207   1.948   1.469  10.791  0.5316  0.0202 -0.1611
 3525SOL    HW122208   1.864   1.429  10.768  0.7618 -1.5639  1.7167
 3525SOL    HW222209   1.925   1.553  10.831  2.4963  0.1800  0.6493
 3526SOL     OW22210   4.004   3.869   8.650 -0.1553 -0.4938  0.0512
 3526SOL    HW122211   4.084   3.816   8.652 -1.7298 -2.8646 -0.0572
 3526SOL    HW222212   3.958   3.827   8.723 -2.2403  1.6090 -0.0421
 3527SOL     OW22213   0.022   3.898  15.828 -0.4490 -0.3624 -0.2588
 3527SOL    HW122214   0.113   3.925  15.843 -0.7068  0.2413  0.2179
 3527SOL    HW222215   4.721   3.969  15.774  0.5948 -0.0591 -0.5275
 3528SOL     OW22216   1.084   2.296   7.238 -0.1191  0.3393 -0.0402
 3528SOL    HW122217   1.115   2.262   7.323 -1.7853 -2.2815 -0.4896
 3528SOL    HW222218   0.990   2.284   7.250  0.2219 -0.3439  2.0614
 3529SOL     OW22219   2.873   3.477   5.961 -0.3880 -0.3959 -0.2726
 3529SOL    HW122220   2.886   3.435   6.046  0.1046  0.2571 -0.0211
 3529SOL    HW222221   2.886   3.409   5.895 -2.1020 -1.2440  0.2443
 3530SOL     OW22222   0.017   1.947   8.310  0.9946 -0.1228  0.1560
 3530SOL    HW122223   4.665   1.905   8.298  1.1402 -0.0990 -0.9302
 3530SOL    HW222224   0.064   1.869   8.338 -2.2621 -2.1224  0.0569
 3531SOL     OW22225   4.433   2.186  11.448  0.2600  0.0470 -0.0343
 3531SOL    HW122226   4.445   2.109  11.503 -0.3674 -1.5053 -2.0830
 3531SOL    HW222227   4.445   2.258  11.511  2.0625 -0.7498  0.5216
 3532SOL     OW22228   0.367   0.752  17.286 -0.5511  0.3019  0.2549
 3532SOL    HW122229   0.327   0.794  17.362  1.2129  1.6548  0.4322
 3532SOL    HW222230   0.374   0.830  17.231 -0.1830  0.1109  0.0357
 3533SOL     OW22231   0.160   3.776   2.101  0.0132  0.1443 -0.5769
 3533SOL    HW122232   0.176   3.719   2.176 -2.3041 -0.1197 -0.2803
 3533SOL    HW222233   0.218   3.747   2.030 -0.4057 -0.2342 -0.7672
 3534SOL     OW22234   1.193   4.494   8.507 -0.3497  0.3790 -0.3933
 3534SOL    HW122235   1.273   4.474   8.460 -0.0062  1.9517 -0.4793
 3534SOL    HW222236   1.214   4.574   8.555  0.8946  0.1012 -0.4805
 3535SOL     OW22237   0.689   2.205   4.307  0.2127  0.4639 -0.2280
 3535SOL    HW122238   0.774   2.184   4.347  0.0033 -1.4389 -0.7922
 3535SOL    HW222239   0.708   2.159   4.225 -1.0543 -0.7598  0.1757
 3536SOL     OW22240   2.842   2.101  16.209  0.3645  0.4249  0.2381
 3536SOL    HW122241   2.842   2.089  16.304 -0.1067 -1.8217 -0.0586
 3536SOL    HW222242   2.910   2.043  16.175  1.4777  1.4735  0.6635
 3537SOL     OW22243   1.312   2.930  12.105  0.1167  0.3115  0.3131
 3537SOL    HW122244   1.221   2.902  12.107  0.1450  0.1215 -1.0948
 3537SOL    HW222245   1.320   2.997  12.036 -3.6934 -0.0615 -0.4755
 3538SOL     OW22246   2.213   2.542  11.768 -0.7108  0.4178 -0.5858
 3538SOL    HW122247   2.213   2.491  11.687 -0.1554 -1.4581  0.5972
 3538SOL    HW222248   2.270   2.615  11.746 -0.7064  0.3590 -0.7721
 3539SOL     OW22249   1.974   4.468   8.922  0.6379  0.0962  0.1222
 3539SOL    HW122250   1.981   4.482   8.827 -1.6578  2.1180  0.2625
 3539SOL    HW222251   2.066   4.457   8.948  0.2881 -0.5214  1.0776
 3540SOL     OW22252   2.307   0.806   8.354  0.1544  0.4671  0.1387
 3540SOL    HW122253   2.347   0.730   8.398  0.5782  0.5308 -0.1393
 3540SOL    HW222254   2.362   0.875   8.392  0.2292 -0.4986  1.7938
 3541SOL     OW22255   0.659   3.331   4.380 -0.2687  0.4435  0.1740
 3541SOL    HW122256   0.737   3.282   4.407  0.6018  1.7862  0.1419
 3541SOL    HW222257   0.599   3.305   4.450 -1.5835  2.1735 -0.3215
 3542SOL     OW22258   2.745   2.493   1.689 -0.3598 -0.0778 -0.0031
 3542SOL    HW122259   2.678   2.425   1.701 -2.2222  1.8045  0.1728
 3542SOL    HW222260   2.684   2.559   1.656  0.7059  1.9837  2.2170
 3543SOL     OW22261   3.833   0.217   8.528 -0.0060 -0.3789  0.1318
 3543SOL    HW122262   3.772   0.291   8.536  0.1764 -0.0838 -1.1583
 3543SOL    HW222263   3.845   0.182   8.616  2.1864  1.2385  0.4571
 3544SOL     OW22264   1.711   1.109   7.396  0.2090 -0.4253  0.1357
 3544SOL    HW122265   1.801   1.102   7.363  0.4246  1.3618  0.3503
 3544SOL    HW222266   1.675   1.020   7.393  0.1984 -0.4981  2.4005
 3545SOL     OW22267   2.806   2.169   0.307 -0.0291 -0.3563  0.3194
 3545SOL    HW122268   2.765   2.176   0.393 -1.5187  0.6089 -0.4795
 3545SOL    HW222269   2.747   2.099   0.278  1.0905 -1.4569  0.6437
 3546SOL     OW22270   2.706   3.598   3.290  0.5356  0.2526 -0.3646
 3546SOL    HW122271   2.618   3.619   3.259  0.1020 -1.3992 -0.2683
 3546SOL    HW222272   2.761   3.626   3.217  1.1983  1.6757  0.6796
 3547SOL     OW22273   2.629   2.910   8.159 -0.0806 -0.3897 -0.3177
 3547SOL    HW122274   2.709   2.907   8.212 -0.9845 -1.1360  0.9881
 3547SOL    HW222275   2.578   2.973   8.209  1.7902  1.8627 -1.2727
 3548SOL     OW22276   0.565   3.373   2.658  0.6036  0.6213  0.1862
 3548SOL    HW122277   0.567   3.277   2.656 -1.0052  0.5977 -0.9956
 3548SOL    HW222278   0.540   3.388   2.749 -1.6801  0.4768 -0.4100
 3549SOL     OW22279   1.180   1.869  15.010  0.1499  0.4550  0.6455
 3549SOL    HW122280   1.125   1.798  15.040 -1.3192  1.6804  0.8525
 3549SOL    HW222281   1.201   1.913  15.092  2.9860  1.4226 -0.5763
 3550SOL     OW22282   3.701   0.497   2.238  0.2818 -0.8855  0.1206
 3550SOL    HW122283   3.692   0.482   2.332 -0.8733  0.6996  0.2595
 3550SOL    HW222284   3.610   0.512   2.212  0.4093  1.4508  1.0222
 3551SOL     OW22285   2.524   2.615   0.493 -0.1515  0.5687  0.2766
 3551SOL    HW122286   2.474   2.667   0.556  2.8317  3.2398  0.4437
 3551SOL    HW222287   2.607   2.592   0.535  0.2753 -2.4357 -2.2319
 3552SOL     OW22288   1.962   0.796   8.102 -0.5443 -0.4701 -0.6804
 3552SOL    HW122289   1.995   0.717   8.143 -0.8095  0.3222  1.0699
 3552SOL    HW222290   1.870   0.797   8.131  0.6190 -2.1776  2.9683
 3553SOL     OW22291   3.798   0.693  12.517 -0.4454  0.3555 -0.2114
 3553SOL    HW122292   3.888   0.721  12.535  0.1550 -0.3278 -2.2050
 3553SOL    HW222293   3.781   0.736  12.434 -0.9274 -0.7443 -0.6899
 3554SOL     OW22294   0.242   0.577  17.635 -0.1425 -0.4398  0.1844
 3554SOL    HW122295   0.234   0.664  17.595 -0.4289  0.0338  1.2820
 3554SOL    HW222296   0.275   0.531  17.558 -2.0397 -2.0966  0.3626
 3555SOL     OW22297   2.180   0.938   9.845  0.2963  0.7270  0.1786
 3555SOL    HW122298   2.107   0.954   9.905 -0.1448 -3.2822  0.6488
 3555SOL    HW222299   2.241   0.889   9.900  1.3491 -0.0181 -1.6779
 3556SOL     OW22300   0.096   2.913  13.829 -0.2886 -0.0014 -0.2423
 3556SOL    HW122301   0.154   2.846  13.793 -3.7035 -1.9784 -2.0244
 3556SOL    HW222302   0.039   2.860  13.885  0.1962 -1.9774 -1.6048
 3557SOL     OW22303   1.710   2.454   9.132 -0.0893 -0.5918 -0.0714
 3557SOL    HW122304   1.619   2.485   9.129 -0.5692 -1.7578  2.6631
 3557SOL    HW222305   1.695   2.361   9.151 -0.1424 -0.4316  0.6609
 3558SOL     OW22306   2.163   0.716   6.775 -0.9865 -0.2463  0.5813
 3558SOL    HW122307   2.122   0.663   6.707  0.3729 -0.8552  0.2444
 3558SOL    HW222308   2.233   0.760   6.728  0.1472 -0.9948  1.5799
 3559SOL     OW22309   2.198   0.005   6.360 -0.2759  0.0988 -0.2332
 3559SOL    HW122310   2.160   0.036   6.442  2.5686  1.7155  0.4892
 3559SOL    HW222311   2.280   0.054   6.356  0.4569 -1.1532 -0.4822
 3560SOL     OW22312   3.182   0.078  13.916  0.2721  0.2338  1.2823
 3560SOL    HW122313   3.220   0.162  13.939 -1.2456  1.5384 -0.9105
 3560SOL    HW222314   3.234   0.061  13.838  0.8158 -1.0844  1.9385
 3561SOL     OW22315   3.976   0.509  17.550  0.6053 -0.7325 -0.0636
 3561SOL    HW122316   3.889   0.501  17.510 -0.8360 -0.4468  2.9987
 3561SOL    HW222317   3.946   0.476  17.635  1.8683 -1.4361  0.0941
 3562SOL     OW22318   1.829   1.774  16.579 -0.2295 -0.9444  0.0651
 3562SOL    HW122319   1.838   1.733  16.493 -0.4529  0.4477 -0.6249
 3562SOL    HW222320   1.910   1.756  16.626 -0.3007 -2.4800 -0.3952
 3563SOL     OW22321   3.058   4.658   6.611  0.5431  0.2212 -0.1401
 3563SOL    HW122322   2.999   4.585   6.629 -1.3539  1.7303 -0.2409
 3563SOL    HW222323   3.034   4.721   6.679 -1.9859 -0.4603 -0.4236
 3564SOL     OW22324   2.477   1.906   4.727 -0.0858  0.1972  0.2303
 3564SOL    HW122325   2.419   1.980   4.745 -2.8471 -1.5715 -1.3118
 3564SOL    HW222326   2.559   1.939   4.762 -1.0650  1.4938  1.3156
 3565SOL     OW22327   1.555   2.547   2.988 -0.4048 -0.6097  1.2864
 3565SOL    HW122328   1.477   2.571   2.937 -0.6792 -2.9359  0.6097
 3565SOL    HW222329   1.562   2.608   3.061 -2.3383  0.4339  0.6037
 3566SOL     OW22330   1.509   1.847   6.109  0.1207 -0.0915 -0.0303
 3566SOL    HW122331   1.441   1.869   6.044 -0.4935 -1.2621  0.2042
 3566SOL    HW222332   1.596   1.858   6.071  0.2198 -0.3770  0.1112
 3567SOL     OW22333   3.968   2.027   6.088  0.0879 -0.2464  0.2532
 3567SOL    HW122334   3.968   1.997   6.179 -0.7025 -1.8763 -0.2711
 3567SOL    HW222335   3.957   1.942   6.046 -0.2027  0.1756 -0.5388
 3568SOL     OW22336   4.613   0.467   2.331 -0.2587 -0.4156 -0.5108
 3568SOL    HW122337   4.550   0.460   2.260  0.5736 -0.5086 -1.2430
 3568SOL    HW222338   4.672   0.399   2.299  1.9370  0.3990  1.7930
 3569SOL     OW22339   4.688   1.597  14.177  0.2591 -0.0170  0.7029
 3569SOL    HW122340   0.039   1.576  14.135 -0.9419 -0.3850 -1.5126
 3569SOL    HW222341   4.650   1.510  14.180  0.0533  0.0644  0.4463
 3570SOL     OW22342   4.419   3.159  12.567  0.1506 -0.0747  0.1156
 3570SOL    HW122343   4.346   3.133  12.624 -1.4766 -0.2211 -2.0408
 3570SOL    HW222344   4.481   3.204  12.625 -0.5395  0.7062  0.2480
 3571SOL     OW22345   3.778   1.329   6.494 -0.1328  0.1309  0.1571
 3571SOL    HW122346   3.740   1.357   6.578 -1.2999  2.1749 -1.0558
 3571SOL    HW222347   3.871   1.307   6.500 -0.3210 -0.9421 -0.9527
 3572SOL     OW22348   4.563   1.117  10.684  0.2416 -0.4332 -0.6761
 3572SOL    HW122349   4.530   1.190  10.736 -1.8157  0.4338 -3.1848
 3572SOL    HW222350   4.523   1.139  10.600 -1.8715  1.1766  0.7592
 3573SOL     OW22351   1.671   3.182  11.520 -0.6048  0.1582 -0.1234
 3573SOL    HW122352   1.763   3.188  11.547  0.0471 -0.2753 -2.2542
 3573SOL    HW222353   1.640   3.272  11.530  0.2241  0.3894  0.4459
 3574SOL     OW22354   3.895   2.506   9.241  0.0954  0.1051 -0.7588
 3574SOL    HW122355   3.952   2.497   9.165 -0.6716  1.4282 -1.4933
 3574SOL    HW222356   3.833   2.435   9.224  0.1565 -0.4591  1.2988
 3575SOL     OW22357   0.511   1.104   3.444 -0.4099  0.0036 -0.0903
 3575SOL    HW122358   0.431   1.148   3.473  0.0583  1.3983 -0.9176
 3575SOL    HW222359   0.477   1.068   3.362 -2.8064  0.9264  0.4660
 3576SOL     OW22360   4.235   2.620   1.347  0.3595 -0.7767 -0.1700
 3576SOL    HW122361   4.330   2.605   1.354  0.3975 -0.8929 -0.8421
 3576SOL    HW222362   4.221   2.607   1.253  0.4031  1.9347 -0.5474
 3577SOL     OW22363   2.064   1.809  16.900  0.3471 -0.2680 -0.3531
 3577SOL    HW122364   2.022   1.892  16.920 -0.7268 -0.6963 -0.8421
 3577SOL    HW222365   2.136   1.806  16.963  0.5678  0.4697 -0.5713
 3578SOL     OW22366   2.796   4.088  12.362  0.1435 -0.3645 -0.0089
 3578SOL    HW122367   2.714   4.065  12.319  0.5013 -0.4091 -0.6718
 3578SOL    HW222368   2.842   4.006  12.344 -0.5743 -0.6867 -0.3497
 3579SOL     OW22369   3.997   4.016   3.155 -0.5081 -0.0385  1.2134
 3579SOL    HW122370   3.951   4.049   3.233 -0.3427  0.2209  1.2008
 3579SOL    HW222371   4.074   3.982   3.200 -0.0536 -1.3923 -0.6208
 3580SOL     OW22372   0.626   4.088  16.993  0.6895  0.0263 -0.6875
 3580SOL    HW122373   0.594   4.094  16.903  0.3475  0.9964 -0.5083
 3580SOL    HW222374   0.564   4.028  17.034  1.1603 -1.0209 -1.5190
 3581SOL     OW22375   0.290   1.483   1.642  0.1487 -0.5778 -0.1073
 3581SOL    HW122376   0.363   1.456   1.587  0.0094 -1.2616  0.0397
 3581SOL    HW222377   0.227   1.427   1.597  1.7799 -0.2593 -2.7318
 3582SOL     OW22378   3.618   3.675   8.645  0.4857  0.2870 -0.0247
 3582SOL    HW122379   3.627   3.581   8.658  0.9507  0.5464  1.5188
 3582SOL    HW222380   3.653   3.711   8.727 -2.6205  1.1029  0.9626
 3583SOL     OW22381   4.216   1.212  14.746 -0.1490  0.1624 -0.6131
 3583SOL    HW122382   4.261   1.145  14.696  0.1909 -0.3030  0.3251
 3583SOL    HW222383   4.133   1.170  14.769  0.3491 -0.7672 -0.5108
 3584SOL     OW22384   1.265   3.933   3.249  1.1073 -0.3143  0.3017
 3584SOL    HW122385   1.256   3.928   3.154 -0.9522 -1.5377  0.5650
 3584SOL    HW222386   1.231   3.846   3.270  0.3692  0.0378  0.5409
 3585SOL     OW22387   1.919   1.143  17.179  0.0537  0.0944  0.3312
 3585SOL    HW122388   1.945   1.077  17.115 -0.8319 -0.1196  0.1907
 3585SOL    HW222389   1.887   1.082  17.246 -1.7759  0.5787 -0.0949
 3586SOL     OW22390   0.665   0.745  17.725 -0.0231 -0.3103  0.4083
 3586SOL    HW122391   0.620   0.662   0.005 -0.0045 -0.0390  2.3263
 3586SOL    HW222392   0.637   0.763  17.636  0.3701  1.0029  0.5491
 3587SOL     OW22393   3.895   1.348   9.027  0.2135 -0.1224  0.7242
 3587SOL    HW122394   3.942   1.280   9.074 -1.8951 -0.9694  1.6327
 3587SOL    HW222395   3.921   1.425   9.078 -2.5565  0.3123  1.4889
 3588SOL     OW22396   1.017   0.844   6.916 -0.2350 -0.0979 -0.4697
 3588SOL    HW122397   1.101   0.822   6.955 -1.9615 -1.9676  2.1470
 3588SOL    HW222398   0.961   0.811   6.986 -0.7848 -0.7131 -1.1942
 3589SOL     OW22399   1.285   4.011   7.587 -0.2073 -0.4328  0.1972
 3589SOL    HW122400   1.346   4.084   7.591 -0.9453  0.1542  0.6583
 3589SOL    HW222401   1.223   4.020   7.659 -1.0408  0.4403 -0.6382
 3590SOL     OW22402   4.036   1.442   6.772 -0.0672 -0.2587  0.2565
 3590SOL    HW122403   4.114   1.413   6.819 -0.7727 -1.0943  0.9206
 3590SOL    HW222404   3.982   1.379   6.820 -3.8237  2.3677 -0.5716
 3591SOL     OW22405   4.058   3.638   2.609 -0.2021  0.9827  0.3465
 3591SOL    HW122406   4.032   3.656   2.519 -4.2601 -0.5191  1.2090
 3591SOL    HW222407   4.010   3.697   2.667 -2.6177 -0.9654  0.3032
 3592SOL     OW22408   3.689   0.320  15.935 -0.3755  0.1469  0.0941
 3592SOL    HW122409   3.612   0.268  15.958  0.1778 -0.7440 -0.0681
 3592SOL    HW222410   3.695   0.320  15.840 -0.1314 -1.5260  0.1129
 3593SOL     OW22411   2.013   2.815  10.748  0.2645  0.4740 -0.5692
 3593SOL    HW122412   1.943   2.867  10.710 -0.8973 -1.7975 -1.5350
 3593SOL    HW222413   1.975   2.785  10.830  1.3533 -1.4703 -0.7825
 3594SOL     OW22414   1.980   0.304   1.612  0.8862  0.0737  0.3948
 3594SOL    HW122415   1.956   0.325   1.702 -1.7086  1.1395 -0.5696
 3594SOL    HW222416   1.900   0.255   1.592  0.1529  1.0366  0.9829
 3595SOL     OW22417   0.256   2.120   9.151 -0.1756 -0.2249 -0.0954
 3595SOL    HW122418   0.229   2.052   9.089 -0.4250 -1.7835  1.7048
 3595SOL    HW222419   0.168   2.156   9.153 -0.3444 -0.6132 -0.6082
 3596SOL     OW22420   1.047   3.988   7.774  0.7209  0.3829 -0.0217
 3596SOL    HW122421   0.988   3.982   7.850 -0.3526  0.9269 -0.8211
 3596SOL    HW222422   1.038   4.078   7.745 -2.2714 -0.4161 -1.5976
 3597SOL     OW22423   0.038   0.255   2.238  0.1113 -0.5643 -0.1905
 3597SOL    HW122424   4.726   0.177   2.271  0.8745 -1.0923 -0.3889
 3597SOL    HW222425   0.130   0.235   2.256  1.4940  3.2126 -3.0051
 3598SOL     OW22426   0.913   2.716   3.607 -0.1040 -0.3728 -0.0860
 3598SOL    HW122427   0.939   2.634   3.649  0.1620 -1.4472 -2.3588
 3598SOL    HW222428   0.872   2.684   3.527 -0.0853  0.9584 -0.6203
 3599SOL     OW22429   4.189   0.922   5.687  0.2341 -0.0896 -0.6125
 3599SOL    HW122430   4.207   1.016   5.692  0.5885 -0.2343  0.8236
 3599SOL    HW222431   4.118   0.919   5.750  1.8093 -2.0302  1.0389
 3600SOL     OW22432   3.272   3.571   7.780  0.0605  0.2621  0.0288
 3600SOL    HW122433   3.204   3.552   7.844 -1.4819 -4.2189 -2.9077
 3600SOL    HW222434   3.347   3.528   7.823  0.0043 -0.3186 -0.4436
 3601SOL     OW22435   3.213   3.230  12.357  0.5199 -1.0047 -0.2037
 3601SOL    HW122436   3.265   3.237  12.438 -0.0554  0.3186  0.0455
 3601SOL    HW222437   3.201   3.135  12.356  0.6350 -1.0065 -0.9085
 3602SOL     OW22438   1.704   1.881   1.766 -0.1919  0.4051  0.7809
 3602SOL    HW122439   1.786   1.921   1.737  0.5636 -0.0611  2.2482
 3602SOL    HW222440   1.648   1.869   1.689  1.8047 -1.2058 -0.4259
 3603SOL     OW22441   0.579   2.639   6.015 -0.4463 -0.0075  0.5916
 3603SOL    HW122442   0.493   2.622   5.977 -1.1097  0.1890  1.9904
 3603SOL    HW222443   0.630   2.575   5.966 -0.9670 -0.0638  0.1172
 3604SOL     OW22444   2.485   3.673   2.661  0.2231 -0.0377  0.5258
 3604SOL    HW122445   2.539   3.751   2.675  1.1828 -0.6127  0.0802
 3604SOL    HW222446   2.406   3.711   2.624 -0.9783 -1.1748  1.8877
 3605SOL     OW22447   1.847   2.072   4.684  0.4472  0.5587 -0.6090
 3605SOL    HW122448   1.769   2.017   4.679  0.7683 -0.1442  2.3511
 3605SOL    HW222449   1.911   2.004   4.705  0.6985  1.2746  0.9335
 3606SOL     OW22450   1.489   4.082   9.491 -0.1910  0.2453 -0.3889
 3606SOL    HW122451   1.582   4.099   9.506 -0.0020  1.3628 -2.8653
 3606SOL    HW222452   1.453   4.123   9.570  1.2874  2.8079 -1.0678
 3607SOL     OW22453   1.996   2.712   4.463  0.3445  0.3396 -0.0015
 3607SOL    HW122454   2.068   2.659   4.495 -1.0996 -0.9993  1.0573
 3607SOL    HW222455   1.944   2.654   4.408 -1.3445  0.7900  1.0917
 3608SOL     OW22456   3.075   2.325   3.106 -0.4612  0.5331  0.6253
 3608SOL    HW122457   3.031   2.247   3.139 -0.3073 -0.1444 -0.7335
 3608SOL    HW222458   3.123   2.282   3.035 -0.9397  0.7618  0.1633
 3609SOL     OW22459   2.419   2.511  15.157 -0.0973  0.3092 -0.1638
 3609SOL    HW122460   2.509   2.504  15.189  0.2017  1.2701 -0.7845
 3609SOL    HW222461   2.384   2.424  15.174 -1.2900  1.1484  1.6775
 3610SOL     OW22462   3.229   1.990  16.479  0.1395 -0.5562  0.3912
 3610SOL    HW122463   3.220   1.913  16.536  2.2180 -0.8291  0.3732
 3610SOL    HW222464   3.218   2.059  16.545 -1.9298 -2.2361  1.7946
 3611SOL     OW22465   4.494   1.273  16.412  0.1312  0.1294  0.1196
 3611SOL    HW122466   4.495   1.367  16.430  0.1502  0.3964 -1.2919
 3611SOL    HW222467   4.582   1.259  16.378 -0.9844 -0.9951 -2.3535
 3612SOL     OW22468   4.704   3.410   5.711 -0.7272  0.3398 -0.0793
 3612SOL    HW122469   4.673   3.330   5.753  1.1103  0.8703  2.3282
 3612SOL    HW222470   0.060   3.391   5.682 -1.1592 -0.1403 -1.0898
 3613SOL     OW22471   0.343   4.541  14.999  0.4566 -0.6803 -0.4510
 3613SOL    HW122472   0.408   4.471  14.992  1.8579  0.6222 -0.5345
 3613SOL    HW222473   0.383   4.602  14.937 -2.0371 -0.4640 -1.8403
 3614SOL     OW22474   2.947   2.479   5.979 -0.4351 -0.4467  0.0705
 3614SOL    HW122475   2.950   2.427   5.899 -1.4479  0.7185 -0.7229
 3614SOL    HW222476   2.984   2.563   5.950 -0.6238 -0.2873  0.2851
 3615SOL     OW22477   3.541   1.812   4.695  0.2851  0.4791 -0.0664
 3615SOL    HW122478   3.561   1.779   4.782 -1.1473  2.4631  0.9907
 3615SOL    HW222479   3.491   1.745   4.647 -1.7648  1.9298  0.0405
 3616SOL     OW22480   2.524   2.270   6.871 -0.0986 -0.3151  0.0998
 3616SOL    HW122481   2.579   2.197   6.845  0.5932  0.8640 -1.7351
 3616SOL    HW222482   2.446   2.270   6.815  0.0475  2.9805 -0.1111
 3617SOL     OW22483   0.425   4.647   3.743  0.6568 -0.6623  0.1693
 3617SOL    HW122484   0.491   4.578   3.743  1.4566  0.0793  3.2222
 3617SOL    HW222485   0.344   4.599   3.727  0.0652  0.8261 -1.3085
 3618SOL     OW22486   1.831   0.806   3.734 -0.3544 -0.1138 -0.1655
 3618SOL    HW122487   1.923   0.797   3.709  0.0315  0.6405  0.9568
 3618SOL    HW222488   1.790   0.872   3.678 -2.0887 -2.4876 -1.6377
 3619SOL     OW22489   3.305   1.208  16.547  0.6373  0.0110 -0.5047
 3619SOL    HW122490   3.216   1.173  16.546  0.7243 -0.2238  0.5562
 3619SOL    HW222491   3.343   1.121  16.558 -1.3991 -0.9740 -1.1761
 3620SOL     OW22492   1.894   2.443   2.516 -0.2634  0.4620  0.0964
 3620SOL    HW122493   1.855   2.441   2.604 -0.2548 -2.7040  0.0492
 3620SOL    HW222494   1.819   2.487   2.475 -0.0585  0.5752 -0.1525
 3621SOL     OW22495   1.933   2.442  13.307 -0.0062  0.5129  0.6352
 3621SOL    HW122496   1.873   2.371  13.284 -2.6305  2.9792  0.0188
 3621SOL    HW222497   2.010   2.390  13.332  0.8115  2.0405  1.3087
 3622SOL     OW22498   4.349   4.541   9.133 -0.5568  0.1234  0.5496
 3622SOL    HW122499   4.293   4.478   9.179 -0.3210 -0.4954 -0.0129
 3622SOL    HW222500   4.421   4.546   9.196 -0.5764  0.7269  0.5178
 3623SOL     OW22501   3.936   0.346   0.046  0.1516  0.1315 -0.3687
 3623SOL    HW122502   3.866   0.335   0.110  0.6078  1.7010  0.3998
 3623SOL    HW222503   4.005   0.290   0.080  1.2446  2.6797  1.6128
 3624SOL     OW22504   0.597   2.627   6.272  0.2967 -0.1532 -0.5353
 3624SOL    HW122505   0.596   2.537   6.304  0.8668  1.0659  2.8250
 3624SOL    HW222506   0.579   2.622   6.178 -0.2156  1.9940 -0.5588
 3625SOL     OW22507   0.508   0.426   3.470 -0.4601  0.1309  1.0802
 3625SOL    HW122508   0.599   0.417   3.499  0.4259  4.6700 -0.3681
 3625SOL    HW222509   0.465   0.341   3.480  0.5464 -0.5844 -0.7725
 3626SOL     OW22510   1.687   3.845   6.889 -0.0768 -0.2834 -0.7467
 3626SOL    HW122511   1.721   3.758   6.911 -0.4489 -0.3575 -0.4535
 3626SOL    HW222512   1.751   3.879   6.827 -1.3887  1.4748 -1.1338
 3627SOL     OW22513   2.855   0.787   3.982  0.2488  0.4977 -0.4234
 3627SOL    HW122514   2.950   0.774   3.985 -0.1572 -1.9981  1.2450
 3627SOL    HW222515   2.852   0.808   3.888 -1.5876 -0.9069 -0.6685
 3628SOL     OW22516   0.506   1.728   3.505 -0.3557  0.5136  0.0431
 3628SOL    HW122517   0.431   1.787   3.496  0.1055  1.1490  0.3259
 3628SOL    HW222518   0.519   1.734   3.600 -0.4824  5.0578 -0.1933
 3629SOL     OW22519   0.853   2.627  16.687 -0.3993  0.2200 -0.2679
 3629SOL    HW122520   0.815   2.561  16.628  0.6549 -0.5878 -0.0488
 3629SOL    HW222521   0.837   2.703  16.631 -2.6043 -1.8659 -2.5110
 3630SOL     OW22522   0.057   0.270   9.900  0.3812  0.4546  0.0771
 3630SOL    HW122523   0.130   0.227   9.855  0.1191  0.1464 -0.0511
 3630SOL    HW222524   4.720   0.206   9.890 -0.2465  0.7693  2.4325
 3631SOL     OW22525   1.684   0.034   7.313 -0.3457  0.1085 -0.2077
 3631SOL    HW122526   1.643   0.015   7.228  0.7068  0.5242 -0.8096
 3631SOL    HW222527   1.651   4.684   7.348 -1.5407  1.0823  0.9959
 3632SOL     OW22528   1.741   0.428   5.502 -0.1803 -0.0610  0.2227
 3632SOL    HW122529   1.795   0.434   5.581 -1.4891 -0.5879  1.1626
 3632SOL    HW222530   1.677   0.362   5.530 -1.4091  0.3298 -1.6149
 3633SOL     OW22531   2.193   1.045   8.607  0.6277 -0.3239 -0.0841
 3633SOL    HW122532   2.191   1.136   8.579  1.3024 -0.8403 -1.8266
 3633SOL    HW222533   2.148   1.011   8.530  0.8134  2.2063 -1.3052
 3634SOL     OW22534   0.246   3.062   3.324 -0.1958  0.0737  0.0688
 3634SOL    HW122535   0.277   3.013   3.248 -1.1379  0.3613 -0.4993
 3634SOL    HW222536   0.291   3.010   3.391  1.6236 -0.8276 -1.8663
 3635SOL     OW22537   1.117   1.475   7.583 -0.2802 -0.2113  0.1276
 3635SOL    HW122538   1.130   1.464   7.489 -0.0231  0.8533  0.0344
 3635SOL    HW222539   1.133   1.569   7.594  3.9335 -1.1674  2.1481
 3636SOL     OW22540   1.109   3.797   4.407  0.4716  0.2443 -0.9681
 3636SOL    HW122541   1.150   3.724   4.454 -0.3739  1.1688  1.1933
 3636SOL    HW222542   1.179   3.858   4.431 -0.1526 -0.6062  2.9107
 3637SOL     OW22543   0.599   2.149   7.026  0.3099 -0.0340  0.0306
 3637SOL    HW122544   0.669   2.170   6.965  1.6238  2.2501  2.3046
 3637SOL    HW222545   0.539   2.100   6.969  0.1783  1.0392 -0.7585
 3638SOL     OW22546   4.251   1.255   0.602  0.4740  0.2087 -0.1086
 3638SOL    HW122547   4.285   1.264   0.513 -0.9626  2.2338 -0.4525
 3638SOL    HW222548   4.164   1.295   0.592  0.2675  0.6750  3.7031
 3639SOL     OW22549   4.252   3.315   8.094  0.2695  0.3731 -0.2630
 3639SOL    HW122550   4.300   3.342   8.172  0.7234  0.9692 -0.7559
 3639SOL    HW222551   4.257   3.221   8.114  1.1934  0.4444 -0.1504
 3640SOL     OW22552   1.999   0.906   4.456  0.1967 -0.2630 -0.1321
 3640SOL    HW122553   2.056   0.941   4.387  0.1784 -0.4779 -0.2547
 3640SOL    HW222554   2.021   0.813   4.450 -0.6863 -0.4942  0.1975
 3641SOL     OW22555   1.935   3.717   2.640 -0.1764  0.2498 -0.3065
 3641SOL    HW122556   1.854   3.749   2.599  0.5937  2.8516  0.1930
 3641SOL    HW222557   1.976   3.662   2.574 -1.3592  0.0077 -0.8365
 3642SOL     OW22558   2.810   3.510   7.866 -0.0107  0.2739 -0.5984
 3642SOL    HW122559   2.819   3.573   7.794 -0.8120  0.1364 -0.8139
 3642SOL    HW222560   2.901   3.511   7.898  0.0923  2.6016 -0.9669
 3643SOL     OW22561   0.691   3.747   1.775  0.0049 -0.4360 -0.5507
 3643SOL    HW122562   0.761   3.751   1.709  1.0384  0.1574  0.5831
 3643SOL    HW222563   0.750   3.724   1.847 -0.4979  1.1775  0.3767
 3644SOL     OW22564   3.765   3.981  14.856  0.4959  0.3126  0.5538
 3644SOL    HW122565   3.820   3.920  14.807  1.6281 -0.0249  2.2423
 3644SOL    HW222566   3.816   4.060  14.838  1.6926 -0.4021  0.8049
 3645SOL     OW22567   2.797   0.962  17.528 -0.4309 -0.3231 -0.1751
 3645SOL    HW122568   2.881   0.998  17.501 -1.4545  0.1616 -2.7343
 3645SOL    HW222569   2.743   1.040  17.542 -2.2759 -1.5867 -0.1550
 3646SOL     OW22570   3.435   0.932   8.368 -0.4947  0.2039  0.2512
 3646SOL    HW122571   3.342   0.958   8.371 -0.3325  0.9308 -0.9927
 3646SOL    HW222572   3.418   0.849   8.414 -0.0807 -0.3450 -0.5897
 3647SOL     OW22573   3.232   0.113   5.539 -0.9500 -0.3172 -0.5120
 3647SOL    HW122574   3.304   0.073   5.491 -0.4338  0.8462 -0.7242
 3647SOL    HW222575   3.258   0.206   5.535  1.0940 -0.7663  1.6647
 3648SOL     OW22576   4.413   4.637   9.807  0.1341  0.1598 -0.5491
 3648SOL    HW122577   4.372   4.710   9.762 -0.3881 -0.6173 -1.3324
 3648SOL    HW222578   4.364   4.646   9.889  0.7581 -0.6143 -0.0889
 3649SOL     OW22579   3.226   3.317   9.208 -0.0463 -0.0018  0.0352
 3649SOL    HW122580   3.215   3.319   9.113  0.0926  0.3003  0.0252
 3649SOL    HW222581   3.319   3.300   9.223 -0.7646 -1.3342  3.1392
 3650SOL     OW22582   3.654   1.984   6.134  0.3839  0.5117 -0.9919
 3650SOL    HW122583   3.645   1.914   6.070 -0.4250  0.0288 -0.3386
 3650SOL    HW222584   3.564   2.015   6.133  0.0432 -0.4534  0.1936
 3651SOL     OW22585   0.131   0.564   6.501  0.1702 -0.0270  0.4178
 3651SOL    HW122586   0.153   0.657   6.505 -0.6998  0.1294  1.8633
 3651SOL    HW222587   0.209   0.522   6.538  0.6112  1.8028  1.5404
 3652SOL     OW22588   0.139   1.007   1.264  0.6465 -0.2524  0.3233
 3652SOL    HW122589   0.087   1.085   1.280  0.4673 -0.1350 -0.8190
 3652SOL    HW222590   0.153   1.032   1.173  2.3996 -1.5018  0.2367
 3653SOL     OW22591   2.659   3.411   6.712 -0.1203  0.2011 -0.3914
 3653SOL    HW122592   2.710   3.389   6.635  1.0620  0.5951  0.2873
 3653SOL    HW222593   2.667   3.329   6.762  0.2635  0.6300  0.2488
 3654SOL     OW22594   3.206   1.342   7.633  0.0373 -0.4333  0.1718
 3654SOL    HW122595   3.188   1.421   7.684 -1.5656  0.0756 -1.1748
 3654SOL    HW222596   3.290   1.360   7.591 -1.5643  1.5087 -2.1580
 3655SOL     OW22597   1.304   2.488  17.057 -0.0298 -0.2772 -0.4776
 3655SOL    HW122598   1.244   2.499  17.131  1.6784  0.3684  0.8164
 3655SOL    HW222599   1.293   2.567  17.005  1.0701 -1.0738 -1.9144
 3656SOL     OW22600   2.028   2.123   7.375 -1.0710 -0.3614  0.1508
 3656SOL    HW122601   2.090   2.071   7.325 -0.1824  1.2985 -0.4326
 3656SOL    HW222602   2.077   2.167   7.444 -4.4120  2.0741  1.0010
 3657SOL     OW22603   4.712   2.223   3.996 -0.2926  0.1338 -0.2995
 3657SOL    HW122604   0.041   2.180   3.937 -0.4397  0.3856 -0.6386
 3657SOL    HW222605   4.704   2.147   4.052 -2.1661 -0.1898 -1.0038
 3658SOL     OW22606   3.906   3.892  15.933 -0.4014  0.0573  0.0454
 3658SOL    HW122607   3.886   3.800  15.917 -3.1403  0.6224  0.1123
 3658SOL    HW222608   3.960   3.895  16.013 -0.2896  0.2186 -0.0353
 3659SOL     OW22609   3.445   4.679   5.473  0.0947 -0.0929 -0.1758
 3659SOL    HW122610   3.473   4.636   5.554  0.7790  0.5804 -0.0519
 3659SOL    HW222611   3.420   4.601   5.424 -3.2282  0.8981 -0.0130
 3660SOL     OW22612   0.522   0.183   9.025  0.1493  0.0180 -0.1199
 3660SOL    HW122613   0.472   0.120   9.077  0.0741 -1.6734 -2.2362
 3660SOL    HW222614   0.504   0.145   8.939  0.0308  1.1359 -0.5975
 3661SOL     OW22615   2.859   1.822   4.074  0.0808 -0.1888 -0.4820
 3661SOL    HW122616   2.837   1.908   4.039  0.6966  0.7941  1.5401
 3661SOL    HW222617   2.814   1.826   4.157 -1.2583  0.8434 -1.2630
 3662SOL     OW22618   2.122   0.534   2.632 -0.1727  0.2195 -0.3714
 3662SOL    HW122619   2.171   0.480   2.570 -0.6038  1.1050 -1.4728
 3662SOL    HW222620   2.125   0.480   2.712 -0.0303 -0.9184 -1.1471
 3663SOL     OW22621   0.749   1.108  11.586  0.0878  0.4091 -0.1773
 3663SOL    HW122622   0.778   1.018  11.599  0.6832  0.5617 -0.4318
 3663SOL    HW222623   0.670   1.102  11.639  0.9393  1.7580  1.2539
 3664SOL     OW22624   1.055   3.366  15.816 -0.8074 -0.7537  0.1093
 3664SOL    HW122625   1.005   3.405  15.744  1.5606 -2.3202 -2.4255
 3664SOL    HW222626   0.988   3.362  15.884 -0.3807  2.0149  0.6602
 3665SOL     OW22627   1.058   3.335   8.498  0.2778 -0.5817  0.0479
 3665SOL    HW122628   1.038   3.287   8.579 -1.9960 -1.6997 -1.1683
 3665SOL    HW222629   0.977   3.377   8.470 -0.7007 -2.6261 -0.2208
 3666SOL     OW22630   2.504   0.952   8.463  0.3504 -0.0279  0.3536
 3666SOL    HW122631   2.472   1.038   8.490  0.3764 -0.3492  1.3993
 3666SOL    HW222632   2.596   0.974   8.478  0.4677 -1.2054  1.3562
 3667SOL     OW22633   3.665   1.593   4.005 -0.1395  0.6684 -0.0833
 3667SOL    HW122634   3.612   1.536   3.950 -0.1492  0.7244 -0.1333
 3667SOL    HW222635   3.667   1.672   3.950 -0.6756  0.4701 -0.3842
 3668SOL     OW22636   1.576   3.979  17.458 -0.0975 -0.4550  0.3004
 3668SOL    HW122637   1.515   3.910  17.484  1.2371 -0.9787  2.0628
 3668SOL    HW222638   1.574   3.980  17.363 -0.7718 -1.8578  0.3004
 3669SOL     OW22639   1.856   1.652   4.137  0.0899 -0.0141 -0.1173
 3669SOL    HW122640   1.802   1.576   4.160 -0.0767 -0.0472 -0.6213
 3669SOL    HW222641   1.789   1.714   4.110 -0.9010 -0.9868  0.0759
 3670SOL     OW22642   2.340   4.610  16.706 -0.9232  0.7449  0.2342
 3670SOL    HW122643   2.264   4.582  16.655 -0.4627  1.2420 -0.7145
 3670SOL    HW222644   2.367   4.519  16.721 -0.1378  1.0961  0.9929
 3671SOL     OW22645   0.387   1.223   6.284 -0.2503 -0.2353  0.6784
 3671SOL    HW122646   0.474   1.259   6.266 -0.0514 -0.3725  1.3863
 3671SOL    HW222647   0.407   1.162   6.354 -0.8485  1.9494  2.7504
 3672SOL     OW22648   2.761   1.142  17.219 -0.0015 -1.0899 -0.1208
 3672SOL    HW122649   2.727   1.161  17.307 -0.3790 -0.2449 -0.4518
 3672SOL    HW222650   2.679   1.123  17.173  0.5520  0.4963 -1.7356
 3673SOL     OW22651   0.074   1.550   4.552 -0.1629 -0.1643 -0.3089
 3673SOL    HW122652   0.041   1.636   4.579 -0.4385  0.3909 -2.4232
 3673SOL    HW222653   4.729   1.508   4.515  0.0885 -0.4002 -0.5674
 3674SOL     OW22654   2.192   2.248   2.679  0.1848 -0.1133  0.1276
 3674SOL    HW122655   2.212   2.339   2.655 -2.6501  0.6373  0.6075
 3674SOL    HW222656   2.150   2.257   2.765  0.5996 -1.1544  0.4381
 3675SOL     OW22657   0.309   1.211   1.813 -0.5784  0.3420  0.2208
 3675SOL    HW122658   0.219   1.244   1.817 -0.9812 -0.7158 -0.0497
 3675SOL    HW222659   0.317   1.209   1.717 -1.6655 -0.2281  0.1391
 3676SOL     OW22660   2.241   4.177   4.936 -0.1212  0.1188 -0.5106
 3676SOL    HW122661   2.153   4.148   4.959 -0.2872 -0.0446 -1.3181
 3676SOL    HW222662   2.267   4.233   5.008 -2.0880 -0.6793  0.8036
 3677SOL     OW22663   1.637   2.934   8.255 -0.1246  0.0120 -0.3269
 3677SOL    HW122664   1.644   2.996   8.182 -0.0320 -0.0622 -0.3826
 3677SOL    HW222665   1.635   3.003   8.321 -1.9988 -0.1501 -0.2365
 3678SOL     OW22666   3.325   2.139  13.688 -0.2074 -0.1938  0.1370
 3678SOL    HW122667   3.401   2.183  13.725  0.0135  0.7155 -1.3658
 3678SOL    HW222668   3.351   2.146  13.596  1.9491 -2.6513  0.5797
 3679SOL     OW22669   4.056   3.729   1.705 -0.2937  0.0207  0.5196
 3679SOL    HW122670   4.107   3.797   1.661 -2.6393  0.6542 -1.2190
 3679SOL    HW222671   3.970   3.764   1.683 -1.1027 -1.9868  0.5007
 3680SOL     OW22672   0.718   0.771   0.507  0.2977  0.4757 -0.0094
 3680SOL    HW122673   0.665   0.723   0.443  0.8970 -0.2353  0.0293
 3680SOL    HW222674   0.701   0.861   0.479 -0.3453  0.2850 -0.2332
 3681SOL     OW22675   2.037   2.293   2.928 -0.4021  0.7966 -0.3396
 3681SOL    HW122676   1.947   2.311   2.956 -0.2542 -0.2828  0.8059
 3681SOL    HW222677   2.055   2.380   2.892  0.6126  1.0447  0.7793
 3682SOL     OW22678   2.356   3.185   3.217  0.0004 -0.1311 -0.1252
 3682SOL    HW122679   2.409   3.223   3.287  0.4367  0.5209 -0.8160
 3682SOL    HW222680   2.275   3.236   3.209  0.9128  1.3389  0.0737
 3683SOL     OW22681   4.021   0.122  13.757  0.2458 -0.2051 -0.0022
 3683SOL    HW122682   4.033   0.142  13.849  1.3055 -2.6129  0.3688
 3683SOL    HW222683   3.998   0.030  13.770  1.3165 -0.1260  2.3361
 3684SOL     OW22684   3.027   4.617  14.029 -0.6117 -0.1358  0.3140
 3684SOL    HW122685   3.079   4.680  13.980  0.5044 -1.5016 -0.2553
 3684SOL    HW222686   2.988   4.684  14.085  0.7388 -0.7279  1.9503
 3685SOL     OW22687   3.980   1.830   5.584 -0.0018  0.2692  0.5541
 3685SOL    HW122688   4.074   1.810   5.584  0.3541  1.9610 -0.5373
 3685SOL    HW222689   3.975   1.906   5.526 -1.0238 -1.9116 -2.2421
 3686SOL     OW22690   0.827   0.084   7.794 -0.3637 -0.5272  0.4313
 3686SOL    HW122691   0.759   0.148   7.815 -0.0710 -0.2005  0.3678
 3686SOL    HW222692   0.784   0.031   7.727 -1.4733  0.1573  0.5898
 3687SOL     OW22693   2.236   0.951   6.361 -0.1793 -0.2040  0.1173
 3687SOL    HW122694   2.308   1.009   6.337 -0.6101  0.0489 -0.5569
 3687SOL    HW222695   2.199   0.936   6.274  0.7481  0.5021 -0.4026
 3688SOL     OW22696   0.263   4.110   7.612  0.1826  0.6189  0.0690
 3688SOL    HW122697   0.265   4.025   7.656  0.0231  1.0437  0.9024
 3688SOL    HW222698   0.327   4.105   7.541 -0.6741  0.8711 -0.7233
 3689SOL     OW22699   1.719   0.120   5.686 -0.6751  0.1289 -0.0413
 3689SOL    HW122700   1.682   0.180   5.750 -0.6892  0.7159 -0.6051
 3689SOL    HW222701   1.810   0.150   5.692 -0.5463 -0.3477  0.3847
 3690SOL     OW22702   3.183   0.544   5.680  0.1245  0.6720 -0.7456
 3690SOL    HW122703   3.142   0.631   5.681  3.9439  2.4663  0.6362
 3690SOL    HW222704   3.248   0.558   5.749 -0.5332 -0.2583  0.0634
 3691SOL     OW22705   0.999   2.347   4.221 -0.2719  0.1740 -0.1283
 3691SOL    HW122706   0.942   2.376   4.292 -0.7076 -0.0486 -0.3876
 3691SOL    HW222707   1.080   2.352   4.271 -1.5444  0.9254  1.8902
 3692SOL     OW22708   0.780   2.125  12.383  0.1859  0.3879  0.0676
 3692SOL    HW122709   0.832   2.064  12.435  0.2343 -0.8980 -1.4937
 3692SOL    HW222710   0.816   2.116  12.295  1.2079  0.5821  0.4660
 3693SOL     OW22711   1.091   2.321   3.284 -0.2121 -0.4846  0.4304
 3693SOL    HW122712   1.030   2.387   3.252 -0.6716  0.1398  2.5963
 3693SOL    HW222713   1.174   2.367   3.271 -0.5426  0.4370  1.5330
 3694SOL     OW22714   4.278   3.480  15.198 -0.2972 -0.7503 -0.2640
 3694SOL    HW122715   4.207   3.543  15.207 -0.4298 -0.9457  0.0538
 3694SOL    HW222716   4.292   3.498  15.105  1.2215  0.5859  0.2263
 3695SOL     OW22717   0.203   2.777   6.687 -0.1534  0.5419  0.3690
 3695SOL    HW122718   0.228   2.868   6.697  0.7153  0.3207  0.1829
 3695SOL    HW222719   0.250   2.740   6.761  2.8159  2.0684 -0.7328
 3696SOL     OW22720   0.119   1.637   5.033 -0.0476  0.2524  0.5188
 3696SOL    HW122721   0.098   1.586   4.955 -0.1118  0.3837  0.4493
 3696SOL    HW222722   0.101   1.578   5.105 -2.3511 -0.8857 -1.0029
 3697SOL     OW22723   1.474   1.972   6.741 -0.0064  0.3478  0.6312
 3697SOL    HW122724   1.536   1.979   6.814  2.0387  0.3213 -1.0709
 3697SOL    HW222725   1.532   1.991   6.667 -1.7275 -1.0615 -1.0536
 3698SOL     OW22726   3.890   0.718   6.117  0.5173  0.1655  0.1081
 3698SOL    HW122727   3.872   0.810   6.135  0.8947  0.3659 -0.5388
 3698SOL    HW222728   3.898   0.692   6.209  0.1730  1.0215  0.3803
 3699SOL     OW22729   0.805   0.609  15.234 -0.5895  0.0270 -0.5265
 3699SOL    HW122730   0.842   0.612  15.323 -1.6383 -0.5554 -0.0691
 3699SOL    HW222731   0.742   0.538  15.246  1.3713 -1.7528 -0.7015
 3700SOL     OW22732   0.611   2.362   6.515  0.4763 -0.1381 -0.0307
 3700SOL    HW122733   0.596   2.371   6.421  3.5618 -0.9938 -0.6042
 3700SOL    HW222734   0.651   2.446   6.535  2.0873 -0.9771  0.3230
 3701SOL     OW22735   1.641   1.466  17.172 -0.2685  0.4411  0.8527
 3701SOL    HW122736   1.731   1.461  17.140 -0.7948  0.8351 -0.6829
 3701SOL    HW222737   1.621   1.559  17.176  4.4156  1.5140 -1.2970
 3702SOL     OW22738   2.531   0.807  13.178 -0.0117 -0.1253 -0.5436
 3702SOL    HW122739   2.518   0.808  13.273  1.3307  0.2325 -0.3749
 3702SOL    HW222740   2.626   0.805  13.173  0.0453  1.2075 -0.1840
 3703SOL     OW22741   3.033   4.639   2.520 -0.7272  1.0341  0.0867
 3703SOL    HW122742   3.008   4.719   2.474  1.5718  1.5818 -0.2129
 3703SOL    HW222743   3.093   4.592   2.462 -0.7791 -0.0270  0.8764
 3704SOL     OW22744   4.085   2.225   4.030 -0.4582 -0.2638  0.6675
 3704SOL    HW122745   4.077   2.321   4.032  0.4900 -0.1097 -2.9649
 3704SOL    HW222746   4.154   2.209   4.095 -0.4592  0.0378  0.7437
 3705SOL     OW22747   0.331   2.451   7.484 -0.4643 -0.6558 -0.4214
 3705SOL    HW122748   0.350   2.485   7.572  0.0336 -0.1563 -0.7243
 3705SOL    HW222749   0.323   2.533   7.435 -1.1201  0.1578  1.0121
 3706SOL     OW22750   3.213   0.864   7.832  0.2724  0.5585 -0.2174
 3706SOL    HW122751   3.264   0.869   7.913  1.1764  1.5396 -0.8459
 3706SOL    HW222752   3.285   0.840   7.773  0.5984 -0.1773  0.4800
 3707SOL     OW22753   2.866   0.844  14.373  0.7835  0.0296 -0.2238
 3707SOL    HW122754   2.927   0.915  14.352 -0.4174  0.7629 -1.2300
 3707SOL    HW222755   2.933   0.777  14.359  1.8787  1.2404 -0.8007
 3708SOL     OW22756   0.869   4.076   8.515  0.2578  0.0571  0.1665
 3708SOL    HW122757   0.945   4.127   8.489 -0.9433  0.9590 -1.6106
 3708SOL    HW222758   0.818   4.148   8.554 -1.3448 -0.6162 -0.6776
 3709SOL     OW22759   3.348   2.072  15.909 -0.1385 -0.0098 -0.4845
 3709SOL    HW122760   3.413   2.098  15.974 -1.5329 -1.7070  1.5919
 3709SOL    HW222761   3.301   2.014  15.970  1.8414  1.9936  2.9407
 3710SOL     OW22762   2.623   0.244   1.283  0.6605  0.0139  0.2203
 3710SOL    HW122763   2.614   0.331   1.243  0.9737 -0.6454 -1.2817
 3710SOL    HW222764   2.572   0.255   1.363  2.0757  0.8473  1.0121
 3711SOL     OW22765   2.044   0.875   1.013 -0.0463 -0.0135 -0.0776
 3711SOL    HW122766   1.953   0.849   1.001 -0.0527 -1.2561  2.7133
 3711SOL    HW222767   2.043   0.864   1.108  1.5667  1.5291  0.1196
 3712SOL     OW22768   1.380   0.458  12.162 -0.2755  0.5823  0.2121
 3712SOL    HW122769   1.410   0.368  12.172  1.1699  1.0384 -0.0400
 3712SOL    HW222770   1.306   0.456  12.222  0.3074 -0.0100  0.9155
 3713SOL     OW22771   2.671   0.340   8.728  0.4324  0.0532 -0.5075
 3713SOL    HW122772   2.726   0.418   8.720  0.0533  0.2527 -1.0710
 3713SOL    HW222773   2.606   0.359   8.661  1.2179 -0.9798 -1.5440
 3714SOL     OW22774   0.196   0.384  13.041  0.1321 -0.4808  0.2610
 3714SOL    HW122775   0.286   0.380  13.073  0.2911 -1.3259 -0.3059
 3714SOL    HW222776   0.196   0.327  12.964 -0.9221 -2.0454  1.4341
 3715SOL     OW22777   0.422   3.403   0.812  0.1139 -0.3097  0.1114
 3715SOL    HW122778   0.328   3.419   0.812  0.0431 -0.7527 -1.7944
 3715SOL    HW222779   0.427   3.354   0.730 -1.7116  0.4237 -0.4229
 3716SOL     OW22780   0.132   0.303  16.536 -0.3258 -0.0612 -0.3792
 3716SOL    HW122781   0.174   0.269  16.456 -0.1524 -0.5123 -0.0953
 3716SOL    HW222782   0.078   0.227  16.559  1.7425 -1.0282  1.3112
 3717SOL     OW22783   2.773   0.994   7.100 -0.2230 -0.1166 -0.2101
 3717SOL    HW122784   2.845   1.011   7.161 -2.4753  1.4184  2.0126
 3717SOL    HW222785   2.698   1.020   7.153 -0.8312 -1.5211 -0.3582
 3718SOL     OW22786   2.975   3.255   7.800 -0.0565  0.0391 -0.3659
 3718SOL    HW122787   2.947   3.347   7.796 -1.6778 -0.6010 -4.3139
 3718SOL    HW222788   2.903   3.223   7.853 -0.9848 -0.1352 -1.7270
 3719SOL     OW22789   2.238   2.476   4.412  0.5677 -0.3987  0.6591
 3719SOL    HW122790   2.246   2.410   4.481 -2.1524 -0.3484  1.0175
 3719SOL    HW222791   2.328   2.474   4.380  1.0326 -2.0157  2.0560
 3720SOL     OW22792   0.612   2.791   7.446 -0.2782 -0.5869  0.0484
 3720SOL    HW122793   0.564   2.709   7.456 -0.6767 -0.3589  0.0151
 3720SOL    HW222794   0.696   2.751   7.466  0.9306  1.2179 -1.3749
 3721SOL     OW22795   2.924   3.266   5.404 -0.1643 -0.2938 -0.1410
 3721SOL    HW122796   2.968   3.287   5.486 -0.7976  0.3557  0.0299
 3721SOL    HW222797   2.862   3.339   5.401  1.6414  1.2530  0.0979
 3722SOL     OW22798   3.280   0.754   6.441 -0.1717 -0.0227 -0.1698
 3722SOL    HW122799   3.230   0.673   6.429  0.5217  0.1288 -3.9785
 3722SOL    HW222800   3.236   0.812   6.379  0.9909  1.4591  0.3812
 3723SOL     OW22801   3.261   1.361   2.754 -0.3408 -0.4327 -0.0074
 3723SOL    HW122802   3.332   1.424   2.742 -0.0796 -1.1150 -1.9750
 3723SOL    HW222803   3.196   1.407   2.809 -0.8438  0.1726 -1.1069
 3724SOL     OW22804   4.729   0.867  17.085  0.8455 -0.1156 -0.3042
 3724SOL    HW122805   4.707   0.955  17.057  1.0347 -0.6398 -2.0924
 3724SOL    HW222806   4.640   0.833  17.087  0.1286  1.9907  3.4845
 3725SOL     OW22807   0.038   0.042   7.237 -0.0515  0.4363  0.2231
 3725SOL    HW122808   4.705   4.728   7.188 -0.1007 -2.3535  3.0090
 3725SOL    HW222809   0.011   0.026   7.327 -0.2739  2.1862  0.4755
 3726SOL     OW22810   0.547   0.842   6.649  0.3878  0.0571  0.2491
 3726SOL    HW122811   0.537   0.758   6.694  0.5167 -0.6625 -1.0652
 3726SOL    HW222812   0.597   0.889   6.715  1.6754  0.0765 -0.7472
 3727SOL     OW22813   1.144   3.935   8.568  0.2245  0.0555  0.0750
 3727SOL    HW122814   1.053   3.958   8.547 -0.5690 -0.2309  3.1652
 3727SOL    HW222815   1.132   3.840   8.575  1.0390 -0.1496 -1.1799
 3728SOL     OW22816   4.264   2.718  13.848 -0.3778 -0.1621  0.0692
 3728SOL    HW122817   4.178   2.733  13.888  0.2294  0.6239  1.0887
 3728SOL    HW222818   4.273   2.625  13.827 -0.6076  0.0697 -1.0122
 3729SOL     OW22819   1.621   4.105   4.153 -0.0241 -0.1866  0.9453
 3729SOL    HW122820   1.590   4.092   4.063 -0.6334 -0.3997  1.1844
 3729SOL    HW222821   1.609   4.200   4.160 -2.0283 -0.6890  4.1849
 3730SOL     OW22822   4.649   0.576   2.731  0.1912 -0.9114  0.0214
 3730SOL    HW122823   4.635   0.496   2.681  1.4505 -0.9090 -0.3332
 3730SOL    HW222824   4.649   0.627   2.649  1.6205  1.3430  1.4412
 3731SOL     OW22825   4.235   2.507   9.662 -0.0508 -0.1830  0.7284
 3731SOL    HW122826   4.233   2.461   9.578 -1.6193 -1.2793  1.3612
 3731SOL    HW222827   4.148   2.494   9.700  0.6037 -2.3431  1.4886
 3732SOL     OW22828   3.761   4.150   8.801 -0.5712  0.9681  0.3184
 3732SOL    HW122829   3.753   4.228   8.856 -1.6092  0.6872  0.5717
 3732SOL    HW222830   3.849   4.164   8.765  0.5044 -2.2798  1.6400
 3733SOL     OW22831   3.590   4.457   4.269 -0.7005  1.1824  0.1273
 3733SOL    HW122832   3.563   4.548   4.263 -1.6618  0.9908  1.4862
 3733SOL    HW222833   3.503   4.417   4.271 -0.8365  1.5131  0.6632
 3734SOL     OW22834   4.565   3.486   6.593 -0.1228  0.4186 -0.1774
 3734SOL    HW122835   4.504   3.522   6.528  1.2130  0.7901 -1.2047
 3734SOL    HW222836   4.551   3.551   6.663 -0.5767  0.9961 -0.8025
 3735SOL     OW22837   1.494   1.743  17.158 -0.2631 -0.2956  0.7551
 3735SOL    HW122838   1.564   1.777  17.213  0.4539  1.0947 -1.0193
 3735SOL    HW222839   1.433   1.816  17.155 -0.6408 -0.6238  0.4361
 3736SOL     OW22840   3.751   1.838   4.481 -0.2264  0.7728 -0.2342
 3736SOL    HW122841   3.742   1.782   4.404 -3.5434  0.4683  0.3450
 3736SOL    HW222842   3.665   1.882   4.484 -0.7222 -0.0689 -2.0005
 3737SOL     OW22843   1.823   4.439   7.146  0.1793 -0.1484  0.3119
 3737SOL    HW122844   1.897   4.494   7.172  0.3552 -1.3631  2.4063
 3737SOL    HW222845   1.826   4.364   7.206  3.3424  0.6909  1.1941
 3738SOL     OW22846   4.220   1.477   8.392 -0.0434  0.0722  0.8146
 3738SOL    HW122847   4.214   1.532   8.470  0.1912  0.5530  0.4914
 3738SOL    HW222848   4.126   1.477   8.375  0.4610 -2.4930 -1.8668
 3739SOL     OW22849   1.091   3.587   6.064 -0.6844 -0.2723  0.1763
 3739SOL    HW122850   1.133   3.591   6.149 -0.5345 -0.3680  0.1076
 3739SOL    HW222851   1.099   3.679   6.038  2.6944 -0.4874  0.4255
 3740SOL     OW22852   0.502   3.544   4.749  0.1058  0.4159  0.0381
 3740SOL    HW122853   0.563   3.609   4.713 -1.8314  1.1268 -1.9394
 3740SOL    HW222854   0.428   3.560   4.691  0.1559  1.2577  0.2084
 3741SOL     OW22855   3.574   0.477   0.361 -0.3283 -0.0365 -0.0561
 3741SOL    HW122856   3.480   0.462   0.351 -0.4500 -1.2348  2.8231
 3741SOL    HW222857   3.595   0.441   0.447  0.6689  1.3372  0.2790
 3742SOL     OW22858   0.375   1.101   5.990 -0.3877  0.4964 -0.1369
 3742SOL    HW122859   0.334   1.080   6.074 -2.4169  0.2060 -1.1726
 3742SOL    HW222860   0.428   1.022   5.979 -1.1457  0.3045 -2.4937
 3743SOL     OW22861   2.686   3.449   2.018 -0.1958 -0.1688  0.8287
 3743SOL    HW122862   2.620   3.384   1.992  0.3740  0.5175 -2.2924
 3743SOL    HW222863   2.626   3.522   2.039  0.5576  0.4717  0.7560
 3744SOL     OW22864   0.349   1.810   6.281  0.2493 -0.3974 -0.1311
 3744SOL    HW122865   0.315   1.847   6.363 -0.7913 -2.4370  0.3532
 3744SOL    HW222866   0.346   1.718   6.307  0.4337 -0.3035  0.2338
 3745SOL     OW22867   4.305   4.201   9.329  0.1829  0.1940 -0.1195
 3745SOL    HW122868   4.303   4.137   9.401  2.4125  0.0905 -0.1275
 3745SOL    HW222869   4.363   4.161   9.264  1.3075  1.5928  0.0268
 3746SOL     OW22870   4.034   1.244   9.580 -0.9174  0.0160  0.3174
 3746SOL    HW122871   4.104   1.225   9.642  1.4203 -1.8293 -2.8952
 3746SOL    HW222872   4.069   1.327   9.546 -0.8612 -0.6970 -1.3539
 3747SOL     OW22873   0.117   0.068   5.915 -0.0912 -0.5084  0.8174
 3747SOL    HW122874   0.028   0.071   5.952 -1.1344 -0.9478 -1.6644
 3747SOL    HW222875   0.149   0.156   5.931  0.2927 -0.1643 -1.9639
 3748SOL     OW22876   0.728   3.061   5.382  0.5957  0.1305 -0.0496
 3748SOL    HW122877   0.774   2.988   5.425 -1.4144 -0.2452  1.4977
 3748SOL    HW222878   0.640   3.055   5.419  1.0461 -0.8631  0.8826
 3749SOL     OW22879   4.292   1.873   2.141 -0.5007 -0.0996 -0.0593
 3749SOL    HW122880   4.354   1.906   2.076 -3.0232  2.0051 -1.3746
 3749SOL    HW222881   4.205   1.887   2.103 -0.4912  0.9770  0.3124
 3750SOL     OW22882   1.009   2.690   5.627  0.0181 -0.1902  0.7458
 3750SOL    HW122883   1.092   2.651   5.654  0.9368  1.6453  0.5793
 3750SOL    HW222884   0.972   2.631   5.561  2.3443 -0.3832 -0.3806
 3751SOL     OW22885   3.950   0.974   5.190 -0.5187  0.6740  0.4270
 3751SOL    HW122886   3.901   1.017   5.119  0.2767  0.7204 -0.0860
 3751SOL    HW222887   3.949   1.041   5.258  2.5825  0.9354  0.2054
 3752SOL     OW22888   3.351   1.989  10.474  0.1150 -0.2670  0.2944
 3752SOL    HW122889   3.390   1.941  10.548  1.4489  2.7968  1.5940
 3752SOL    HW222890   3.428   1.980  10.417  1.1988  0.2896  1.6685
 3753SOL     OW22891   1.901   1.530   8.436 -0.6684 -0.1126 -0.0091
 3753SOL    HW122892   1.881   1.567   8.522 -1.9576 -0.1896 -0.2792
 3753SOL    HW222893   1.852   1.453   8.466 -1.6778  0.4004 -0.3324
 3754SOL     OW22894   3.017   3.258   3.303  0.4287 -0.0848  0.8489
 3754SOL    HW122895   3.093   3.240   3.358  1.8538  1.0433 -0.7490
 3754SOL    HW222896   2.980   3.325   3.360  0.6695  1.7294 -1.1101
 3755SOL     OW22897   1.919   1.519   3.090  0.0479  0.4528  0.1185
 3755SOL    HW122898   1.899   1.470   3.010 -0.9150  2.2716 -0.7594
 3755SOL    HW222899   1.936   1.609   3.062 -0.4719  0.8156  0.9673
 3756SOL     OW22900   4.618   4.232   2.648 -0.0244  0.0722  0.1814
 3756SOL    HW122901   4.690   4.261   2.592 -0.6884 -0.1658 -0.7981
 3756SOL    HW222902   4.549   4.207   2.586  0.5354 -1.8127  0.3090
 3757SOL     OW22903   3.092   2.695   2.174 -0.8322 -0.6611  0.2312
 3757SOL    HW122904   3.074   2.771   2.229  0.3002 -0.2828  0.0663
 3757SOL    HW222905   3.010   2.681   2.127 -1.8190  0.8724  1.5125
 3758SOL     OW22906   4.372   2.079   3.344 -0.3002  0.1372 -0.8588
 3758SOL    HW122907   4.467   2.066   3.354 -0.3201 -0.5456 -1.5159
 3758SOL    HW222908   4.357   2.061   3.251  1.8326  0.3451 -1.2520
 3759SOL     OW22909   3.640   1.832   2.035 -0.0105 -0.2669 -0.3771
 3759SOL    HW122910   3.667   1.760   2.092  0.5234  0.7272  0.6126
 3759SOL    HW222911   3.640   1.908   2.093 -1.7389  0.9141 -1.9306
 3760SOL     OW22912   2.222   1.542   5.894 -0.6040  0.2970 -0.4544
 3760SOL    HW122913   2.238   1.456   5.856  0.3964 -0.1059  0.8808
 3760SOL    HW222914   2.128   1.546   5.878 -0.6406 -2.3117 -0.9313
 3761SOL     OW22915   2.992   2.997   5.750 -0.0867  0.1656  1.0572
 3761SOL    HW122916   3.000   3.088   5.778 -0.1892  0.2438  0.8359
 3761SOL    HW222917   3.084   2.974   5.733 -0.4932 -0.6193 -0.0736
 3762SOL     OW22918   0.033   3.469   3.476  0.2586  0.4091  0.3131
 3762SOL    HW122919   0.025   3.534   3.406  1.0339 -1.5384 -1.5690
 3762SOL    HW222920   0.094   3.405   3.440  0.2996  0.4181  0.3658
 3763SOL     OW22921   4.337   3.322   8.588  0.2030 -0.1945 -0.4599
 3763SOL    HW122922   4.293   3.369   8.659  1.2686  0.6799 -0.3775
 3763SOL    HW222923   4.413   3.285   8.633 -0.8709 -1.8582 -0.0024
 3764SOL     OW22924   1.540   0.159   2.792  0.5488 -0.2488 -0.5974
 3764SOL    HW122925   1.578   0.168   2.704  1.5102  0.7308 -0.0925
 3764SOL    HW222926   1.465   0.218   2.786  0.3048 -0.5002  0.0272
 3765SOL     OW22927   2.490   4.698   2.850 -0.4946 -0.0646 -0.0728
 3765SOL    HW122928   2.497   4.718   2.944  2.3272  1.7402 -0.6566
 3765SOL    HW222929   2.579   4.673   2.822  0.0516 -0.7245  2.2140
 3766SOL     OW22930   4.690   1.902   5.507 -0.0303  0.5315  0.0123
 3766SOL    HW122931   0.007   1.928   5.584  0.7168 -4.0611  1.1083
 3766SOL    HW222932   0.029   1.909   5.444 -0.6397  0.4089 -0.7072
 3767SOL     OW22933   1.160   1.860  16.362 -0.2070  0.3913 -0.2757
 3767SOL    HW122934   1.191   1.796  16.426 -0.7589  0.3051 -0.0988
 3767SOL    HW222935   1.065   1.856  16.372  0.1502 -0.0462  3.1764
 3768SOL     OW22936   2.016   3.203   8.038 -0.5053 -0.0122  0.2200
 3768SOL    HW122937   1.974   3.180   8.121 -1.8135  1.6930  0.0059
 3768SOL    HW222938   1.982   3.291   8.023 -0.3208  0.0640  0.2431
 3769SOL     OW22939   3.565   1.299  15.546 -0.4499 -0.1650 -0.1809
 3769SOL    HW122940   3.647   1.338  15.577 -0.8931 -0.2070  1.0387
 3769SOL    HW222941   3.582   1.304  15.452 -0.4889 -1.3199 -0.2510
 3770SOL     OW22942   1.986   3.681   5.372  0.1759 -0.6459 -0.4725
 3770SOL    HW122943   1.979   3.632   5.454  0.2365 -0.1664 -0.1745
 3770SOL    HW222944   1.958   3.771   5.390 -0.0309 -0.6559 -0.7644
 3771SOL     OW22945   2.833   3.585   3.911  0.0865  0.0449 -0.1461
 3771SOL    HW122946   2.790   3.644   3.972  0.5817 -0.2755  0.5124
 3771SOL    HW222947   2.893   3.646   3.869  1.0576  0.5582  1.9850
 3772SOL     OW22948   4.438   3.161   5.086 -0.7647 -0.0609 -0.0981
 3772SOL    HW122949   4.428   3.129   5.176  0.6539  1.2462  0.5067
 3772SOL    HW222950   4.425   3.254   5.106  2.5810  0.1772  0.8306
 3773SOL     OW22951   2.556   4.507   5.844 -0.4197 -0.5025  0.6859
 3773SOL    HW122952   2.588   4.548   5.925  1.3318 -0.6101  0.0628
 3773SOL    HW222953   2.607   4.426   5.839 -1.3188 -0.9794 -0.7252
 3774SOL     OW22954   2.738   0.600  10.617 -0.2679 -0.7128 -0.1017
 3774SOL    HW122955   2.778   0.674  10.572  0.0519  0.1065  1.5316
 3774SOL    HW222956   2.675   0.644  10.673 -0.2848 -1.1353  0.2137
 3775SOL     OW22957   1.085   0.319   6.200  0.1589 -0.3913  0.7924
 3775SOL    HW122958   1.137   0.399   6.206 -1.4267  0.4624  2.8722
 3775SOL    HW222959   1.000   0.350   6.169 -0.3130 -2.8984 -0.3955
 3776SOL     OW22960   3.268   2.176   4.545 -0.1690 -0.6644  0.0927
 3776SOL    HW122961   3.205   2.180   4.616  0.2820 -0.2462  0.4631
 3776SOL    HW222962   3.343   2.148   4.596 -0.1692 -0.8850 -0.0266
 3777SOL     OW22963   3.215   3.392   8.926 -0.5847 -0.5119 -0.2692
 3777SOL    HW122964   3.295   3.415   8.878 -0.3707 -3.2898 -1.2483
 3777SOL    HW222965   3.141   3.424   8.875 -0.6804 -0.7200 -0.2603
 3778SOL     OW22966   4.676   2.467  17.349 -0.7878 -0.2662  0.4704
 3778SOL    HW122967   4.662   2.378  17.316 -0.4977 -1.1368  2.6637
 3778SOL    HW222968   4.613   2.508  17.291  0.4417  0.7182 -0.1615
 3779SOL     OW22969   0.795   1.396   4.368 -0.5518  0.0601  0.0255
 3779SOL    HW122970   0.827   1.324   4.314 -0.5867 -1.1171  1.5983
 3779SOL    HW222971   0.733   1.346   4.422 -0.5762 -0.3229 -0.3535
 3780SOL     OW22972   2.077   4.224   7.474 -0.1330 -0.9572  0.4040
 3780SOL    HW122973   2.095   4.305   7.426 -3.7644 -0.4244 -0.0430
 3780SOL    HW222974   2.002   4.189   7.427 -0.4110  2.8748 -2.0769
 3781SOL     OW22975   1.443   0.735  13.289  0.8355  0.4961 -0.3015
 3781SOL    HW122976   1.425   0.824  13.259 -0.2095  0.2978 -0.2672
 3781SOL    HW222977   1.518   0.713  13.234  1.8939 -0.8227  1.6520
 3782SOL     OW22978   0.901   0.497  12.452  0.1927 -0.5717 -0.1654
 3782SOL    HW122979   0.957   0.436  12.499  1.8708  0.1397 -1.2264
 3782SOL    HW222980   0.823   0.487  12.507 -0.2388 -1.1904 -0.8838
 3783SOL     OW22981   1.416   3.170   0.733  0.4172 -0.6735 -0.1361
 3783SOL    HW122982   1.472   3.108   0.780 -1.0742 -2.1286 -0.2620
 3783SOL    HW222983   1.341   3.113   0.713  0.2043  0.2238 -1.8541
 3784SOL     OW22984   3.639   0.090  14.845 -0.1204 -0.2181 -0.1541
 3784SOL    HW122985   3.614   0.177  14.877 -0.4296 -0.0161 -0.9483
 3784SOL    HW222986   3.610   0.095  14.754  0.0932  1.0180 -0.1593
 3785SOL     OW22987   2.096   2.968   9.412  0.4797 -0.2645 -0.0200
 3785SOL    HW122988   2.065   2.878   9.409 -2.0453  0.5956  0.4786
 3785SOL    HW222989   2.034   3.004   9.476  0.6126  0.1216 -0.1038
 3786SOL     OW22990   1.265   2.615   8.901 -0.1254  0.2261  0.2025
 3786SOL    HW122991   1.319   2.678   8.951  1.3352 -0.4804 -0.4866
 3786SOL    HW222992   1.189   2.670   8.883 -0.7335 -0.1083  1.7159
 3787SOL     OW22993   4.092   4.059   5.894  0.2105  0.2536 -0.1462
 3787SOL    HW122994   4.055   4.021   5.814  1.4535  1.3396 -1.2600
 3787SOL    HW222995   4.019   4.048   5.955  0.3348  1.6130  0.2665
 3788SOL     OW22996   1.805   1.257  15.062  0.7220  0.4191  0.1302
 3788SOL    HW122997   1.797   1.195  14.990  1.5691 -0.0378  0.4366
 3788SOL    HW222998   1.822   1.340  15.018  0.4016 -0.2485 -1.2677
 3789SOL     OW22999   0.888   1.326   1.041  0.8393  0.2394  0.1522
 3789SOL    HW123000   0.893   1.237   1.076 -1.3604  0.1965  0.3292
 3789SOL    HW223001   0.980   1.346   1.059  0.1166  1.6105  2.2242
 3790SOL     OW23002   2.406   3.156   3.973  0.5079  0.3052  0.1512
 3790SOL    HW123003   2.355   3.191   3.900  0.1653  0.0441  0.2689
 3790SOL    HW223004   2.457   3.233   3.999  0.2702  0.8124 -0.9051
 3791SOL     OW23005   2.051   0.119   7.065 -0.1017  0.3329 -0.2958
 3791SOL    HW123006   2.089   0.206   7.078  1.3764 -0.9716  4.1438
 3791SOL    HW223007   2.034   0.082   7.151  0.3729  0.6016 -0.0862
 3792SOL     OW23008   1.561   0.530   4.059 -0.1771  0.2382 -0.2460
 3792SOL    HW123009   1.648   0.492   4.071 -0.3853 -0.6003 -1.4001
 3792SOL    HW223010   1.511   0.459   4.020 -0.4048  0.6429 -0.6951
 3793SOL     OW23011   1.597   0.732  16.537 -0.4439 -0.0125  0.2600
 3793SOL    HW123012   1.562   0.668  16.476  1.4638 -1.0295  0.2578
 3793SOL    HW223013   1.586   0.808  16.480 -0.0463  0.6246  1.0232
 3794SOL     OW23014   1.965   0.709  11.635  0.5012 -0.2739  0.1543
 3794SOL    HW123015   1.947   0.782  11.575  2.4978  0.3734  0.3433
 3794SOL    HW223016   1.878   0.692  11.672  0.4857 -1.9523 -0.6747
 3795SOL     OW23017   4.155   2.293   8.317 -0.3083  0.1129  0.4804
 3795SOL    HW123018   4.110   2.209   8.330 -2.6874  1.4862  1.0267
 3795SOL    HW223019   4.207   2.288   8.397  0.2110  1.9457  0.2562
 3796SOL     OW23020   2.172   4.463  15.871  0.4536  0.3072  0.3008
 3796SOL    HW123021   2.240   4.503  15.927 -0.1832 -0.5342  1.6625
 3796SOL    HW223022   2.210   4.501  15.791  0.0729  2.7228  1.2604
 3797SOL     OW23023   3.635   0.126  13.471  0.2617  0.2529 -0.4070
 3797SOL    HW123024   3.719   0.156  13.436  1.4000 -2.1855  0.2840
 3797SOL    HW223025   3.631   0.172  13.555  2.1612  1.4165 -0.9529
 3798SOL     OW23026   4.047   3.244   3.613 -0.4752 -0.5237  0.0368
 3798SOL    HW123027   4.034   3.326   3.660 -0.3164 -0.8206  0.6058
 3798SOL    HW223028   4.069   3.180   3.681  0.7560 -0.0876  0.0377
 3799SOL     OW23029   4.004   3.457   8.382  0.6724  0.2173  0.1597
 3799SOL    HW123030   3.999   3.382   8.441 -3.3676  2.3725  2.5894
 3799SOL    HW223031   3.982   3.420   8.296 -0.5624  2.0651 -0.3361
 3800SOL     OW23032   0.947   4.033   8.871 -0.0496  0.1698 -0.0807
 3800SOL    HW123033   0.945   4.033   8.966  1.1368 -2.4174 -0.0635
 3800SOL    HW223034   0.853   4.045   8.856 -0.5068 -0.8153  2.0105
 3801SOL     OW23035   1.544   3.159   5.288 -0.0301  0.1223  0.0925
 3801SOL    HW123036   1.449   3.155   5.273  0.1153  0.4733 -0.8683
 3801SOL    HW223037   1.581   3.082   5.245 -0.9245  0.8516 -1.9962
 3802SOL     OW23038   0.391   4.135   6.882 -0.1183  0.7896 -0.4998
 3802SOL    HW123039   0.305   4.130   6.841  0.5728  0.7269 -1.9311
 3802SOL    HW223040   0.372   4.157   6.974  0.5529  0.4623 -0.2767
 3803SOL     OW23041   1.679   1.352  14.718  0.0790  0.3021 -0.7802
 3803SOL    HW123042   1.671   1.387  14.807  0.5649 -0.6731 -0.3597
 3803SOL    HW223043   1.627   1.272  14.722 -0.0262  0.4206  0.1728
 3804SOL     OW23044   2.508   4.350   1.674  0.6801  0.4151 -0.4670
 3804SOL    HW123045   2.434   4.293   1.696  1.7447 -1.5398 -1.9305
 3804SOL    HW223046   2.559   4.351   1.754  0.1267  0.2686 -0.1073
 3805SOL     OW23047   1.119   1.522   0.627  0.0495  0.1867  0.2805
 3805SOL    HW123048   1.162   1.521   0.542  1.1606 -0.9295  0.8447
 3805SOL    HW223049   1.071   1.604   0.625 -0.6402 -0.2252 -0.2379
 3806SOL     OW23050   2.309   0.493   5.045 -0.0395 -0.0443 -0.1846
 3806SOL    HW123051   2.329   0.473   5.137  2.2918 -0.3107 -0.7676
 3806SOL    HW223052   2.310   0.403   5.012 -1.7130  0.6607 -2.1786
 3807SOL     OW23053   2.634   0.272   4.005 -0.1172 -0.1724  0.6290
 3807SOL    HW123054   2.640   0.367   4.004  1.9475 -0.3433 -1.5275
 3807SOL    HW223055   2.543   0.272   3.975  0.1258 -0.9782 -0.1018
 3808SOL     OW23056   4.528   2.808   1.179 -0.1128  0.3608 -0.1096
 3808SOL    HW123057   4.578   2.727   1.180 -2.7953 -1.2780 -0.3291
 3808SOL    HW223058   4.458   2.799   1.244 -1.1425  0.5521 -1.2044
 3809SOL     OW23059   3.865   2.477  16.402 -0.0222 -0.0151 -0.1443
 3809SOL    HW123060   3.793   2.541  16.404 -0.2300 -0.1920 -2.2240
 3809SOL    HW223061   3.901   2.504  16.486  0.9676  1.8650 -1.1760
 3810SOL     OW23062   2.959   3.795   7.633 -0.2769  0.1329 -0.6361
 3810SOL    HW123063   3.041   3.750   7.615 -0.3455 -0.4183  0.4242
 3810SOL    HW223064   2.992   3.871   7.682 -0.4815 -0.2794  0.1395
 3811SOL     OW23065   0.427   4.414  16.987  0.0235  0.9138 -0.1028
 3811SOL    HW123066   0.350   4.455  17.027 -0.5005  0.6353 -0.8301
 3811SOL    HW223067   0.410   4.425  16.894 -0.5948 -1.8080 -0.3119
 3812SOL     OW23068   1.684   4.641   3.151 -0.2247 -0.0482  0.2358
 3812SOL    HW123069   1.614   4.609   3.093  1.5346 -1.6692 -0.9645
 3812SOL    HW223070   1.650   4.620   3.238 -0.8924  0.7428  0.1694
 3813SOL     OW23071   3.638   1.404  16.227 -0.0133  0.4540  0.1371
 3813SOL    HW123072   3.617   1.329  16.282  0.4196 -0.0250 -0.3528
 3813SOL    HW223073   3.580   1.466  16.272 -1.9376 -1.4031  0.1769
 3814SOL     OW23074   2.236   4.458   1.382 -0.0468 -0.6021  0.1150
 3814SOL    HW123075   2.150   4.434   1.350 -1.5524 -0.2456  3.9147
 3814SOL    HW223076   2.207   4.523   1.447  2.4379 -1.3171  1.9473
 3815SOL     OW23077   4.653   2.053  13.238 -0.1665  0.6170 -0.2164
 3815SOL    HW123078   4.588   1.987  13.215  0.3174 -0.0951  0.4742
 3815SOL    HW223079   4.615   2.080  13.322 -2.7325  1.0180 -1.5110
 3816SOL     OW23080   1.117   2.366   8.140 -0.1404  0.1187  0.2048
 3816SOL    HW123081   1.157   2.289   8.098 -0.3387  0.1438 -0.0257
 3816SOL    HW223082   1.034   2.335   8.176  0.1989  0.2356  1.1110
 3817SOL     OW23083   4.342   2.990   7.334 -0.1454 -0.5819  0.5080
 3817SOL    HW123084   4.434   3.004   7.357  0.0063 -1.6744  0.5396
 3817SOL    HW223085   4.294   3.015   7.414  0.4905  0.2257  0.6319
 3818SOL     OW23086   0.982   3.726   6.507 -0.4694  0.1626  0.0449
 3818SOL    HW123087   1.035   3.737   6.586  1.4236  0.0207 -1.1995
 3818SOL    HW223088   1.057   3.739   6.449 -0.5057  0.9126  0.1697
 3819SOL     OW23089   4.488   2.478   8.286 -0.1226  0.5024 -0.1327
 3819SOL    HW123090   4.569   2.528   8.276 -1.0543  1.7989 -1.2493
 3819SOL    HW223091   4.523   2.395   8.318  1.6812  1.2315 -0.2002
 3820SOL     OW23092   4.039   3.981   9.516 -0.1626 -0.0882 -0.1044
 3820SOL    HW123093   3.955   4.020   9.542  0.2507  0.9106 -0.2761
 3820SOL    HW223094   4.004   3.951   9.432 -0.5300 -0.5856  0.2295
 3821SOL     OW23095   2.988   2.585   4.562 -0.1413 -0.1421 -0.2134
 3821SOL    HW123096   3.084   2.584   4.571 -0.1476  0.4981 -0.1015
 3821SOL    HW223097   2.958   2.658   4.615 -0.4977  0.6437 -1.4884
 3822SOL     OW23098   3.905   2.871   1.642  0.2600 -0.0039  0.3827
 3822SOL    HW123099   3.924   2.777   1.647  1.5318  0.2167 -0.3629
 3822SOL    HW223100   3.993   2.908   1.643 -0.9619  2.8438 -0.0332
 3823SOL     OW23101   1.087   0.143  16.573 -0.1208 -0.0772  0.1003
 3823SOL    HW123102   1.013   0.131  16.633  1.0821  1.8294  1.9179
 3823SOL    HW223103   1.130   0.217  16.615 -0.6966  0.1293  0.3239
 3824SOL     OW23104   4.321   1.835   3.150  0.1326 -0.6203  0.5101
 3824SOL    HW123105   4.415   1.846   3.169 -0.5184  1.0677  2.7368
 3824SOL    HW223106   4.298   1.921   3.117  0.5080 -1.7557 -2.6460
 3825SOL     OW23107   3.712   4.015   1.921  0.5884  0.0163  0.0943
 3825SOL    HW123108   3.709   3.930   1.964 -1.4019 -0.1256 -0.3051
 3825SOL    HW223109   3.634   4.054   1.961  2.1168  1.8956  1.2136
 3826SOL     OW23110   3.458   1.176   9.328 -0.1545 -0.4641  0.5346
 3826SOL    HW123111   3.376   1.224   9.329  0.1094 -0.0016 -1.1087
 3826SOL    HW223112   3.497   1.221   9.253 -3.6427  1.6797  0.0629
 3827SOL     OW23113   0.716   4.426   3.419  0.6013  0.6119  0.2012
 3827SOL    HW123114   0.772   4.451   3.346  1.2154 -0.7907  0.1882
 3827SOL    HW223115   0.774   4.462   3.486  1.9472  0.4974 -0.9120
 3828SOL     OW23116   0.238   4.706   7.930 -0.2082  0.1465 -0.0920
 3828SOL    HW123117   0.308   4.654   7.970  0.1783 -0.9431 -2.1499
 3828SOL    HW223118   0.171   4.637   7.923 -0.7487  0.6618 -0.0068
 3829SOL     OW23119   1.399   2.125   3.558  0.1410  0.0566 -0.4671
 3829SOL    HW123120   1.392   2.170   3.642 -1.0626 -0.5035 -0.2706
 3829SOL    HW223121   1.489   2.093   3.571 -0.1854 -0.0096  1.6516
 3830SOL     OW23122   4.392   0.582   3.248 -0.0394  0.2784 -0.2249
 3830SOL    HW123123   4.370   0.652   3.186 -0.1691  0.4341 -0.0022
 3830SOL    HW223124   4.476   0.561   3.208 -0.1502 -0.4519 -0.0838
 3831SOL     OW23125   4.494   4.176  16.741  0.2991 -0.3144 -0.1383
 3831SOL    HW123126   4.498   4.225  16.659 -0.9099  0.5233  0.3052
 3831SOL    HW223127   4.514   4.247  16.802  2.0494 -0.1331 -0.9345
 3832SOL     OW23128   0.009   0.526  17.386 -0.3957  0.0892 -0.5680
 3832SOL    HW123129   4.729   0.615  17.353  0.8566  0.8328  0.9579
 3832SOL    HW223130   0.100   0.523  17.414 -0.1373  0.4096 -1.3738
 3833SOL     OW23131   0.306   2.202   7.138 -0.4689 -0.2008 -0.2160
 3833SOL    HW123132   0.238   2.259   7.103 -0.6026  0.3054  0.8693
 3833SOL    HW223133   0.340   2.165   7.057 -1.5634  0.4467 -0.9655
 3834SOL     OW23134   4.642   0.162  15.202  0.1530  0.7200  0.1037
 3834SOL    HW123135   4.688   0.185  15.283  0.8609  1.4969 -0.5137
 3834SOL    HW223136   4.715   0.186  15.144  1.8912 -2.4888  0.9662
 3835SOL     OW23137   2.435   0.272   1.476 -0.2034  0.4435 -0.2541
 3835SOL    HW123138   2.467   0.247   1.563 -0.9886 -1.8036 -0.6371
 3835SOL    HW223139   2.357   0.324   1.492 -0.4998  0.3948 -1.5922
 3836SOL     OW23140   3.727   1.419   2.643  0.0672 -0.4880 -0.4317
 3836SOL    HW123141   3.650   1.476   2.635  0.3581 -0.1157 -0.5263
 3836SOL    HW223142   3.771   1.471   2.710 -1.3501  0.9156 -0.5999
 3837SOL     OW23143   1.512   2.628   6.405 -0.4211  0.3025 -0.2153
 3837SOL    HW123144   1.510   2.692   6.476  0.3031  0.5022 -0.3681
 3837SOL    HW223145   1.419   2.621   6.387 -0.3302  0.0675 -0.6018
 3838SOL     OW23146   1.466   4.107  16.639 -0.4385 -0.1977  0.0610
 3838SOL    HW123147   1.428   4.105  16.551 -1.0107 -0.1593  0.3039
 3838SOL    HW223148   1.518   4.027  16.633 -0.1019  0.0992 -1.0795
 3839SOL     OW23149   0.193   0.823   6.438 -0.0609 -0.4836  0.1386
 3839SOL    HW123150   0.120   0.870   6.398  0.6022  0.5140  0.0966
 3839SOL    HW223151   0.269   0.875   6.412 -0.6360  0.5447  0.5298
 3840SOL     OW23152   2.225   4.264   3.477  0.6119 -0.6696  0.1558
 3840SOL    HW123153   2.145   4.252   3.527  0.4046 -1.7487 -0.4126
 3840SOL    HW223154   2.188   4.256   3.389  1.3358 -0.4670 -0.1686
 3841SOL     OW23155   2.294   1.748  10.097 -0.3509 -0.1011 -0.5577
 3841SOL    HW123156   2.245   1.704  10.167  0.6005  0.0709  0.2237
 3841SOL    HW223157   2.256   1.836  10.106 -2.0447 -0.8560 -0.3810
 3842SOL     OW23158   3.594   1.150   9.847  0.4173  0.5941  0.0857
 3842SOL    HW123159   3.507   1.112   9.831  0.0608  1.8132 -0.8156
 3842SOL    HW223160   3.610   1.167   9.755  1.0219  1.6470  0.3904
 3843SOL     OW23161   1.096   2.662  16.847  0.2125 -0.2235  0.1780
 3843SOL    HW123162   1.041   2.622  16.779 -0.8248  1.2767  0.1284
 3843SOL    HW223163   1.037   2.644  16.920  0.8235  0.1845  0.7695
 3844SOL     OW23164   2.128   0.116   3.795 -0.0018  0.5273 -0.2037
 3844SOL    HW123165   2.081   0.089   3.715  1.1587 -0.3245 -0.5963
 3844SOL    HW223166   2.213   0.086   3.762  0.3716  1.4095 -0.0230
 3845SOL     OW23167   0.895   3.368   0.073  0.1508 -0.2304  0.1318
 3845SOL    HW123168   0.986   3.397   0.080  0.3151 -1.0844  1.5920
 3845SOL    HW223169   0.897   3.304   0.002 -1.2618 -1.0233  0.7988
 3846SOL     OW23170   3.094   2.673  12.755  0.1601 -0.1041  0.2060
 3846SOL    HW123171   3.105   2.744  12.691  1.1795 -1.1350 -0.7599
 3846SOL    HW223172   3.185   2.647  12.770  0.5231  0.9140 -0.2420
 3847SOL     OW23173   4.329   0.665   4.040  0.2072 -0.1226 -0.0678
 3847SOL    HW123174   4.386   0.688   3.967 -0.6632 -1.8449 -1.3064
 3847SOL    HW223175   4.388   0.607   4.087  1.7571  0.9853 -0.6593
 3848SOL     OW23176   0.477   0.401  16.167 -0.4413  0.1157 -0.1251
 3848SOL    HW123177   0.567   0.428  16.147 -0.4583 -0.3798 -0.8473
 3848SOL    HW223178   0.432   0.485  16.165 -0.5052  0.0332 -2.1137
 3849SOL     OW23179   0.326   0.508  16.499  0.2631 -0.3474  0.2983
 3849SOL    HW123180   0.250   0.456  16.525 -0.8084  0.9381 -0.2620
 3849SOL    HW223181   0.307   0.584  16.554  0.6785  1.6472 -2.3701
 3850SOL     OW23182   1.908   4.635  12.645 -0.2060  0.3499 -0.1153
 3850SOL    HW123183   1.882   4.621  12.554 -0.5343 -1.9280  0.3332
 3850SOL    HW223184   1.822   4.635  12.688 -0.0792 -0.3508  0.1399
 3851SOL     OW23185   0.510   3.981   1.559  0.1540  0.0012 -0.4089
 3851SOL    HW123186   0.478   3.893   1.539  1.2201 -0.7154  1.0469
 3851SOL    HW223187   0.431   4.035   1.558 -0.5754 -1.0629 -0.8134
 3852SOL     OW23188   2.995   3.518   9.698  0.5395 -0.1909 -0.0393
 3852SOL    HW123189   3.069   3.481   9.650 -0.5998  0.8256 -2.6085
 3852SOL    HW223190   2.925   3.516   9.633  1.3379  0.7897 -0.9298
 3853SOL     OW23191   2.120   0.633   0.142 -0.1120 -0.1079 -0.2269
 3853SOL    HW123192   2.208   0.638   0.105 -0.2626  0.6525 -0.4772
 3853SOL    HW223193   2.090   0.723   0.149  1.6156  0.4623 -0.2757
 3854SOL     OW23194   2.434   1.687   3.388 -0.5552 -0.0584 -0.7087
 3854SOL    HW123195   2.351   1.696   3.435  0.3491 -0.9356  1.0390
 3854SOL    HW223196   2.400   1.704   3.300 -1.6578 -3.7226 -0.9762
 3855SOL     OW23197   2.094   1.867   0.053  0.2399  0.3426  0.1479
 3855SOL    HW123198   2.155   1.933   0.020  1.9172 -0.2624  2.0389
 3855SOL    HW223199   2.016   1.854  17.730  1.0499 -1.2691 -0.5981
 3856SOL     OW23200   4.640   4.028   1.073 -0.1840 -0.0799 -0.1725
 3856SOL    HW123201   4.588   4.076   1.009  1.0295  0.7280 -0.5514
 3856SOL    HW223202   4.566   3.981   1.112  0.7254 -2.5120 -1.4136
 3857SOL     OW23203   2.309   1.040   7.020  0.1532 -0.2952  0.5581
 3857SOL    HW123204   2.304   0.944   7.017  3.8436 -0.5089  1.4009
 3857SOL    HW223205   2.391   1.049   6.972 -0.1419  1.8363  0.4742
 3858SOL     OW23206   4.338   2.984  16.805  0.4051 -0.4801  0.1903
 3858SOL    HW123207   4.315   3.017  16.718 -0.6050 -1.2830  0.1596
 3858SOL    HW223208   4.428   3.017  16.810  0.4703 -0.4121 -1.3089
 3859SOL     OW23209   0.649   2.040   5.753  0.4517 -0.3827  0.2020
 3859SOL    HW123210   0.723   2.098   5.734 -0.3455  0.9592  1.2386
 3859SOL    HW223211   0.611   2.073   5.834  2.4238  0.4045  0.8204
 3860SOL     OW23212   4.287   4.488   6.439  0.0149  0.0801  0.6204
 3860SOL    HW123213   4.200   4.461   6.407  1.2445 -1.8623 -1.1340
 3860SOL    HW223214   4.309   4.429   6.511 -3.2029 -0.3290  1.2954
 3861SOL     OW23215   2.626   3.710   5.279 -0.2580  0.2591 -0.1337
 3861SOL    HW123216   2.545   3.715   5.227 -0.5856  0.8800  0.4315
 3861SOL    HW223217   2.680   3.770   5.227 -0.0712  2.9133  3.1045
 3862SOL     OW23218   2.305   0.780   7.519  0.5781 -0.4169  0.5076
 3862SOL    HW123219   2.256   0.759   7.599  1.5074  0.3492  1.2751
 3862SOL    HW223220   2.390   0.747   7.547 -0.1234 -0.8899  2.1514
 3863SOL     OW23221   1.331   2.572   4.755  0.4524 -0.3966 -0.1149
 3863SOL    HW123222   1.401   2.511   4.778  0.0389 -1.6955 -2.2597
 3863SOL    HW223223   1.344   2.574   4.660  0.7598 -0.7343 -0.0806
 3864SOL     OW23224   3.639   3.295   6.872  0.1768  0.5184 -0.1290
 3864SOL    HW123225   3.546   3.272   6.873  0.3650 -0.1539  1.6909
 3864SOL    HW223226   3.672   3.251   6.950  0.2891  1.1246  0.1691
 3865SOL     OW23227   2.114   0.441   3.971  0.0196 -0.0161  0.5176
 3865SOL    HW123228   2.125   0.494   3.892 -0.5797  1.2268  1.2754
 3865SOL    HW223229   2.118   0.508   4.039  0.8049  0.3569  0.1070
 3866SOL     OW23230   1.366   0.888  11.724 -0.3242 -0.4294  0.1704
 3866SOL    HW123231   1.316   0.958  11.682 -1.6397 -0.8197  1.0926
 3866SOL    HW223232   1.338   0.818  11.664 -1.0213  0.6318 -0.7520
 3867SOL     OW23233   4.309   1.002  14.540 -0.4556  0.4493 -0.1237
 3867SOL    HW123234   4.284   1.083  14.495  1.0664 -0.1345 -2.0294
 3867SOL    HW223235   4.394   0.984  14.499 -1.1475 -0.2620 -1.2347
 3868SOL     OW23236   4.348   0.820  10.241  0.0401 -0.4868  0.1771
 3868SOL    HW123237   4.315   0.910  10.250  1.0433 -0.1824  0.8904
 3868SOL    HW223238   4.360   0.821  10.146  0.7912  1.2553  0.2829
 3869SOL     OW23239   1.602   2.338   6.948 -1.1605  0.1717 -0.3965
 3869SOL    HW123240   1.603   2.404   7.018 -1.4095 -0.6667  0.3988
 3869SOL    HW223241   1.521   2.293   6.972 -2.1787  0.6093 -3.0591
 3870SOL     OW23242   0.622   3.279   5.068 -0.0608  0.2507 -0.0708
 3870SOL    HW123243   0.700   3.230   5.095 -0.0463 -0.8635 -2.0854
 3870SOL    HW223244   0.626   3.270   4.972  0.8291 -1.0362  0.0840
 3871SOL     OW23245   3.962   2.412   8.974 -0.0396 -0.2433 -0.2760
 3871SOL    HW123246   4.006   2.328   8.965  0.0944 -0.1842 -0.1700
 3871SOL    HW223247   3.877   2.380   8.942  0.6881 -1.6756 -0.7397
 3872SOL     OW23248   3.111   3.715   4.634 -0.4084 -0.0820 -0.1447
 3872SOL    HW123249   3.102   3.754   4.548  0.4596 -0.5590 -0.4510
 3872SOL    HW223250   3.160   3.786   4.677  0.6859 -0.4799 -0.7433
 3873SOL     OW23251   3.705   0.184   8.994 -0.7798  0.1256 -0.3716
 3873SOL    HW123252   3.636   0.220   9.050 -2.4376 -0.8270 -1.8380
 3873SOL    HW223253   3.738   0.269   8.965  0.2630 -0.3714 -0.6585
 3874SOL     OW23254   0.658   1.156   6.265 -0.2503 -0.4284  0.0080
 3874SOL    HW123255   0.713   1.093   6.310 -1.9316 -2.5039 -0.8025
 3874SOL    HW223256   0.700   1.164   6.179 -0.1258 -0.4794  0.0646
 3875SOL     OW23257   0.376   0.129   4.735 -0.6152  0.1490 -0.0422
 3875SOL    HW123258   0.452   0.177   4.770 -1.2510  0.9848  0.1769
 3875SOL    HW223259   0.307   0.185   4.770 -0.0881 -0.1306  1.4340
 3876SOL     OW23260   1.341   3.740   8.789  0.4714  0.0713  0.5873
 3876SOL    HW123261   1.258   3.700   8.762  0.3987  1.4377 -1.2185
 3876SOL    HW223262   1.318   3.833   8.796  0.1275  0.1944 -2.0402
 3877SOL     OW23263   0.149   0.048  12.860 -0.1695 -0.3331  0.1602
 3877SOL    HW123264   0.150   0.118  12.794  0.1487 -0.1251  0.3802
 3877SOL    HW223265   0.227   0.003  12.829  0.0665 -0.4105  0.8661
 3878SOL     OW23266   3.078   3.154   6.745 -0.0738 -0.5716  0.1855
 3878SOL    HW123267   3.055   3.238   6.786  1.1039  0.1430 -0.6392
 3878SOL    HW223268   3.108   3.102   6.820 -0.6579 -2.8366 -1.1388
 3879SOL     OW23269   3.179   0.989   3.749  0.4530 -0.7103  0.6397
 3879SOL    HW123270   3.190   0.895   3.739 -2.9061 -0.9839 -0.4128
 3879SOL    HW223271   3.263   1.008   3.790  1.1044  0.6345 -1.3181
 3880SOL     OW23272   1.312   2.298   7.091  0.0653 -0.5240  0.4150
 3880SOL    HW123273   1.226   2.313   7.130  0.4328  2.6749 -0.0148
 3880SOL    HW223274   1.351   2.240   7.157  2.8298 -0.5431 -1.2316
 3881SOL     OW23275   2.096   2.299   7.565  0.3818 -0.4173 -0.2331
 3881SOL    HW123276   2.070   2.236   7.632 -3.1721  3.4610  1.9593
 3881SOL    HW223277   2.053   2.374   7.604 -0.0962  0.3026 -2.1468
 3882SOL     OW23278   3.736   2.224  13.326  0.0937 -0.3618  0.3763
 3882SOL    HW123279   3.709   2.207  13.416  1.3664 -1.7617  0.4951
 3882SOL    HW223280   3.700   2.144  13.287  0.1677 -1.1083  1.8416
 3883SOL     OW23281   0.022   1.518   5.979 -0.1458  0.0864 -0.2210
 3883SOL    HW123282   4.683   1.510   5.917  0.4054 -1.5704 -0.6423
 3883SOL    HW223283   0.093   1.478   5.928  1.5825  3.4653 -0.4489
 3884SOL     OW23284   1.067   1.533   4.139  0.3481  0.2042 -0.1704
 3884SOL    HW123285   0.998   1.539   4.073  0.8561  0.0083 -0.7164
 3884SOL    HW223286   1.116   1.608   4.107 -1.3182  1.1053 -0.6275
 3885SOL     OW23287   3.750   0.292   2.450 -0.0108  0.4904 -0.4474
 3885SOL    HW123288   3.700   0.252   2.379 -0.3867  2.2704 -1.1948
 3885SOL    HW223289   3.823   0.230   2.450  1.0842  1.7755 -2.3233
 3886SOL     OW23290   1.644   2.706   3.892  0.5486 -0.2841  0.2325
 3886SOL    HW123291   1.636   2.689   3.986 -1.1129  0.0051  0.1519
 3886SOL    HW223292   1.705   2.779   3.901  1.0730 -0.6447 -0.5161
 3887SOL     OW23293   3.861   3.476   4.724  0.5391 -0.2344  0.1038
 3887SOL    HW123294   3.853   3.383   4.743 -1.7211  0.2287  1.3974
 3887SOL    HW223295   3.906   3.504   4.804  1.4609  1.3280 -0.9517
 3888SOL     OW23296   3.753   1.076   0.519  0.1967  0.1780 -0.5846
 3888SOL    HW123297   3.748   1.170   0.537 -0.2160  0.3425 -1.5302
 3888SOL    HW223298   3.692   1.062   0.446 -0.0398  0.7270 -0.4943
 3889SOL     OW23299   4.227   2.882   5.677  0.0109 -0.1026  0.0373
 3889SOL    HW123300   4.315   2.920   5.668  0.1003 -0.0925  0.8926
 3889SOL    HW223301   4.255   2.791   5.667 -1.3831 -0.4305 -0.7371
 3890SOL     OW23302   0.690   0.659  16.868  0.5557 -0.4276 -0.3707
 3890SOL    HW123303   0.676   0.598  16.940  0.2063  0.6565  0.4736
 3890SOL    HW223304   0.631   0.636  16.796 -0.7842  2.9900 -0.3830
 3891SOL     OW23305   3.550   0.393  12.779  0.5281 -0.2751 -0.5989
 3891SOL    HW123306   3.470   0.430  12.815  1.9668  1.8491  0.3853
 3891SOL    HW223307   3.558   0.452  12.704 -1.1902  1.0926  0.2905
 3892SOL     OW23308   2.612   3.174   1.061 -0.0520  0.4027 -0.2317
 3892SOL    HW123309   2.578   3.085   1.056 -2.7240  1.2964  1.8095
 3892SOL    HW223310   2.675   3.170   1.133 -0.2058 -1.3883 -0.2048
 3893SOL     OW23311   0.075   2.759   7.252 -0.1870 -0.4740  0.3875
 3893SOL    HW123312   0.038   2.775   7.165 -1.4050 -0.9189  0.8274
 3893SOL    HW223313   0.001   2.705   7.280 -0.1415 -0.7658 -0.0523
 3894SOL     OW23314   1.445   1.836   8.300 -0.2469  0.3483 -0.2150
 3894SOL    HW123315   1.519   1.775   8.299 -0.4284  0.1171  0.3844
 3894SOL    HW223316   1.372   1.785   8.266 -0.7901  0.4313  0.8245
 3895SOL     OW23317   3.034   1.978   0.013 -0.4097  0.1890  0.1996
 3895SOL    HW123318   2.969   1.932   0.066 -2.6931  1.6969 -1.3237
 3895SOL    HW223319   3.042   2.054   0.071 -0.2225  0.7836 -0.6038
 3896SOL     OW23320   4.656   0.625   3.662  0.0816  0.6003  0.2592
 3896SOL    HW123321   4.691   0.543   3.697 -3.1861 -0.9718 -0.1828
 3896SOL    HW223322   4.715   0.655   3.593 -0.6563 -0.0027 -0.6203
 3897SOL     OW23323   1.570   3.029   3.588  0.2483  0.4328  0.4802
 3897SOL    HW123324   1.551   3.107   3.535 -1.9646  0.6997  1.6615
 3897SOL    HW223325   1.664   3.039   3.604  0.5639 -0.5997 -0.6636
 3898SOL     OW23326   3.995   2.490   4.086 -0.1780 -0.5642 -0.6570
 3898SOL    HW123327   3.937   2.537   4.027 -1.8863  0.8374  2.1209
 3898SOL    HW223328   3.929   2.451   4.143  0.1266 -1.1887 -0.7343
 3899SOL     OW23329   1.667   2.553  13.979  0.5490  0.0847  0.7474
 3899SOL    HW123330   1.730   2.544  13.907  0.1458 -1.1697  0.5469
 3899SOL    HW223331   1.726   2.572  14.052  3.4943 -0.4743 -1.4735
 3900SOL     OW23332   1.057   1.825   7.079  0.0951  0.0937 -0.1499
 3900SOL    HW123333   1.106   1.899   7.043 -1.3733  1.3472  0.4077
 3900SOL    HW223334   1.115   1.779   7.139 -1.1157 -0.0914  0.8762
 3901SOL     OW23335   1.738   0.399  12.309 -0.0085  0.1514  0.2272
 3901SOL    HW123336   1.821   0.358  12.288  0.3887  0.8600  0.4220
 3901SOL    HW223337   1.681   0.323  12.297 -0.5204  0.7397 -1.1962
 3902SOL     OW23338   1.424   0.675  17.493 -0.3105 -0.3515 -0.2106
 3902SOL    HW123339   1.487   0.687  17.564 -2.5464  1.6778  1.4243
 3902SOL    HW223340   1.381   0.760  17.489 -2.0949 -1.2028  1.0151
 3903SOL     OW23341   1.406   0.114   3.337 -0.7126 -0.2166 -0.3464
 3903SOL    HW123342   1.415   0.178   3.267 -0.8994 -0.8129 -0.9151
 3903SOL    HW223343   1.365   0.167   3.405 -0.5258  0.9592 -1.1544
 3904SOL     OW23344   0.497   3.432   5.219 -0.1768  0.2070  0.2971
 3904SOL    HW123345   0.558   3.374   5.174 -1.6590 -0.9026 -0.2693
 3904SOL    HW223346   0.479   3.486   5.142  1.1314 -1.9491 -1.5254
 3905SOL     OW23347   3.585   0.893   3.266 -0.2069  0.0082  0.5971
 3905SOL    HW123348   3.517   0.948   3.229  0.6927  0.0961 -0.8925
 3905SOL    HW223349   3.656   0.928   3.214  1.1152 -0.0354  2.3735
 3906SOL     OW23350   1.546   0.705   8.835 -0.3079  0.0484  0.3675
 3906SOL    HW123351   1.456   0.687   8.807  0.4128 -2.1469 -0.5613
 3906SOL    HW223352   1.534   0.798   8.816 -0.8239  0.3200  2.0402
 3907SOL     OW23353   3.962   3.692   1.985 -0.3948  0.0771 -0.8789
 3907SOL    HW123354   4.049   3.708   2.022 -1.9607 -1.5458  3.4989
 3907SOL    HW223355   3.969   3.703   1.890  0.0082 -1.4245 -1.0186
 3908SOL     OW23356   3.557   0.052  15.535 -0.3603 -0.1058 -0.2667
 3908SOL    HW123357   3.465   0.029  15.527 -1.0427  3.0714 -1.6275
 3908SOL    HW223358   3.550   0.148  15.540 -0.2166 -0.1184  0.1932
 3909SOL     OW23359   1.127   0.438   5.081 -0.1519  0.6008  0.1457
 3909SOL    HW123360   1.200   0.494   5.057  0.3741 -1.0927 -2.1710
 3909SOL    HW223361   1.176   0.362   5.110 -0.0840 -0.2197 -2.1298
 3910SOL     OW23362   1.386   1.005   4.955 -0.0572 -0.2532 -0.5565
 3910SOL    HW123363   1.373   0.926   4.901 -0.4807 -1.0617  0.7341
 3910SOL    HW223364   1.324   1.063   4.912 -0.5656  0.0819  0.6513
 3911SOL     OW23365   4.642   0.956   3.501  0.1541  0.0462  0.1434
 3911SOL    HW123366   4.626   0.899   3.427 -0.2477 -0.7576  0.8468
 3911SOL    HW223367   4.585   1.028   3.475  2.0228  1.2854 -0.4837
 3912SOL     OW23368   4.214   2.112   2.258  0.0303 -0.5069 -0.4150
 3912SOL    HW123369   4.239   2.030   2.216 -1.2265 -1.7645  1.3172
 3912SOL    HW223370   4.132   2.133   2.212  0.2021 -0.4782 -0.7056
 3913SOL     OW23371   2.502   1.682   7.690 -0.2718  0.0585 -0.2473
 3913SOL    HW123372   2.468   1.754   7.744  1.0364 -0.3106  1.0756
 3913SOL    HW223373   2.436   1.613   7.702 -1.0114  0.7942 -0.1135
 3914SOL     OW23374   0.443   0.181   5.325 -0.6239 -0.1253 -0.3104
 3914SOL    HW123375   0.489   0.256   5.361  0.7067 -1.2716  0.3374
 3914SOL    HW223376   0.493   0.104   5.351 -0.5353  0.3889  1.0278
 3915SOL     OW23377   1.000   3.629  11.103 -0.2502  0.1423  0.6129
 3915SOL    HW123378   1.057   3.647  11.178  1.2621 -3.3962  0.3055
 3915SOL    HW223379   0.915   3.620  11.146 -0.2606 -0.1401  0.5372
 3916SOL     OW23380   1.170   4.365  11.760 -0.0774 -0.6317  0.1687
 3916SOL    HW123381   1.229   4.301  11.720 -1.2265 -1.1664 -0.6833
 3916SOL    HW223382   1.200   4.449  11.726 -0.2785 -0.0495  1.4193
 3917SOL     OW23383   0.281   4.719   6.641 -0.5079  0.6084  0.3987
 3917SOL    HW123384   0.309   4.640   6.595 -1.4345  1.2734 -1.2988
 3917SOL    HW223385   0.216   0.034   6.590 -0.1853  0.7323  0.0987
 3918SOL     OW23386   2.217   4.133   5.511  0.5564  0.0204  0.6148
 3918SOL    HW123387   2.295   4.123   5.565  1.1083  2.0364  0.1753
 3918SOL    HW223388   2.194   4.223   5.534  0.2803  0.3476 -0.9504
 3919SOL     OW23389   3.956   0.476   8.254  0.1271 -0.3870  0.0060
 3919SOL    HW123390   3.947   0.462   8.348 -0.2937  0.3063  0.0719
 3919SOL    HW223391   3.876   0.526   8.241  0.1641 -0.7026 -1.4318
 3920SOL     OW23392   2.734   0.073   6.752 -0.2768  0.4827  0.5573
 3920SOL    HW123393   2.788   0.142   6.712 -0.4259 -1.7853 -3.5062
 3920SOL    HW223394   2.767   0.072   6.842  0.2318  1.8845  0.3871
 3921SOL     OW23395   1.224   2.987  15.406 -0.0683 -0.0633  0.2904
 3921SOL    HW123396   1.258   3.071  15.436  1.8798 -1.5872  2.4005
 3921SOL    HW223397   1.243   2.937  15.486  1.4099  1.9848  1.2133
 3922SOL     OW23398   1.326   0.110   6.561 -0.2131 -0.0362  0.0648
 3922SOL    HW123399   1.255   0.100   6.625 -0.6824 -3.2297 -0.9502
 3922SOL    HW223400   1.358   0.019   6.565 -0.1254  0.0761  2.0905
 3923SOL     OW23401   2.716   4.054   0.215  0.5031  0.0377 -0.4830
 3923SOL    HW123402   2.685   4.043   0.305  1.9367 -0.2496 -0.0211
 3923SOL    HW223403   2.639   4.096   0.176  0.1790 -0.6412 -0.5632
 3924SOL     OW23404   4.435   1.608   8.266 -0.5306  0.1920 -0.5573
 3924SOL    HW123405   4.370   1.579   8.329 -0.0927 -1.2149 -0.7620
 3924SOL    HW223406   4.466   1.530   8.220 -1.1525 -1.4897  1.8986
 3925SOL     OW23407   1.329   0.418   8.281  0.7683  0.0656 -0.4624
 3925SOL    HW123408   1.309   0.467   8.361  2.4420  0.7722 -0.4658
 3925SOL    HW223409   1.352   0.481   8.212 -1.8889  2.0486  0.4652
 3926SOL     OW23410   1.758   0.354   2.106  0.9480  0.0188 -0.3859
 3926SOL    HW123411   1.748   0.323   2.196  1.1554  0.6319 -0.1482
 3926SOL    HW223412   1.782   0.446   2.120 -2.2638  1.0389 -1.5187
 3927SOL     OW23413   0.626   4.049   2.577  0.0789  0.1675 -0.1057
 3927SOL    HW123414   0.633   4.111   2.504 -0.5350 -0.7876 -0.9891
 3927SOL    HW223415   0.586   3.979   2.524 -0.2510 -1.7052  2.6424
 3928SOL     OW23416   1.647   1.336   4.758  0.4064  0.2777 -0.3590
 3928SOL    HW123417   1.695   1.324   4.841 -1.7826 -1.3816  0.6868
 3928SOL    HW223418   1.629   1.429   4.748 -1.3060  0.2251  2.1063
 3929SOL     OW23419   3.219   1.673   2.518 -0.7300  0.4234  0.3696
 3929SOL    HW123420   3.238   1.665   2.424 -0.8667 -3.4388  0.6731
 3929SOL    HW223421   3.162   1.750   2.513  0.5522  1.1469 -3.2025
 3930SOL     OW23422   3.773   0.210   9.596  0.2150 -0.1086  0.0252
 3930SOL    HW123423   3.727   0.156   9.661 -0.2609 -0.1343 -0.3321
 3930SOL    HW223424   3.760   0.297   9.634  1.3588  0.1315 -0.1372
 3931SOL     OW23425   0.888   2.719  10.489 -0.2162 -0.2116  0.4929
 3931SOL    HW123426   0.864   2.811  10.478  0.1090 -0.2218 -0.3025
 3931SOL    HW223427   0.865   2.702  10.580  0.8936  1.8442  1.1395
 3932SOL     OW23428   4.384   2.115   4.351 -0.0134  0.7998 -0.0374
 3932SOL    HW123429   4.410   2.108   4.443  2.2469 -1.3773 -0.8444
 3932SOL    HW223430   4.435   2.040   4.321  0.5867  1.5591 -0.8989
 3933SOL     OW23431   0.864   1.682   3.423 -0.5541 -0.1347  0.7142
 3933SOL    HW123432   0.807   1.606   3.427 -0.5545 -0.2290 -1.0340
 3933SOL    HW223433   0.877   1.689   3.328 -0.6090  1.3851  0.8206
 3934SOL     OW23434   4.400   4.612   0.784  0.0650  0.2733 -0.0627
 3934SOL    HW123435   4.458   4.603   0.708  0.5989 -3.4957  0.8235
 3934SOL    HW223436   4.458   4.577   0.852 -0.0815 -2.2055 -1.2301
 3935SOL     OW23437   4.622   0.219  14.510 -0.2340 -0.5360 -0.4311
 3935SOL    HW123438   4.599   0.127  14.523 -1.4470 -0.1523  0.1485
 3935SOL    HW223439   4.596   0.248  14.597  2.6472 -2.2280  0.9862
 3936SOL     OW23440   2.720   3.964   7.393  0.9388  0.4609 -0.4505
 3936SOL    HW123441   2.719   3.871   7.368 -0.4185  0.1830  0.6723
 3936SOL    HW223442   2.628   3.986   7.402  0.4246 -1.1448 -1.5988
 3937SOL     OW23443   3.395   1.919   1.917  0.1539  0.3599  0.3136
 3937SOL    HW123444   3.320   1.859   1.923  0.5741 -0.0988  1.0384
 3937SOL    HW223445   3.466   1.864   1.950  1.1806  0.4520 -1.7342
 3938SOL     OW23446   4.676   4.428   8.009  0.2303 -0.0668  0.2100
 3938SOL    HW123447   0.005   4.468   8.069  0.6184  0.9557 -0.8624
 3938SOL    HW223448   4.721   4.348   7.982  2.0063  0.6268  1.1684
 3939SOL     OW23449   4.384   2.758   5.085 -0.2689  0.1321 -0.6565
 3939SOL    HW123450   4.364   2.796   5.000  2.7914  1.4196 -0.8112
 3939SOL    HW223451   4.429   2.833   5.124  1.0446  1.0008 -3.8573
 3940SOL     OW23452   2.782   1.610   3.602 -0.3366 -0.0882 -0.1143
 3940SOL    HW123453   2.817   1.525   3.575 -1.5105  0.8229 -4.5061
 3940SOL    HW223454   2.837   1.681   3.567  1.6160 -1.3854  0.3195
 3941SOL     OW23455   0.502   2.673   1.713 -0.0445 -0.1042  0.3700
 3941SOL    HW123456   0.526   2.671   1.620  0.7136  0.1174  0.5598
 3941SOL    HW223457   0.531   2.585   1.737 -1.4309  0.1576  3.0312
 3942SOL     OW23458   1.624   1.251   2.601 -0.0443  0.9537 -0.3802
 3942SOL    HW123459   1.713   1.284   2.609  0.4693 -0.1739 -1.3140
 3942SOL    HW223460   1.571   1.329   2.585  2.7173  2.6077 -1.5670
 3943SOL     OW23461   3.153   0.269   6.978  0.0843  0.2829 -0.0467
 3943SOL    HW123462   3.248   0.279   6.970 -0.0022  2.0625  1.1835
 3943SOL    HW223463   3.133   0.342   7.036  1.4527 -1.8054  3.0649
 3944SOL     OW23464   2.530   2.431  16.451  0.4729  0.2135  0.4765
 3944SOL    HW123465   2.538   2.345  16.409  2.8625  0.7136 -0.0764
 3944SOL    HW223466   2.477   2.483  16.391 -0.0141 -1.9406 -0.9615
 3945SOL     OW23467   3.459   2.511   4.800 -0.2007  0.0820 -0.0167
 3945SOL    HW123468   3.529   2.554   4.750  0.5675  2.4114  3.0600
 3945SOL    HW223469   3.507   2.459   4.865 -0.3498 -1.7892 -1.3981
 3946SOL     OW23470   2.013   3.487   5.113 -0.3460 -0.4383  0.3904
 3946SOL    HW123471   1.940   3.428   5.093  1.1634 -2.3832  0.5868
 3946SOL    HW223472   1.961   3.535   5.177 -0.6725 -1.2805  0.7694
 3947SOL     OW23473   3.570   2.956   7.871 -0.3234 -0.4422 -0.1583
 3947SOL    HW123474   3.630   3.024   7.840  1.2446 -1.3197  0.9802
 3947SOL    HW223475   3.486   2.972   7.828 -1.3752 -0.8861  1.7683
 3948SOL     OW23476   2.779   0.994   6.690 -0.3168 -0.0658 -0.4506
 3948SOL    HW123477   2.693   1.015   6.727  0.0889  1.7889 -0.5900
 3948SOL    HW223478   2.785   0.903   6.720  0.8839  0.1491 -0.0610
 3949SOL     OW23479   3.004   3.752   8.477  0.2252  0.2241  0.6335
 3949SOL    HW123480   2.945   3.827   8.465  2.2248  1.3987 -1.8024
 3949SOL    HW223481   2.951   3.673   8.486  1.1339 -0.3553  0.7829
 3950SOL     OW23482   4.276   0.652   6.989  0.3193 -0.0589  0.1757
 3950SOL    HW123483   4.221   0.646   6.911 -2.2186 -0.5529  1.9852
 3950SOL    HW223484   4.333   0.727   6.973 -1.3208  1.2586  0.5176
 3951SOL     OW23485   3.919   0.941  14.983  0.5648  0.2704 -0.3459
 3951SOL    HW123486   3.913   1.000  14.907 -0.4384  0.5495 -0.0543
 3951SOL    HW223487   3.840   0.888  14.970  0.8271  0.1352 -1.3612
 3952SOL     OW23488   2.833   0.655   7.075  0.4107  0.3591  0.2086
 3952SOL    HW123489   2.813   0.568   7.038  3.3198 -0.1973 -0.0250
 3952SOL    HW223490   2.791   0.705   7.005 -0.3023 -0.4600  0.0422
 3953SOL     OW23491   4.073   0.794   8.522  0.2522 -0.5070 -0.0385
 3953SOL    HW123492   4.122   0.805   8.604  3.3805 -0.6472 -1.9060
 3953SOL    HW223493   4.102   0.867   8.468 -0.4980  1.1032  1.7222
 3954SOL     OW23494   0.266   1.241   0.993  0.5819 -0.1168  0.7618
 3954SOL    HW123495   0.196   1.179   0.972  1.9757 -0.2842 -3.4112
 3954SOL    HW223496   0.242   1.311   0.932 -0.7125 -2.1377 -1.0791
 3955SOL     OW23497   1.906   3.045   5.851 -0.0099  0.5575 -0.2201
 3955SOL    HW123498   1.972   3.112   5.834  0.6600 -0.0318  0.0411
 3955SOL    HW223499   1.832   3.097   5.881 -1.9138 -2.3828  0.1674
 3956SOL     OW23500   2.513   2.620   3.233  0.0476  0.4973 -0.5015
 3956SOL    HW123501   2.506   2.566   3.312 -1.3121 -0.0709 -0.9932
 3956SOL    HW223502   2.443   2.578   3.183 -0.6024  2.2494 -1.0511
 3957SOL     OW23503   1.838   1.485  17.425  0.2696 -0.2687 -0.1232
 3957SOL    HW123504   1.756   1.533  17.419  0.2057 -0.0256  2.9050
 3957SOL    HW223505   1.828   1.421  17.355 -1.3203 -0.7961  0.6000
 3958SOL     OW23506   1.384   0.304   2.131 -0.4553  0.0029  0.1982
 3958SOL    HW123507   1.441   0.377   2.151 -1.2430  0.7129 -0.1397
 3958SOL    HW223508   1.298   0.343   2.114 -1.2464 -2.4120 -1.4294
 3959SOL     OW23509   2.159   2.370   6.986 -0.0304 -0.5552 -0.0467
 3959SOL    HW123510   2.064   2.375   6.985  0.2046  4.0130  1.1298
 3959SOL    HW223511   2.185   2.453   6.945 -0.9643  0.1798  0.8476
 3960SOL     OW23512   0.775   2.258   9.073 -0.2878  0.4435  0.1058
 3960SOL    HW123513   0.793   2.224   9.161 -0.3117  2.4564  0.8746
 3960SOL    HW223514   0.700   2.203   9.049 -0.5374  0.1630  1.5007
 3961SOL     OW23515   2.085   2.401   8.157 -0.0944  0.5317  0.2410
 3961SOL    HW123516   2.081   2.425   8.249  0.9234 -2.0510  0.9546
 3961SOL    HW223517   2.017   2.460   8.125 -1.3916 -0.8951  0.3634
 3962SOL     OW23518   4.114   4.594   8.282  0.2775 -0.1014 -0.2388
 3962SOL    HW123519   4.101   4.650   8.358  0.6663  0.0426 -0.2775
 3962SOL    HW223520   4.155   4.659   8.225 -1.5157 -0.8805 -2.4274
 3963SOL     OW23521   0.408   4.192   4.738 -0.2882 -0.4269  0.0228
 3963SOL    HW123522   0.331   4.237   4.774 -1.3096 -0.5471 -1.9809
 3963SOL    HW223523   0.460   4.272   4.734 -1.3729  0.3048  0.6071
 3964SOL     OW23524   2.535   2.063   8.609 -0.0183  0.2497 -0.0970
 3964SOL    HW123525   2.573   2.009   8.678 -1.0415 -0.3441 -0.0018
 3964SOL    HW223526   2.603   2.038   8.546  1.0496  0.6455  0.9038
 3965SOL     OW23527   2.401   1.464  16.651 -0.6864  0.2832 -0.5649
 3965SOL    HW123528   2.324   1.454  16.595 -0.6265 -0.0255 -0.5922
 3965SOL    HW223529   2.423   1.556  16.635  2.8268 -0.4239  0.1203
 3966SOL     OW23530   2.755   0.713   6.777 -0.2287  0.5195  0.1905
 3966SOL    HW123531   2.810   0.650   6.731 -2.2376 -2.3349  1.6896
 3966SOL    HW223532   2.687   0.725   6.711  0.1502  0.5789 -0.1906
 3967SOL     OW23533   4.426   1.332   3.572  0.2973  0.7716  0.2522
 3967SOL    HW123534   4.348   1.326   3.627 -0.2460 -0.1357 -0.6288
 3967SOL    HW223535   4.484   1.285   3.632  0.6587 -1.8003 -2.1289
 3968SOL     OW23536   1.786   0.292   1.197 -0.1872  0.2980  0.0385
 3968SOL    HW123537   1.755   0.351   1.129 -1.3132  0.3284  0.5705
 3968SOL    HW223538   1.718   0.296   1.264  0.2962 -2.2358  0.7085
 3969SOL     OW23539   3.803   4.064   4.619  0.1249  0.3814  0.1318
 3969SOL    HW123540   3.884   4.097   4.581 -0.9256  1.0682 -1.5151
 3969SOL    HW223541   3.779   4.146   4.661  1.1519  0.0076  1.4558
 3970SOL     OW23542   0.418   2.734   8.534 -0.1923  0.0712  0.2735
 3970SOL    HW123543   0.411   2.642   8.509 -0.7777  0.3851 -0.7331
 3970SOL    HW223544   0.353   2.751   8.602  0.9131  3.7239  0.4512
 3971SOL     OW23545   1.320   1.983  16.606  0.2789 -0.3344  0.2164
 3971SOL    HW123546   1.280   1.897  16.596  0.2021 -0.4580  1.5250
 3971SOL    HW223547   1.338   2.003  16.514  1.0445 -0.2771  0.3802
 3972SOL     OW23548   2.309   3.816   3.246 -0.2958 -0.0315  0.7901
 3972SOL    HW123549   2.334   3.725   3.263  1.8728  0.6865  1.4736
 3972SOL    HW223550   2.388   3.858   3.282  0.6818  0.2979 -1.7334
 3973SOL     OW23551   1.013   1.372   4.559 -0.5898  0.4622 -0.6425
 3973SOL    HW123552   0.960   1.390   4.481 -0.4722 -0.5231 -0.9539
 3973SOL    HW223553   0.984   1.280   4.564  2.3171 -0.4705 -0.7191
 3974SOL     OW23554   2.670   2.567   9.642 -0.2091 -0.1430  0.8469
 3974SOL    HW123555   2.698   2.562   9.551 -0.2356 -1.0813  0.8915
 3974SOL    HW223556   2.752   2.598   9.680  1.1318 -1.3219 -1.0903
 3975SOL     OW23557   4.646   2.019   6.128 -0.1248  0.1376 -0.2587
 3975SOL    HW123558   4.660   1.926   6.112  0.5913 -0.2398  2.5831
 3975SOL    HW223559   4.674   2.024   6.219  0.5706  1.6806 -0.5502
 3976SOL     OW23560   1.846   2.334   6.015  0.0216 -0.1995 -0.4195
 3976SOL    HW123561   1.763   2.288   6.028  0.5760 -1.4231 -1.2429
 3976SOL    HW223562   1.829   2.355   5.923  2.7660 -2.2353 -1.3833
 3977SOL     OW23563   4.447   0.471   2.902 -0.2230  0.0243  0.2194
 3977SOL    HW123564   4.374   0.528   2.927 -0.0465  0.6884 -0.7677
 3977SOL    HW223565   4.485   0.525   2.833 -0.4831 -0.9705 -0.7046
 3978SOL     OW23566   2.565   3.840   9.439  0.4666  0.6671 -0.7934
 3978SOL    HW123567   2.627   3.871   9.505  1.4904 -2.6978 -0.1756
 3978SOL    HW223568   2.603   3.763   9.399 -1.0494 -1.1799  1.3110
 3979SOL     OW23569   4.325   4.233  13.807  0.2896  0.0710 -0.3146
 3979SOL    HW123570   4.269   4.156  13.798  1.8915 -1.1100 -0.1750
 3979SOL    HW223571   4.305   4.274  13.723  0.9812  0.5583 -0.2361
 3980SOL     OW23572   2.760   3.030   4.056  0.5703  0.2532 -0.1680
 3980SOL    HW123573   2.809   2.948   4.051 -0.4180 -0.5415  2.8267
 3980SOL    HW223574   2.668   3.005   4.060  0.5133  0.5224  0.2796
 3981SOL     OW23575   3.423   1.929   3.174 -0.3319 -0.6213  1.0791
 3981SOL    HW123576   3.490   1.987   3.210 -2.4192  2.9196 -0.8539
 3981SOL    HW223577   3.374   1.906   3.253  0.2515  0.5942  1.8009
 3982SOL     OW23578   2.348   2.333   5.008 -0.1286  0.1988  0.0831
 3982SOL    HW123579   2.436   2.371   5.001  0.3199 -0.6660  1.0589
 3982SOL    HW223580   2.301   2.416   5.017 -0.1729 -0.0215  1.9261
 3983SOL     OW23581   4.333   0.688  15.582  0.3770  0.3390  0.2091
 3983SOL    HW123582   4.408   0.693  15.642 -0.7354  0.6486  1.5710
 3983SOL    HW223583   4.368   0.618  15.527 -2.1939 -0.9761  0.2421
 3984SOL     OW23584   2.488   0.003  13.727 -0.5661  0.1995 -0.5547
 3984SOL    HW123585   2.394   4.729  13.741 -0.7179 -0.2955 -1.8962
 3984SOL    HW223586   2.496   0.093  13.696 -0.6960  0.4250  0.0543
 3985SOL     OW23587   2.834   0.986  12.215 -0.3884 -0.3874 -0.3143
 3985SOL    HW123588   2.850   0.897  12.247 -1.5140 -0.2433  0.6269
 3985SOL    HW223589   2.741   0.995  12.195 -0.5807  2.3179  1.7359
 3986SOL     OW23590   1.646   1.946  15.293  0.4526  0.1101 -0.0206
 3986SOL    HW123591   1.557   1.938  15.258  0.0177  3.4136  0.3662
 3986SOL    HW223592   1.630   1.972  15.384 -0.1334  0.5326 -0.2492
 3987SOL     OW23593   1.839   4.408   6.886  0.1110  0.2048  0.3497
 3987SOL    HW123594   1.837   4.435   6.978 -2.3225 -0.8311  0.5831
 3987SOL    HW223595   1.921   4.361   6.875  0.0246  0.7505 -2.4870
 3988SOL     OW23596   0.998   4.725   2.669  0.1431 -0.1220  0.0959
 3988SOL    HW123597   1.059   0.059   2.700 -0.5200  0.7154 -0.4331
 3988SOL    HW223598   1.036   4.660   2.728 -2.6978 -1.4919  0.3863
 3989SOL     OW23599   0.249   3.399  16.060  0.3432  0.6523 -0.0660
 3989SOL    HW123600   0.185   3.455  16.105  0.3247 -0.9287  1.8741
 3989SOL    HW223601   0.308   3.367  16.128 -1.5356  0.7384  1.6277
 3990SOL     OW23602   3.827   3.903   1.647  0.6919  0.1611  0.3858
 3990SOL    HW123603   3.795   3.954   1.721 -3.0823 -1.9824  0.2486
 3990SOL    HW223604   3.756   3.900   1.583  1.9609  0.5937 -1.0355
 3991SOL     OW23605   0.762   3.805   7.002 -0.2359  0.7218 -0.1296
 3991SOL    HW123606   0.668   3.791   6.990  0.0475  0.0388 -1.6228
 3991SOL    HW223607   0.751   3.864   7.076 -0.8143 -0.4163  0.6891
 3992SOL     OW23608   0.508   1.546   6.090 -0.1426  0.1245  0.4197
 3992SOL    HW123609   0.604   1.543   6.085 -0.1518 -2.2206  1.4415
 3992SOL    HW223610   0.488   1.553   6.183 -1.1078 -2.4787  0.4203
 3993SOL     OW23611   3.827   0.918   7.409  0.0941  0.2415 -0.5427
 3993SOL    HW123612   3.901   0.976   7.387  1.3555 -1.1058  0.1233
 3993SOL    HW223613   3.760   0.942   7.345  1.5768  2.6185 -1.2202
 3994SOL     OW23614   4.715   3.168   3.575 -0.4641 -0.1326 -0.1191
 3994SOL    HW123615   0.041   3.180   3.649 -1.4956 -0.0342  0.6999
 3994SOL    HW223616   4.631   3.144   3.615 -0.3553  1.0410  0.8049
 3995SOL     OW23617   3.984   3.072   3.978  0.0236  0.5485  0.1148
 3995SOL    HW123618   3.937   3.144   4.019 -0.3432  0.5786 -0.3489
 3995SOL    HW223619   4.068   3.105   3.948  0.8092  0.6187  2.4289
 3996SOL     OW23620   1.335   4.290   6.662  0.3792  0.8949  0.4655
 3996SOL    HW123621   1.400   4.286   6.592 -0.6787  0.4386 -0.4786
 3996SOL    HW223622   1.363   4.358   6.724  1.4600  0.3938  0.5219
 3997SOL     OW23623   2.377   3.926  14.583 -0.1407  0.0582  0.1470
 3997SOL    HW123624   2.291   3.959  14.609 -0.0726  1.4655 -1.3985
 3997SOL    HW223625   2.418   3.926  14.669 -1.7068 -0.7979  0.9029
 3998SOL     OW23626   4.021   2.936   7.313 -0.2275  0.3763  0.5049
 3998SOL    HW123627   3.981   2.961   7.230 -0.5319 -0.3471  0.4358
 3998SOL    HW223628   4.112   2.930   7.282 -0.5767  1.6740 -0.7866
 3999SOL     OW23629   2.869   3.246   2.448  0.3831  0.2108 -0.4217
 3999SOL    HW123630   2.861   3.327   2.397 -1.8635  1.0281  1.2009
 3999SOL    HW223631   2.952   3.204   2.426  0.4903  0.3666 -0.3193
 4000SOL     OW23632   1.513   1.879   8.894 -0.4822  0.5410 -0.0243
 4000SOL    HW123633   1.482   1.969   8.896  1.1891  1.1384 -0.3786
 4000SOL    HW223634   1.557   1.875   8.809  0.5801 -1.0124  0.5900
 4001SOL     OW23635   2.671   3.582   8.127 -0.0696 -0.3101  0.3214
 4001SOL    HW123636   2.722   3.502   8.142  1.0756  0.4225  0.3342
 4001SOL    HW223637   2.585   3.548   8.151 -0.1244 -1.2834 -1.2314
 4002SOL     OW23638   1.279   0.244   5.234  0.2295  0.7499 -0.4280
 4002SOL    HW123639   1.224   0.205   5.302 -1.8213  0.5936 -2.1711
 4002SOL    HW223640   1.296   0.168   5.178  0.0587 -0.6343  1.4255
 4003SOL     OW23641   3.056   4.363   5.395  0.3069  0.0880  0.0359
 4003SOL    HW123642   3.121   4.323   5.453  1.0977  0.9739 -0.2545
 4003SOL    HW223643   3.111   4.438   5.372  1.2675 -0.3326  0.9575
 4004SOL     OW23644   4.713   0.807  17.387 -0.3896 -0.4805  0.1989
 4004SOL    HW123645   4.657   0.872  17.429  2.3625  1.8535  0.2970
 4004SOL    HW223646   4.732   0.852  17.305 -0.1208 -1.1395 -0.1049
 4005SOL     OW23647   1.256   0.109   6.095 -0.3234 -0.0184 -0.7798
 4005SOL    HW123648   1.207   0.181   6.134 -0.7131 -0.1481 -1.0220
 4005SOL    HW223649   1.208   0.026   6.104  1.0998 -0.5863  1.5298
 4006SOL     OW23650   0.053   0.049   2.703  0.0507  0.1560  0.5935
 4006SOL    HW123651   4.699   0.061   2.741 -0.5033 -1.2438 -0.2754
 4006SOL    HW223652   0.062   4.690   2.727  0.2527 -0.4369 -1.8154
 4007SOL     OW23653   0.448   3.071   1.038  0.2590 -0.3503 -0.2746
 4007SOL    HW123654   0.436   3.149   1.092 -2.3277 -1.9613  1.4746
 4007SOL    HW223655   0.524   3.096   0.985  0.3787  0.3784  0.2565
 4008SOL     OW23656   1.296   0.663   5.470  0.5082  0.1988  0.3707
 4008SOL    HW123657   1.226   0.711   5.514 -0.0206 -2.8279  2.8503
 4008SOL    HW223658   1.353   0.736   5.447  1.7635 -0.8668  0.0828
 4009SOL     OW23659   3.444   2.272   2.912 -0.1457  0.1428 -0.0771
 4009SOL    HW123660   3.499   2.316   2.848  0.3234 -1.4183 -0.7472
 4009SOL    HW223661   3.476   2.316   2.991  0.9407 -0.3566 -0.2346
 4010SOL     OW23662   0.432   1.577  12.149  0.0876  0.1646  0.5754
 4010SOL    HW123663   0.451   1.493  12.108 -2.6870 -1.1807  2.0785
 4010SOL    HW223664   0.338   1.592  12.143 -0.3178 -1.8095  2.3882
 4011SOL     OW23665   3.963   2.195   2.138 -0.3532  0.2299 -0.1810
 4011SOL    HW123666   4.019   2.195   2.060 -1.8511 -0.0390 -1.2529
 4011SOL    HW223667   3.876   2.223   2.109 -0.3525 -0.1834 -0.6044
 4012SOL     OW23668   0.174   4.223  16.013 -0.7451  0.9041  0.0103
 4012SOL    HW123669   0.206   4.164  15.944  0.8043  3.4884 -1.4399
 4012SOL    HW223670   0.252   4.275  16.031 -0.3209 -0.0304  0.9099
 4013SOL     OW23671   1.906   1.415  17.157  0.1261  0.3699  0.3691
 4013SOL    HW123672   1.925   1.323  17.171  3.1127  0.7818 -0.9857
 4013SOL    HW223673   1.977   1.458  17.205  0.7589 -0.8205  0.4891
 4014SOL     OW23674   1.175   0.010  12.193 -0.6372 -0.2298  0.6394
 4014SOL    HW123675   1.087   4.708  12.202 -0.5350 -0.8676 -0.7312
 4014SOL    HW223676   1.196   0.026  12.285 -1.7641  0.3984  0.7783
 4015SOL     OW23677   1.258   0.826  10.688  0.3030 -0.1019  0.0236
 4015SOL    HW123678   1.212   0.861  10.611 -0.7383  0.6032  0.9740
 4015SOL    HW223679   1.203   0.845  10.764  1.0914 -1.0925  0.8414
 4016SOL     OW23680   2.760   3.890   6.854  0.1734  0.8319  0.5666
 4016SOL    HW123681   2.718   3.805   6.864  3.0483 -0.7173 -0.6675
 4016SOL    HW223682   2.766   3.919   6.945  0.2439  0.1577  0.7772
 4017SOL     OW23683   2.274   2.937   3.900 -0.2584 -1.2386 -0.7267
 4017SOL    HW123684   2.285   3.028   3.927 -1.1602 -1.8702  1.6987
 4017SOL    HW223685   2.207   2.957   3.833  2.8489 -0.8577 -3.7285
 4018SOL     OW23686   2.054   1.830   1.622 -0.1793  0.2427 -0.1836
 4018SOL    HW123687   2.008   1.901   1.575 -1.8310 -0.8308 -0.1752
 4018SOL    HW223688   2.110   1.807   1.548 -2.0890 -2.0867 -0.8878
 4019SOL     OW23689   1.787   0.792   0.982 -0.5668  0.1169  0.6828
 4019SOL    HW123690   1.748   0.750   0.905 -0.6107  0.2417  0.6364
 4019SOL    HW223691   1.728   0.867   0.990 -0.8773  0.2059 -2.2984
 4020SOL     OW23692   0.627   2.340  12.451 -0.0382  0.0818 -0.2173
 4020SOL    HW123693   0.684   2.264  12.437  0.3477  0.2169  0.6714
 4020SOL    HW223694   0.545   2.304  12.416 -1.4345  2.3558  0.7151
 4021SOL     OW23695   2.964   2.376   3.752  0.6277 -0.1837 -0.0802
 4021SOL    HW123696   2.977   2.343   3.663 -0.0178  2.5383 -1.1970
 4021SOL    HW223697   3.054   2.404   3.765 -0.0848  1.7696  0.6519
 4022SOL     OW23698   1.799   2.293  15.214 -0.4233 -0.1994  0.2584
 4022SOL    HW123699   1.798   2.382  15.250 -1.5087  0.0682 -0.4487
 4022SOL    HW223700   1.880   2.298  15.163 -0.5602  0.7545  0.1368
 4023SOL     OW23701   2.570   4.268   8.362  0.3341 -0.1800 -0.2254
 4023SOL    HW123702   2.564   4.177   8.391  1.4327 -0.3397 -0.4771
 4023SOL    HW223703   2.612   4.258   8.277  0.8314  1.2388 -0.1537
 4024SOL     OW23704   1.988   1.865  14.479  0.1632 -0.4846  0.3945
 4024SOL    HW123705   1.926   1.895  14.546 -1.4648 -0.1155 -1.2869
 4024SOL    HW223706   1.945   1.795  14.430 -1.6596  1.0873 -0.2295
 4025SOL     OW23707   3.448   2.093   4.731 -0.3553 -0.1454 -0.9200
 4025SOL    HW123708   3.524   2.124   4.779 -1.3024  0.7083  0.0110
 4025SOL    HW223709   3.480   2.023   4.673  0.2207  0.3612 -1.2151
 4026SOL     OW23710   1.113   2.343   2.562  0.1927 -0.0597 -0.3270
 4026SOL    HW123711   1.190   2.301   2.601 -1.5407 -0.6067  2.4600
 4026SOL    HW223712   1.094   2.282   2.490  2.0216 -1.6570  0.5394
 4027SOL     OW23713   2.592   0.767   7.501  0.2256  0.1072 -1.0518
 4027SOL    HW123714   2.673   0.805   7.533  0.4856 -0.8156 -0.6122
 4027SOL    HW223715   2.621   0.730   7.418  0.6270  1.2858 -1.4300
 4028SOL     OW23716   1.966   1.204  10.039 -0.3154 -0.1704 -0.2400
 4028SOL    HW123717   1.968   1.110  10.055 -0.0083  0.1042  1.3754
 4028SOL    HW223718   2.029   1.235  10.104 -2.3824 -0.2037  1.7931
 4029SOL     OW23719   3.511   1.318   3.699 -0.3254 -0.0676  0.8671
 4029SOL    HW123720   3.464   1.357   3.626  2.0983  1.9742  0.4031
 4029SOL    HW223721   3.512   1.225   3.676  0.3593  0.2232 -0.2555
 4030SOL     OW23722   3.135   1.625   8.088  0.3459 -0.0449  0.0690
 4030SOL    HW123723   3.058   1.599   8.038  0.5749  0.5469 -0.5913
 4030SOL    HW223724   3.147   1.719   8.082 -0.8328  0.1994  1.7157
 4031SOL     OW23725   1.834   4.525   5.967  0.7982 -0.2418  0.1720
 4031SOL    HW123726   1.896   4.576   5.914  0.7153 -1.2666 -0.8946
 4031SOL    HW223727   1.829   4.587   6.040  1.1037 -1.9187  1.6015
 4032SOL     OW23728   0.947   1.994   8.965  0.0963  0.4263 -0.0023
 4032SOL    HW123729   0.894   1.964   8.891 -1.0533 -0.2701  1.1038
 4032SOL    HW223730   0.888   2.012   9.039  0.4579 -0.2327  0.4474
 4033SOL     OW23731   0.759   0.516   2.386  0.4615 -0.1850 -0.4000
 4033SOL    HW123732   0.728   0.450   2.448  1.7195 -1.6153 -1.3079
 4033SOL    HW223733   0.727   0.482   2.303  0.0216  1.4762 -0.9159
 4034SOL     OW23734   3.196   3.660  12.142 -0.2717  0.0751 -0.2570
 4034SOL    HW123735   3.192   3.754  12.128 -1.8290 -0.2172 -1.7825
 4034SOL    HW223736   3.130   3.659  12.211  0.3256 -0.7717  0.3067
 4035SOL     OW23737   4.084   1.692   8.090 -0.1197 -0.0782 -0.3137
 4035SOL    HW123738   4.072   1.729   8.002  1.4462 -0.3724 -0.6401
 4035SOL    HW223739   3.997   1.715   8.122 -0.1657 -1.2026  0.3898
 4036SOL     OW23740   3.387   2.341  15.578 -0.1781  0.0310 -0.3612
 4036SOL    HW123741   3.445   2.389  15.636  0.3268  0.6931 -1.4018
 4036SOL    HW223742   3.305   2.383  15.605 -0.6394 -0.5855 -0.7836
 4037SOL     OW23743   0.315   0.693   4.049  0.2362  0.0603  0.6846
 4037SOL    HW123744   0.396   0.668   4.005 -0.1241 -0.8188  0.5043
 4037SOL    HW223745   0.245   0.638   4.013  0.9590  0.4866 -1.3608
 4038SOL     OW23746   0.564   1.928  17.578  0.3492  0.2317  0.0678
 4038SOL    HW123747   0.605   2.011  17.600 -0.3786  0.7992 -0.7062
 4038SOL    HW223748   0.589   1.923  17.486 -1.3409  1.9596 -0.5012
 4039SOL     OW23749   2.355   1.966   7.526 -0.2273  0.0131  1.0267
 4039SOL    HW123750   2.356   1.920   7.442  0.2187 -0.5790  1.3583
 4039SOL    HW223751   2.441   2.009   7.526  0.0720 -0.5785 -1.4052
 4040SOL     OW23752   4.665   0.913   0.421  0.0549  0.2789  0.2072
 4040SOL    HW123753   4.729   0.876   0.360 -0.1121  0.7498 -0.2577
 4040SOL    HW223754   4.586   0.871   0.388 -0.6624  0.6521  1.4554
 4041SOL     OW23755   1.410   3.096  15.594 -0.3938  0.3246 -0.2931
 4041SOL    HW123756   1.457   3.176  15.572  0.0235  0.1101 -0.1860
 4041SOL    HW223757   1.342   3.122  15.656 -0.5597  2.1178 -1.2403
 4042SOL     OW23758   2.436   2.768   5.949 -0.7714 -0.1460  0.2814
 4042SOL    HW123759   2.404   2.705   5.884 -1.7774 -0.2965  0.9196
 4042SOL    HW223760   2.419   2.710   6.023 -1.6058  0.7759  0.8085
 4043SOL     OW23761   2.793   1.777   3.118 -0.1518  0.2594  0.4738
 4043SOL    HW123762   2.791   1.744   3.029  1.1137  0.1770  0.4764
 4043SOL    HW223763   2.809   1.698   3.170  1.3768  0.2076 -0.0894
 4044SOL     OW23764   3.175   0.367   5.062  0.6784  0.0656 -0.3242
 4044SOL    HW123765   3.201   0.276   5.067 -1.6990 -0.5654  0.5446
 4044SOL    HW223766   3.080   0.354   5.066  0.6531  0.4784  0.3834
 4045SOL     OW23767   3.784   2.863   4.906 -0.7545  0.2809  0.0380
 4045SOL    HW123768   3.861   2.893   4.857 -0.6936 -0.8599 -0.5587
 4045SOL    HW223769   3.716   2.904   4.853 -0.3187 -0.4078 -1.0534
 4046SOL     OW23770   0.374   3.088   5.097  0.0832  0.3611  0.0334
 4046SOL    HW123771   0.446   3.151   5.091  0.5711 -0.5158 -3.7678
 4046SOL    HW223772   0.322   3.108   5.019  0.0896  1.2752  0.2726
 4047SOL     OW23773   1.804   3.083  14.662  0.1177  0.0620  0.3877
 4047SOL    HW123774   1.838   3.170  14.684  1.0729  0.0631 -1.0847
 4047SOL    HW223775   1.882   3.036  14.692  1.3243  0.4106 -2.1882
 4048SOL     OW23776   0.072   1.598   5.509 -0.3928  0.1257 -0.0525
 4048SOL    HW123777   4.710   1.606   5.515 -0.4557  0.5892 -1.6304
 4048SOL    HW223778   0.092   1.588   5.416  1.6605 -2.0035  0.6305
 4049SOL     OW23779   3.832   3.933   8.991  0.1857  0.2227 -0.3476
 4049SOL    HW123780   3.839   3.860   8.929  1.0105 -1.7165  2.0163
 4049SOL    HW223781   3.808   4.001   8.928 -4.4535  0.6330  1.8710
 4050SOL     OW23782   4.126   2.413   9.423 -0.2410  0.4083 -0.3010
 4050SOL    HW123783   4.159   2.468   9.352 -0.6151 -0.1178 -0.8844
 4050SOL    HW223784   4.035   2.439   9.431 -0.0258  0.9886  0.2901
 4051SOL     OW23785   0.628   1.820   4.933 -0.2665  0.1019 -0.2316
 4051SOL    HW123786   0.543   1.805   4.891  0.1145 -0.7260 -0.7232
 4051SOL    HW223787   0.658   1.739   4.975 -0.1695  0.8938  1.1994
 4052SOL     OW23788   0.529   3.399   6.816  0.0480 -0.0663 -0.1321
 4052SOL    HW123789   0.612   3.435   6.784  1.8978 -3.0777  1.2257
 4052SOL    HW223790   0.519   3.317   6.767 -0.0302 -0.8594  1.2071
 4053SOL     OW23791   4.669   3.903  13.201 -0.7202 -0.3789 -0.5009
 4053SOL    HW123792   4.602   3.939  13.144  0.8777  1.4733 -1.2403
 4053SOL    HW223793   4.642   3.812  13.192 -3.0506  0.2629  0.2065
 4054SOL     OW23794   3.043   0.801  16.633  0.5091 -0.1058 -0.3553
 4054SOL    HW123795   3.126   0.756  16.649  0.1767 -0.0799  1.4721
 4054SOL    HW223796   3.018   0.800  16.726  0.0973  2.7607 -0.4334
 4055SOL     OW23797   0.308   3.635   8.615 -0.0076  1.0128  0.3690
 4055SOL    HW123798   0.365   3.582   8.558  0.1550  0.2840  1.1907
 4055SOL    HW223799   0.375   3.692   8.652 -0.6721  1.6330  0.6004
 4056SOL     OW23800   4.571   1.825  14.204  0.6545 -0.0216 -0.0788
 4056SOL    HW123801   4.547   1.821  14.297  1.5434  0.3125  0.1726
 4056SOL    HW223802   4.611   1.738  14.196 -0.9067 -0.8075  0.7057
 4057SOL     OW23803   2.499   2.983   2.578  0.0812 -0.7601  0.4935
 4057SOL    HW123804   2.436   3.046   2.612  0.0312 -0.8324  0.5356
 4057SOL    HW223805   2.532   2.948   2.660  2.0621  0.1291  0.0690
 4058SOL     OW23806   1.389   4.540  12.409 -0.1530  0.1521 -0.2330
 4058SOL    HW123807   1.422   4.515  12.496 -0.5253 -2.4214 -0.8401
 4058SOL    HW223808   1.322   4.474  12.391  0.8625 -0.2467 -2.5739
 4059SOL     OW23809   0.470   3.398   5.485  0.0131 -0.1777 -0.1507
 4059SOL    HW123810   0.509   3.311   5.493  0.3938  0.0799  0.9027
 4059SOL    HW223811   0.475   3.401   5.390 -0.4444 -0.4883 -0.1794
 4060SOL     OW23812   1.554   1.671   3.602 -0.0298 -0.1470 -1.0327
 4060SOL    HW123813   1.562   1.650   3.509  1.5516  2.3870 -1.4641
 4060SOL    HW223814   1.647   1.675   3.623 -0.3942  1.7663  0.3170
 4061SOL     OW23815   1.047   3.306   6.735  0.2237  0.3610  0.7561
 4061SOL    HW123816   1.013   3.247   6.802  0.9124 -1.2168 -0.2887
 4061SOL    HW223817   1.110   3.355   6.787  1.3525  0.5468 -0.7805
 4062SOL     OW23818   3.999   2.281  11.932 -0.1831 -0.2216 -0.8397
 4062SOL    HW123819   3.996   2.209  11.995 -0.9393 -0.2537 -0.9131
 4062SOL    HW223820   3.959   2.353  11.980  2.0375 -0.3906  1.2787
 4063SOL     OW23821   4.697   1.048   5.024 -0.4989 -0.0073  0.6737
 4063SOL    HW123822   4.627   1.009   4.971  0.5491 -0.2247 -0.5397
 4063SOL    HW223823   4.690   1.001   5.107  0.0263  1.9289  1.8167
 4064SOL     OW23824   4.205   0.877   6.330  0.0438 -0.2240  0.0395
 4064SOL    HW123825   4.119   0.887   6.370 -0.9371  0.5766 -2.3139
 4064SOL    HW223826   4.248   0.803   6.373 -0.6090  0.2786  1.5434
 4065SOL     OW23827   1.096   0.423   4.480  0.1521 -0.0755  0.4530
 4065SOL    HW123828   1.074   0.372   4.559  1.5680  0.9572  1.5310
 4065SOL    HW223829   1.045   0.385   4.409  0.6907 -0.7111  0.3984
 4066SOL     OW23830   4.110   0.915   7.297 -0.2850 -0.0440  0.0399
 4066SOL    HW123831   4.132   0.903   7.390 -0.3406 -2.1153 -0.2185
 4066SOL    HW223832   4.200   0.897   7.270 -0.3771 -1.9724  0.9688
 4067SOL     OW23833   3.801   2.862   7.089 -0.5746 -0.2784  0.3112
 4067SOL    HW123834   3.785   2.803   7.016  0.4436 -0.4901  0.2554
 4067SOL    HW223835   3.796   2.807   7.167 -1.4189  0.2854  0.6587
 4068SOL     OW23836   4.687   0.523  15.268  0.3336 -0.2481 -0.8397
 4068SOL    HW123837   0.017   0.574  15.218 -0.0110  1.3174  0.3360
 4068SOL    HW223838   4.703   0.562  15.354 -1.4651 -2.1477  0.3404
 4069SOL     OW23839   1.215   4.240  13.651  0.3216 -0.3975 -0.3353
 4069SOL    HW123840   1.275   4.179  13.610  0.5891 -1.3216  1.4551
 4069SOL    HW223841   1.150   4.185  13.695 -0.8617  1.1556 -0.1179
 4070SOL     OW23842   2.704   2.120  10.770 -0.8547  0.2599 -0.5503
 4070SOL    HW123843   2.636   2.067  10.811 -0.0368 -0.4263 -0.0700
 4070SOL    HW223844   2.784   2.096  10.817  1.2129  0.4231 -3.9477
 4071SOL     OW23845   1.064   2.989   3.148  0.2477  0.2267 -0.1855
 4071SOL    HW123846   0.971   2.985   3.172  0.1600 -2.7852 -0.8953
 4071SOL    HW223847   1.093   2.900   3.169  0.9489  0.1218 -1.5837
 4072SOL     OW23848   1.716   1.161  11.586 -0.3672  0.0792 -0.1681
 4072SOL    HW123849   1.660   1.230  11.549 -0.0811  1.7460  2.4586
 4072SOL    HW223850   1.714   1.105  11.509  0.9124  1.6823 -1.3730
 4073SOL     OW23851   1.806   0.741   9.946 -0.4543  0.3037 -0.0477
 4073SOL    HW123852   1.832   0.691   9.868  1.2204  1.2159 -0.0551
 4073SOL    HW223853   1.716   0.761   9.919 -0.2065  2.6988  0.9559
 4074SOL     OW23854   1.717   4.348  12.318  0.0695  0.2695  0.2694
 4074SOL    HW123855   1.705   4.284  12.247  0.3033  1.8191 -1.1695
 4074SOL    HW223856   1.806   4.328  12.346  1.0842  0.9479 -2.4736
 4075SOL     OW23857   4.174   0.070  12.848 -0.0924  0.2461 -0.4001
 4075SOL    HW123858   4.127   4.733  12.894  0.2172  0.1281 -0.2620
 4075SOL    HW223859   4.166   0.040  12.758 -1.2131 -0.3724 -0.0906
 4076SOL     OW23860   2.744   2.345   1.360  0.1750  0.0812  0.4219
 4076SOL    HW123861   2.678   2.392   1.410 -0.8371 -0.3794 -0.4869
 4076SOL    HW223862   2.814   2.409   1.358  1.7209 -1.5802  0.9785
 4077SOL     OW23863   2.141   3.740   4.180 -0.4000  0.1098  0.2396
 4077SOL    HW123864   2.050   3.761   4.160 -1.0275 -4.0137 -1.3526
 4077SOL    HW223865   2.145   3.726   4.275  1.7813 -1.0352 -0.0196
 4078SOL     OW23866   3.236   0.522   9.870  0.1084 -0.3950 -0.0238
 4078SOL    HW123867   3.144   0.507   9.850  0.1339  1.0786 -1.2643
 4078SOL    HW223868   3.272   0.456   9.810 -1.8145 -0.0367 -1.5484
 4079SOL     OW23869   2.025   1.929  16.403 -0.0683  0.3658  0.3482
 4079SOL    HW123870   2.058   1.887  16.324 -0.4335 -1.1016  0.9820
 4079SOL    HW223871   1.953   1.875  16.434  0.1619  1.5243  2.9372
 4080SOL     OW23872   2.458   3.044  10.188  0.6760 -0.0402 -0.4561
 4080SOL    HW123873   2.399   2.981  10.228 -0.9640  0.5242 -1.9665
 4080SOL    HW223874   2.398   3.118  10.178  2.0831  1.1987  0.2807
 4081SOL     OW23875   0.376   1.789   6.009 -0.1267  0.3671  0.2415
 4081SOL    HW123876   0.430   1.710   6.013 -0.3714  0.1643 -0.5074
 4081SOL    HW223877   0.370   1.804   6.103 -2.6809  0.1930  0.1176
 4082SOL     OW23878   2.326   1.810  14.646  0.0127 -0.2770  0.6304
 4082SOL    HW123879   2.303   1.870  14.716  1.6125  0.5516  0.4469
 4082SOL    HW223880   2.325   1.722  14.684  0.7771 -0.9327 -0.8696
 4083SOL     OW23881   1.482   2.476   5.648  0.2759  0.4374  0.0066
 4083SOL    HW123882   1.427   2.441   5.718 -0.1926  0.0509 -0.5565
 4083SOL    HW223883   1.478   2.411   5.578 -0.9357  1.0219 -0.4505
 4084SOL     OW23884   3.435   2.396   7.123  0.0613  0.1561  0.5456
 4084SOL    HW123885   3.369   2.335   7.089  1.8646 -1.6236  0.2144
 4084SOL    HW223886   3.505   2.390   7.058 -1.4306  0.4182 -1.0964
 4085SOL     OW23887   3.950   0.188  13.120 -0.0440 -0.3894  0.1612
 4085SOL    HW123888   4.009   0.253  13.081 -1.7890  2.1591  1.7536
 4085SOL    HW223889   3.884   0.167  13.054  1.2355  0.8093 -1.5279
 4086SOL     OW23890   0.842   2.286   0.612 -0.2457 -0.0909  0.1686
 4086SOL    HW123891   0.844   2.266   0.519 -0.3087 -0.1741  0.1858
 4086SOL    HW223892   0.834   2.382   0.610  0.3978 -0.0919 -1.8580
 4087SOL     OW23893   2.165   0.581  11.518  0.3900  0.5011 -0.5625
 4087SOL    HW123894   2.081   0.597  11.561  0.2262  0.0485 -0.7078
 4087SOL    HW223895   2.193   0.672  11.521  1.2160  0.3892 -4.3266
 4088SOL     OW23896   3.259   1.522   8.323  0.1486  0.5247  0.3559
 4088SOL    HW123897   3.227   1.545   8.236 -1.1753 -0.5326  0.5556
 4088SOL    HW223898   3.176   1.523   8.371 -0.1201  3.0249 -0.1710
 4089SOL     OW23899   0.504   0.903   7.564 -0.0961  0.3903 -0.4555
 4089SOL    HW123900   0.421   0.906   7.611  0.1007  1.3525 -0.1742
 4089SOL    HW223901   0.549   0.834   7.613  0.8625 -0.7235 -2.8767
 4090SOL     OW23902   2.500   2.856   2.876 -0.2546 -0.0591 -0.1403
 4090SOL    HW123903   2.476   2.947   2.895 -0.5171 -0.2146  0.2688
 4090SOL    HW223904   2.588   2.857   2.915  0.9750  1.8257 -2.9313
 4091SOL     OW23905   1.266   3.763   5.562 -0.0139 -0.2546 -0.2997
 4091SOL    HW123906   1.326   3.826   5.521  0.4777 -0.0080  0.8030
 4091SOL    HW223907   1.298   3.681   5.525  0.3926  0.6168 -1.9030
 4092SOL     OW23908   3.200   1.773   9.080  0.3667 -0.7920  0.5161
 4092SOL    HW123909   3.123   1.736   9.037  0.9064  1.5943 -2.5242
 4092SOL    HW223910   3.160   1.797   9.163 -0.0643 -0.6611  0.2680
 4093SOL     OW23911   4.715   1.302   0.780 -0.3511  1.1651 -0.3873
 4093SOL    HW123912   4.675   1.280   0.863  1.3500  0.6221  0.2902
 4093SOL    HW223913   4.712   1.215   0.740 -0.9227 -0.2636  2.8078
 4094SOL     OW23914   1.750   2.034   9.220  0.0056 -0.5587 -0.1717
 4094SOL    HW123915   1.724   1.947   9.190  0.3805 -0.4604 -0.7735
 4094SOL    HW223916   1.698   2.089   9.162 -0.9683 -1.8990 -0.5646
 4095SOL     OW23917   2.539   4.462   7.789 -0.6218 -0.2729 -0.9858
 4095SOL    HW123918   2.593   4.452   7.711 -0.1217  0.7070 -0.7671
 4095SOL    HW223919   2.454   4.457   7.746 -0.5843 -2.4886 -0.8312
 4096SOL     OW23920   4.667   4.523   8.330  0.7154  0.3791  0.1898
 4096SOL    HW123921   4.646   4.616   8.340  0.8074  0.4669 -0.4779
 4096SOL    HW223922   0.026   4.535   8.306  0.4251  0.6296 -0.7838
 4097SOL     OW23923   4.656   0.101   4.793 -0.4062 -0.6025 -0.1638
 4097SOL    HW123924   4.696   0.032   4.740  0.9358  0.0507  0.0008
 4097SOL    HW223925   4.731   0.157   4.816 -1.1247 -0.7238  2.4805
 4098SOL     OW23926   1.618   0.631  15.476  0.3015 -0.3464  0.5159
 4098SOL    HW123927   1.616   0.711  15.528  2.2702  1.1811 -1.7766
 4098SOL    HW223928   1.526   0.610  15.460  1.0164 -3.0879  0.0188
 4099SOL     OW23929   3.273   0.385   6.657 -0.1201 -1.0032 -0.2079
 4099SOL    HW123930   3.353   0.437   6.648  0.3424 -1.7495 -0.4077
 4099SOL    HW223931   3.310   0.306   6.696 -0.6172 -0.1791  1.9701
 4100SOL     OW23932   1.598   0.092   1.917  0.2455  0.3883 -0.0585
 4100SOL    HW123933   1.679   0.076   1.869 -0.1087 -0.5819 -0.3351
 4100SOL    HW223934   1.571   0.172   1.872  0.3591  1.9661  2.6928
 4101SOL     OW23935   2.483   1.115   2.991 -0.1962  0.1377 -0.1479
 4101SOL    HW123936   2.510   1.206   3.007 -0.5380  0.1388  0.4214
 4101SOL    HW223937   2.391   1.119   3.014  0.3878  0.0309  2.1413
 4102SOL     OW23938   3.679   1.193   7.296  0.3237  0.0316 -0.4382
 4102SOL    HW123939   3.717   1.129   7.236 -0.1690 -1.3062  0.6684
 4102SOL    HW223940   3.604   1.231   7.248  0.8847  3.4073  1.3726
 4103SOL     OW23941   3.724   4.096   9.673  0.8261 -0.0931  0.0319
 4103SOL    HW123942   3.749   4.091   9.765 -1.9019  0.0155  0.7631
 4103SOL    HW223943   3.755   4.182   9.645  1.5286 -0.1922  0.5243
 4104SOL     OW23944   0.224   0.864   1.822  0.0912  0.1789  0.2872
 4104SOL    HW123945   0.304   0.900   1.858  0.6842  0.5712 -1.4494
 4104SOL    HW223946   0.217   0.786   1.878  0.8114  0.0410  0.1767
 4105SOL     OW23947   1.528   1.514   5.317  0.2764  0.1225  0.2796
 4105SOL    HW123948   1.606   1.458   5.322  0.9691  1.1294  0.8688
 4105SOL    HW223949   1.491   1.507   5.405 -1.3065 -1.3626 -0.4991
 4106SOL     OW23950   1.467   2.280  17.128  0.0676  0.0536  0.1728
 4106SOL    HW123951   1.538   2.299  17.067 -0.4930  1.1167 -0.1379
 4106SOL    HW223952   1.398   2.333  17.088  2.7379  1.7369 -2.1546
 4107SOL     OW23953   4.230   4.444   6.818 -0.1379 -0.0892  0.4986
 4107SOL    HW123954   4.219   4.535   6.793  0.3641 -0.3286 -0.5948
 4107SOL    HW223955   4.263   4.401   6.739 -3.2767 -1.9264  0.1760
 4108SOL     OW23956   1.566   1.194   1.529 -0.3137 -0.7267 -0.4454
 4108SOL    HW123957   1.543   1.101   1.538  1.4854 -0.9489  1.8152
 4108SOL    HW223958   1.496   1.226   1.472 -0.7921  0.8583  1.0486
 4109SOL     OW23959   1.419   2.550   8.674 -0.4154  0.0117 -0.2076
 4109SOL    HW123960   1.350   2.514   8.618 -1.3214  3.3457 -1.1867
 4109SOL    HW223961   1.369   2.569   8.754  0.7976 -0.8087  0.7521
 4110SOL     OW23962   0.121   0.468   9.713 -0.4701  0.2488  0.0966
 4110SOL    HW123963   0.089   0.389   9.757  3.1652 -0.6181  1.1479
 4110SOL    HW223964   0.092   0.449   9.624  3.3341  1.6562 -1.4173
 4111SOL     OW23965   3.627   0.198   2.958  0.8977 -0.0271  0.3418
 4111SOL    HW123966   3.586   0.205   2.872 -0.0026  5.4846  1.2056
 4111SOL    HW223967   3.630   0.290   2.986 -1.0878 -0.2215  1.1665
 4112SOL     OW23968   0.928   1.430   8.786  0.3063 -0.2859 -0.0319
 4112SOL    HW123969   0.945   1.408   8.694 -1.0151 -0.6438 -0.1956
 4112SOL    HW223970   0.996   1.494   8.806  0.3985 -0.7165  1.0109
 4113SOL     OW23971   3.193   4.473   9.008  0.6930 -0.7187  0.0093
 4113SOL    HW123972   3.139   4.404   9.047 -1.7752  1.0000 -0.3863
 4113SOL    HW223973   3.202   4.451   8.915 -0.8233  0.6385 -0.4601
 4114SOL     OW23974   3.160   4.011  17.451  0.1143  0.2638  0.1829
 4114SOL    HW123975   3.243   4.045  17.486 -0.5495  1.4686  0.5597
 4114SOL    HW223976   3.135   3.957  17.526  3.1265 -0.4149  0.7242
 4115SOL     OW23977   1.747   0.757   7.788 -0.4299  0.2091  0.3144
 4115SOL    HW123978   1.801   0.716   7.856  1.1112 -0.7608 -1.5043
 4115SOL    HW223979   1.665   0.725   7.826 -0.2615 -2.1552 -1.2978
 4116SOL     OW23980   1.219   4.260   7.244 -0.5534 -0.0993  0.5818
 4116SOL    HW123981   1.279   4.320   7.289 -0.0116 -0.8155  0.8096
 4116SOL    HW223982   1.285   4.215   7.190 -1.9997 -1.8447  0.2890
 4117SOL     OW23983   1.972   0.457  12.052  0.4317 -0.7596  0.4190
 4117SOL    HW123984   2.005   0.467  12.141  2.6226  0.6793 -0.5556
 4117SOL    HW223985   1.894   0.509  12.069  0.8874  0.6642 -1.8733
 4118SOL     OW23986   0.170   0.518  10.489  0.6393 -0.1066  0.0021
 4118SOL    HW123987   0.177   0.589  10.425 -1.9319  0.7920  0.7255
 4118SOL    HW223988   0.158   0.439  10.437 -3.9986  0.2835  0.4705
 4119SOL     OW23989   3.157   3.748   9.111  0.5424 -0.0861 -0.1128
 4119SOL    HW123990   3.240   3.727   9.068  1.0393  1.0985  0.2596
 4119SOL    HW223991   3.184   3.829   9.154  5.3976 -2.1407  0.6633
 4120SOL     OW23992   0.933   4.732  10.663  0.4513  0.3178  0.5789
 4120SOL    HW123993   0.866   0.054  10.703  1.1622  2.3524 -1.0622
 4120SOL    HW223994   0.996   0.058  10.623 -0.7339 -0.5524 -2.5707
 4121SOL     OW23995   0.820   0.775   8.119  0.0233 -1.2411  0.1390
 4121SOL    HW123996   0.813   0.734   8.205 -1.2239 -1.2046  0.0595
 4121SOL    HW223997   0.912   0.758   8.102  0.7070  1.7932  0.6921
 4122SOL     OW23998   0.328   3.442   6.625  0.2787 -0.2193 -0.1249
 4122SOL    HW123999   0.377   3.441   6.707 -1.7111  1.7762  1.0851
 4122SOL    HW224000   0.237   3.458   6.652  0.5887  1.4822 -0.0713
 4123SOL     OW24001   2.782   4.003  14.319 -0.2349 -0.4044 -0.0183
 4123SOL    HW124002   2.802   4.061  14.392  1.9790  0.6585 -1.4457
 4123SOL    HW224003   2.833   4.052  14.254  0.2719  0.6298  1.1667
 4124SOL     OW24004   0.028   2.279   1.490 -0.6791  0.1122 -0.5384
 4124SOL    HW124005   4.669   2.259   1.503 -0.8859 -0.7132 -3.2027
 4124SOL    HW224006   0.053   2.196   1.448  0.2798 -0.1812  0.6158
 4125SOL     OW24007   0.465   0.003  17.036 -0.3644  0.3735  0.2261
 4125SOL    HW124008   0.493   4.671  16.972  0.7540 -0.0537  1.1719
 4125SOL    HW224009   0.377   4.703  17.055  1.3434 -3.1630  1.8769
 4126SOL     OW24010   4.427   2.148   5.214  0.6173 -0.3407 -0.5159
 4126SOL    HW124011   4.340   2.107   5.205  1.0957 -1.4811  0.0122
 4126SOL    HW224012   4.443   2.136   5.308  0.7085  4.3342  0.0475
 4127SOL     OW24013   4.462   2.242   1.856  0.6678  0.2755 -0.4119
 4127SOL    HW124014   4.419   2.327   1.861 -2.0780 -0.9741 -2.7587
 4127SOL    HW224015   4.535   2.262   1.915  0.5919  0.4227 -0.3696
 4128SOL     OW24016   0.195   4.093   6.369  0.0366 -0.0121 -0.1783
 4128SOL    HW124017   0.169   4.032   6.300 -0.6252 -0.5598  0.5651
 4128SOL    HW224018   0.159   4.046   6.444  0.4226 -0.4860 -0.2939
 4129SOL     OW24019   1.729   1.668  15.760  0.7532 -0.0138 -1.0388
 4129SOL    HW124020   1.690   1.602  15.704  1.1062 -2.0509  1.1244
 4129SOL    HW224021   1.720   1.751  15.712  1.1562  1.7004  1.7971
 4130SOL     OW24022   1.270   0.886  17.489  0.2093  0.1324 -0.0040
 4130SOL    HW124023   1.281   0.968  17.442 -0.2810  1.1198  1.6054
 4130SOL    HW224024   1.199   0.905  17.550 -0.8255  0.8818 -1.4556
 4131SOL     OW24025   2.497   3.302   8.151 -0.3006  0.2112  0.1811
 4131SOL    HW124026   2.555   3.329   8.222  0.4058  2.1760 -1.1439
 4131SOL    HW224027   2.413   3.343   8.171 -0.2523  0.1408  0.5199
 4132SOL     OW24028   3.432   0.468   3.329  0.0614 -0.2508  0.7524
 4132SOL    HW124029   3.394   0.511   3.405  2.5288  0.5504  1.5081
 4132SOL    HW224030   3.477   0.535   3.279 -0.9120  0.0507  0.2746
 4133SOL     OW24031   2.968   3.613   7.153 -0.0684 -0.2453 -0.2484
 4133SOL    HW124032   3.048   3.560   7.158  0.1249  0.0474 -0.2696
 4133SOL    HW224033   3.016   3.694   7.136  2.5785 -1.6908  0.3575
 4134SOL     OW24034   2.887   2.496   3.386  0.5516 -0.0998  0.3883
 4134SOL    HW124035   2.818   2.540   3.435 -0.5375 -1.9617  0.5465
 4134SOL    HW224036   2.853   2.496   3.296 -0.2287  0.3485  0.6855
 4135SOL     OW24037   3.581   3.719   2.431 -0.9505 -0.1086 -0.3723
 4135SOL    HW124038   3.499   3.670   2.426 -1.1367  0.1676 -0.1054
 4135SOL    HW224039   3.635   3.664   2.487 -1.1275  0.6850  0.6022
 4136SOL     OW24040   0.464   2.829   7.043 -0.2982 -0.1087 -0.1474
 4136SOL    HW124041   0.424   2.742   7.032 -0.9094  0.0418  0.8461
 4136SOL    HW224042   0.553   2.798   7.060  0.4083  1.6625 -0.5711
 4137SOL     OW24043   3.829   2.516   8.093 -0.9046  0.4837  0.3031
 4137SOL    HW124044   3.794   2.603   8.073 -1.2588  0.3795  0.4754
 4137SOL    HW224045   3.770   2.461   8.041  1.0644  1.4712 -2.9261
 4138SOL     OW24046   3.834   2.459  13.115  0.7359  0.2909 -0.4202
 4138SOL    HW124047   3.789   2.432  13.195  1.1155  1.1231  0.0821
 4138SOL    HW224048   3.913   2.405  13.118 -0.0635 -0.9648 -2.1792
 4139SOL     OW24049   1.864   1.356  16.535  0.7261 -0.0551  0.2675
 4139SOL    HW124050   1.928   1.295  16.497 -1.0192  0.0443 -2.7803
 4139SOL    HW224051   1.912   1.378  16.615  2.2547  1.2321 -0.9930
 4140SOL     OW24052   3.329   4.058   2.282  0.7130 -0.2177  0.2813
 4140SOL    HW124053   3.256   4.120   2.278  0.1992 -0.8964 -0.6932
 4140SOL    HW224054   3.304   3.985   2.338 -0.3860 -0.3055 -0.3160
 4141SOL     OW24055   2.593   1.926   2.896 -0.3567 -0.0634  0.2857
 4141SOL    HW124056   2.609   1.969   2.812  0.0025  1.9858  1.4038
 4141SOL    HW224057   2.668   1.866   2.899  0.4480  1.0327  2.3486
 4142SOL     OW24058   3.319   3.431  12.096  0.0010 -0.2635 -0.5485
 4142SOL    HW124059   3.270   3.511  12.113 -1.7007 -1.0824 -1.6990
 4142SOL    HW224060   3.404   3.465  12.126  0.2132 -0.9335 -0.3784
 4143SOL     OW24061   4.293   1.776   6.589  0.0298 -0.0905  0.1181
 4143SOL    HW124062   4.251   1.745   6.670 -1.0958 -0.0057 -0.4405
 4143SOL    HW224063   4.261   1.865   6.601 -0.5275 -0.1864 -0.6324
 4144SOL     OW24064   4.509   1.138   9.731 -0.6771 -0.1055 -0.3500
 4144SOL    HW124065   4.600   1.157   9.708 -0.0438 -0.0411  2.2227
 4144SOL    HW224066   4.521   1.113   9.822 -0.7847 -2.0156 -0.8660
 4145SOL     OW24067   4.143   1.245   5.759 -0.4208 -1.0912 -0.1528
 4145SOL    HW124068   4.057   1.237   5.718 -0.8653  2.6636  0.0642
 4145SOL    HW224069   4.125   1.275   5.848  0.0931 -2.0562  0.2790
 4146SOL     OW24070   0.316   0.124  14.292  0.3790 -0.6852  0.0025
 4146SOL    HW124071   0.393   0.178  14.276  1.1065 -1.7483 -0.0641
 4146SOL    HW224072   0.269   0.188  14.347  0.5809  0.7282 -1.4574
 4147SOL     OW24073   2.400   1.673  12.621  0.4170 -0.1101 -0.2634
 4147SOL    HW124074   2.491   1.648  12.607  0.1813 -0.0322 -1.8695
 4147SOL    HW224075   2.372   1.691  12.532 -0.0135 -1.5246 -0.4061
 4148SOL     OW24076   4.194   4.365   8.137  0.1565  0.0674 -0.4103
 4148SOL    HW124077   4.143   4.430   8.186 -0.8197 -1.0311  0.0344
 4148SOL    HW224078   4.285   4.394   8.146 -0.2577  1.5378 -0.9775
 4149SOL     OW24079   0.218   4.195   8.807  0.2830 -0.5015 -0.8012
 4149SOL    HW124080   0.188   4.207   8.897 -2.3403 -0.5294 -1.6540
 4149SOL    HW224081   0.151   4.132   8.779  0.1225 -0.9156  0.5120
 4150SOL     OW24082   4.449   4.494   8.132  0.1762 -0.2430 -0.1124
 4150SOL    HW124083   4.496   4.510   8.215 -0.9716 -0.2939  0.5515
 4150SOL    HW224084   4.524   4.469   8.079  0.9611 -0.1536  0.9504
 4151SOL     OW24085   4.293   3.222  11.674 -0.0575  0.3569 -0.5648
 4151SOL    HW124086   4.369   3.236  11.731 -0.8722 -0.6779  0.7716
 4151SOL    HW224087   4.306   3.134  11.639  3.7121  1.1464 -1.1236
 4152SOL     OW24088   1.251   0.119   4.751  0.1665 -0.3848  0.4135
 4152SOL    HW124089   1.188   0.191   4.753  1.4409  0.8143 -3.0910
 4152SOL    HW224090   1.202   0.075   4.681 -0.1069 -0.7484  0.8309
 4153SOL     OW24091   3.923   0.554   1.631 -0.2773  0.0300  0.1541
 4153SOL    HW124092   3.945   0.463   1.651 -0.9282 -0.5035 -1.6432
 4153SOL    HW224093   3.854   0.577   1.694 -1.1862  0.9666 -1.2056
 4154SOL     OW24094   3.794   2.616   3.903  0.5442  0.0562  0.1523
 4154SOL    HW124095   3.738   2.652   3.834  0.7136  0.5885  0.2946
 4154SOL    HW224096   3.809   2.697   3.951 -1.9271  1.3726 -1.2853
 4155SOL     OW24097   1.311   3.571   9.605  0.3466 -0.4445  0.4456
 4155SOL    HW124098   1.368   3.636   9.562  0.4202 -0.5496  0.3837
 4155SOL    HW224099   1.259   3.533   9.535 -0.6579  1.5421  0.0899
 4156SOL     OW24100   3.737   2.089   6.397 -0.3283  0.3195 -0.6912
 4156SOL    HW124101   3.731   2.004   6.441  1.3479  1.7150  2.2619
 4156SOL    HW224102   3.716   2.067   6.306  1.5243 -1.3577 -0.7040
 4157SOL     OW24103   2.764   2.696   5.325 -0.1934  0.2864  0.2469
 4157SOL    HW124104   2.714   2.777   5.312  0.7482  0.7302 -0.6115
 4157SOL    HW224105   2.832   2.726   5.386  0.2790 -0.6692  0.1865
 4158SOL     OW24106   0.248   3.634   4.612 -0.0070 -0.3045 -0.4520
 4158SOL    HW124107   0.308   3.655   4.540  0.9579 -0.6867  0.2486
 4158SOL    HW224108   0.186   3.575   4.569  0.0058 -1.6698  1.4286
 4159SOL     OW24109   3.393   2.629   9.220 -0.5402 -0.3247 -0.3341
 4159SOL    HW124110   3.377   2.715   9.259 -0.0509 -0.6711  0.6158
 4159SOL    HW224111   3.408   2.578   9.299 -1.3717 -2.2820 -1.4464
 4160SOL     OW24112   2.879   0.608   6.387  0.2487 -0.7087  0.1201
 4160SOL    HW124113   2.811   0.543   6.368  1.3865 -1.4666 -1.2939
 4160SOL    HW224114   2.818   0.672   6.425  1.1059  0.7524 -0.9659
 4161SOL     OW24115   3.929   4.261   4.920 -0.5805  0.2269 -0.3644
 4161SOL    HW124116   3.840   4.283   4.891 -0.3917  0.1041 -1.0429
 4161SOL    HW224117   3.922   4.240   5.013  1.0608 -1.5725 -0.6516
 4162SOL     OW24118   4.317   0.585   3.510 -0.3485 -0.2401 -0.0676
 4162SOL    HW124119   4.340   0.606   3.419 -1.3139 -0.5324 -0.3779
 4162SOL    HW224120   4.403   0.586   3.551  0.0701 -2.8499 -0.9194
 4163SOL     OW24121   2.650   4.032   2.211  0.0188  0.2211 -0.6097
 4163SOL    HW124122   2.602   4.019   2.293 -1.4811 -1.1640 -1.7090
 4163SOL    HW224123   2.596   4.097   2.167  1.1016  2.1753  0.9641
 4164SOL     OW24124   2.556   1.059  17.053 -0.1906 -0.3547 -0.1436
 4164SOL    HW124125   2.586   1.075  16.964  0.4306 -0.1502  0.1037
 4164SOL    HW224126   2.513   1.139  17.083 -1.3514 -0.6327 -1.0500
 4165SOL     OW24127   4.619   3.365   7.422  0.2009 -0.1787  0.2114
 4165SOL    HW124128   4.527   3.366   7.397  0.3724 -0.9712 -0.4551
 4165SOL    HW224129   4.650   3.437   7.367 -0.9656  0.1080 -0.0771
 4166SOL     OW24130   4.613   4.321   3.630  0.3404  0.1030  0.6808
 4166SOL    HW124131   4.644   4.289   3.715  1.4667 -2.0025 -0.5215
 4166SOL    HW224132   4.681   4.291   3.569 -0.8694  0.7175 -0.9617
 4167SOL     OW24133   0.440   3.605   5.019  0.5665 -0.0506 -0.3005
 4167SOL    HW124134   0.445   3.566   4.932 -0.2751  1.3275 -0.9521
 4167SOL    HW224135   0.501   3.677   5.001 -0.2553 -0.0194 -2.9067
 4168SOL     OW24136   1.497   0.632   7.857 -1.0167  0.1326 -0.0868
 4168SOL    HW124137   1.438   0.564   7.825 -0.9106  0.8481 -1.7932
 4168SOL    HW224138   1.459   0.654   7.942  2.2458  1.1789  1.1090
 4169SOL     OW24139   3.657   1.643  15.387  0.3244  0.0293 -0.4328
 4169SOL    HW124140   3.577   1.673  15.432 -0.8068 -0.3489 -2.1997
 4169SOL    HW224141   3.710   1.723  15.394 -0.9470  0.8293  0.1926
 4170SOL     OW24142   1.251   1.865  13.974 -0.1916 -0.2644  0.5063
 4170SOL    HW124143   1.240   1.897  14.063 -0.9064 -1.5833  0.9021
 4170SOL    HW224144   1.163   1.829  13.961 -1.2401  1.2067  3.5273
 4171SOL     OW24145   2.124   0.379   7.137  0.2057  0.1989 -0.0339
 4171SOL    HW124146   2.184   0.360   7.209 -1.4523  0.9075  1.5392
 4171SOL    HW224147   2.114   0.474   7.144 -0.8786 -0.0044  1.2220
 4172SOL     OW24148   4.554   2.969  11.638 -0.1399  0.6845 -0.7033
 4172SOL    HW124149   4.459   2.959  11.642 -0.0029 -0.8686 -1.4827
 4172SOL    HW224150   4.573   2.898  11.577  3.2343  0.9510  0.0187
 4173SOL     OW24151   2.268   4.404   2.321 -0.1975  0.3082 -0.2624
 4173SOL    HW124152   2.182   4.442   2.301 -0.1537  0.9487  0.7785
 4173SOL    HW224153   2.258   4.321   2.274 -1.5591  0.7203 -0.7018
 4174SOL     OW24154   2.616   3.197   6.288 -0.3687  0.1725  0.4644
 4174SOL    HW124155   2.536   3.163   6.248  0.1404  0.9689 -1.2372
 4174SOL    HW224156   2.627   3.129   6.354  1.6983 -1.2371 -1.3080
 4175SOL     OW24157   3.397   0.528   8.057 -0.2857 -0.4008 -0.0417
 4175SOL    HW124158   3.485   0.493   8.072  0.2496  0.8268 -0.3121
 4175SOL    HW224159   3.356   0.508   8.141  1.1378 -1.1094  0.4753
 4176SOL     OW24160   2.093   0.698   6.523 -0.1519 -0.5226  0.5282
 4176SOL    HW124161   2.042   0.735   6.451  0.0240 -0.0594  0.6391
 4176SOL    HW224162   2.178   0.743   6.515 -0.2569 -0.2275  1.1279
 4177SOL     OW24163   4.599   2.645   5.287  0.0437 -0.1194 -0.0295
 4177SOL    HW124164   4.520   2.666   5.238 -1.5376  0.1580  2.6170
 4177SOL    HW224165   4.622   2.560   5.251 -0.8439  0.2535 -1.4481
 4178SOL     OW24166   4.348   3.555   5.229 -0.4447  0.7554 -0.0593
 4178SOL    HW124167   4.414   3.534   5.163 -0.3045 -1.2891  0.7235
 4178SOL    HW224168   4.315   3.466   5.236 -1.7848  1.4858  2.7174
 4179SOL     OW24169   2.847   2.913  10.963 -0.1500 -0.3914  0.0559
 4179SOL    HW124170   2.936   2.915  10.929 -0.2821 -1.5603 -0.3430
 4179SOL    HW224171   2.803   2.961  10.893  0.1711 -0.5616 -0.2633
 4180SOL     OW24172   0.933   0.262   5.018 -0.5133 -0.1101  0.5150
 4180SOL    HW124173   0.838   0.271   5.027 -0.6578  0.8921 -2.0003
 4180SOL    HW224174   0.962   0.347   5.051 -1.8526  0.6506 -0.2542
 4181SOL     OW24175   2.572   3.689  12.167 -0.2247 -0.6182  0.1465
 4181SOL    HW124176   2.555   3.757  12.231 -1.3105 -0.9456  0.2010
 4181SOL    HW224177   2.544   3.603  12.198  0.4230 -0.7731  0.2908
 4182SOL     OW24178   1.500   0.963   9.567 -0.6832 -0.2149  0.0603
 4182SOL    HW124179   1.577   0.917   9.534 -0.1187  1.7510 -1.3469
 4182SOL    HW224180   1.506   1.044   9.518 -1.7264 -0.5049 -0.5508
 4183SOL     OW24181   4.510   4.215   0.897  0.3907 -0.4964  0.0275
 4183SOL    HW124182   4.489   4.297   0.942 -0.6248 -1.0377  0.5318
 4183SOL    HW224183   4.429   4.198   0.849 -0.7723 -1.2746  2.2759
 4184SOL     OW24184   0.820   3.590  14.098  0.1268 -0.0876  0.1432
 4184SOL    HW124185   0.849   3.508  14.138 -1.3047 -0.0948  1.1473
 4184SOL    HW224186   0.818   3.652  14.171 -0.1680 -0.8414  0.7686
 4185SOL     OW24187   0.039   1.959  16.013  0.0948 -0.2970  0.0642
 4185SOL    HW124188   4.723   1.994  16.088  0.3161 -0.0045  0.0737
 4185SOL    HW224189   0.018   2.016  15.939  0.2630 -1.2421 -0.7182
 4186SOL     OW24190   0.900   4.358   2.876 -0.1080  0.5300 -0.5910
 4186SOL    HW124191   0.970   4.385   2.936 -0.7734  0.4904  0.2102
 4186SOL    HW224192   0.960   4.319   2.813  0.2073  0.4311 -0.2310
 4187SOL     OW24193   2.312   4.377   6.683  0.3526  0.8181 -0.6558
 4187SOL    HW124194   2.351   4.457   6.719  0.3848 -0.2672  1.7818
 4187SOL    HW224195   2.388   4.336   6.642 -1.7308 -0.1547 -3.5438
 4188SOL     OW24196   2.998   2.376   6.955  0.0549 -0.2866  0.1763
 4188SOL    HW124197   3.077   2.324   6.968 -0.0474 -0.4999 -0.0718
 4188SOL    HW224198   3.037   2.451   6.911  0.3756 -1.6512 -1.8290
 4189SOL     OW24199   2.575   1.377   1.820  0.3238 -0.3675  0.3070
 4189SOL    HW124200   2.647   1.360   1.880  1.2126 -0.1315 -0.7029
 4189SOL    HW224201   2.621   1.425   1.752  1.0469  1.2997  1.9547
 4190SOL     OW24202   4.364   3.307   0.502 -0.5565  0.0713 -0.1452
 4190SOL    HW124203   4.384   3.214   0.489 -1.7212  0.0562 -1.7685
 4190SOL    HW224204   4.272   3.295   0.479 -0.1033 -1.3242 -1.2380
 4191SOL     OW24205   3.333   2.611   8.277  0.5619  0.1065  0.6282
 4191SOL    HW124206   3.272   2.657   8.218  0.7489 -0.9108 -0.3658
 4191SOL    HW224207   3.419   2.653   8.271  1.3614 -1.8102 -1.2374
 4192SOL     OW24208   4.171   3.007   1.766  0.0585  0.0235  0.3387
 4192SOL    HW124209   4.106   3.065   1.805 -1.2983 -1.9965  1.1162
 4192SOL    HW224210   4.208   3.076   1.712 -0.5632  1.3765  1.6604
 4193SOL     OW24211   1.994   0.006   4.863 -0.1916  0.0049  0.2796
 4193SOL    HW124212   2.017   0.077   4.803 -1.7183 -0.2957 -0.6880
 4193SOL    HW224213   1.941   0.052   4.928 -0.8502 -1.1017  0.5207
 4194SOL     OW24214   4.516   3.675   3.211 -0.0836 -0.8136  0.6409
 4194SOL    HW124215   4.528   3.584   3.239 -3.2030 -0.3615  3.5238
 4194SOL    HW224216   4.421   3.687   3.208  0.0341  0.2289  1.0644
 4195SOL     OW24217   1.474   2.182   8.887  0.2635  0.6709  0.6558
 4195SOL    HW124218   1.435   2.150   8.806  1.2200 -1.9990  1.2446
 4195SOL    HW224219   1.405   2.245   8.911  0.2683  1.0358 -0.3123
 4196SOL     OW24220   2.257   0.268   1.748  0.7241  0.1704 -1.1155
 4196SOL    HW124221   2.270   0.214   1.826 -3.1248  2.1292  0.9127
 4196SOL    HW224222   2.173   0.314   1.752  0.7038  0.0263  0.2053
 4197SOL     OW24223   4.429   0.412   5.942 -0.2178 -0.3880 -0.7622
 4197SOL    HW124224   4.357   0.440   5.998  1.7007  0.7053  1.1369
 4197SOL    HW224225   4.379   0.376   5.869 -1.1436  1.0591 -0.8411
 4198SOL     OW24226   1.771   0.546   5.033  0.3377 -0.2631 -0.1876
 4198SOL    HW124227   1.707   0.477   5.052 -0.1729  0.7486  1.8616
 4198SOL    HW224228   1.843   0.523   5.092 -0.4177  1.0287  1.2449
 4199SOL     OW24229   3.758   4.346   2.013  0.7184  0.2728  0.1273
 4199SOL    HW124230   3.790   4.423   1.966  3.9110 -0.5703  0.9627
 4199SOL    HW224231   3.831   4.285   2.012  1.3870  1.1345 -2.4266
 4200SOL     OW24232   1.365   1.530   9.687  0.6001  0.0027 -0.2429
 4200SOL    HW124233   1.442   1.485   9.654  0.8878  0.0610  0.3619
 4200SOL    HW224234   1.320   1.454   9.724  0.4280 -0.3054 -1.0817
 4201SOL     OW24235   4.036   3.945   2.496 -0.3817 -0.2291  0.2124
 4201SOL    HW124236   4.042   3.964   2.589  0.7820  3.8501 -0.6734
 4201SOL    HW224237   4.034   4.036   2.465 -0.8161 -0.0900  0.6566
 4202SOL     OW24238   1.136   2.275   0.614 -0.2182  0.0147 -0.8386
 4202SOL    HW124239   1.147   2.364   0.648  0.3091 -1.5052  2.9950
 4202SOL    HW224240   1.041   2.266   0.608 -0.2348  0.1181 -0.7200
 4203SOL     OW24241   0.618   1.796   6.640 -0.3897 -0.4189  0.6177
 4203SOL    HW124242   0.660   1.862   6.695 -1.3023 -0.6360  1.5667
 4203SOL    HW224243   0.558   1.849   6.587 -0.6653 -0.8221  0.5278
 4204SOL     OW24244   4.457   1.838   5.382 -0.1725  0.0648 -0.3715
 4204SOL    HW124245   4.496   1.818   5.297 -1.7825 -2.6495 -0.4397
 4204SOL    HW224246   4.545   1.847   5.418 -1.3551 -0.0951  2.5195
 4205SOL     OW24247   2.317   3.982   3.582 -0.1034 -0.0619 -0.0846
 4205SOL    HW124248   2.238   3.975   3.529  1.3499 -1.3521 -2.0593
 4205SOL    HW224249   2.284   4.020   3.664 -0.2981 -2.4035  0.9364
 4206SOL     OW24250   3.479   4.422   0.956 -0.7980 -0.0291 -0.1764
 4206SOL    HW124251   3.555   4.468   0.991 -0.8964  0.2211 -0.2965
 4206SOL    HW224252   3.411   4.465   1.008  1.6345  2.4403  0.9613
 4207SOL     OW24253   0.253   0.183   2.569  0.6818  0.0576 -0.1713
 4207SOL    HW124254   0.184   0.119   2.585  1.2777  0.1540  2.8677
 4207SOL    HW224255   0.261   0.176   2.474  1.8793  0.2080 -0.0895
 4208SOL     OW24256   3.186   1.440   5.164 -0.6198  0.0235 -0.5410
 4208SOL    HW124257   3.174   1.444   5.259  0.0460 -0.3839 -0.4323
 4208SOL    HW224258   3.281   1.451   5.158 -0.7301  0.5765 -1.3603
 4209SOL     OW24259   1.563   0.759  14.222  0.1345 -0.7767 -0.3817
 4209SOL    HW124260   1.632   0.790  14.281 -0.2132 -3.0920  1.2603
 4209SOL    HW224261   1.602   0.772  14.136  1.6423 -0.5554  0.3505
 4210SOL     OW24262   0.646   2.421   4.056 -0.5209  0.0329 -0.4045
 4210SOL    HW124263   0.666   2.503   4.012 -2.9266  1.3371  0.8829
 4210SOL    HW224264   0.630   2.442   4.148 -0.2509 -0.7421 -0.1823
 4211SOL     OW24265   2.294   0.038   7.271 -0.2612 -0.1337  0.7375
 4211SOL    HW124266   2.338   0.077   7.196 -0.2329 -0.1065  0.7682
 4211SOL    HW224267   2.274   4.685   7.235 -0.8354  0.5821 -0.6486
 4212SOL     OW24268   3.068   2.773   3.593  0.4559 -0.1624  0.1501
 4212SOL    HW124269   3.056   2.850   3.649  0.2463  3.2988 -4.6368
 4212SOL    HW224270   2.987   2.727   3.614  0.5016  1.6275  4.2772
 4213SOL     OW24271   3.629   2.147   9.676  0.0377 -0.5953  0.1358
 4213SOL    HW124272   3.619   2.122   9.767 -2.4493  1.8722  0.5796
 4213SOL    HW224273   3.714   2.108   9.657  0.8467  1.5702 -0.6669
 4214SOL     OW24274   0.010   2.072  16.270  0.3468  0.1483 -0.0073
 4214SOL    HW124275   0.063   2.147  16.299  0.7479 -0.5434  1.0446
 4214SOL    HW224276   4.678   2.058  16.339  0.2375 -0.6344 -0.2719
 4215SOL     OW24277   3.762   0.472  17.399  0.0993 -0.0802  0.1095
 4215SOL    HW124278   3.671   0.442  17.396 -0.4467  1.5700  0.4118
 4215SOL    HW224279   3.799   0.384  17.392  0.0283 -0.2116  1.3592
 4216SOL     OW24280   2.536   0.305   0.420 -0.7746  0.0451  0.0425
 4216SOL    HW124281   2.566   0.329   0.332 -1.1593  0.9135  0.1449
 4216SOL    HW224282   2.588   0.376   0.459  1.3539 -1.1238 -0.6949
 4217SOL     OW24283   1.434   3.595   3.530 -0.2170 -0.7276  0.7708
 4217SOL    HW124284   1.372   3.525   3.513 -2.4080  1.5486 -0.6120
 4217SOL    HW224285   1.424   3.603   3.625  0.8513  2.2341  0.6445
 4218SOL     OW24286   0.525   2.097  15.091  0.2508 -0.5879  0.2721
 4218SOL    HW124287   0.525   2.003  15.073 -3.0454 -0.1714 -1.8876
 4218SOL    HW224288   0.580   2.122  15.016 -0.1834 -1.4112 -0.3351
 4219SOL     OW24289   2.653   3.432   5.392 -0.3170 -0.2562 -0.3203
 4219SOL    HW124290   2.590   3.425   5.320  0.8584 -1.5664 -1.2083
 4219SOL    HW224291   2.665   3.526   5.380  1.2613 -0.6082 -1.5744
 4220SOL     OW24292   2.058   1.307   9.064  0.7286  0.3531  0.0896
 4220SOL    HW124293   2.066   1.274   9.153  0.4928  0.4288  0.1399
 4220SOL    HW224294   2.119   1.252   9.015  0.5257  1.2491 -1.1759
 4221SOL     OW24295   3.051   3.701   9.880  0.8915  0.0500  0.3035
 4221SOL    HW124296   3.143   3.724   9.895  1.4469 -2.0489  0.0089
 4221SOL    HW224297   3.046   3.618   9.833 -0.9419  0.7647 -0.7219
 4222SOL     OW24298   1.043   0.019   3.692  0.3894  0.5119 -0.8178
 4222SOL    HW124299   0.979   4.681   3.687 -0.4376  1.1445  0.8007
 4222SOL    HW224300   1.023   0.061   3.608  1.1230 -0.3218 -1.4013
 4223SOL     OW24301   2.849   3.732   5.862 -0.3901 -0.2014 -0.9725
 4223SOL    HW124302   2.874   3.785   5.938 -0.3842  0.8071 -1.6729
 4223SOL    HW224303   2.861   3.644   5.898  3.9268  0.1543 -1.5062
 4224SOL     OW24304   4.184   2.317   6.709 -0.0195 -0.5530  0.1130
 4224SOL    HW124305   4.122   2.293   6.640  1.1632  0.5617 -1.3393
 4224SOL    HW224306   4.265   2.333   6.660 -0.6101  0.9321 -0.3682
 4225SOL     OW24307   4.329   1.491   0.723  0.2195 -0.7608 -0.2933
 4225SOL    HW124308   4.369   1.493   0.809  0.6573  0.2706 -0.5155
 4225SOL    HW224309   4.316   1.398   0.709 -1.1016 -0.5963 -0.1307
 4226SOL     OW24310   1.523   2.429   4.902  0.0388  0.2351 -0.0141
 4226SOL    HW124311   1.556   2.519   4.910  0.1543  0.0972  1.0758
 4226SOL    HW224312   1.607   2.383   4.910 -1.1685 -1.8880  0.4720
 4227SOL     OW24313   3.949   0.721   6.855 -0.1396  0.0616 -0.3059
 4227SOL    HW124314   3.864   0.685   6.832 -0.1548  0.8151 -1.3943
 4227SOL    HW224315   3.927   0.767   6.936 -0.9061 -1.1176  0.1499
 4228SOL     OW24316   1.090   0.214   6.441 -0.0659  0.0159  0.5624
 4228SOL    HW124317   1.177   0.183   6.468  1.0818  1.8560 -1.0855
 4228SOL    HW224318   1.097   0.231   6.347  0.4758 -3.7558 -0.0993
 4229SOL     OW24319   2.583   2.705   6.474 -0.4684 -0.7874 -0.1681
 4229SOL    HW124320   2.621   2.653   6.403 -0.0861  0.0009 -0.5455
 4229SOL    HW224321   2.514   2.655   6.516 -2.1605  1.7727  0.0945
 4230SOL     OW24322   0.576   0.650   4.200  0.4222 -0.1916 -0.5241
 4230SOL    HW124323   0.550   0.560   4.179  0.2509  0.3635 -2.6483
 4230SOL    HW224324   0.583   0.689   4.113  0.7464  2.0825  0.5158
 4231SOL     OW24325   1.718   3.860   2.532 -0.3445 -0.8177 -0.0157
 4231SOL    HW124326   1.638   3.863   2.585 -0.0466 -0.6405  0.4319
 4231SOL    HW224327   1.675   3.851   2.447  2.3816 -0.6922 -1.4024
 4232SOL     OW24328   0.271   3.171   5.343 -0.2071  0.4013 -0.6304
 4232SOL    HW124329   0.280   3.156   5.249 -2.3849 -1.1201 -0.5801
 4232SOL    HW224330   0.198   3.233   5.346  0.0421  0.7105 -0.8591
 4233SOL     OW24331   0.590   3.841   4.949  0.5741 -0.3283 -0.1031
 4233SOL    HW124332   0.626   3.929   4.960  0.0399 -0.4823  2.8671
 4233SOL    HW224333   0.672   3.814   4.908  0.4971  0.3240 -0.6769
 4234SOL     OW24334   3.795   4.482   3.672 -0.0768 -0.1536  0.1223
 4234SOL    HW124335   3.858   4.465   3.743  0.7752 -0.5523 -0.7232
 4234SOL    HW224336   3.733   4.542   3.714 -2.3285 -0.9371 -2.1101
 4235SOL     OW24337   4.128   4.720   2.725 -0.3156 -0.7927  0.5194
 4235SOL    HW124338   4.201   4.669   2.761  1.0512  0.0667 -0.9911
 4235SOL    HW224339   4.055   4.659   2.722  1.3400 -2.7610  0.3797
 4236SOL     OW24340   4.190   1.802   9.763  0.1073 -0.0469  0.4604
 4236SOL    HW124341   4.177   1.753   9.682 -1.7364  1.0032  0.1027
 4236SOL    HW224342   4.285   1.809   9.764  0.1411 -0.1242 -1.9824
 4237SOL     OW24343   2.184   4.364   3.809 -0.2357  0.0863  0.4772
 4237SOL    HW124344   2.212   4.410   3.730 -0.7103 -1.1649 -0.4162
 4237SOL    HW224345   2.102   4.328   3.774 -0.5830  0.6774  0.6760
 4238SOL     OW24346   0.962   0.953  10.747  0.4555  0.2519  0.3920
 4238SOL    HW124347   0.908   0.933  10.671  1.8553 -1.1881 -0.2246
 4238SOL    HW224348   0.913   0.910  10.817 -1.0759 -0.8820 -1.3751
 4239SOL     OW24349   2.281   2.772  10.783 -1.0350 -0.2235  0.3088
 4239SOL    HW124350   2.267   2.748  10.874  0.6569  0.4205  0.7451
 4239SOL    HW224351   2.191   2.794  10.760 -0.1784  2.4471 -0.5039
 4240SOL     OW24352   3.410   1.595   7.662  0.1348  0.2253  0.4933
 4240SOL    HW124353   3.415   1.582   7.756 -2.4399  1.5903  0.8232
 4240SOL    HW224354   3.426   1.507   7.629 -1.1164 -0.3542  1.4601
 4241SOL     OW24355   0.641   0.033   9.641 -0.3434 -0.1139 -0.4206
 4241SOL    HW124356   0.696   4.688   9.649 -2.8055 -2.0432 -2.0980
 4241SOL    HW224357   0.706   0.102   9.658 -1.0653  0.3390  0.4752
 4242SOL     OW24358   0.885   0.038   4.372 -0.8655 -0.3709 -0.9119
 4242SOL    HW124359   0.806   0.017   4.322 -1.5146  1.8538 -0.8421
 4242SOL    HW224360   0.851   0.033   4.462  1.4224  3.0005  0.1436
 4243SOL     OW24361   1.678   0.756   6.280 -0.0021  0.0944 -0.4262
 4243SOL    HW124362   1.622   0.774   6.356 -1.1128  0.1290 -1.2666
 4243SOL    HW224363   1.614   0.767   6.210  1.6915  1.8467 -1.6787
 4244SOL     OW24364   2.074   3.511   3.996  0.3481  0.2861 -0.2284
 4244SOL    HW124365   2.061   3.599   3.961  0.9779  1.3980  2.3347
 4244SOL    HW224366   2.065   3.465   3.912  0.1436  0.0366 -0.0708
 4245SOL     OW24367   0.496   3.994   2.952  0.1312  0.2481 -0.0405
 4245SOL    HW124368   0.417   4.034   2.989  0.0339  0.3087 -0.3134
 4245SOL    HW224369   0.566   4.044   2.994 -1.1038  1.4007  0.6586
 4246SOL     OW24370   1.710   2.733  10.366  0.0560 -0.5510  0.0986
 4246SOL    HW124371   1.760   2.799  10.318 -0.2671 -0.6607 -0.3857
 4246SOL    HW224372   1.649   2.713  10.294  1.2043 -0.3193 -0.9388
 4247SOL     OW24373   2.139   0.453   5.402 -0.2715  0.5268 -0.3582
 4247SOL    HW124374   2.213   0.480   5.347 -0.6415  3.0770  0.4200
 4247SOL    HW224375   2.165   0.486   5.489  1.0989 -0.3900 -0.4114
 4248SOL     OW24376   3.686   1.483   5.602  0.3927 -0.7493 -0.1385
 4248SOL    HW124377   3.634   1.555   5.568  1.7274  0.2556 -0.0577
 4248SOL    HW224378   3.738   1.461   5.524  1.4911  0.3504  0.2772
 4249SOL     OW24379   0.986   0.031   7.017  0.5845 -0.3818 -0.3836
 4249SOL    HW124380   0.925   4.705   7.061  0.0865 -0.5947 -1.3732
 4249SOL    HW224381   1.019   0.082   7.091 -2.2676  1.9098 -0.6818
 4250SOL     OW24382   3.578   2.020  13.259  0.1364  0.8765  0.0674
 4250SOL    HW124383   3.564   1.929  13.285  3.6843  0.8376  1.8079
 4250SOL    HW224384   3.543   2.023  13.169 -0.5898 -0.6194  0.3007
 4251SOL     OW24385   2.475   3.152   4.659 -0.0525  0.1215 -0.5156
 4251SOL    HW124386   2.458   3.222   4.722  2.1105  0.3917 -0.2247
 4251SOL    HW224387   2.395   3.100   4.661  0.7896 -1.2485 -2.5151
 4252SOL     OW24388   2.897   4.360   2.197 -0.0145 -0.4337  0.1587
 4252SOL    HW124389   2.851   4.391   2.275  2.1273  1.7409  0.5739
 4252SOL    HW224390   2.888   4.434   2.138  2.9330 -0.0513  0.1626
 4253SOL     OW24391   4.138   2.324   7.673 -0.6195  0.0204 -0.5930
 4253SOL    HW124392   4.199   2.265   7.629  1.2793  0.4446  1.4875
 4253SOL    HW224393   4.118   2.393   7.610  3.2780  1.3956 -0.2674
 4254SOL     OW24394   1.184   0.876   1.630 -0.1996  0.0574  0.0331
 4254SOL    HW124395   1.128   0.901   1.704 -0.1425 -0.7182  0.3401
 4254SOL    HW224396   1.262   0.932   1.634  0.1787 -0.3608 -1.4905
 4255SOL     OW24397   0.131   2.482   6.688 -0.7397  0.5087  0.2939
 4255SOL    HW124398   0.167   2.557   6.641  2.1146 -0.4553  0.9327
 4255SOL    HW224399   0.073   2.446   6.621  1.9333  0.6668 -2.1059
 4256SOL     OW24400   2.962   2.689   5.560 -0.3323 -0.1951  0.2297
 4256SOL    HW124401   2.952   2.614   5.503  0.1031 -1.1125  1.3646
 4256SOL    HW224402   2.895   2.674   5.627  0.6980  1.3102  1.6036
 4257SOL     OW24403   0.784   2.635   1.778 -0.2804  0.5029 -0.1265
 4257SOL    HW124404   0.843   2.691   1.830 -0.2116 -0.7759  1.1824
 4257SOL    HW224405   0.710   2.692   1.760 -0.6113  0.3857  0.8644
 4258SOL     OW24406   3.347   3.300   7.293 -0.1054  0.2989 -0.6478
 4258SOL    HW124407   3.307   3.340   7.370  0.4261 -0.2551 -0.0816
 4258SOL    HW224408   3.441   3.301   7.309  0.2575  0.6091 -2.9169
 4259SOL     OW24409   2.161   2.686   3.567  0.1401 -0.2021 -0.5042
 4259SOL    HW124410   2.093   2.735   3.613  0.0067 -1.1207  0.2739
 4259SOL    HW224411   2.164   2.736   3.485  1.2820  0.5177 -0.0325
 4260SOL     OW24412   4.507   4.202   1.768 -0.1962 -0.8663 -0.7469
 4260SOL    HW124413   4.497   4.130   1.830 -1.6675  0.5358  0.6409
 4260SOL    HW224414   4.556   4.155   1.701  3.0659  1.5124 -0.0050
 4261SOL     OW24415   1.091   0.649   5.951  0.0689  0.0223  0.5284
 4261SOL    HW124416   1.130   0.564   5.932  2.2087  0.6024  2.2544
 4261SOL    HW224417   1.113   0.659   6.044  0.8703 -2.8261  0.6592
 4262SOL     OW24418   2.770   3.111   6.035 -0.0418 -0.5119  0.0908
 4262SOL    HW124419   2.747   3.021   6.058 -1.0884  0.0422  1.1635
 4262SOL    HW224420   2.719   3.166   6.094  0.4397 -0.7707  0.7501
 4263SOL     OW24421   1.471   0.046   4.240  0.2755  0.2651  0.1084
 4263SOL    HW124422   1.400   0.083   4.293 -1.7069 -0.1111 -2.2676
 4263SOL    HW224423   1.548   0.099   4.260 -1.1149  1.9968  0.8010
 4264SOL     OW24424   1.236   1.515   3.237 -0.5118  0.0705 -0.3403
 4264SOL    HW124425   1.271   1.513   3.326 -2.1025  0.8019  0.3043
 4264SOL    HW224426   1.292   1.455   3.187 -0.2892 -1.7074  2.0451
 4265SOL     OW24427   3.745   0.288   0.234 -0.3906 -0.1927  1.1299
 4265SOL    HW124428   3.695   0.357   0.278 -0.9610 -0.5410  1.0337
 4265SOL    HW224429   3.674   0.244   0.188 -0.1057  0.1409  0.3659
 4266SOL     OW24430   0.927   2.766  10.840  0.2034 -0.2982 -0.2260
 4266SOL    HW124431   0.882   2.698  10.891 -1.1319  0.1765 -0.7623
 4266SOL    HW224432   0.964   2.826  10.905 -0.6822 -0.9965  0.9465
 4267SOL     OW24433   3.859   2.201  16.319  0.0162 -0.7046  0.4008
 4267SOL    HW124434   3.850   2.289  16.356 -0.5940 -0.6897  0.2287
 4267SOL    HW224435   3.844   2.222  16.227  0.8033  2.7890  1.0681
 4268SOL     OW24436   2.660   1.328   4.039  0.5615 -0.3139 -0.2435
 4268SOL    HW124437   2.720   1.259   4.010  0.7931 -0.1687 -0.1087
 4268SOL    HW224438   2.666   1.383   3.961 -0.0894  1.5563  1.0176
 4269SOL     OW24439   4.129   0.736   1.667  0.2423 -0.5964  0.5822
 4269SOL    HW124440   4.114   0.756   1.759 -0.2966  0.5098  0.2531
 4269SOL    HW224441   4.084   0.654   1.648  0.6674 -0.3986 -1.3030
 4270SOL     OW24442   4.101   2.788  12.034 -0.5038  0.4418  0.3987
 4270SOL    HW124443   4.018   2.742  12.041  0.2477 -0.8708  0.6652
 4270SOL    HW224444   4.091   2.859  11.970  0.3939  1.2845  1.1857
 4271SOL     OW24445   1.658   0.427   0.754  0.4121 -0.1305  0.1059
 4271SOL    HW124446   1.571   0.389   0.748  0.2231  0.6447 -2.2520
 4271SOL    HW224447   1.711   0.347   0.753  0.4489 -0.1090  1.0061
 4272SOL     OW24448   1.715   1.316   5.338 -0.2209  0.4935 -0.2366
 4272SOL    HW124449   1.801   1.282   5.361 -0.2623  1.0378  0.7346
 4272SOL    HW224450   1.662   1.262   5.396 -0.2976  0.3036 -0.4807
 4273SOL     OW24451   3.020   2.418   6.579 -0.2029  0.4676 -0.1875
 4273SOL    HW124452   2.928   2.425   6.606 -1.0759 -0.3439 -3.0299
 4273SOL    HW224453   3.048   2.499   6.621 -0.0075  1.2966 -1.9545
 4274SOL     OW24454   0.256   2.618   7.020 -0.4790  0.3051  0.2153
 4274SOL    HW124455   0.190   2.553   7.044 -1.9592  1.3594 -0.9622
 4274SOL    HW224456   0.192   2.688   7.010  0.8476  1.1633 -2.1054
 4275SOL     OW24457   0.823   0.455   6.155  0.3727  0.1022 -0.5926
 4275SOL    HW124458   0.743   0.403   6.162 -0.1602  1.3755  3.0647
 4275SOL    HW224459   0.794   0.526   6.098 -2.1212 -0.0695  0.4695
 4276SOL     OW24460   1.524   1.742   6.527  0.2224  0.3515  0.3325
 4276SOL    HW124461   1.617   1.753   6.547  0.6339 -0.7952 -0.8970
 4276SOL    HW224462   1.483   1.828   6.536  1.6711  1.0141  0.5679
 4277SOL     OW24463   1.785   4.581  11.271 -0.2506  0.0976  0.0239
 4277SOL    HW124464   1.699   4.592  11.230  1.2255  0.3458 -3.0154
 4277SOL    HW224465   1.796   4.668  11.308 -0.3830  0.4813 -0.8409
 4278SOL     OW24466   0.629   3.839  13.832  0.2161 -0.0147  0.1507
 4278SOL    HW124467   0.635   3.752  13.873 -3.4250  0.3447  1.4247
 4278SOL    HW224468   0.609   3.893  13.908  0.5651 -2.1288  1.7366
 4279SOL     OW24469   0.318   1.175   7.725  0.4088  0.4014  0.3046
 4279SOL    HW124470   0.297   1.158   7.633  1.5914  0.3594  0.0418
 4279SOL    HW224471   0.346   1.266   7.714 -1.6837  0.7542 -2.1542
 4280SOL     OW24472   1.804   0.049   2.815  0.6090  0.5214 -0.3411
 4280SOL    HW124473   1.803   0.064   2.721  2.1390  0.9578 -0.2898
 4280SOL    HW224474   1.714   0.070   2.838 -0.0130 -2.3006 -0.2161
 4281SOL     OW24475   0.968   1.542   7.095  0.3183  0.0325 -0.1987
 4281SOL    HW124476   0.952   1.636   7.111  0.3126 -0.2820  1.6815
 4281SOL    HW224477   1.015   1.545   7.012  1.0464  1.1413  0.2436
 4282SOL     OW24478   2.602   2.313  11.093 -0.0211  0.1447  0.2716
 4282SOL    HW124479   2.670   2.266  11.140  1.7090  1.0017 -1.3693
 4282SOL    HW224480   2.652   2.352  11.021 -1.7790 -0.7705 -1.4465
 4283SOL     OW24481   4.407   4.467   8.748  0.4934 -0.1706  0.4422
 4283SOL    HW124482   4.489   4.451   8.703  0.7265 -0.6591  1.0363
 4283SOL    HW224483   4.345   4.446   8.678 -0.3566  0.9759  0.8365
 4284SOL     OW24484   1.705   0.175   7.564 -1.1689 -0.3644 -0.5729
 4284SOL    HW124485   1.681   0.265   7.543  1.9163  0.4839 -0.4578
 4284SOL    HW224486   1.692   0.119   7.488 -2.0728 -4.2893  2.4788
 4285SOL     OW24487   3.055   3.792  14.000  0.2745 -0.0241  0.2313
 4285SOL    HW124488   2.963   3.769  14.013 -0.1646  1.7395  0.2298
 4285SOL    HW224489   3.067   3.881  14.033 -0.1792  0.1332 -0.0267
 4286SOL     OW24490   3.845   3.870  11.839 -0.1125  0.3641 -0.1101
 4286SOL    HW124491   3.827   3.949  11.788  0.5849  0.7796  0.2829
 4286SOL    HW224492   3.928   3.842  11.800  0.9031  2.2791  0.6554
 4287SOL     OW24493   2.892   2.692  12.952 -0.2632  0.1101  0.4543
 4287SOL    HW124494   2.856   2.616  12.906 -0.1096  0.0679  0.4040
 4287SOL    HW224495   2.952   2.720  12.884  0.1943  2.4271  1.8021
 4288SOL     OW24496   0.929   2.682   6.454  0.2606  0.9241  0.1120
 4288SOL    HW124497   0.877   2.763   6.449 -0.2147  0.5894 -0.2932
 4288SOL    HW224498   0.940   2.680   6.359 -0.3820 -1.0281  0.0743
 4289SOL     OW24499   0.228   2.632   1.702  0.0406  0.1147 -0.2643
 4289SOL    HW124500   0.261   2.613   1.615  0.1886 -0.6692 -0.0325
 4289SOL    HW224501   0.299   2.689   1.733  1.1278 -0.6269 -1.4458
 4290SOL     OW24502   1.794   2.549  15.304  0.6318 -0.7476  0.1623
 4290SOL    HW124503   1.887   2.554  15.283  0.4248  0.1570 -0.5116
 4290SOL    HW224504   1.755   2.623  15.258 -1.1944 -2.0111 -0.3088
 4291SOL     OW24505   1.566   2.224   9.136 -0.2340  0.1905  0.3370
 4291SOL    HW124506   1.553   2.218   9.042 -0.8785  0.4657  0.4084
 4291SOL    HW224507   1.493   2.166   9.154  0.8900 -0.9702  1.1510
 4292SOL     OW24508   0.859   3.764   4.905  0.0328  0.0995 -0.0121
 4292SOL    HW124509   0.881   3.805   4.988  1.5109  0.8974 -0.8134
 4292SOL    HW224510   0.943   3.760   4.861  0.3703  2.5707  0.4517
 4293SOL     OW24511   3.000   0.086   6.853 -0.0433 -0.1140 -0.7287
 4293SOL    HW124512   3.044   0.016   6.902  0.2974 -1.0563 -2.3910
 4293SOL    HW224513   3.046   0.165   6.881 -0.3239 -0.0141 -0.5502
 4294SOL     OW24514   4.412   1.955   1.180 -0.3978  0.0860  0.1317
 4294SOL    HW124515   4.382   1.991   1.263  0.7741 -0.5085  0.8233
 4294SOL    HW224516   4.334   1.970   1.126 -1.0929  1.7639  1.6003
 4295SOL     OW24517   0.657   1.325   8.516  0.6846 -0.4009 -0.1479
 4295SOL    HW124518   0.603   1.343   8.439  0.9252 -0.4547 -0.3289
 4295SOL    HW224519   0.730   1.381   8.490  0.1534  0.1687 -0.4251
 4296SOL     OW24520   1.079   4.645   6.141 -0.0826 -0.4493  0.1257
 4296SOL    HW124521   0.987   4.673   6.136  0.9222  2.6261 -1.2220
 4296SOL    HW224522   1.071   4.551   6.126 -0.0221 -0.1799 -1.6037
 4297SOL     OW24523   2.013   1.483   6.668 -0.2139 -0.4816  0.1178
 4297SOL    HW124524   1.921   1.470   6.688 -0.1383 -2.3708 -0.7401
 4297SOL    HW224525   2.059   1.440   6.740 -3.0125 -0.1551  2.0574
 4298SOL     OW24526   1.684   4.119   0.380  0.0657 -0.2733 -0.1126
 4298SOL    HW124527   1.775   4.130   0.354 -0.0604  1.4978  0.2050
 4298SOL    HW224528   1.640   4.134   0.296 -3.2261 -0.4227  1.5520
 4299SOL     OW24529   0.441   3.203   3.548  0.2288  0.7337 -0.0562
 4299SOL    HW124530   0.395   3.169   3.625  3.3891  3.6969  3.2120
 4299SOL    HW224531   0.522   3.212   3.600 -0.1240 -0.1952  0.6384
 4300SOL     OW24532   3.350   2.962   6.067 -0.7254 -0.5939 -0.1278
 4300SOL    HW124533   3.255   2.950   6.061 -0.5416 -1.1545 -1.9989
 4300SOL    HW224534   3.349   3.018   6.144 -0.7330 -1.4929  0.5309
 4301SOL     OW24535   4.681   1.910   1.701 -0.1630 -0.3233 -0.3195
 4301SOL    HW124536   4.645   1.902   1.613  0.1996 -0.4398 -0.4605
 4301SOL    HW224537   4.688   1.815   1.715 -0.7526 -0.1675  0.9698
 4302SOL     OW24538   0.595   4.350   4.387 -0.2489  0.1268 -0.3048
 4302SOL    HW124539   0.666   4.357   4.323  0.8309  1.6160  1.0573
 4302SOL    HW224540   0.525   4.331   4.326 -0.0280 -0.3718 -0.4058
 4303SOL     OW24541   0.492   1.128   2.162  0.0199 -0.0059 -0.7091
 4303SOL    HW124542   0.548   1.152   2.236 -0.2613  1.3461 -0.9307
 4303SOL    HW224543   0.433   1.068   2.206 -0.1528 -0.6456 -1.8093
 4304SOL     OW24544   2.153   1.719   6.704 -0.3102 -0.2434 -0.0128
 4304SOL    HW124545   2.105   1.636   6.699 -0.1168 -0.2162 -2.0080
 4304SOL    HW224546   2.091   1.773   6.655  0.9190  1.6804  0.5871
 4305SOL     OW24547   4.277   3.544   9.535 -0.4176  0.2213 -0.5240
 4305SOL    HW124548   4.306   3.523   9.447 -0.2636  0.8898 -0.6324
 4305SOL    HW224549   4.327   3.481   9.587 -1.1398  1.1363  1.2843
 4306SOL     OW24550   1.013   1.769  14.147  0.1610 -0.7929  0.4238
 4306SOL    HW124551   0.972   1.748  14.230  0.1987  0.3947  0.7326
 4306SOL    HW224552   0.937   1.755  14.091 -0.8488 -1.0122  1.8530
 4307SOL     OW24553   4.222   3.440   2.671 -0.1741  0.1578  0.4272
 4307SOL    HW124554   4.171   3.373   2.718  0.5637 -0.5023  0.2917
 4307SOL    HW224555   4.160   3.513   2.667 -2.6916 -1.8405  2.1314
 4308SOL     OW24556   1.539   1.532   7.658  0.3729 -0.1602 -0.1248
 4308SOL    HW124557   1.607   1.475   7.624  0.4443  0.3334 -0.7952
 4308SOL    HW224558   1.472   1.467   7.681 -0.2702  0.2714 -0.7915
 4309SOL     OW24559   4.258   1.329   6.881 -0.1270 -0.3606  0.3958
 4309SOL    HW124560   4.309   1.354   6.959  1.5152 -3.1382  0.2238
 4309SOL    HW224561   4.331   1.292   6.832 -0.0911 -0.8930  0.8563
 4310SOL     OW24562   4.395   0.669   7.771  0.3756  0.3330  0.4537
 4310SOL    HW124563   4.390   0.701   7.681  1.8753  0.4708  0.4162
 4310SOL    HW224564   4.357   0.582   7.765 -0.7528  0.8279  0.4277
 4311SOL     OW24565   1.934   4.729  17.437  0.4736  0.1024 -0.0623
 4311SOL    HW124566   1.973   0.066  17.386 -1.8465  0.7525 -0.9200
 4311SOL    HW224567   2.013   4.690  17.474 -1.3763 -0.9580  2.8322
 4312SOL     OW24568   3.090   4.231   6.600  1.0564  0.0799  0.0887
 4312SOL    HW124569   3.040   4.228   6.682 -4.5349 -0.9971 -3.3984
 4312SOL    HW224570   3.067   4.148   6.560  1.4412  1.0619 -2.1441
 4313SOL     OW24571   1.110   2.316   3.611 -0.7169 -0.2227  0.0364
 4313SOL    HW124572   1.141   2.342   3.524  1.4788  0.8672  1.1487
 4313SOL    HW224573   1.025   2.278   3.586 -1.6392  1.6804  0.2849
 4314SOL     OW24574   4.696   0.521   7.131 -0.0040 -0.0957  0.0513
 4314SOL    HW124575   0.004   0.601   7.100  1.0970 -0.6892 -0.0229
 4314SOL    HW224576   0.034   0.460   7.109 -1.8058 -2.0722 -0.3045
 4315SOL     OW24577   2.885   4.135   8.759  0.2735 -0.0058  0.3950
 4315SOL    HW124578   2.803   4.104   8.720  1.1549 -0.8503 -0.7591
 4315SOL    HW224579   2.874   4.129   8.854 -0.6008 -0.3356  0.2781
 4316SOL     OW24580   4.638   2.439   6.017  0.0803 -0.1125  0.2123
 4316SOL    HW124581   4.720   2.486   6.032  0.2267 -0.5298  0.7345
 4316SOL    HW224582   4.657   2.380   5.944  2.3373  1.7650 -0.6784
 4317SOL     OW24583   2.512   2.382   0.697 -0.1846 -0.3026 -0.4065
 4317SOL    HW124584   2.563   2.460   0.675 -0.4629  0.0425  0.1679
 4317SOL    HW224585   2.427   2.397   0.657 -0.8578  0.0607  1.1656
 4318SOL     OW24586   1.260   1.308  13.413 -0.4023  0.4294 -0.5403
 4318SOL    HW124587   1.210   1.226  13.415  0.2021  0.0902  0.6854
 4318SOL    HW224588   1.201   1.371  13.454  1.0080  0.7275  1.0009
 4319SOL     OW24589   1.975   3.403  10.729  0.1164 -0.7203  0.0254
 4319SOL    HW124590   2.013   3.479  10.775  1.6968 -1.2733 -0.3706
 4319SOL    HW224591   1.948   3.350  10.804  0.8814  0.8311  1.4192
 4320SOL     OW24592   4.160   2.850   5.316 -0.4622 -0.7211  0.3162
 4320SOL    HW124593   4.124   2.934   5.288  0.0526  0.4473  3.1063
 4320SOL    HW224594   4.251   2.864   5.292  0.0291 -1.2324  1.8567
 4321SOL     OW24595   0.266   3.058   7.452 -0.1554 -0.0256 -0.4740
 4321SOL    HW124596   0.350   3.046   7.408  0.8276  0.8598  1.1757
 4321SOL    HW224597   0.223   3.097   7.376  2.7668  1.4867 -1.3652
 4322SOL     OW24598   2.478   2.052   2.499  0.2172  0.4950  0.0595
 4322SOL    HW124599   2.459   2.076   2.589 -0.2000  3.6266 -0.8820
 4322SOL    HW224600   2.528   1.971   2.511 -1.3039 -0.6162 -1.0705
 4323SOL     OW24601   2.006   3.847  16.068  0.1780 -0.1301  0.8549
 4323SOL    HW124602   1.948   3.858  15.992  1.6602  1.8054 -0.0085
 4323SOL    HW224603   2.039   3.935  16.085 -1.1607  0.3029  1.1938
 4324SOL     OW24604   4.014   3.160   9.630  0.1313 -0.1452 -0.0405
 4324SOL    HW124605   4.083   3.188   9.569  1.5382 -1.8818  0.7544
 4324SOL    HW224606   4.050   3.071   9.637  0.5464  0.2763  3.0388
 4325SOL     OW24607   1.398   4.145   2.783  0.2088  0.1473 -0.6957
 4325SOL    HW124608   1.494   4.139   2.788  0.0625 -1.6563 -0.1416
 4325SOL    HW224609   1.367   4.057   2.805  0.8526  0.1563  0.2605
 4326SOL     OW24610   1.523   0.721   8.375  0.0310 -0.3945  0.3226
 4326SOL    HW124611   1.582   0.775   8.427  1.1790 -1.2953 -0.0495
 4326SOL    HW224612   1.442   0.710   8.426 -0.3297  0.4126 -0.0654
 4327SOL     OW24613   0.921   1.071   2.486 -0.1719 -0.2069  0.1151
 4327SOL    HW124614   0.916   1.005   2.555  0.0227 -0.6820 -0.3238
 4327SOL    HW224615   1.000   1.061   2.433  1.9321  0.4565  3.0652
 4328SOL     OW24616   0.609   3.323  14.917 -0.0585 -0.3090  0.1534
 4328SOL    HW124617   0.652   3.267  14.982 -0.4683 -1.7424 -0.7902
 4328SOL    HW224618   0.649   3.409  14.928 -0.5671 -0.4013  2.7312
 4329SOL     OW24619   0.278   2.222   6.420  0.4513 -0.3348  0.1703
 4329SOL    HW124620   0.186   2.231   6.396  1.0860  1.0301 -1.7708
 4329SOL    HW224621   0.316   2.276   6.350  0.7056 -1.8158 -0.8360
 4330SOL     OW24622   1.341   2.590   4.498  0.7083 -0.4379 -0.2159
 4330SOL    HW124623   1.357   2.642   4.419 -1.6116 -0.3696 -0.6326
 4330SOL    HW224624   1.328   2.501   4.465 -0.2602 -0.9350  1.4910
 4331SOL     OW24625   2.943   2.982   8.822  0.0626  0.3122 -0.2613
 4331SOL    HW124626   2.901   3.068   8.813  1.5387  1.2614  1.9790
 4331SOL    HW224627   2.939   2.987   8.918 -0.6835 -0.2608 -0.2568
 4332SOL     OW24628   3.705   0.100   4.995  0.5937 -0.4789 -0.0822
 4332SOL    HW124629   3.754   0.089   4.914  1.0741 -2.9256  0.5536
 4332SOL    HW224630   3.639   0.161   4.963 -1.4791 -2.1866  0.8865
 4333SOL     OW24631   1.347   1.243   0.609 -0.0827  0.3019  0.4051
 4333SOL    HW124632   1.332   1.247   0.704  1.8901  1.6093  0.6764
 4333SOL    HW224633   1.438   1.275   0.604 -1.0285  3.2937  2.2257
 4334SOL     OW24634   1.919   0.876  14.762  0.5365  0.3377 -0.1263
 4334SOL    HW124635   1.922   0.813  14.834 -3.3522 -1.6848 -1.7600
 4334SOL    HW224636   1.918   0.811  14.691  1.6342 -1.8882  1.8742
 4335SOL     OW24637   4.204   0.640   1.211 -0.4024  0.2294 -0.2588
 4335SOL    HW124638   4.143   0.590   1.158  0.4200 -0.0008 -0.9948
 4335SOL    HW224639   4.142   0.687   1.267 -1.2183  2.5682 -3.1351
 4336SOL     OW24640   3.762   1.646   8.068  0.1123 -0.6280 -0.3127
 4336SOL    HW124641   3.684   1.697   8.091 -0.3549 -1.4123 -0.1440
 4336SOL    HW224642   3.732   1.562   8.103 -2.4149  0.1064 -0.7249
 4337SOL     OW24643   3.107   0.682   7.279  0.0223  0.2228  0.2325
 4337SOL    HW124644   3.185   0.696   7.225  1.0046  0.0066  1.5800
 4337SOL    HW224645   3.086   0.767   7.317 -2.9436  0.1807 -1.3588
 4338SOL     OW24646   3.229   2.963   8.830 -0.1590  0.4836  0.1930
 4338SOL    HW124647   3.223   2.876   8.869  0.5537  0.8276  1.0728
 4338SOL    HW224648   3.139   2.978   8.800  0.2609  1.5986 -0.4924
 4339SOL     OW24649   3.243   3.575   5.202  0.4639  1.0133 -0.5057
 4339SOL    HW124650   3.303   3.576   5.277  1.5916 -0.8978 -1.3645
 4339SOL    HW224651   3.293   3.508   5.154 -0.9036  0.2197 -0.8149
 4340SOL     OW24652   0.185   2.826   5.748 -0.4266 -0.5957  0.3935
 4340SOL    HW124653   0.195   2.896   5.684  1.3221 -1.9809 -0.8573
 4340SOL    HW224654   0.249   2.758   5.726 -0.4437  0.5165 -3.1752
 4341SOL     OW24655   0.098   1.058   5.682 -0.0511  0.3800 -0.7810
 4341SOL    HW124656   0.111   1.151   5.660  1.0878  0.5287  0.5557
 4341SOL    HW224657   0.011   1.041   5.645 -0.3163  1.1817 -0.5253
 4342SOL     OW24658   2.597   2.352   4.273  0.1311  0.1379  0.3950
 4342SOL    HW124659   2.656   2.277   4.264 -2.9863 -2.7062  3.5141
 4342SOL    HW224660   2.626   2.397   4.352 -2.3154  1.0017  0.8024
 4343SOL     OW24661   0.470   2.541  11.836 -1.0302  0.1289  0.0203
 4343SOL    HW124662   0.375   2.529  11.837 -1.3924  2.8792  1.0379
 4343SOL    HW224663   0.500   2.454  11.862 -0.3135  0.8635  1.6962
 4344SOL     OW24664   4.642   3.842   3.028 -0.2826 -0.4019  0.1483
 4344SOL    HW124665   4.681   3.782   2.964  1.4182  1.7418 -0.8319
 4344SOL    HW224666   4.612   3.777   3.092  0.6179 -2.0030 -1.0667
 4345SOL     OW24667   1.416   1.973   6.345  0.6984 -0.0327 -0.0292
 4345SOL    HW124668   1.440   2.065   6.329 -1.1475  0.7741  1.7876
 4345SOL    HW224669   1.442   1.932   6.262 -0.5393  0.5376 -0.6944
 4346SOL     OW24670   4.020   4.221  11.846  0.0761 -0.1438 -0.0306
 4346SOL    HW124671   3.948   4.263  11.893 -0.0745 -0.8229  0.3409
 4346SOL    HW224672   3.964   4.174  11.784  0.4312  0.2919 -0.6809
 4347SOL     OW24673   0.894   2.367  12.633 -0.0827 -0.2245  0.0021
 4347SOL    HW124674   0.853   2.294  12.679 -0.4552  0.8136  1.3026
 4347SOL    HW224675   0.935   2.417  12.704  2.4551 -0.0579 -1.6007
 4348SOL     OW24676   4.134   3.388  15.949  0.2806  0.3991 -0.3544
 4348SOL    HW124677   4.205   3.357  15.893  0.6913 -0.8955  0.8885
 4348SOL    HW224678   4.122   3.481  15.927  1.4016  0.6957  0.3440
 4349SOL     OW24679   1.359   0.146   8.342 -0.0165 -0.2457 -0.1700
 4349SOL    HW124680   1.272   0.155   8.381  0.1335 -0.1647  0.1396
 4349SOL    HW224681   1.377   0.232   8.303 -0.1168  0.1648  0.7012
 4350SOL     OW24682   0.818   0.550   2.970  0.1832  0.0261  0.1331
 4350SOL    HW124683   0.886   0.492   2.936 -0.4402  0.3731 -1.7359
 4350SOL    HW224684   0.741   0.531   2.915 -0.4508  1.0223  0.6898
 4351SOL     OW24685   1.801   3.236   4.036 -0.2038  0.0583 -0.2424
 4351SOL    HW124686   1.752   3.154   4.030  0.8823 -0.6701  0.8727
 4351SOL    HW224687   1.739   3.309   4.032 -1.6235 -1.0360  1.7911
 4352SOL     OW24688   2.126   1.044   7.678 -0.3563  0.6797 -0.7489
 4352SOL    HW124689   2.039   1.084   7.674 -1.1488 -0.8073  1.3416
 4352SOL    HW224690   2.102   0.951   7.681 -0.9982  0.8294 -1.4876
 4353SOL     OW24691   0.692   3.589   3.195 -0.3337  0.3965  0.9675
 4353SOL    HW124692   0.602   3.604   3.225 -1.0136 -0.9591 -0.3554
 4353SOL    HW224693   0.736   3.580   3.279 -0.2939 -2.6926  0.6297
 4354SOL     OW24694   1.592   1.319  16.694 -0.3440 -0.0315 -0.4654
 4354SOL    HW124695   1.639   1.363  16.765  1.0884 -1.6437 -0.4342
 4354SOL    HW224696   1.669   1.294  16.643 -0.6291 -2.5188  0.3290
 4355SOL     OW24697   0.069   0.264   3.484 -0.4895 -0.0827  0.0120
 4355SOL    HW124698   0.092   0.205   3.413 -0.5535 -0.5879  0.4163
 4355SOL    HW224699   0.039   0.340   3.433 -2.8098 -1.1071 -0.1720
 4356SOL     OW24700   3.471   3.305   8.451  0.5550 -0.4579  0.3190
 4356SOL    HW124701   3.406   3.235   8.461  1.1324 -1.0869 -0.3757
 4356SOL    HW224702   3.421   3.385   8.468 -1.7772 -1.3454 -2.4727
 4357SOL     OW24703   1.260   0.676   8.519 -0.1977 -0.0893  0.1744
 4357SOL    HW124704   1.183   0.714   8.478 -0.8840 -1.0486  0.5477
 4357SOL    HW224705   1.224   0.618   8.586  1.1180  0.4761  1.3749
 4358SOL     OW24706   2.119   4.158   1.546  0.3667  0.4203 -0.7547
 4358SOL    HW124707   2.085   4.244   1.521  0.9703  1.4332  1.8694
 4358SOL    HW224708   2.134   4.118   1.460  1.5333 -2.4898  0.8071
 4359SOL     OW24709   3.329   3.411   2.023  0.3191 -0.6858  0.3888
 4359SOL    HW124710   3.336   3.407   1.928 -1.9181  0.3730  0.1870
 4359SOL    HW224711   3.251   3.466   2.024  0.5138 -0.3831 -0.6597
 4360SOL     OW24712   4.383   0.556  12.812 -0.3567  0.1758 -0.2296
 4360SOL    HW124713   4.437   0.635  12.818 -1.9271  1.0647  1.8525
 4360SOL    HW224714   4.374   0.535  12.905  1.3486  0.5120  0.0095
 4361SOL     OW24715   1.636   3.771   7.244  0.2031 -0.2514 -0.1922
 4361SOL    HW124716   1.684   3.776   7.327 -1.6708  1.0857  0.7891
 4361SOL    HW224717   1.656   3.680   7.221 -0.6668 -0.6546  0.7125
 4362SOL     OW24718   0.523   2.627  16.864  0.1624 -0.0076 -0.3450
 4362SOL    HW124719   0.437   2.610  16.825 -0.2853 -1.1889  1.1411
 4362SOL    HW224720   0.546   2.713  16.829  1.1259  0.7201  2.0340
 4363SOL     OW24721   2.202   0.589  10.008  0.0502  0.2633 -0.8098
 4363SOL    HW124722   2.179   0.541   9.928  1.9876  0.1450 -1.3025
 4363SOL    HW224723   2.263   0.525  10.044  0.5626 -0.5681 -3.1442
 4364SOL     OW24724   2.053   1.124   6.520 -0.7350  0.6012  0.6794
 4364SOL    HW124725   2.060   1.090   6.609 -1.1313  0.6173  0.7181
 4364SOL    HW224726   2.082   1.047   6.470 -1.0837  0.3553  0.8585
 4365SOL     OW24727   3.869   3.141   8.696  0.2060  0.9570 -0.0908
 4365SOL    HW124728   3.901   3.167   8.610 -1.2014  1.1877 -0.5332
 4365SOL    HW224729   3.841   3.052   8.675 -1.5032  1.6956 -0.9336
 4366SOL     OW24730   2.830   0.229   4.399 -0.3256 -0.2549 -0.3403
 4366SOL    HW124731   2.815   0.323   4.401 -2.7040 -0.5988 -2.1667
 4366SOL    HW224732   2.924   0.233   4.419 -0.4761  0.6884  0.1392
 4367SOL     OW24733   2.528   4.662  16.903  0.0020  0.6535  0.2400
 4367SOL    HW124734   2.463   4.652  16.834  1.5918  0.0697 -1.1661
 4367SOL    HW224735   2.609   4.638  16.858 -1.1241 -0.5081 -1.1590
 4368SOL     OW24736   1.676   0.805  10.488  0.4453  0.1258 -0.2708
 4368SOL    HW124737   1.684   0.760  10.404 -3.4347 -0.9216 -0.0621
 4368SOL    HW224738   1.760   0.778  10.527 -0.0404  0.8002  1.2207
 4369SOL     OW24739   2.684   2.595   5.767  0.0323 -0.1511  0.2978
 4369SOL    HW124740   2.590   2.579   5.758  0.1032  1.4216 -3.3410
 4369SOL    HW224741   2.693   2.691   5.768 -0.1748 -0.1062 -1.9523
 4370SOL     OW24742   2.014   2.482   7.749 -0.2819 -0.2175  0.2420
 4370SOL    HW124743   1.957   2.427   7.802  1.1578 -0.5390  1.4576
 4370SOL    HW224744   2.055   2.528   7.822  0.6938 -1.8062  0.6811
 4371SOL     OW24745   4.294   1.103  15.234  0.2703 -0.2426  0.8270
 4371SOL    HW124746   4.242   1.046  15.177 -0.4860 -0.2397  1.4936
 4371SOL    HW224747   4.286   1.180  15.177 -0.5520 -1.4986 -0.7557
 4372SOL     OW24748   2.620   0.982  11.534 -0.4046 -0.2147  0.0428
 4372SOL    HW124749   2.682   1.041  11.491 -1.4141 -0.0125 -1.1294
 4372SOL    HW224750   2.537   1.029  11.526 -0.3796  0.1038  1.5791
 4373SOL     OW24751   1.053   3.999  11.390  0.1642 -0.1014  0.6886
 4373SOL    HW124752   1.141   4.028  11.365 -0.7050  0.8867 -1.2127
 4373SOL    HW224753   1.064   3.996  11.485 -0.8404  0.2032  0.8191
 4374SOL     OW24754   0.801   1.553  16.607  0.2138  0.1999 -0.0270
 4374SOL    HW124755   0.815   1.607  16.530  2.4852  0.0719  0.2979
 4374SOL    HW224756   0.881   1.500  16.603  0.2437  0.1835  0.8527
 4375SOL     OW24757   0.693   2.364   6.257 -0.0451 -0.2068 -0.8467
 4375SOL    HW124758   0.769   2.416   6.234  1.3188 -1.9116 -0.1773
 4375SOL    HW224759   0.743   2.289   6.289 -1.0967 -0.2697  0.6674
 4376SOL     OW24760   0.891   2.501  11.854  0.0633 -0.0866  0.2898
 4376SOL    HW124761   0.936   2.579  11.821  1.1149  0.5054  3.0978
 4376SOL    HW224762   0.808   2.535  11.888 -0.0114  0.8125 -0.7908
 4377SOL     OW24763   4.169   1.613   6.050 -0.1524  1.0689 -0.0302
 4377SOL    HW124764   4.091   1.668   6.051 -1.7052 -1.2201  2.2807
 4377SOL    HW224765   4.207   1.629   6.136 -1.8834  0.6996  0.7997
 4378SOL     OW24766   3.759   0.412   1.961 -0.2764  0.0202  0.4401
 4378SOL    HW124767   3.732   0.396   2.051 -1.5686  1.5756  0.3290
 4378SOL    HW224768   3.854   0.421   1.969  0.0180 -1.8681 -0.7724
 4379SOL     OW24769   0.667   1.452  11.328 -0.2109  0.1666  0.7033
 4379SOL    HW124770   0.740   1.492  11.376 -0.5511  1.2310  0.3264
 4379SOL    HW224771   0.703   1.411  11.249  0.0141 -1.0566  1.4530
 4380SOL     OW24772   4.322   4.399   1.715  0.0897  0.2411  0.5582
 4380SOL    HW124773   4.344   4.371   1.626 -0.8266  1.1937  0.0267
 4380SOL    HW224774   4.379   4.332   1.753  0.1930  0.0295  0.0321
 4381SOL     OW24775   4.563   2.045  14.397  0.0875 -0.1656 -0.3017
 4381SOL    HW124776   4.523   2.091  14.470  1.0619 -1.8986  1.3242
 4381SOL    HW224777   4.587   2.115  14.337  2.1097 -0.2879  0.3337
 4382SOL     OW24778   1.706   0.258   1.568  0.1303  0.4429 -0.2591
 4382SOL    HW124779   1.644   0.273   1.640 -1.3255 -1.9215 -0.9998
 4382SOL    HW224780   1.661   0.307   1.500  0.5413 -1.1979 -1.7206
 4383SOL     OW24781   4.629   0.785   0.746  0.5905 -0.2761  0.6949
 4383SOL    HW124782   4.721   0.807   0.729  1.3348 -1.9678  2.5156
 4383SOL    HW224783   4.590   0.767   0.660  0.1781 -0.2834  0.8864
 4384SOL     OW24784   0.385   0.768   5.011 -0.3169  0.0922  0.9877
 4384SOL    HW124785   0.452   0.760   4.943 -0.5626  0.2449  0.7283
 4384SOL    HW224786   0.372   0.863   5.014  1.0829  0.3325 -0.8391
 4385SOL     OW24787   4.270   4.575  16.533 -0.1813  0.6637 -0.5619
 4385SOL    HW124788   4.287   4.498  16.479 -2.0130 -0.3275  0.3107
 4385SOL    HW224789   4.245   4.629  16.458  0.0540  0.8467 -0.5086
 4386SOL     OW24790   2.705   2.973   7.675  0.7246  0.1231 -0.3283
 4386SOL    HW124791   2.681   2.883   7.700  1.2061  0.4431  1.3095
 4386SOL    HW224792   2.628   3.019   7.707  0.4335 -0.0813 -0.7329
 4387SOL     OW24793   2.954   4.128  14.167  0.2079  0.1853 -0.1139
 4387SOL    HW124794   2.923   4.167  14.085 -0.4751  2.0446  1.0349
 4387SOL    HW224795   3.044   4.115  14.136 -0.1004  0.4090 -1.1182
 4388SOL     OW24796   2.909   0.429  15.622 -0.2485 -0.8002  0.1403
 4388SOL    HW124797   2.989   0.385  15.594 -0.7185 -1.0892 -0.7461
 4388SOL    HW224798   2.872   0.453  15.537 -0.4043  1.3496  0.8263
 4389SOL     OW24799   4.396   0.780   5.595 -0.2656 -0.6785 -0.1771
 4389SOL    HW124800   4.383   0.685   5.590 -0.8159 -0.6162  0.0504
 4389SOL    HW224801   4.307   0.816   5.595 -0.0010 -0.0360  1.0513
 4390SOL     OW24802   3.043   3.381   6.878 -0.1215 -0.5172  0.3519
 4390SOL    HW124803   3.089   3.405   6.958 -1.2463  2.5929  0.0716
 4390SOL    HW224804   3.001   3.463   6.850  0.3763  0.2225  1.7772
 4391SOL     OW24805   3.430   4.034   7.392 -0.5507  0.3757  0.4230
 4391SOL    HW124806   3.503   4.060   7.448  0.7490 -1.4417 -0.4483
 4391SOL    HW224807   3.352   4.075   7.431 -0.5847  0.5097  0.2112
 4392SOL     OW24808   4.333   4.456  15.576  0.2739  0.5333  0.0791
 4392SOL    HW124809   4.289   4.372  15.583  1.4242 -0.2154 -1.6913
 4392SOL    HW224810   4.283   4.491  15.502 -1.6407 -1.4309  0.4697
 4393SOL     OW24811   1.640   0.526   6.062  0.0286 -0.6516 -0.1977
 4393SOL    HW124812   1.578   0.512   6.133 -1.8723 -1.7392 -2.0478
 4393SOL    HW224813   1.684   0.605   6.094 -0.8723  0.1883 -1.0039
 4394SOL     OW24814   1.696   2.551   5.158  0.5575 -0.0697  0.5133
 4394SOL    HW124815   1.622   2.507   5.199  0.0293  1.2111  0.9021
 4394SOL    HW224816   1.658   2.636   5.137  0.2105 -0.7127 -1.4851
 4395SOL     OW24817   4.030   3.408   1.261 -0.1732  0.1773 -0.1554
 4395SOL    HW124818   3.950   3.356   1.260 -0.7220  0.9840  1.6266
 4395SOL    HW224819   4.031   3.423   1.356  0.4275 -0.0449 -0.1220
 4396SOL     OW24820   0.070   3.654   6.699  0.5588  0.0521  0.0344
 4396SOL    HW124821   0.134   3.667   6.769 -0.0145  1.0170  0.3743
 4396SOL    HW224822   0.012   3.597   6.749  1.4397 -0.9745 -0.1082
 4397SOL     OW24823   3.514   4.453   5.855  0.6014  0.4142 -0.3821
 4397SOL    HW124824   3.439   4.435   5.912  0.7784  1.3361  0.1367
 4397SOL    HW224825   3.515   4.368   5.811  0.0151  0.7353 -1.0088
 4398SOL     OW24826   4.202   4.440   9.373  0.1169  0.0829  0.3486
 4398SOL    HW124827   4.238   4.467   9.458 -3.0910  1.3129  1.3250
 4398SOL    HW224828   4.247   4.361   9.345  0.0184 -0.3065  1.2703
 4399SOL     OW24829   0.969   3.000   7.606 -0.0579 -0.2494 -0.2356
 4399SOL    HW124830   1.007   2.913   7.598  1.3351  0.1830  1.6654
 4399SOL    HW224831   0.995   3.007   7.698  1.7050  0.9028 -0.8058
 4400SOL     OW24832   0.899   1.750   0.710 -0.4648 -0.6994  0.2231
 4400SOL    HW124833   0.895   1.834   0.665 -0.3709 -1.2164 -0.7427
 4400SOL    HW224834   0.808   1.725   0.693  0.0895 -1.3699 -1.7456
 4401SOL     OW24835   0.206   0.479  11.240 -0.4396 -0.3492  0.0233
 4401SOL    HW124836   0.205   0.444  11.151  1.2008  0.7120 -0.4173
 4401SOL    HW224837   0.187   0.400  11.291 -1.5470 -1.2880 -1.8815
 4402SOL     OW24838   1.659   3.141   7.074  0.3664  0.3936  0.0630
 4402SOL    HW124839   1.585   3.080   7.077  1.4042 -0.8866 -0.4963
 4402SOL    HW224840   1.636   3.199   7.147 -2.2800 -1.9800  1.0851
 4403SOL     OW24841   1.710   3.237   5.485 -0.8334 -0.1449  0.6457
 4403SOL    HW124842   1.664   3.202   5.409 -0.4621 -0.9895  0.8138
 4403SOL    HW224843   1.634   3.238   5.542 -1.6083  0.9185 -0.3825
 4404SOL     OW24844   0.825   0.218   4.081  0.4528  0.1717  0.2049
 4404SOL    HW124845   0.902   0.225   4.025  0.9086 -0.5874  0.7407
 4404SOL    HW224846   0.857   0.260   4.162 -2.1157  1.7198  0.4317
 4405SOL     OW24847   0.268   3.187   2.557  0.3100 -0.1893 -0.4870
 4405SOL    HW124848   0.346   3.138   2.582  0.2895 -0.0724 -0.1887
 4405SOL    HW224849   0.281   3.203   2.463  0.2728  2.1206 -0.1195
 4406SOL     OW24850   1.535   1.649   8.640  0.4513 -0.0046 -0.3159
 4406SOL    HW124851   1.593   1.726   8.645  1.8209 -1.1475  1.2536
 4406SOL    HW224852   1.597   1.578   8.658  0.5500  0.7106  2.0857
 4407SOL     OW24853   0.046   1.892  11.653 -0.3486  0.4899  0.1146
 4407SOL    HW124854   4.730   1.897  11.735 -0.9765 -1.2278 -0.1644
 4407SOL    HW224855   0.110   1.963  11.657 -1.3779  1.3123  1.5736
 4408SOL     OW24856   4.334   2.478   3.031 -0.0103  0.1834 -0.2906
 4408SOL    HW124857   4.395   2.539   3.071 -0.1952 -0.3852  0.8550
 4408SOL    HW224858   4.263   2.495   3.092 -0.5364 -0.9159 -0.5879
 4409SOL     OW24859   1.636   3.531   5.980  0.0430 -0.1219 -0.3114
 4409SOL    HW124860   1.590   3.567   5.904  0.5037  2.1038  0.4576
 4409SOL    HW224861   1.566   3.480   6.020 -2.0758  1.5856 -1.8601
 4410SOL     OW24862   3.281   0.115  15.569  0.1158  0.3889  0.1401
 4410SOL    HW124863   3.269   0.186  15.632 -0.0612  0.0347  0.4998
 4410SOL    HW224864   3.199   0.070  15.589 -0.8109  2.2176  0.4596
 4411SOL     OW24865   2.544   1.753   6.476 -0.5936  0.3956  0.1619
 4411SOL    HW124866   2.620   1.725   6.425  1.4325 -0.3012  3.5781
 4411SOL    HW224867   2.538   1.846   6.454 -2.0340 -0.0637 -1.3768
 4412SOL     OW24868   3.920   1.757   7.228 -0.2480 -0.0157  0.5665
 4412SOL    HW124869   3.945   1.716   7.145 -0.6192  2.5756 -0.8354
 4412SOL    HW224870   3.869   1.835   7.206  0.2122 -0.1680 -1.0069
 4413SOL     OW24871   3.072   1.261   9.116 -0.1119 -0.0658  0.4731
 4413SOL    HW124872   3.008   1.279   9.047  1.4798  1.8511 -0.4827
 4413SOL    HW224873   3.119   1.342   9.132  2.8685 -0.8802 -4.3681
 4414SOL     OW24874   1.143   2.634   4.059 -0.5519 -0.2097 -0.7574
 4414SOL    HW124875   1.114   2.681   3.981 -0.3540  0.0168 -0.6962
 4414SOL    HW224876   1.189   2.696   4.115  0.0780 -0.5806 -0.8631
 4415SOL     OW24877   4.700   3.692   5.857 -0.2138 -0.3536  0.3301
 4415SOL    HW124878   0.007   3.606   5.844  0.8506 -0.0092  1.3491
 4415SOL    HW224879   0.026   3.746   5.805  1.4884 -1.7986  0.7662
 4416SOL     OW24880   4.106   2.952   2.415 -0.1160  0.2388  0.1391
 4416SOL    HW124881   4.195   2.923   2.392 -0.4549 -1.4398  0.9989
 4416SOL    HW224882   4.115   3.042   2.383  0.1074 -0.4177 -1.6650
 4417SOL     OW24883   1.671   0.110  15.670  0.2612 -0.1518 -0.5897
 4417SOL    HW124884   1.661   0.065  15.586 -0.5443  0.6008 -0.8962
 4417SOL    HW224885   1.665   0.203  15.647 -2.9126 -0.2938 -0.2933
 4418SOL     OW24886   2.154   4.027   5.282  0.0124  0.4598  0.4180
 4418SOL    HW124887   2.209   4.078   5.222 -2.0125  1.2984 -0.7339
 4418SOL    HW224888   2.173   4.070   5.365 -2.7140 -2.1229  2.3936
 4419SOL     OW24889   3.651   4.545   8.699  0.2648  0.4671  0.2316
 4419SOL    HW124890   3.602   4.627   8.687 -0.5963 -0.1477 -0.5331
 4419SOL    HW224891   3.736   4.576   8.729  0.6772 -0.4231 -0.0109
 4420SOL     OW24892   2.430   1.867   7.248 -0.0587 -0.0783  0.1678
 4420SOL    HW124893   2.411   1.781   7.211 -2.3061  0.4573  0.0830
 4420SOL    HW224894   2.505   1.892   7.194 -1.8135  0.5821 -1.9856
 4421SOL     OW24895   1.717   0.172  15.215 -0.3557 -0.2420  0.1326
 4421SOL    HW124896   1.708   0.109  15.288  0.8274 -0.0370  0.4484
 4421SOL    HW224897   1.632   0.213  15.231 -0.6018 -0.3964 -0.8081
 4422SOL     OW24898   0.624   3.476   9.088  0.3535  0.4354 -0.1686
 4422SOL    HW124899   0.710   3.516   9.091  1.4295 -1.9894  1.3131
 4422SOL    HW224900   0.596   3.490   9.179 -0.8325  1.1798 -0.6524
 4423SOL     OW24901   2.259   3.695   4.949 -0.0618 -0.0101 -0.1895
 4423SOL    HW124902   2.171   3.706   4.986  0.6016  0.8124  1.1718
 4423SOL    HW224903   2.249   3.603   4.925 -1.1315 -0.0986  0.5846
 4424SOL     OW24904   1.585   1.321   1.780 -0.1145 -0.8753  0.3618
 4424SOL    HW124905   1.564   1.268   1.704  1.6394  1.4447 -1.7447
 4424SOL    HW224906   1.667   1.360   1.747 -1.1253 -0.2046 -1.3395
 4425SOL     OW24907   3.180   2.519   4.955 -0.0791  0.4120 -0.1908
 4425SOL    HW124908   3.179   2.567   5.038 -0.1576  0.4158 -0.1937
 4425SOL    HW224909   3.258   2.546   4.905 -0.0031 -0.9757 -0.8270
 4426SOL     OW24910   1.424   2.583   3.659 -0.1853 -0.6409  0.4442
 4426SOL    HW124911   1.502   2.546   3.701 -0.5009  1.3618  2.7425
 4426SOL    HW224912   1.370   2.597   3.736  1.1206 -1.9512  1.6018
 4427SOL     OW24913   2.946   4.488   4.022 -0.4542 -0.4037  0.1368
 4427SOL    HW124914   2.976   4.574   4.051 -1.6492  1.0452 -2.9251
 4427SOL    HW224915   2.867   4.507   3.971 -0.9671  0.3760  1.2244
 4428SOL     OW24916   1.624   0.429   2.726  0.0786  0.0536 -0.5852
 4428SOL    HW124917   1.543   0.459   2.686 -0.2456 -0.9408 -0.6653
 4428SOL    HW224918   1.587   0.370   2.791  0.1322  0.3887 -0.2446
 4429SOL     OW24919   3.952   4.731   6.065 -0.1308 -0.4859 -0.9407
 4429SOL    HW124920   3.995   4.658   6.109 -0.6280 -1.6691 -2.4231
 4429SOL    HW224921   3.876   4.678   6.043 -2.1305  1.6964  0.7704
 4430SOL     OW24922   0.257   0.349   8.598  0.4140  0.0227 -0.4922
 4430SOL    HW124923   0.234   0.284   8.664  0.4905  0.5859  0.0864
 4430SOL    HW224924   0.255   0.427   8.652  0.7463 -0.5993  0.4144
 4431SOL     OW24925   1.564   0.576   4.364 -0.2861  0.6197  0.0240
 4431SOL    HW124926   1.503   0.632   4.318 -3.4676 -1.8383  1.1927
 4431SOL    HW224927   1.517   0.494   4.347  0.3755  0.6932 -2.1659
 4432SOL     OW24928   2.895   2.187  12.207  0.2307 -0.1282  0.3761
 4432SOL    HW124929   2.962   2.141  12.259  0.8951  0.8778  0.4071
 4432SOL    HW224930   2.839   2.118  12.172 -0.7948  0.8583  0.0901
 4433SOL     OW24931   1.648   1.880  10.823 -0.1864  0.5389 -0.3144
 4433SOL    HW124932   1.600   1.829  10.758 -1.2486  0.1739  0.7581
 4433SOL    HW224933   1.603   1.965  10.814 -2.5589 -0.7776 -0.9090
 4434SOL     OW24934   3.127   2.583   5.249  0.3497  0.4836 -0.1534
 4434SOL    HW124935   3.174   2.564   5.330 -0.6945 -1.4736 -0.0055
 4434SOL    HW224936   3.060   2.643   5.281 -0.1729 -0.9367  1.4454
 4435SOL     OW24937   1.760   1.446  15.526 -0.0875  0.0947 -0.0981
 4435SOL    HW124938   1.710   1.468  15.448 -0.9370 -0.7721  0.2072
 4435SOL    HW224939   1.738   1.354  15.544  0.3257  0.3717  1.8250
 4436SOL     OW24940   2.903   2.418   0.092 -0.6889  0.0751  0.0784
 4436SOL    HW124941   2.972   2.361   0.125 -0.0150  0.2092 -1.0924
 4436SOL    HW224942   2.959   2.494   0.106 -1.3800  0.7409 -0.7455
 4437SOL     OW24943   2.268   4.107  15.140 -0.1777 -0.1388 -0.0482
 4437SOL    HW124944   2.348   4.061  15.115  1.0193  0.8777  1.9059
 4437SOL    HW224945   2.294   4.169  15.209  2.6970  0.5966 -1.8233
 4438SOL     OW24946   4.644   0.756   6.131  0.1641  0.2863 -0.0049
 4438SOL    HW124947   4.579   0.798   6.188  0.9041 -0.0712  1.1055
 4438SOL    HW224948   4.670   0.674   6.172 -0.3281  0.0337 -0.2018
 4439SOL     OW24949   4.178   4.661  16.284 -0.4431  0.5501  0.0477
 4439SOL    HW124950   4.197   4.616  16.201 -2.0486  0.2911 -0.1893
 4439SOL    HW224951   4.149   0.014  16.255  0.6026  1.1534  0.7927
 4440SOL     OW24952   3.984   0.887   7.068 -0.2084 -0.8126 -0.3935
 4440SOL    HW124953   4.048   0.878   7.139  0.1714 -0.3372 -0.6716
 4440SOL    HW224954   4.009   0.967   7.021  1.2243  0.1544  2.0430
 4441SOL     OW24955   1.494   0.407  16.712 -0.1218 -0.4659  1.0799
 4441SOL    HW124956   1.526   0.370  16.794 -1.8620 -1.4637  1.3101
 4441SOL    HW224957   1.526   0.497  16.718  2.6607 -1.2560 -2.4763
 4442SOL     OW24958   1.094   4.420   6.838  0.0235  0.2640 -0.0168
 4442SOL    HW124959   1.050   4.389   6.758  0.0177  1.1752 -0.3586
 4442SOL    HW224960   1.070   4.512   6.837 -1.0418 -0.0233 -2.4776
 4443SOL     OW24961   2.710   1.805  16.403  0.0184 -0.0414 -0.2385
 4443SOL    HW124962   2.706   1.891  16.445 -0.3777 -0.0042 -0.3491
 4443SOL    HW224963   2.745   1.827  16.317 -2.1212 -1.4852 -1.4870
 4444SOL     OW24964   3.231   0.553   5.318  0.2437 -0.0970 -0.0589
 4444SOL    HW124965   3.221   0.532   5.225  0.4303 -2.2116  0.3980
 4444SOL    HW224966   3.285   0.632   5.308 -1.6766  1.1562 -0.5697
 4445SOL     OW24967   2.622   0.737   7.220 -0.4048  0.3053 -0.2385
 4445SOL    HW124968   2.712   0.732   7.187  0.2388 -0.8829  1.6465
 4445SOL    HW224969   2.617   0.831   7.236 -0.0988  0.2511  0.2036
 4446SOL     OW24970   1.124   0.536  10.239 -0.6772 -0.4803  0.2683
 4446SOL    HW124971   1.087   0.456  10.275  2.1883 -3.0310 -2.4073
 4446SOL    HW224972   1.125   0.510  10.147  0.4309  0.1716  0.0909
 4447SOL     OW24973   2.301   0.928   5.258  0.2486  0.1958 -0.0771
 4447SOL    HW124974   2.217   0.936   5.212 -2.1253 -1.4403  4.0552
 4447SOL    HW224975   2.347   0.859   5.211 -0.8546 -1.7024  1.6515
 4448SOL     OW24976   3.766   1.478   1.297  0.9588  0.2489 -0.2196
 4448SOL    HW124977   3.767   1.547   1.232 -0.4373 -0.5440 -1.0581
 4448SOL    HW224978   3.848   1.501   1.341  0.6230  5.1047 -2.2358
 4449SOL     OW24979   0.299   1.272   7.412 -0.0864  0.0701  0.1474
 4449SOL    HW124980   0.370   1.249   7.352  0.2707  2.3023 -0.3118
 4449SOL    HW224981   0.311   1.367   7.420 -0.9186  0.2567 -0.8087
 4450SOL     OW24982   1.845   3.088   3.667 -0.4477  0.5174  0.2866
 4450SOL    HW124983   1.890   3.138   3.599  0.1677 -1.3161 -0.6690
 4450SOL    HW224984   1.885   3.126   3.745 -1.3354  2.9509 -0.4497
 4451SOL     OW24985   1.258   4.189   6.920 -0.0504 -0.8471  0.0271
 4451SOL    HW124986   1.352   4.196   6.901  0.1919  1.7993  2.1886
 4451SOL    HW224987   1.217   4.268   6.884  1.2374 -0.8497 -1.4351
 4452SOL     OW24988   0.335   2.681   7.329 -0.2522  0.1692  0.2175
 4452SOL    HW124989   0.254   2.727   7.308  0.2901  0.8889 -0.3030
 4452SOL    HW224990   0.361   2.640   7.247  0.1099 -1.0868  0.9657
 4453SOL     OW24991   4.372   1.900  15.158 -0.0208 -0.0338  0.3576
 4453SOL    HW124992   4.424   1.958  15.103  0.1243 -0.3392  0.1773
 4453SOL    HW224993   4.303   1.964  15.177  0.3888  0.5338 -0.0719
 4454SOL     OW24994   2.477   1.489   8.451 -0.5721 -0.4078 -0.0861
 4454SOL    HW124995   2.391   1.510   8.413  0.7256  3.2809 -1.0029
 4454SOL    HW224996   2.536   1.540   8.395 -0.2572 -4.0310 -3.0662
 4455SOL     OW24997   3.118   3.785   3.093 -0.4519  0.4212  0.5710
 4455SOL    HW124998   3.187   3.850   3.079 -0.4176  0.3077  0.2158
 4455SOL    HW224999   3.154   3.722   3.156 -0.5196  0.2837  0.4704
 4456SOL     OW25000   4.095   0.429  10.887  0.3967  0.0060 -0.2512
 4456SOL    HW125001   4.023   0.486  10.857 -0.5427 -1.1784 -0.2649
 4456SOL    HW225002   4.156   0.492  10.924 -1.3650  0.7485  1.4007
 4457SOL     OW25003   2.999   2.446  14.740  0.6868  0.2387  0.0125
 4457SOL    HW125004   3.046   2.523  14.706 -1.2958  0.3643 -2.4612
 4457SOL    HW225005   3.013   2.378  14.674  1.7719  2.1864 -1.7947
 4458SOL     OW25006   1.589   1.435  16.415 -0.5118  0.2775  0.2637
 4458SOL    HW125007   1.588   1.431  16.510 -2.5381 -0.4948  0.1955
 4458SOL    HW225008   1.669   1.390  16.388 -0.4809 -1.2917  2.9721
 4459SOL     OW25009   0.839   1.924   8.713  0.0631 -0.2270  0.3525
 4459SOL    HW125010   0.846   1.927   8.618  0.8188  2.1634  0.4669
 4459SOL    HW225011   0.745   1.944   8.713 -0.6211 -3.4843 -1.6100
 4460SOL     OW25012   2.043   0.562  15.282  0.5381 -0.2509  0.2143
 4460SOL    HW125013   1.992   0.590  15.358 -0.5848  0.9320 -0.9771
 4460SOL    HW225014   1.981   0.508  15.234  1.9506 -1.4679 -0.2237
 4461SOL     OW25015   4.032   1.330   2.433  0.4187 -0.5726  0.0417
 4461SOL    HW125016   4.009   1.287   2.515  2.1420 -1.0537  0.2798
 4461SOL    HW225017   4.125   1.350   2.446  0.3088  0.8392 -1.2320
 4462SOL     OW25018   1.842   0.861  12.177 -0.7745 -0.0101 -0.1801
 4462SOL    HW125019   1.779   0.915  12.225 -1.2657 -0.5917 -0.1615
 4462SOL    HW225020   1.870   0.915  12.104  3.1802 -0.8482  0.7354
 4463SOL     OW25021   1.088   0.513   1.757  0.4305  0.4381  0.3457
 4463SOL    HW125022   1.077   0.493   1.850 -2.1970 -1.6543 -0.4280
 4463SOL    HW225023   1.021   0.460   1.715  1.2605  0.2709 -0.7619
 4464SOL     OW25024   0.616   0.343   9.681 -0.5357 -0.0522  0.1952
 4464SOL    HW125025   0.528   0.364   9.711 -0.2626  0.7568  0.4350
 4464SOL    HW225026   0.669   0.401   9.735  1.2323 -0.1715 -1.3950
 4465SOL     OW25027   1.570   1.787  10.466 -0.2590  0.5948 -0.1396
 4465SOL    HW125028   1.655   1.755  10.498 -0.4026  1.0753  0.7055
 4465SOL    HW225029   1.599   1.878  10.462 -1.4694  0.9608 -0.2805
 4466SOL     OW25030   3.337   3.745  10.001 -0.3124 -0.1409 -0.5207
 4466SOL    HW125031   3.336   3.813  10.068 -0.6666 -1.6376  1.0012
 4466SOL    HW225032   3.431   3.727  10.000 -0.2315  0.2427  0.7211
 4467SOL     OW25033   3.196   0.448   1.842  0.4780 -0.1230 -0.0709
 4467SOL    HW125034   3.160   0.428   1.756 -2.0416  0.5243  0.8554
 4467SOL    HW225035   3.289   0.438   1.818  0.2359  1.8571 -1.7693
 4468SOL     OW25036   1.829   3.470  15.846  0.0775  0.7088  0.4224
 4468SOL    HW125037   1.893   3.517  15.793  0.9380  1.0478  1.7847
 4468SOL    HW225038   1.874   3.387  15.831 -0.3701  0.6935 -0.8870
 4469SOL     OW25039   3.837   1.167   2.027  0.1329  0.3188  0.1466
 4469SOL    HW125040   3.932   1.171   2.038  0.3072 -0.9124 -0.8510
 4469SOL    HW225041   3.837   1.172   1.931  0.1221 -0.2410  0.1188
 4470SOL     OW25042   3.966   3.940   9.230  0.0477 -0.3444  0.4623
 4470SOL    HW125043   3.945   3.960   9.138  2.3175  0.9787  0.2212
 4470SOL    HW225044   4.022   3.864   9.216  0.6212  0.0495  0.5830
 4471SOL     OW25045   4.442   4.709   8.899 -0.1631  0.5767 -0.6989
 4471SOL    HW125046   4.402   4.662   8.972  2.7522  0.0445  0.5390
 4471SOL    HW225047   4.433   4.647   8.827  1.7765 -1.0119  0.4166
 4472SOL     OW25048   3.390   1.949   7.149  0.0649 -0.3692 -0.2215
 4472SOL    HW125049   3.375   1.855   7.160 -0.8074 -0.3426 -1.1981
 4472SOL    HW225050   3.336   1.966   7.072  1.0354  1.3337 -0.5439
 4473SOL     OW25051   3.205   4.367   8.193 -0.6566 -0.5774  0.4524
 4473SOL    HW125052   3.282   4.412   8.228 -0.2854 -1.7007  1.0453
 4473SOL    HW225053   3.214   4.279   8.229 -2.5445 -1.3432 -0.9273
 4474SOL     OW25054   4.125   4.555   3.078 -0.2676  0.9707 -0.1603
 4474SOL    HW125055   4.123   4.471   3.124 -1.8564  1.2647  0.2956
 4474SOL    HW225056   4.038   4.568   3.041 -0.4580  0.8130  0.2353
 4475SOL     OW25057   3.382   2.264  15.321 -0.6035 -0.0725  0.3651
 4475SOL    HW125058   3.397   2.307  15.405  1.2897 -0.3737  0.1982
 4475SOL    HW225059   3.297   2.220  15.324 -1.7563  2.2183  0.7997
 4476SOL     OW25060   3.107   1.502   5.448  0.3856  0.7627  0.2352
 4476SOL    HW125061   3.167   1.436   5.483  0.2891  1.3307  1.4631
 4476SOL    HW225062   3.113   1.558   5.525 -0.4605 -0.5798  1.2768
 4477SOL     OW25063   2.846   3.877  15.026 -0.0161 -0.0236 -0.1699
 4477SOL    HW125064   2.934   3.855  15.057 -0.0865  0.7214  0.5555
 4477SOL    HW225065   2.853   3.972  15.031 -0.6448  0.0793 -1.3073
 4478SOL     OW25066   3.784   0.504   5.362  0.1140  0.0578 -0.4456
 4478SOL    HW125067   3.787   0.597   5.339  2.6710  0.8459  2.9053
 4478SOL    HW225068   3.784   0.456   5.280  0.4245 -0.0619 -0.3744
 4479SOL     OW25069   3.967   2.577   5.514  0.4902 -0.7523 -0.1369
 4479SOL    HW125070   4.048   2.530   5.537 -0.2433 -1.5329  0.8743
 4479SOL    HW225071   3.906   2.538   5.577  0.4059  0.2627  0.4115
 4480SOL     OW25072   4.273   2.071   7.309 -0.4724 -0.2544  0.1165
 4480SOL    HW125073   4.312   2.111   7.232 -0.4552 -0.9466 -0.2415
 4480SOL    HW225074   4.180   2.095   7.312 -0.3747 -0.0170  1.4411
 4481SOL     OW25075   1.259   0.685  11.517 -0.6049  0.1979  0.3626
 4481SOL    HW125076   1.266   0.702  11.423 -0.3277 -2.3256 -0.0792
 4481SOL    HW225077   1.165   0.699  11.527 -0.5485  0.1771  0.9427
 4482SOL     OW25078   0.661   1.865   3.783  0.0102  0.1542 -0.2202
 4482SOL    HW125079   0.617   1.856   3.868 -1.4135  2.1587 -0.7289
 4482SOL    HW225080   0.738   1.809   3.793  0.2771  0.7767  1.1554
 4483SOL     OW25081   3.193   1.237   4.466  0.5821  0.2460 -0.3231
 4483SOL    HW125082   3.106   1.256   4.502  0.5318 -1.9264  0.6922
 4483SOL    HW225083   3.172   1.181   4.390 -0.3848  1.6434 -1.1026
 4484SOL     OW25084   3.606   0.828   7.168 -0.3254  0.2041  0.4574
 4484SOL    HW125085   3.635   0.918   7.155 -0.5112  0.6548  3.1568
 4484SOL    HW225086   3.609   0.792   7.079  0.9536 -0.9858  0.9897
 4485SOL     OW25087   1.399   1.156   2.014 -0.2246  0.2171 -0.2225
 4485SOL    HW125088   1.411   1.142   2.108 -1.7479  0.5535  0.0165
 4485SOL    HW225089   1.412   1.249   1.996  2.9765  0.0475  1.1206
 4486SOL     OW25090   4.708   0.906  10.550  0.2908 -0.2554  0.4489
 4486SOL    HW125091   4.657   0.862  10.482  1.0274 -1.7310  0.8679
 4486SOL    HW225092   4.646   0.965  10.594 -0.8094 -0.5441 -0.7118
 4487SOL     OW25093   1.651   4.526   2.579 -0.5187  0.1927 -0.6134
 4487SOL    HW125094   1.656   4.453   2.517 -0.2184  0.3192 -0.7364
 4487SOL    HW225095   1.558   4.538   2.597 -0.4749 -0.0738 -0.2125
 4488SOL     OW25096   4.193   0.070   8.793  0.2047 -0.1110  0.4943
 4488SOL    HW125097   4.168   0.048   8.883  1.1483 -1.0071  0.5497
 4488SOL    HW225098   4.288   0.059   8.804  0.2022  0.6461  1.2629
 4489SOL     OW25099   3.830   2.112   7.693  1.0010 -0.7649  0.3354
 4489SOL    HW125100   3.772   2.036   7.705 -0.5871  0.7503  2.2453
 4489SOL    HW225101   3.910   2.072   7.658 -0.1092  1.3514 -4.6183
 4490SOL     OW25102   3.303   2.193   8.258 -0.0046 -0.0385 -0.2738
 4490SOL    HW125103   3.223   2.245   8.264 -0.5030 -0.6011 -2.1636
 4490SOL    HW225104   3.263   2.107   8.245 -2.8477  1.4165 -1.1445
 4491SOL     OW25105   4.395   0.478  15.414 -0.1320  0.5322  0.8677
 4491SOL    HW125106   4.326   0.419  15.384  1.0500 -1.4845  2.0865
 4491SOL    HW225107   4.472   0.461  15.360 -0.3523  0.2014  0.6582
 4492SOL     OW25108   2.137   1.224   2.370 -0.1969 -0.2091 -0.3759
 4492SOL    HW125109   2.179   1.167   2.434 -0.8128  1.5311  1.5805
 4492SOL    HW225110   2.102   1.155   2.313 -0.5047 -0.6672  0.3680
 4493SOL     OW25111   1.442   1.717   7.410 -0.4505 -0.1434  0.8066
 4493SOL    HW125112   1.517   1.699   7.354 -1.7219 -0.3895 -0.8169
 4493SOL    HW225113   1.463   1.666   7.488 -0.5688 -3.3604 -1.2830
 4494SOL     OW25114   3.998   2.129   7.343 -0.4272 -0.8690  0.8132
 4494SOL    HW125115   3.939   2.197   7.376  1.9625  2.0508 -0.9891
 4494SOL    HW225116   3.938   2.080   7.285  1.4839  0.1277 -1.9906
 4495SOL     OW25117   4.635   3.531   6.900 -0.2207  0.8243 -0.8036
 4495SOL    HW125118   4.598   3.522   6.988  0.1814 -1.8743 -0.9319
 4495SOL    HW225119   4.559   3.576   6.861 -0.8876 -1.6249 -2.2801
 4496SOL     OW25120   4.499   1.980  12.833  0.2261  0.6644  0.4915
 4496SOL    HW125121   4.438   2.013  12.899 -0.8235 -1.3764  0.5569
 4496SOL    HW225122   4.554   1.911  12.869 -1.2010 -0.2189  0.9792
 4497SOL     OW25123   2.546   3.384   4.059  0.2736  0.2154 -0.2540
 4497SOL    HW125124   2.532   3.477   4.071  2.4946  0.3705  1.1195
 4497SOL    HW225125   2.640   3.367   4.058  0.1738 -0.3852 -0.0035
 4498SOL     OW25126   0.788   1.638  14.767 -0.0733 -0.2109  0.0209
 4498SOL    HW125127   0.785   1.671  14.857 -0.4731 -0.7412  0.1983
 4498SOL    HW225128   0.881   1.631  14.747  0.2904  0.0798  1.6131
 4499SOL     OW25129   4.522   4.668   5.574  0.6021  0.6853  0.4275
 4499SOL    HW125130   4.582   4.594   5.585  0.0481  0.6573  3.1222
 4499SOL    HW225131   4.491   4.690   5.661  1.9525  1.1230  0.8059
 4500SOL     OW25132   2.684   4.672   7.242 -0.3632 -0.1061  0.2142
 4500SOL    HW125133   2.774   4.641   7.254 -0.5889 -0.3728  1.2201
 4500SOL    HW225134   2.645   4.638   7.323  1.0404 -0.5095  0.7307
 4501SOL     OW25135   4.369   4.303  14.216  0.5538  0.3557 -0.7048
 4501SOL    HW125136   4.434   4.271  14.153  1.6641 -1.2176  1.2366
 4501SOL    HW225137   4.304   4.342  14.157  0.5062  1.2552 -0.0686
 4502SOL     OW25138   3.582   3.762   7.275  0.0581  0.1559 -0.3188
 4502SOL    HW125139   3.574   3.774   7.370 -1.8825 -0.7098 -0.3745
 4502SOL    HW225140   3.526   3.831   7.239  0.7563  2.2712  2.6292
 4503SOL     OW25141   2.675   2.200   1.917  0.0810  0.1961  0.2119
 4503SOL    HW125142   2.624   2.252   1.978  1.0185  0.2929  0.9139
 4503SOL    HW225143   2.628   2.199   1.834 -1.8832  1.6363  1.3251
 4504SOL     OW25144   3.099   3.133   2.749  0.5811  0.1102  0.0651
 4504SOL    HW125145   3.076   3.041   2.739  2.2508 -0.2722 -0.3472
 4504SOL    HW225146   3.016   3.177   2.733  0.5161 -0.2374 -0.5685
 4505SOL     OW25147   2.241   1.546   9.041  0.0127 -0.3278  0.2587
 4505SOL    HW125148   2.313   1.537   9.104  0.9154 -1.2372 -0.9048
 4505SOL    HW225149   2.180   1.480   9.076 -1.8087  1.2061 -0.0510
 4506SOL     OW25150   4.002   4.270   5.672 -0.1814  0.1265  0.6970
 4506SOL    HW125151   3.971   4.288   5.761  2.8684 -1.5486  2.0787
 4506SOL    HW225152   3.999   4.175   5.675  2.3053  0.0736  0.8800
 4507SOL     OW25153   3.387   3.582  11.615 -0.7118  0.6428 -0.2413
 4507SOL    HW125154   3.337   3.646  11.563 -0.0180  1.8412  0.5660
 4507SOL    HW225155   3.443   3.548  11.545  0.9768  1.3081  0.8000
 4508SOL     OW25156   0.730   1.811   1.379  0.2743 -0.4779 -0.2233
 4508SOL    HW125157   0.638   1.836   1.394  0.5371  0.7780 -0.6928
 4508SOL    HW225158   0.742   1.856   1.296  0.7729  2.3269  1.3850
 4509SOL     OW25159   2.899   0.765   2.623  0.7667 -0.3265  0.3058
 4509SOL    HW125160   2.855   0.726   2.698 -2.0734  0.7201 -0.8100
 4509SOL    HW225161   2.901   0.858   2.645  0.3492 -0.4700  0.9387
 4510SOL     OW25162   2.625   0.156   1.671 -0.3510 -0.3559  0.1414
 4510SOL    HW125163   2.597   0.080   1.619  0.2542 -0.0539 -0.6279
 4510SOL    HW225164   2.714   0.174   1.641 -0.8614 -2.1479 -2.4852
 4511SOL     OW25165   2.594   1.395   8.151  0.2352 -0.3315  0.2917
 4511SOL    HW125166   2.500   1.416   8.150  0.1738 -0.4830  2.1030
 4511SOL    HW225167   2.598   1.301   8.132  0.3390  0.1177 -1.8760
 4512SOL     OW25168   3.265   3.924   0.062 -0.1793  0.4158  0.0015
 4512SOL    HW125169   3.187   3.901   0.012  1.0792  0.5103 -1.9711
 4512SOL    HW225170   3.268   4.020   0.056  0.7515  0.1807 -3.2139
 4513SOL     OW25171   3.845   0.400   4.224  0.4367  0.6544  0.5895
 4513SOL    HW125172   3.850   0.356   4.309 -0.1333 -0.7856 -0.1159
 4513SOL    HW225173   3.753   0.426   4.218  0.3354 -0.6956 -3.7957
 4514SOL     OW25174   2.471   0.001   6.208 -0.2565  0.1491  1.0127
 4514SOL    HW125175   2.453   0.081   6.258 -2.1962 -1.1309  2.3867
 4514SOL    HW225176   2.563   4.720   6.230  0.1884  2.1139  0.4159
 4515SOL     OW25177   1.095   1.617   8.869 -0.1715 -0.1266  0.3803
 4515SOL    HW125178   1.079   1.645   8.959  0.6881  0.0637  0.4653
 4515SOL    HW225179   1.188   1.638   8.865  0.1135 -1.6295 -0.5376
 4516SOL     OW25180   3.221   2.043   9.049  0.4437 -0.1042  0.2994
 4516SOL    HW125181   3.259   1.956   9.039  0.7483  0.1621 -0.7578
 4516SOL    HW225182   3.242   2.072   9.138 -1.9023  1.9079  0.2126
 4517SOL     OW25183   1.672   0.267   8.217 -0.1778 -0.5829 -0.7993
 4517SOL    HW125184   1.721   0.192   8.183 -0.9781 -1.3118 -0.3480
 4517SOL    HW225185   1.724   0.346   8.202  3.6257 -3.1755 -0.9359
 4518SOL     OW25186   0.561   3.830   3.313  0.5898  0.5792 -0.1187
 4518SOL    HW125187   0.544   3.804   3.222  3.0310 -0.8242 -0.1705
 4518SOL    HW225188   0.481   3.797   3.354  0.2380  0.4416 -0.9030
 4519SOL     OW25189   3.300   3.631   5.489  0.0917 -0.1738 -0.0266
 4519SOL    HW125190   3.220   3.683   5.488  0.2377  0.0931  2.7028
 4519SOL    HW225191   3.334   3.647   5.577 -1.0250 -1.5220  0.6544
 4520SOL     OW25192   2.416   0.463  16.762  0.0672  0.1437  0.5085
 4520SOL    HW125193   2.487   0.514  16.799 -2.3265  1.7462  2.8782
 4520SOL    HW225194   2.463   0.390  16.722 -0.2490  1.0690 -1.5562
 4521SOL     OW25195   0.172   3.894   5.189  0.1776 -0.4724 -0.2902
 4521SOL    HW125196   0.116   3.838   5.136 -3.2374  2.9980 -0.3960
 4521SOL    HW225197   0.203   3.837   5.259 -1.8264 -1.8015 -0.5005
 4522SOL     OW25198   0.045   1.130   3.957 -0.6358  0.6354  0.6278
 4522SOL    HW125199   0.108   1.072   3.999 -1.3194  1.1425  2.3434
 4522SOL    HW225200   0.031   1.079   3.876 -1.1290  1.6275  0.0927
 4523SOL     OW25201   3.695   2.582   2.944  0.2834  0.2415 -0.2552
 4523SOL    HW125202   3.737   2.597   3.029 -1.1962  1.8247  0.1866
 4523SOL    HW225203   3.769   2.571   2.884 -0.9344 -1.2287 -1.4668
 4524SOL     OW25204   3.505   2.182   7.882  0.0731 -0.7083  0.2253
 4524SOL    HW125205   3.509   2.174   7.786  1.4193  0.6468  0.1863
 4524SOL    HW225206   3.443   2.254   7.894  1.5258  0.3283  1.4692
 4525SOL     OW25207   4.541   2.349   3.147  0.1678 -0.3796 -0.1412
 4525SOL    HW125208   4.600   2.390   3.084  0.0663 -0.4983 -0.3128
 4525SOL    HW225209   4.464   2.353   3.091  0.4990 -2.2236 -0.7512
 4526SOL     OW25210   3.367   0.398   2.662 -0.1283 -0.5671  0.6982
 4526SOL    HW125211   3.375   0.469   2.725 -1.8511  0.6237 -0.4048
 4526SOL    HW225212   3.273   0.379   2.659 -0.0918 -0.7141  0.4682
 4527SOL     OW25213   3.601   3.995  16.295 -0.2212  0.5594 -0.5067
 4527SOL    HW125214   3.654   4.023  16.221  1.2414 -0.2478  0.2389
 4527SOL    HW225215   3.625   3.902  16.299 -1.3009  0.2417 -1.5765
 4528SOL     OW25216   2.291   4.026   4.113  0.3367  0.4134 -0.1626
 4528SOL    HW125217   2.269   3.937   4.143 -0.7003  0.9358  0.6154
 4528SOL    HW225218   2.223   4.078   4.156 -0.0603  0.1573 -0.4755
 4529SOL     OW25219   1.345   1.524  16.355  0.0672  0.4441 -0.1145
 4529SOL    HW125220   1.382   1.565  16.276  0.7239 -2.1580 -1.1617
 4529SOL    HW225221   1.426   1.479  16.381 -0.5700  1.5009  3.6049
 4530SOL     OW25222   0.013   0.039   0.706  1.0118 -0.4739  0.0539
 4530SOL    HW125223   0.097   0.084   0.694  0.4681  0.3588 -0.6355
 4530SOL    HW225224   4.710   0.063   0.791  0.3889  1.9735 -0.9130
 4531SOL     OW25225   4.530   2.236   6.384 -0.6211 -0.1688 -0.2164
 4531SOL    HW125226   4.602   2.173   6.385  0.6917  1.3897  2.7073
 4531SOL    HW225227   4.458   2.178   6.356 -0.8837 -0.2997  0.7130
 4532SOL     OW25228   1.695   0.983  15.249 -0.2136 -0.6349  0.3631
 4532SOL    HW125229   1.783   0.948  15.264  0.4339 -0.2120 -2.4144
 4532SOL    HW225230   1.689   0.977  15.153 -0.1800 -1.5751  0.4160
 4533SOL     OW25231   1.332   3.688  14.361  0.2220 -0.2592 -0.5180
 4533SOL    HW125232   1.240   3.672  14.340 -0.2606  0.9377  0.7312
 4533SOL    HW225233   1.330   3.671  14.455  0.5847 -3.4023 -1.0833
 4534SOL     OW25234   1.052   0.279  12.144  0.0250  0.1597  0.2498
 4534SOL    HW125235   1.126   0.217  12.144 -2.3259 -2.6164  2.6107
 4534SOL    HW225236   1.064   0.326  12.226 -1.1050 -1.2994  1.2333
 4535SOL     OW25237   1.160   0.788   8.800 -0.2657  0.8200  0.2364
 4535SOL    HW125238   1.174   0.706   8.754 -0.0665 -0.0330  1.8442
 4535SOL    HW225239   1.131   0.750   8.883  0.6768 -0.4758 -0.0422
 4536SOL     OW25240   0.655   2.491   8.332 -0.4032 -0.1080 -0.0534
 4536SOL    HW125241   0.643   2.556   8.263  1.8880  0.0932 -0.2657
 4536SOL    HW225242   0.703   2.427   8.281 -3.1560 -2.2233  0.0311
 4537SOL     OW25243   2.336   4.682   4.334  0.0067 -0.0009 -0.7364
 4537SOL    HW125244   2.387   4.670   4.413 -0.3261  0.0057 -0.5219
 4537SOL    HW225245   2.255   4.724   4.361  0.0077 -1.2179  1.1381
 4538SOL     OW25246   0.876   1.126  10.961  0.2744  0.2564 -0.3922
 4538SOL    HW125247   0.928   1.095  11.035 -1.2163 -0.7330  0.2278
 4538SOL    HW225248   0.920   1.098  10.881 -0.6047  0.2266 -0.8679
 4539SOL     OW25249   4.661   1.020  12.076  0.0313 -0.1487  0.2516
 4539SOL    HW125250   4.576   1.060  12.058  0.1071 -0.4481 -0.7472
 4539SOL    HW225251   4.651   0.951  12.011  1.4069  0.6011 -0.7546
 4540SOL     OW25252   2.101   0.084   2.758  0.9258 -1.0325 -0.4066
 4540SOL    HW125253   2.060   0.002   2.785 -2.1546 -0.4008 -3.2969
 4540SOL    HW225254   2.033   0.146   2.784  0.0633 -1.8187 -0.7805
 4541SOL     OW25255   4.437   2.798   4.600 -0.2519  0.4432  0.1648
 4541SOL    HW125256   4.495   2.738   4.552 -0.2823  1.0130 -0.5815
 4541SOL    HW225257   4.441   2.867   4.534  2.0700  1.1844  1.0712
 4542SOL     OW25258   3.330   4.528   9.591 -0.1717 -0.1962  0.1384
 4542SOL    HW125259   3.307   4.550   9.501 -3.2449  0.4443  1.0759
 4542SOL    HW225260   3.411   4.482   9.569 -1.2446 -1.4941 -1.1880
 4543SOL     OW25261   2.431   0.597  16.511  0.4514  0.4392 -0.8429
 4543SOL    HW125262   2.396   0.577  16.598  0.0684 -2.6215 -1.6945
 4543SOL    HW225263   2.410   0.690  16.500  0.2255  0.7710  2.6138
 4544SOL     OW25264   2.482   3.056   4.973  0.7365 -0.6246  0.1162
 4544SOL    HW125265   2.493   3.115   4.898 -2.8014  0.0901  0.1687
 4544SOL    HW225266   2.572   3.037   5.001  1.7043 -0.5905 -3.0063
 4545SOL     OW25267   1.771   1.622   4.472 -0.0382  0.2983  0.2810
 4545SOL    HW125268   1.834   1.673   4.523  1.2148  0.0307 -0.9825
 4545SOL    HW225269   1.822   1.554   4.427  1.1752  2.4718 -1.6238
 4546SOL     OW25270   0.418   4.519   8.005 -0.3436 -0.6757  0.4978
 4546SOL    HW125271   0.497   4.571   7.999 -2.0083  1.8309  0.2222
 4546SOL    HW225272   0.466   4.436   8.005  0.6843 -0.0573 -0.6732
 4547SOL     OW25273   0.934   3.984  16.450  0.0008 -0.0757 -0.2028
 4547SOL    HW125274   0.945   4.067  16.403 -1.4741 -0.2244 -0.7856
 4547SOL    HW225275   1.027   3.965  16.463  0.1428  0.3113 -0.6336
 4548SOL     OW25276   1.700   0.660  12.365  0.7666  0.3298 -0.0878
 4548SOL    HW125277   1.733   0.687  12.279  1.1069 -1.0447 -0.3876
 4548SOL    HW225278   1.714   0.565  12.363  3.7492  0.7838 -1.8194
 4549SOL     OW25279   1.344   3.986   9.296 -0.2414  0.4381 -0.5020
 4549SOL    HW125280   1.385   4.054   9.348  0.9205 -0.2970 -0.4416
 4549SOL    HW225281   1.373   4.010   9.208  2.0543 -0.1130  0.1057
 4550SOL     OW25282   3.731   1.071  16.180  0.0191  0.9500 -0.6707
 4550SOL    HW125283   3.691   1.099  16.262 -1.1628 -0.3910 -0.8002
 4550SOL    HW225284   3.658   1.085  16.119 -0.6530  1.4758  0.2655
 4551SOL     OW25285   0.321   3.905   4.927  0.0418 -0.0664 -0.1481
 4551SOL    HW125286   0.409   3.874   4.908  0.0334  0.5434 -1.1889
 4551SOL    HW225287   0.338   3.937   5.016  1.5354  3.0526 -1.5619
 4552SOL     OW25288   4.452   0.169   6.937 -0.1851 -0.4443 -0.7753
 4552SOL    HW125289   4.401   0.234   6.985 -1.5413 -2.1378  0.0746
 4552SOL    HW225290   4.428   0.190   6.847 -0.7165  0.3793 -0.4478
 4553SOL     OW25291   2.621   1.069   4.273  0.6129 -0.1160 -1.0233
 4553SOL    HW125292   2.655   1.034   4.191  0.9206 -0.0738 -0.9149
 4553SOL    HW225293   2.530   1.052   4.249  0.1256  0.4301  0.4717
 4554SOL     OW25294   1.305   3.113   3.148 -0.0181  0.6391 -0.3223
 4554SOL    HW125295   1.234   3.050   3.161 -0.0725  0.6718 -0.4624
 4554SOL    HW225296   1.301   3.164   3.228 -1.5124  0.6077 -0.3891
 4555SOL     OW25297   0.539   1.639   8.338  0.0905 -0.5018 -0.1028
 4555SOL    HW125298   0.492   1.556   8.338 -0.5497 -0.1349 -0.2516
 4555SOL    HW225299   0.630   1.607   8.340  0.7909  1.4525 -1.1929
 4556SOL     OW25300   2.776   1.461   0.042 -0.2205 -0.1648 -0.3505
 4556SOL    HW125301   2.747   1.399   0.109  3.0993 -1.0651  0.2550
 4556SOL    HW225302   2.703   1.521   0.054  0.7418  0.7551  0.9363
 4557SOL     OW25303   0.287   3.125  13.430 -0.2901  0.1042  0.5794
 4557SOL    HW125304   0.359   3.071  13.397 -0.5778 -0.4107  0.7982
 4557SOL    HW225305   0.214   3.103  13.372  0.5354 -1.0375 -0.0305
 4558SOL     OW25306   0.263   2.445   1.475  0.0080  0.3730 -0.3723
 4558SOL    HW125307   0.179   2.403   1.494 -0.0760  1.0368  0.7824
 4558SOL    HW225308   0.323   2.371   1.467  0.5093  1.0061 -2.4805
 4559SOL     OW25309   3.021   2.866  10.208 -0.1911 -0.5616  0.0836
 4559SOL    HW125310   3.013   2.958  10.180 -0.3543 -0.6071 -0.0169
 4559SOL    HW225311   2.934   2.842  10.238 -0.9280 -0.5391 -2.0372
 4560SOL     OW25312   4.117   4.121   1.589  0.2521  0.7145  1.0125
 4560SOL    HW125313   4.104   4.064   1.513 -1.3890 -1.3222  2.8218
 4560SOL    HW225314   4.170   4.184   1.541 -0.0662 -0.1625 -0.4813
 4561SOL     OW25315   3.723   4.093   4.335  0.1988  0.3480  0.4283
 4561SOL    HW125316   3.777   4.044   4.272  3.0307  1.2453  2.1503
 4561SOL    HW225317   3.772   4.089   4.418  0.0769 -2.2637  0.3703
 4562SOL     OW25318   3.871   4.299  10.104 -0.0247 -0.8102 -0.2955
 4562SOL    HW125319   3.847   4.391  10.113  0.8062 -0.5624 -0.5543
 4562SOL    HW225320   3.942   4.281  10.166  0.6972 -0.9294 -1.1476
 4563SOL     OW25321   4.568   1.072   3.040  0.4741  0.1796 -0.4457
 4563SOL    HW125322   4.613   1.024   2.971  0.5256 -1.8076  0.9842
 4563SOL    HW225323   4.479   1.082   3.006  0.1619  3.5078  1.3126
 4564SOL     OW25324   0.798   4.323   0.342  0.3380  0.4113 -0.1451
 4564SOL    HW125325   0.863   4.258   0.367 -0.8253 -0.8602 -0.4853
 4564SOL    HW225326   0.845   4.381   0.282 -0.6321  1.1384 -0.2199
 4565SOL     OW25327   4.430   0.473  11.024 -0.4673  0.1178  0.3120
 4565SOL    HW125328   4.422   0.454  10.930 -1.0982  0.5474  0.2765
 4565SOL    HW225329   4.470   0.559  11.032 -1.4829  0.6846 -0.6836
 4566SOL     OW25330   3.897   0.385   7.850 -0.3780  0.8369 -0.2241
 4566SOL    HW125331   3.843   0.418   7.778 -1.2282 -2.9714 -1.3584
 4566SOL    HW225332   3.840   0.314   7.880 -0.5526  0.4600 -1.4780
 4567SOL     OW25333   1.010   2.949   2.510  0.0443 -0.8260 -0.2305
 4567SOL    HW125334   1.048   2.976   2.427 -0.8877 -0.7517 -0.6396
 4567SOL    HW225335   0.921   2.924   2.483 -0.4931  0.4121  0.3783
 4568SOL     OW25336   2.985   4.386   2.742  0.1435  0.0999  0.1459
 4568SOL    HW125337   2.935   4.382   2.823 -3.8271 -0.3929 -2.3087
 4568SOL    HW225338   2.965   4.477   2.719  1.6223  0.8665  1.8828
 4569SOL     OW25339   1.879   2.888   3.927  0.2164  0.0499  0.8220
 4569SOL    HW125340   1.891   2.976   3.892  1.5936 -1.0609 -1.5321
 4569SOL    HW225341   1.888   2.896   4.022 -0.4808 -1.0752  0.9839
 4570SOL     OW25342   1.179   4.374  12.461  0.4058  0.4968 -0.4692
 4570SOL    HW125343   1.160   4.319  12.537  2.0543  1.8256  0.8866
 4570SOL    HW225344   1.098   4.420  12.438  0.6439  0.8351 -0.6345
 4571SOL     OW25345   1.982   1.096   3.629 -0.0587  0.3953 -0.0123
 4571SOL    HW125346   1.973   1.180   3.674  1.3541  0.8900 -0.6380
 4571SOL    HW225347   1.909   1.096   3.568 -1.2747 -1.4870  1.4713
 4572SOL     OW25348   2.974   1.773  12.460 -0.3705  0.0869 -0.3322
 4572SOL    HW125349   3.014   1.839  12.404  1.2165  1.6459  2.6550
 4572SOL    HW225350   3.040   1.709  12.489 -0.1966  1.2317  1.8121
 4573SOL     OW25351   4.081   0.229   3.839  0.2114  0.5979  0.1174
 4573SOL    HW125352   4.025   0.305   3.855 -0.0807  0.5941 -0.8747
 4573SOL    HW225353   4.130   0.276   3.771 -2.3504  1.5009 -1.1527
 4574SOL     OW25354   2.253   2.286   6.732  0.2518  0.1623 -0.0057
 4574SOL    HW125355   2.173   2.238   6.709  1.6461 -1.6854 -0.9358
 4574SOL    HW225356   2.230   2.309   6.823  1.1253 -1.1280  0.5343
 4575SOL     OW25357   3.599   0.130  12.739  0.1356 -0.0110 -0.6318
 4575SOL    HW125358   3.587   0.222  12.765  2.8342  0.2096 -0.2004
 4575SOL    HW225359   3.621   0.087  12.822 -1.0553  0.7189  0.0701
 4576SOL     OW25360   4.442   2.687   6.543 -0.1324  0.6570  0.4309
 4576SOL    HW125361   4.436   2.772   6.500  0.0740  0.1991 -0.5252
 4576SOL    HW225362   4.535   2.697   6.560 -0.0702  0.7083  0.0653
 4577SOL     OW25363   0.345   1.792   0.852  0.0330 -0.1559  0.4745
 4577SOL    HW125364   0.325   1.702   0.878 -1.5230 -0.5455 -2.0194
 4577SOL    HW225365   0.382   1.823   0.935 -2.4890  0.4377  1.3818
 4578SOL     OW25366   0.003   0.312  13.691  0.0962 -0.2514 -0.3188
 4578SOL    HW125367   4.705   0.328  13.602 -0.5451  2.0234  0.3036
 4578SOL    HW225368   4.659   0.265  13.722 -1.3730  1.0760 -1.9721
 4579SOL     OW25369   1.663   1.786   9.114 -0.3902 -0.3465  0.6256
 4579SOL    HW125370   1.602   1.831   9.056 -0.8500 -1.6967  0.0642
 4579SOL    HW225371   1.625   1.698   9.118 -0.3843 -0.3635  0.3296
 4580SOL     OW25372   1.504   1.503   1.501  0.1864 -0.4352 -0.5323
 4580SOL    HW125373   1.450   1.424   1.497  1.0543 -1.0397 -0.4140
 4580SOL    HW225374   1.433   1.565   1.520  0.7773  0.9339 -2.8915
 4581SOL     OW25375   0.387   2.101   1.715 -0.2310  0.2423 -0.5007
 4581SOL    HW125376   0.359   2.012   1.691  1.5400 -1.0296  2.1742
 4581SOL    HW225377   0.468   2.119   1.667  0.9628  0.4448  1.6133
 4582SOL     OW25378   1.590   3.888   2.252  0.3283 -0.2459 -0.3728
 4582SOL    HW125379   1.607   3.977   2.222 -0.3896  0.0737  0.1570
 4582SOL    HW225380   1.495   3.881   2.258  0.4410 -2.4065 -1.1413
 4583SOL     OW25381   3.267   0.537   8.941 -0.0708  0.2672 -0.1791
 4583SOL    HW125382   3.184   0.505   8.977  0.7514 -0.7343  0.8018
 4583SOL    HW225383   3.292   0.613   8.994 -1.2952 -0.0141  0.8013
 4584SOL     OW25384   4.132   4.532  14.762 -0.4510  0.6750  0.3047
 4584SOL    HW125385   4.211   4.579  14.735 -0.4406  0.6939  0.3697
 4584SOL    HW225386   4.114   4.587  14.838  1.4002 -0.1746  1.3718
 4585SOL     OW25387   4.448   0.737   0.369  0.1251  0.1659  0.1623
 4585SOL    HW125388   4.362   0.749   0.409 -0.3663 -0.8497 -0.6052
 4585SOL    HW225389   4.423   0.750   0.278  2.7882  0.3353 -0.5352
 4586SOL     OW25390   2.126   1.956   4.584  0.1300 -0.2225  0.0498
 4586SOL    HW125391   2.139   1.905   4.664 -1.0393 -1.5916 -0.6195
 4586SOL    HW225392   2.096   1.889   4.522 -1.2571  1.9060 -1.5947
 4587SOL     OW25393   0.279   4.185   3.087  0.6432 -0.0799  0.1458
 4587SOL    HW125394   0.290   4.228   3.172  2.7003 -1.6257  0.6772
 4587SOL    HW225395   0.259   4.262   3.035 -0.6736 -1.5743 -1.5511
 4588SOL     OW25396   1.080   1.323  16.851  0.0129 -0.2943 -0.6936
 4588SOL    HW125397   1.154   1.310  16.909  1.2245  4.5383 -1.1421
 4588SOL    HW225398   1.021   1.253  16.882 -1.1494  0.7139 -0.6210
 4589SOL     OW25399   2.295   2.702   9.637 -0.5012 -0.8504  0.1969
 4589SOL    HW125400   2.320   2.792   9.659  1.6627 -1.8284  1.7987
 4589SOL    HW225401   2.228   2.678   9.702 -3.2263  1.5721 -1.7335
 4590SOL     OW25402   2.660   3.629   0.817  0.4112 -0.2829 -0.3332
 4590SOL    HW125403   2.716   3.704   0.838  0.9365 -0.2241 -1.9399
 4590SOL    HW225404   2.726   3.560   0.820  2.2197  1.4989  1.0376
 4591SOL     OW25405   0.798   3.981   3.273 -0.5800 -0.3389  0.6031
 4591SOL    HW125406   0.724   3.923   3.287  0.1948 -1.5408 -0.2802
 4591SOL    HW225407   0.767   4.070   3.294 -0.9562 -0.7042  1.5806
 4592SOL     OW25408   3.840   1.999   4.728  0.2122 -0.2190 -0.2574
 4592SOL    HW125409   3.777   1.937   4.692 -0.6041 -0.0906  0.9313
 4592SOL    HW225410   3.805   2.081   4.694 -0.4778 -0.5118 -0.2520
 4593SOL     OW25411   0.815   3.213   3.392  0.6418  0.0091  0.2192
 4593SOL    HW125412   0.862   3.154   3.450  1.1974  0.5848  0.3475
 4593SOL    HW225413   0.746   3.151   3.369  1.7123 -1.0845 -0.0255
 4594SOL     OW25414   3.062   1.738   1.634  0.2998 -0.5043 -0.2958
 4594SOL    HW125415   3.068   1.833   1.645 -2.5357 -0.4592  0.7285
 4594SOL    HW225416   3.007   1.722   1.557 -1.3944  0.8913  0.6356
 4595SOL     OW25417   3.410   1.237   1.640 -0.0815 -0.2342  0.1047
 4595SOL    HW125418   3.426   1.143   1.643  1.2478  0.0275  1.0807
 4595SOL    HW225419   3.472   1.266   1.574 -0.8971  0.0211 -0.5600
 4596SOL     OW25420   0.634   1.984   2.191  0.7218 -0.2394 -0.4076
 4596SOL    HW125421   0.585   1.973   2.273 -1.6601  1.8022 -1.5699
 4596SOL    HW225422   0.564   1.982   2.126  1.6912 -1.4254 -1.4173
 4597SOL     OW25423   2.798   2.473   3.115  0.4508 -0.1979  0.6530
 4597SOL    HW125424   2.754   2.555   3.092  1.2718 -0.7233 -2.7959
 4597SOL    HW225425   2.774   2.423   3.038  1.2669  1.8067 -0.9201
 4598SOL     OW25426   2.465   4.055   4.846 -0.0775  0.2692 -0.0442
 4598SOL    HW125427   2.384   4.098   4.875 -0.5473 -1.9604  2.0710
 4598SOL    HW225428   2.433   3.990   4.783  1.6863  1.5292 -2.2258
 4599SOL     OW25429   4.639   2.935  12.802 -0.4398  0.5060  0.0468
 4599SOL    HW125430   4.599   2.941  12.888 -1.1295  1.0068 -0.3088
 4599SOL    HW225431   4.711   2.996  12.818  0.0913 -0.2055  0.3706
 4600SOL     OW25432   3.220   2.119   8.742 -0.1917  0.4878 -0.5533
 4600SOL    HW125433   3.198   2.060   8.814 -1.9833  1.9797  0.1133
 4600SOL    HW225434   3.158   2.190   8.757  0.5880  1.3636 -1.5077
 4601SOL     OW25435   4.036   1.948   7.572 -0.3187 -0.4139  0.4028
 4601SOL    HW125436   4.027   1.854   7.553 -0.0315 -0.4454  0.4199
 4601SOL    HW225437   4.033   1.985   7.484 -0.7056 -1.2695  0.0587
 4602SOL     OW25438   2.603   3.322   3.280  0.0853 -0.6414 -0.2565
 4602SOL    HW125439   2.642   3.407   3.299  0.8003 -1.0417  0.1044
 4602SOL    HW225440   2.586   3.333   3.187 -0.0864  0.1822 -0.1273
 4603SOL     OW25441   0.757   3.898   8.279  0.2520  0.8604 -0.4239
 4603SOL    HW125442   0.679   3.934   8.320  0.6650  0.1319  0.9930
 4603SOL    HW225443   0.743   3.806   8.302 -3.1731  1.4115 -0.3841
 4604SOL     OW25444   3.695   0.252  12.519  0.1612 -0.5425  0.5400
 4604SOL    HW125445   3.642   0.211  12.588 -0.4787  0.4505  0.6431
 4604SOL    HW225446   3.698   0.177  12.459  0.5185 -1.3697  1.5748
 4605SOL     OW25447   2.035   4.724   7.723 -0.4805  0.5350  0.1192
 4605SOL    HW125448   2.101   0.037   7.775 -0.2481 -0.6111  0.8381
 4605SOL    HW225449   2.052   0.029   7.637 -0.9978 -1.4694 -0.8602
 4606SOL     OW25450   0.441   1.856   5.333  0.4753 -0.3929  0.0582
 4606SOL    HW125451   0.481   1.784   5.283  1.7595  2.2696 -2.7393
 4606SOL    HW225452   0.482   1.931   5.290 -0.4974  0.5795  0.8643
 4607SOL     OW25453   1.763   4.312   1.673 -0.4598  0.0242 -0.6886
 4607SOL    HW125454   1.848   4.316   1.629 -0.0434 -1.8875 -0.0754
 4607SOL    HW225455   1.701   4.337   1.604 -0.3007  1.8855 -0.1504
 4608SOL     OW25456   3.200   3.598   3.322  0.1169  0.3290  0.4341
 4608SOL    HW125457   3.171   3.619   3.411 -0.0734 -0.2904  0.5148
 4608SOL    HW225458   3.274   3.540   3.334  0.3662  0.3952 -0.7393
 4609SOL     OW25459   0.568   0.379  17.272 -0.3150 -0.6454  0.0224
 4609SOL    HW125460   0.612   0.389  17.357 -1.8606  1.4214  0.5706
 4609SOL    HW225461   0.491   0.431  17.292  0.7717  0.4809  1.3196
 4610SOL     OW25462   0.545   3.987  13.083 -0.1967 -0.0214  0.3148
 4610SOL    HW125463   0.564   3.896  13.107  2.7561  0.2230 -1.1409
 4610SOL    HW225464   0.601   3.992  13.006  1.4012 -0.0193  1.4621
 4611SOL     OW25465   3.324   0.761   9.050 -0.0638 -0.3346 -0.1992
 4611SOL    HW125466   3.260   0.809   9.102 -0.7351 -2.0442  0.5531
 4611SOL    HW225467   3.400   0.817   9.032 -0.3979 -0.7564 -2.9701
 4612SOL     OW25468   3.416   0.880   3.915  0.5095 -0.1423  0.0632
 4612SOL    HW125469   3.456   0.923   3.840  0.0262  1.0512  0.4871
 4612SOL    HW225470   3.391   0.956   3.968  0.3863 -1.9131  2.5282
 4613SOL     OW25471   2.956   3.349  12.224  0.1542  0.3496  0.2941
 4613SOL    HW125472   3.052   3.347  12.222  0.2451  2.9635  1.6683
 4613SOL    HW225473   2.937   3.387  12.310  4.0626 -0.2112  1.4211
 4614SOL     OW25474   0.951   1.915  14.844  0.1247 -0.3836 -0.1655
 4614SOL    HW125475   0.885   1.880  14.904 -0.9730  0.8765 -0.6119
 4614SOL    HW225476   1.005   1.957  14.910 -1.0727  1.0988 -0.1228
 4615SOL     OW25477   0.649   3.017   4.292  0.6004  0.0517 -0.2450
 4615SOL    HW125478   0.645   3.104   4.252  0.8760  0.2998  0.2701
 4615SOL    HW225479   0.742   2.996   4.296  0.0882 -1.9810  0.6518
 4616SOL     OW25480   1.458   2.676  15.381  0.7045 -0.5744  0.0860
 4616SOL    HW125481   1.495   2.686  15.293  0.0378  1.6269  0.0586
 4616SOL    HW225482   1.494   2.749  15.430  3.9182 -0.1608 -2.9042
 4617SOL     OW25483   2.941   0.915   9.479 -0.8229  0.2943  0.4364
 4617SOL    HW125484   3.018   0.969   9.462 -1.6748  0.0553 -4.4182
 4617SOL    HW225485   2.908   0.901   9.390 -2.6314 -0.5993  1.2466
 4618SOL     OW25486   3.846   1.629   4.929  0.4350  0.2175  0.7322
 4618SOL    HW125487   3.891   1.681   4.996  2.5779  1.0949 -1.3855
 4618SOL    HW225488   3.756   1.658   4.945 -0.6593 -2.1526 -1.1655
 4619SOL     OW25489   3.876   0.212  10.613  0.1791 -0.1875  0.6573
 4619SOL    HW125490   3.785   0.188  10.597  0.5514 -1.2868  0.1882
 4619SOL    HW225491   3.871   0.301  10.647 -0.7551 -0.3891  1.0786
 4620SOL     OW25492   0.148   0.777   5.235 -0.6410 -0.3528  0.2594
 4620SOL    HW125493   0.127   0.857   5.283 -1.2638  0.6111 -1.6513
 4620SOL    HW225494   0.068   0.755   5.187 -0.5372  0.4524 -0.2717
 4621SOL     OW25495   2.793   3.821   0.081  0.1836  0.6864 -0.2387
 4621SOL    HW125496   2.786   3.904   0.128 -2.0973 -0.3209  1.1802
 4621SOL    HW225497   2.726   3.831   0.013  0.1517 -2.1874 -0.6206
 4622SOL     OW25498   4.182   2.031   5.215  0.4052  0.3964  0.2623
 4622SOL    HW125499   4.166   2.024   5.121 -1.6508 -0.3349  0.6448
 4622SOL    HW225500   4.177   1.940   5.246  1.2592  0.3765  0.3288
 4623SOL     OW25501   0.372   1.603  16.344 -0.0731  0.2287 -0.1516
 4623SOL    HW125502   0.377   1.698  16.347  3.6558  0.0868 -2.2769
 4623SOL    HW225503   0.277   1.588  16.345  0.2178 -1.7505 -0.7656
 4624SOL     OW25504   3.158   1.999  10.661 -0.3721 -0.3186 -0.8744
 4624SOL    HW125505   3.197   2.027  10.579 -0.7363 -0.7571 -1.1966
 4624SOL    HW225506   3.236   1.948  10.683 -0.4811 -0.2462 -0.3126
 4625SOL     OW25507   0.161   2.165   3.790  0.3808  0.4937 -0.0791
 4625SOL    HW125508   0.239   2.193   3.742  1.3939 -4.9797 -1.6284
 4625SOL    HW225509   0.100   2.224   3.745 -0.3127  2.1367  3.0045
 4626SOL     OW25510   4.478   2.126   5.484  0.1176  0.0151 -0.5929
 4626SOL    HW125511   4.521   2.040   5.480 -1.1281 -0.6321  0.0882
 4626SOL    HW225512   4.494   2.147   5.576 -2.4867  0.9286 -0.3552
 4627SOL     OW25513   3.823   4.289   5.891  0.3053 -0.1903  0.2775
 4627SOL    HW125514   3.756   4.222   5.878 -0.9897  2.1812 -5.2422
 4627SOL    HW225515   3.790   4.322   5.975  0.7671  1.0293 -0.0169
 4628SOL     OW25516   0.712   1.814   3.052 -0.0051 -0.5797  0.1203
 4628SOL    HW125517   0.658   1.840   2.978 -0.0911  2.1729  1.1367
 4628SOL    HW225518   0.643   1.814   3.118 -1.2419 -1.4075 -1.1898
 4629SOL     OW25519   3.261   4.570  13.008  0.4578  0.1135 -0.6593
 4629SOL    HW125520   3.187   4.515  13.032  2.7264 -2.2268  0.9982
 4629SOL    HW225521   3.298   4.526  12.931 -0.0997 -0.1275 -0.7839
 4630SOL     OW25522   1.646   3.469  12.847  0.0424 -0.4201  0.2137
 4630SOL    HW125523   1.578   3.459  12.780  0.0126 -1.5504  0.4128
 4630SOL    HW225524   1.581   3.458  12.916 -1.7516 -0.0307 -1.4232
 4631SOL     OW25525   4.176   3.175   5.513 -0.1798 -0.3395  0.0038
 4631SOL    HW125526   4.193   3.086   5.545  0.0571 -0.9458 -1.7927
 4631SOL    HW225527   4.179   3.224   5.595  1.2576  1.6442 -1.2517
 4632SOL     OW25528   2.031   2.159  14.045 -0.1618  0.6100  0.0185
 4632SOL    HW125529   2.020   2.081  13.992 -0.5552 -0.2269  1.3273
 4632SOL    HW225530   2.098   2.198  13.989  0.2349  0.1983  0.1993
 4633SOL     OW25531   3.623   1.362  12.460 -0.3431  0.6049 -0.0888
 4633SOL    HW125532   3.634   1.368  12.365 -2.1104  0.3932 -0.3141
 4633SOL    HW225533   3.709   1.396  12.484 -0.3152  1.1024 -0.8970
 4634SOL     OW25534   2.102   2.015   2.969  0.1886 -0.2995 -0.2131
 4634SOL    HW125535   2.091   2.107   2.947  2.9836 -0.5248 -2.5052
 4634SOL    HW225536   2.173   1.991   2.909 -0.1734  0.6810 -1.0296
 4635SOL     OW25537   0.584   0.695   0.287 -0.0201  0.6349  0.0735
 4635SOL    HW125538   0.600   0.602   0.302  0.7193  0.4227 -2.1347
 4635SOL    HW225539   0.630   0.715   0.205 -2.0652  0.0371 -1.2055
 4636SOL     OW25540   3.483   3.455   8.891 -1.0949 -1.0016 -0.2388
 4636SOL    HW125541   3.543   3.430   8.821 -0.5606 -0.0448 -0.1135
 4636SOL    HW225542   3.503   3.389   8.958 -0.1833 -0.1183  0.3530
 4637SOL     OW25543   2.576   1.953   5.749 -0.1301  0.1126  0.3396
 4637SOL    HW125544   2.633   2.013   5.700  1.7830 -1.8310  0.1801
 4637SOL    HW225545   2.617   1.869   5.729 -1.0542 -0.1632 -0.3717
 4638SOL     OW25546   2.736   2.772   3.328  0.2307  0.0906  0.6326
 4638SOL    HW125547   2.726   2.834   3.400 -0.5630 -0.9531  1.4084
 4638SOL    HW225548   2.645   2.748   3.310  0.0272  0.3388  1.3247
 4639SOL     OW25549   4.298   0.999  15.507  0.3786 -0.2805  0.0448
 4639SOL    HW125550   4.315   1.053  15.430 -0.7853  1.3103  0.9056
 4639SOL    HW225551   4.360   1.033  15.571 -1.5278  0.2704  1.5670
 4640SOL     OW25552   1.604   2.715   7.334 -0.5312 -0.4491  0.5120
 4640SOL    HW125553   1.637   2.710   7.424  1.1412  1.2646  0.0014
 4640SOL    HW225554   1.608   2.811   7.328 -0.1400 -0.6634 -2.4098
 4641SOL     OW25555   1.939   2.914   7.906  0.4421 -0.4796 -0.0461
 4641SOL    HW125556   1.901   2.898   7.993  2.3311  0.2045  0.9206
 4641SOL    HW225557   2.000   2.981   7.936 -0.6886 -0.2821  1.8117
 4642SOL     OW25558   3.122   0.365   0.819  0.2291 -0.4204  0.2652
 4642SOL    HW125559   3.195   0.401   0.868  0.8186  0.5219 -1.3245
 4642SOL    HW225560   3.054   0.429   0.839 -1.3384 -2.0667  0.2525
 4643SOL     OW25561   2.564   1.546  15.318  0.8519 -0.1225 -0.0575
 4643SOL    HW125562   2.535   1.538  15.409  1.3303  4.0828  0.4699
 4643SOL    HW225563   2.606   1.632  15.326  0.5040  0.1750 -1.4524
 4644SOL     OW25564   2.583   0.438   7.238  0.8144  0.1838  0.0506
 4644SOL    HW125565   2.660   0.410   7.286  0.6118  0.6889  0.6698
 4644SOL    HW225566   2.610   0.529   7.222  1.6526  0.1241  1.1491
 4645SOL     OW25567   0.076   4.148   0.172 -0.0898 -0.2372  0.1927
 4645SOL    HW125568   0.124   4.065   0.181 -1.2381 -0.7040  1.8866
 4645SOL    HW225569   4.728   4.108   0.201  0.1197 -1.1100 -0.4187
 4646SOL     OW25570   1.226   3.255   7.589  0.5417  0.1575 -0.3201
 4646SOL    HW125571   1.284   3.288   7.521 -0.3759 -2.2512 -2.2685
 4646SOL    HW225572   1.212   3.167   7.555 -0.1250  0.1164  0.0616
 4647SOL     OW25573   2.994   4.118   4.732  0.4812 -0.2170 -0.0108
 4647SOL    HW125574   2.901   4.099   4.719  0.1362  1.4970 -0.0139
 4647SOL    HW225575   3.007   4.174   4.656 -0.1296  0.6312  0.5199
 4648SOL     OW25576   3.110   0.139   2.908 -0.0955 -0.0050  0.8546
 4648SOL    HW125577   3.204   0.142   2.891 -0.5663 -0.8447 -1.8808
 4648SOL    HW225578   3.121   0.070   2.973 -1.2658  0.7193  1.8219
 4649SOL     OW25579   1.932   4.593  11.023  0.3052 -0.1631  0.2302
 4649SOL    HW125580   1.930   4.564  11.114  0.1495 -1.5448 -0.2092
 4649SOL    HW225581   1.888   4.678  11.018  1.0013  0.3307  2.8211
 4650SOL     OW25582   1.571   0.130  12.439  0.0724  0.5173  0.3424
 4650SOL    HW125583   1.591   0.161  12.351  1.9246  0.7373  0.8601
 4650SOL    HW225584   1.585   0.036  12.430  0.1280  0.6318 -0.8338
 4651SOL     OW25585   1.265   2.817   8.479 -0.1187  0.4493 -0.8148
 4651SOL    HW125586   1.310   2.886   8.528  2.1663 -2.0150  0.5298
 4651SOL    HW225587   1.213   2.782   8.552  0.1408 -0.7000 -1.1908
 4652SOL     OW25588   0.152   1.697   1.511 -0.3470  0.2987  0.1825
 4652SOL    HW125589   0.180   1.621   1.561  0.3014  0.5172  0.1602
 4652SOL    HW225590   0.141   1.653   1.426 -0.4369 -1.1221  0.9332
 4653SOL     OW25591   2.727   1.732   7.045 -0.2696  0.5843  0.6332
 4653SOL    HW125592   2.730   1.806   7.104  2.2955 -0.2096  1.5269
 4653SOL    HW225593   2.634   1.709   7.047 -0.2588  0.2645 -1.6785
 4654SOL     OW25594   3.758   2.775   8.000  0.8937  0.4667 -0.0327
 4654SOL    HW125595   3.678   2.827   7.987  0.4742 -0.5163 -1.3868
 4654SOL    HW225596   3.770   2.745   7.910  1.0380  1.0039 -0.1951
 4655SOL     OW25597   2.436   1.593   5.220  0.0092  0.2077 -0.5332
 4655SOL    HW125598   2.402   1.504   5.221 -0.6317  0.4360 -1.2580
 4655SOL    HW225599   2.452   1.596   5.126  2.2034  0.6291 -0.1442
 4656SOL     OW25600   1.503   3.757  13.756  0.5038 -0.2014 -0.0985
 4656SOL    HW125601   1.533   3.675  13.796 -0.7210 -0.7983 -0.4014
 4656SOL    HW225602   1.421   3.726  13.718  1.2626 -0.4977 -1.5183
 4657SOL     OW25603   1.945   1.075   9.207  0.2293  0.1208  0.1463
 4657SOL    HW125604   2.011   1.133   9.245  0.9136  0.3058 -1.3047
 4657SOL    HW225605   1.977   0.989   9.235  0.5484  0.0859 -0.3211
 4658SOL     OW25606   4.097   4.523   4.935 -0.3200 -0.6523  0.0250
 4658SOL    HW125607   4.004   4.528   4.958 -0.1687  0.6265  0.3780
 4658SOL    HW225608   4.095   4.441   4.885  0.3378 -1.1458  0.8179
 4659SOL     OW25609   1.391   3.379   4.774 -0.3748 -0.4186 -0.1632
 4659SOL    HW125610   1.437   3.334   4.844  0.3661 -1.8237 -1.5478
 4659SOL    HW225611   1.297   3.373   4.793 -0.6191  0.9337 -0.9024
 4660SOL     OW25612   3.600   3.281   9.339 -0.1023  0.4921 -0.0509
 4660SOL    HW125613   3.688   3.283   9.377  0.2430 -1.2801 -0.7406
 4660SOL    HW225614   3.577   3.372   9.357 -1.7932  0.5631 -2.5559
 4661SOL     OW25615   0.552   1.289   9.092  0.1032 -0.1798  0.0094
 4661SOL    HW125616   0.629   1.233   9.103 -0.4966 -0.6803  1.5879
 4661SOL    HW225617   0.576   1.347   9.019 -1.4311  1.1042  0.5147
 4662SOL     OW25618   0.150   3.848   5.717 -0.0254 -0.1543  0.3461
 4662SOL    HW125619   0.210   3.816   5.785  1.7297  0.9580 -0.6890
 4662SOL    HW225620   0.170   3.941   5.730  1.6725 -0.4628 -0.1137
 4663SOL     OW25621   0.820   0.856  16.345  0.1077  0.0943  0.2773
 4663SOL    HW125622   0.817   0.941  16.389  0.5862 -0.7259  1.8750
 4663SOL    HW225623   0.904   0.818  16.369 -0.9054 -0.9360  2.2861
 4664SOL     OW25624   1.702   2.745   8.060  0.0401  0.3601  0.0133
 4664SOL    HW125625   1.693   2.806   8.133  4.1056 -0.4225  1.1742
 4664SOL    HW225626   1.782   2.705   8.095 -0.5844 -0.1148  0.9142
 4665SOL     OW25627   3.005   0.673   7.688 -0.1351  0.1286  1.0425
 4665SOL    HW125628   2.920   0.634   7.709 -0.4869 -0.0489 -0.7484
 4665SOL    HW225629   2.980   0.765   7.703  0.7867  0.5157  0.1828
 4666SOL     OW25630   0.770   4.504  13.721  0.1921 -0.2051  0.0323
 4666SOL    HW125631   0.701   4.568  13.738  0.7282  0.1244  0.9817
 4666SOL    HW225632   0.744   4.454  13.643 -0.6104  1.0576 -0.4994
 4667SOL     OW25633   2.779   2.858   5.711 -0.5031  0.5019  0.0802
 4667SOL    HW125634   2.732   2.941   5.709  0.4095  1.0018 -0.5421
 4667SOL    HW225635   2.867   2.893   5.726 -0.2762  0.1857 -0.5260
 4668SOL     OW25636   1.643   0.839   3.995 -0.1520 -0.0004  0.2308
 4668SOL    HW125637   1.589   0.842   3.915 -0.0671  1.9765  0.2570
 4668SOL    HW225638   1.640   0.745   4.013  1.2691  0.4397  2.5845
 4669SOL     OW25639   0.449   3.541   0.237 -0.4328  0.5836 -0.1559
 4669SOL    HW125640   0.451   3.591   0.318  0.6101 -0.6629  0.5964
 4669SOL    HW225641   0.540   3.511   0.237 -1.5179 -2.7925  1.1739
 4670SOL     OW25642   3.311   0.720   4.360  0.0981 -0.2461 -0.5080
 4670SOL    HW125643   3.309   0.757   4.448 -2.1123 -0.0386 -0.6439
 4670SOL    HW225644   3.391   0.760   4.327  0.3996 -1.2623 -0.9932
 4671SOL     OW25645   0.856   2.232   7.596 -0.0247  0.0378  0.4272
 4671SOL    HW125646   0.940   2.278   7.598 -0.2709  0.4829  0.5489
 4671SOL    HW225647   0.873   2.161   7.535 -0.1748  0.6966 -0.3768
 4672SOL     OW25648   3.990   3.743   5.970  0.5288  0.3869  0.2653
 4672SOL    HW125649   3.977   3.649   5.955  1.1231  0.2465  0.6107
 4672SOL    HW225650   4.069   3.754   5.918  0.2610 -1.1570 -0.4618
 4673SOL     OW25651   3.480   1.327   1.044  0.0038 -0.4675  0.2671
 4673SOL    HW125652   3.402   1.272   1.046 -0.6754  0.4268 -2.3808
 4673SOL    HW225653   3.545   1.264   1.016 -0.1249 -0.5160  0.0792
 4674SOL     OW25654   3.925   3.361   2.250 -0.1708  0.3192 -0.6436
 4674SOL    HW125655   3.907   3.269   2.268 -0.2586  0.2495 -1.0865
 4674SOL    HW225656   3.878   3.384   2.170 -0.5773  1.0612 -0.1907
 4675SOL     OW25657   4.262   1.386  11.994  0.5102 -0.4268 -0.1103
 4675SOL    HW125658   4.337   1.394  12.053  0.2536  0.6195  0.0748
 4675SOL    HW225659   4.303   1.400  11.908 -0.0641  1.8785 -0.0130
 4676SOL     OW25660   2.571   1.019   8.174  0.3397  0.0331  0.1418
 4676SOL    HW125661   2.604   0.933   8.199 -2.6570 -0.5351  2.0957
 4676SOL    HW225662   2.545   1.063   8.255 -4.1054 -0.6346 -0.9227
 4677SOL     OW25663   1.787   0.212   5.256 -0.0816 -0.4540 -0.6037
 4677SOL    HW125664   1.719   0.253   5.202  0.8755  0.6599 -0.9620
 4677SOL    HW225665   1.726   0.154   5.301 -0.5929 -0.0755 -0.8131
 4678SOL     OW25666   0.178   0.698  13.889  0.0156 -0.7598  0.1439
 4678SOL    HW125667   0.197   0.624  13.947  1.2646  0.7837  1.7214
 4678SOL    HW225668   0.097   0.672  13.846  0.4537 -0.8675 -0.6225
 4679SOL     OW25669   3.114   3.407  11.504 -0.0347  0.0833 -0.7054
 4679SOL    HW125670   3.062   3.334  11.538 -1.8651  0.9492 -1.6175
 4679SOL    HW225671   3.049   3.476  11.489 -1.0086 -0.7292 -0.2708
 4680SOL     OW25672   1.097   2.621   6.655 -0.3782  0.1778 -0.0227
 4680SOL    HW125673   1.126   2.712   6.663 -0.6348  0.0903  1.8972
 4680SOL    HW225674   1.018   2.635   6.603 -1.1691  0.4336  1.2580
 4681SOL     OW25675   4.371   1.638   1.026 -0.3593 -0.0006 -0.2191
 4681SOL    HW125676   4.319   1.559   1.043 -0.8160  0.1239 -1.0144
 4681SOL    HW225677   4.306   1.688   0.976  2.9135  1.6354 -2.8041
 4682SOL     OW25678   1.512   3.383  15.593 -0.0105 -0.4189 -0.2684
 4682SOL    HW125679   1.437   3.392  15.534  0.9244 -1.4743 -1.6165
 4682SOL    HW225680   1.501   3.464  15.643  1.6748  0.2190 -0.9251
 4683SOL     OW25681   2.704   3.972   5.792  0.0566 -0.0270 -0.3100
 4683SOL    HW125682   2.778   3.912   5.789  1.1837  1.2951  1.1828
 4683SOL    HW225683   2.643   3.934   5.855 -0.4988 -0.9678 -1.4302
 4684SOL     OW25684   0.259   0.321   4.297  0.2104 -0.2596 -0.1576
 4684SOL    HW125685   0.191   0.324   4.230  1.1348 -0.9008 -1.1396
 4684SOL    HW225686   0.249   0.403   4.346 -3.9656 -0.3358 -0.8891
 4685SOL     OW25687   3.262   2.530   2.729 -0.3693 -0.2222 -0.0450
 4685SOL    HW125688   3.346   2.507   2.769  0.1638 -1.6293 -1.9205
 4685SOL    HW225689   3.211   2.517   2.809  1.4506 -0.8397  1.0131
 4686SOL     OW25690   1.374   0.640   3.369  0.4145  0.3764 -0.3967
 4686SOL    HW125691   1.403   0.712   3.424 -1.2222 -0.0884  1.0476
 4686SOL    HW225692   1.392   0.559   3.416  1.2606  0.0773 -1.2139
 4687SOL     OW25693   2.471   1.156   6.636 -0.1278  0.2335  0.1879
 4687SOL    HW125694   2.539   1.218   6.612 -0.3158  0.2208 -0.3676
 4687SOL    HW225695   2.475   1.163   6.732 -0.4826 -0.1020  0.2267
 4688SOL     OW25696   3.784   4.548  12.545 -0.3259  0.3775  0.0440
 4688SOL    HW125697   3.819   4.591  12.466  1.6589  0.8290  1.1657
 4688SOL    HW225698   3.704   4.508  12.509 -0.1481  0.9434 -1.0001
 4689SOL     OW25699   4.005   1.406  13.146 -0.4684  0.4614  0.1191
 4689SOL    HW125700   3.953   1.351  13.204  0.6402 -1.4034 -0.6760
 4689SOL    HW225701   4.088   1.361  13.133 -1.0784 -0.2252 -1.3478
 4690SOL     OW25702   0.594   2.560   5.695 -0.2148  0.4196 -0.1767
 4690SOL    HW125703   0.645   2.640   5.709 -2.1454  1.5918  0.1600
 4690SOL    HW225704   0.541   2.592   5.621 -2.0268 -0.4305  0.7543
 4691SOL     OW25705   1.587   0.859   6.873  0.0115 -0.2552 -0.0444
 4691SOL    HW125706   1.519   0.889   6.813 -0.6454  0.6020  1.1149
 4691SOL    HW225707   1.588   0.767   6.845  0.8031 -0.9069  2.0851
 4692SOL     OW25708   0.497   1.928   7.189  0.0541 -0.4109  0.3564
 4692SOL    HW125709   0.549   1.858   7.149  0.6702 -0.9474  2.0830
 4692SOL    HW225710   0.539   2.006   7.154 -2.5592  0.7677 -0.1674
 4693SOL     OW25711   2.023   3.096   7.507 -0.2572  0.3529  0.3428
 4693SOL    HW125712   2.005   3.110   7.600  2.4910  0.0426  0.9215
 4693SOL    HW225713   1.964   3.024   7.489  2.2879 -1.5900 -0.2510
 4694SOL     OW25714   0.648   2.535   2.998 -0.3797 -1.0519 -0.1820
 4694SOL    HW125715   0.584   2.508   2.931 -0.4735  3.0102 -1.7184
 4694SOL    HW225716   0.716   2.471   2.978  0.8642  1.1181 -2.8574
 4695SOL     OW25717   1.097   0.548  11.883  0.3157 -0.2540 -0.1225
 4695SOL    HW125718   1.121   0.631  11.926 -1.3309 -0.2809  0.8602
 4695SOL    HW225719   1.180   0.506  11.862 -0.4961 -2.7260  1.6763
 4696SOL     OW25720   3.041   0.111   3.339  0.1866 -0.1942  0.0394
 4696SOL    HW125721   3.044   0.178   3.271  0.2103 -1.1816 -0.9310
 4696SOL    HW225722   3.077   0.171   3.405  0.8440  0.3051 -0.7826
 4697SOL     OW25723   4.155   1.759   5.292  0.1262 -0.0364 -0.9682
 4697SOL    HW125724   4.223   1.696   5.268 -0.1216 -1.1655  1.2254
 4697SOL    HW225725   4.178   1.769   5.385 -0.3198 -0.5040 -0.8065
 4698SOL     OW25726   2.947   2.133   6.455  0.0084  0.2244  0.3267
 4698SOL    HW125727   2.997   2.057   6.425 -0.9104 -0.5113  0.6797
 4698SOL    HW225728   3.012   2.161   6.519  0.1943 -2.1588  1.1806
 4699SOL     OW25729   0.752   0.540  16.390 -0.4980 -0.3319  0.0190
 4699SOL    HW125730   0.833   0.589  16.387 -0.4748 -0.4164 -0.7747
 4699SOL    HW225731   0.737   0.490  16.309  0.4858  0.1298 -0.4418
 4700SOL     OW25732   0.299   0.891   3.696  0.1431 -0.1342  0.5496
 4700SOL    HW125733   0.385   0.875   3.734  1.1566  1.7300 -0.9973
 4700SOL    HW225734   0.311   0.838   3.618  1.0444  0.4172  0.3138
 4701SOL     OW25735   0.754   3.197  12.570  0.1064  0.0940 -0.1341
 4701SOL    HW125736   0.730   3.283  12.536  3.5879  1.5772  1.1439
 4701SOL    HW225737   0.748   3.144  12.491 -1.9296  0.8153 -0.4722
 4702SOL     OW25738   0.920   2.109   0.820 -0.1681  0.4753 -0.7081
 4702SOL    HW125739   0.832   2.112   0.858  0.2683 -0.8708  0.3750
 4702SOL    HW225740   0.895   2.175   0.755 -1.1514  0.4993 -0.3070
 4703SOL     OW25741   2.356   4.191   7.642 -0.0491 -0.1052  0.2231
 4703SOL    HW125742   2.338   4.281   7.670 -1.1767  0.2981 -1.8442
 4703SOL    HW225743   2.270   4.171   7.608 -0.0056  0.4364 -0.1983
 4704SOL     OW25744   4.236   0.345  13.889 -0.0388 -0.2849 -0.6479
 4704SOL    HW125745   4.226   0.250  13.877 -1.6868 -0.2866  0.8405
 4704SOL    HW225746   4.204   0.351  13.979  0.5983 -0.4173 -0.4074
 4705SOL     OW25747   1.837   4.720  10.185 -0.1142 -0.2763  0.3818
 4705SOL    HW125748   1.886   4.639  10.193  0.8772  0.3949  1.0489
 4705SOL    HW225749   1.808   4.719  10.094  1.6495 -0.0875 -0.1716
 4706SOL     OW25750   0.920   0.286   2.240  0.1836  0.0295 -0.1407
 4706SOL    HW125751   0.837   0.240   2.229  0.3571 -0.8058  2.1180
 4706SOL    HW225752   0.881   0.373   2.232 -0.5862 -0.2715  0.3898
 4707SOL     OW25753   2.346   2.655   6.558 -0.2957 -0.1183 -0.5769
 4707SOL    HW125754   2.253   2.642   6.575  0.4356 -0.5474  3.1024
 4707SOL    HW225755   2.346   2.706   6.476 -0.1918  1.1481  0.2127
 4708SOL     OW25756   3.745   3.831  12.742  0.0687  0.0727 -0.1831
 4708SOL    HW125757   3.758   3.914  12.696  0.7173  0.2360  0.2869
 4708SOL    HW225758   3.807   3.835  12.816 -1.4956 -3.9290  1.3241
 4709SOL     OW25759   3.225   1.996   7.825 -0.0099 -0.2371 -0.5311
 4709SOL    HW125760   3.153   1.969   7.767 -0.6322 -1.8253  0.9944
 4709SOL    HW225761   3.207   2.090   7.826 -1.6528 -0.5047 -3.5200
 4710SOL     OW25762   3.424   2.711   5.893 -0.2191  0.1179  0.3464
 4710SOL    HW125763   3.516   2.733   5.881 -0.8923  3.4542  1.2528
 4710SOL    HW225764   3.405   2.726   5.986  0.3497  2.3470  0.0994
 4711SOL     OW25765   1.704   3.262   7.340 -0.1139 -0.4310 -0.1651
 4711SOL    HW125766   1.773   3.270   7.405 -2.9274 -0.6568  2.8796
 4711SOL    HW225767   1.720   3.347   7.298  2.5237 -0.8686 -0.0334
 4712SOL     OW25768   0.593   0.417   9.146 -0.2125 -0.3930 -0.5495
 4712SOL    HW125769   0.593   0.357   9.071  2.1471  0.6629 -1.3888
 4712SOL    HW225770   0.547   0.362   9.209 -0.6554 -2.1843 -2.4302
 4713SOL     OW25771   0.446   3.770   4.432 -0.0677  0.2101 -0.3248
 4713SOL    HW125772   0.423   3.845   4.488  2.1671 -0.7160  1.8304
 4713SOL    HW225773   0.519   3.747   4.489  1.9308  0.9211 -2.6056
 4714SOL     OW25774   0.637   2.758   5.169 -0.7285 -0.1854 -0.1427
 4714SOL    HW125775   0.549   2.792   5.149 -0.4668  0.0392 -0.9387
 4714SOL    HW225776   0.613   2.666   5.179 -1.6168 -0.0758 -1.1770
 4715SOL     OW25777   2.623   3.410  12.963  0.4067 -0.1313  0.1361
 4715SOL    HW125778   2.705   3.378  13.002  1.3295  0.5017 -1.2800
 4715SOL    HW225779   2.632   3.388  12.871 -2.3280 -0.5711 -0.0233
 4716SOL     OW25780   2.026   3.480   7.673 -0.2205  0.0325 -0.7477
 4716SOL    HW125781   2.071   3.491   7.589 -1.1017 -3.2401 -1.6347
 4716SOL    HW225782   2.072   3.543   7.728 -0.0545 -0.3792 -0.4143
 4717SOL     OW25783   4.270   1.655   6.306  0.5210 -0.1691  0.3966
 4717SOL    HW125784   4.315   1.701   6.377  0.8231  1.4332 -0.8286
 4717SOL    HW225785   4.303   1.568   6.327  0.2075  0.0145  1.6172
 4718SOL     OW25786   1.929   4.505   4.563 -0.1059  0.4235 -0.0821
 4718SOL    HW125787   2.022   4.526   4.560  0.6270 -2.6208  1.6335
 4718SOL    HW225788   1.932   4.417   4.525 -0.5104 -0.1763  1.2691
 4719SOL     OW25789   3.758   3.039   2.595  0.2999 -0.8989 -0.1707
 4719SOL    HW125790   3.851   3.033   2.616  0.0635 -1.5127  0.7079
 4719SOL    HW225791   3.727   3.038   2.685  1.7976 -0.4441  0.3438
 4720SOL     OW25792   0.885   0.231  16.055  0.5599  0.1550  0.1678
 4720SOL    HW125793   0.840   0.152  16.025  0.6773  0.3083 -0.3941
 4720SOL    HW225794   0.895   0.208  16.148 -2.2505 -2.0837 -0.0957
 4721SOL     OW25795   3.409   2.675   2.949  0.0786 -0.0115  0.1072
 4721SOL    HW125796   3.408   2.706   3.040  0.2014  1.0627 -0.2527
 4721SOL    HW225797   3.503   2.668   2.934  0.4759  0.2995  2.3441
 4722SOL     OW25798   1.379   3.089  11.884 -0.4963 -0.7447 -0.3114
 4722SOL    HW125799   1.367   3.164  11.827 -0.7138 -0.3927  0.1948
 4722SOL    HW225800   1.458   3.053  11.844  0.3373  0.8502 -0.1042
 4723SOL     OW25801   3.146   4.435  13.758 -0.2028 -0.2380  0.1599
 4723SOL    HW125802   3.053   4.451  13.773 -0.3412 -0.3603 -0.5738
 4723SOL    HW225803   3.181   4.508  13.706  2.9649 -0.8351  1.4638
 4724SOL     OW25804   0.021   2.583   5.004  0.3144  0.0807 -0.6343
 4724SOL    HW125805   0.112   2.574   4.975  1.1630 -1.3529  2.4331
 4724SOL    HW225806   0.019   2.555   5.096 -0.4756 -0.5529 -0.8403
 4725SOL     OW25807   3.054   4.047   6.276 -0.1830  0.0613  0.5522
 4725SOL    HW125808   3.083   3.996   6.352 -0.3960 -2.0132 -0.7555
 4725SOL    HW225809   2.971   4.001   6.264 -1.0361  2.4213 -2.3514
 4726SOL     OW25810   1.665   4.630  12.756  0.3876 -0.3153 -0.0046
 4726SOL    HW125811   1.677   4.577  12.834 -1.4687 -1.3414 -0.4292
 4726SOL    HW225812   1.607   4.580  12.699  0.8278  0.2289 -0.9405
 4727SOL     OW25813   0.840   2.725   8.021  0.0763 -0.0900 -0.2470
 4727SOL    HW125814   0.805   2.810   8.049 -0.6216 -0.1556 -0.9407
 4727SOL    HW225815   0.771   2.661   8.036 -0.5593  0.6968  0.1758
 4728SOL     OW25816   0.499   0.002   3.315 -0.5813  0.0349  0.0774
 4728SOL    HW125817   0.482   0.051   3.235 -0.6150 -0.1490 -0.0299
 4728SOL    HW225818   0.594   0.013   3.319 -0.8128  1.3744  1.3850
 4729SOL     OW25819   2.835   1.975  14.303  0.2813  0.4640  0.6615
 4729SOL    HW125820   2.832   2.062  14.343  1.2853  1.3934 -1.2977
 4729SOL    HW225821   2.742   1.959  14.316  0.4499 -1.7450 -0.8044
 4730SOL     OW25822   1.085   1.528   7.872  0.1596  0.2200 -0.4565
 4730SOL    HW125823   1.096   1.505   7.779 -0.8843 -0.0823 -0.5011
 4730SOL    HW225824   0.995   1.561   7.876  0.1103  0.1999 -1.4159
 4731SOL     OW25825   3.262   2.924   5.758 -0.4331  0.3056  0.7226
 4731SOL    HW125826   3.309   2.856   5.807  0.9777 -1.1710 -2.7261
 4731SOL    HW225827   3.322   2.987   5.797  0.2342  0.4444 -0.5401
 4732SOL     OW25828   2.960   2.293   4.993  0.4565  0.3883  0.1422
 4732SOL    HW125829   3.008   2.271   4.913  0.9957  2.6901 -0.1612
 4732SOL    HW225830   2.939   2.383   4.968  0.2860  0.9548  2.3634
 4733SOL     OW25831   3.914   1.657   9.977  0.0001 -0.4069 -0.4968
 4733SOL    HW125832   4.001   1.669   9.939 -0.0407  4.5897  0.9251
 4733SOL    HW225833   3.930   1.586  10.039 -0.9223  1.2543  1.6400
 4734SOL     OW25834   4.335   1.422  11.330 -0.0843  0.5103 -1.2813
 4734SOL    HW125835   4.320   1.391  11.241  1.2014 -1.1644 -0.9203
 4734SOL    HW225836   4.424   1.387  11.342  0.1787  1.2611 -1.0258
 4735SOL     OW25837   1.512   2.403   8.022 -0.4777  0.2070 -0.1280
 4735SOL    HW125838   1.549   2.421   8.108  0.7788 -3.6232  0.1292
 4735SOL    HW225839   1.566   2.446   7.955 -0.4338 -2.6641 -1.9120
 4736SOL     OW25840   0.829   2.467   5.881 -0.4532 -0.1264  0.4614
 4736SOL    HW125841   0.753   2.489   5.828 -0.3407 -0.9118 -0.0191
 4736SOL    HW225842   0.852   2.387   5.833  2.2434  0.4042  0.8740
 4737SOL     OW25843   3.752   2.339   7.866 -0.4271  0.7395 -0.0380
 4737SOL    HW125844   3.679   2.315   7.922 -1.2058 -2.6538 -2.5175
 4737SOL    HW225845   3.741   2.279   7.792  2.1939  1.0686 -0.6980
 4738SOL     OW25846   2.637   0.867   8.722 -0.8274  0.3589 -0.0707
 4738SOL    HW125847   2.678   0.949   8.693 -3.0693  1.9445  1.2515
 4738SOL    HW225848   2.573   0.847   8.653 -2.0036  2.4012  0.4294
 4739SOL     OW25849   0.192   1.352   3.347  0.2002  0.2369  0.3339
 4739SOL    HW125850   0.197   1.267   3.303 -0.5753  0.1518  0.4076
 4739SOL    HW225851   0.102   1.358   3.379 -0.4432 -1.4395 -1.1193
 4740SOL     OW25852   2.111   0.640   7.040  0.4322  0.0061 -0.2482
 4740SOL    HW125853   2.192   0.691   7.049  0.9152 -0.5344 -1.5674
 4740SOL    HW225854   2.103   0.631   6.945  0.8756  0.7072 -0.3580
 4741SOL     OW25855   3.847   2.634   1.838  0.0110 -0.1065  0.0973
 4741SOL    HW125856   3.760   2.632   1.798 -0.9785  0.9036  2.1788
 4741SOL    HW225857   3.815   2.637   1.928 -0.2262  1.8570 -0.0398
 4742SOL     OW25858   3.705   4.649   2.548 -0.1317  0.1408 -0.4083
 4742SOL    HW125859   3.723   0.004   2.581 -1.7473  0.0528  0.7573
 4742SOL    HW225860   3.626   4.642   2.602 -0.6148 -0.9973 -1.2711
 4743SOL     OW25861   0.461   2.732   6.530 -0.0273  0.5855  0.3156
 4743SOL    HW125862   0.453   2.745   6.436 -1.3537  0.9035  0.4742
 4743SOL    HW225863   0.373   2.749   6.563 -0.4728 -1.0494 -0.0243
 4744SOL     OW25864   4.628   3.190   4.866 -0.2267  0.2449 -0.2391
 4744SOL    HW125865   4.556   3.180   4.802 -0.1365 -1.0736 -0.1316
 4744SOL    HW225866   4.575   3.181   4.945  1.9412  0.1413  1.1807
 4745SOL     OW25867   4.636   2.165   1.152  0.0902 -0.1701  0.0362
 4745SOL    HW125868   4.565   2.101   1.144 -0.0594  0.0565 -0.4823
 4745SOL    HW225869   4.587   2.241   1.184 -1.1085 -0.3780 -1.2820
 4746SOL     OW25870   1.483   3.618   6.527 -0.5146  0.0907 -0.3077
 4746SOL    HW125871   1.473   3.616   6.622  0.4657 -3.0829 -0.2858
 4746SOL    HW225872   1.479   3.528   6.496  1.0612 -0.0828 -0.0088
 4747SOL     OW25873   3.157   2.122  14.167  0.3409  0.1250  0.1105
 4747SOL    HW125874   3.213   2.168  14.104  2.4146  1.2650  2.8209
 4747SOL    HW225875   3.216   2.056  14.205 -0.3762 -1.3967 -1.3890
 4748SOL     OW25876   3.936   4.248   4.454  0.3415  0.9628 -0.5101
 4748SOL    HW125877   3.912   4.313   4.520  0.0219  2.2210 -1.8552
 4748SOL    HW225878   3.883   4.278   4.380 -1.4708  0.4735  0.5870
 4749SOL     OW25879   3.594   4.149   3.260 -0.4430  0.1448 -0.3859
 4749SOL    HW125880   3.624   4.139   3.170  0.9009 -0.7012  0.1558
 4749SOL    HW225881   3.674   4.128   3.309 -0.2945  5.0640  1.4682
 4750SOL     OW25882   2.167   1.452  15.648  0.3656 -0.4156 -0.3074
 4750SOL    HW125883   2.195   1.535  15.608 -0.3226  0.0909  0.2702
 4750SOL    HW225884   2.106   1.468  15.719  0.9260  0.5901 -0.0510
 4751SOL     OW25885   4.347   2.803   2.392  0.1347 -0.1002  0.2069
 4751SOL    HW125886   4.370   2.771   2.304 -0.1287 -0.1628  0.1600
 4751SOL    HW225887   4.335   2.724   2.444 -1.7442  1.5078  2.1867
 4752SOL     OW25888   1.499   2.250  15.783  0.2137  0.1247 -0.7448
 4752SOL    HW125889   1.411   2.263  15.818  0.8808  0.0175  0.9426
 4752SOL    HW225890   1.556   2.294  15.846 -0.4345 -1.0291  0.6534
 4753SOL     OW25891   3.594   2.589   4.213 -0.1796 -0.4068 -0.5128
 4753SOL    HW125892   3.662   2.656   4.213  0.1956 -0.7856 -1.2573
 4753SOL    HW225893   3.648   2.517   4.183  2.0856  1.3158 -0.5428
 4754SOL     OW25894   4.428   2.002   1.954 -0.2270  0.5291 -0.7254
 4754SOL    HW125895   4.437   1.940   1.882 -0.4878  2.4408 -2.4146
 4754SOL    HW225896   4.435   2.090   1.916  0.7495  0.2215 -1.2426
 4755SOL     OW25897   1.073   0.422   3.179  0.0889  0.6123 -0.0183
 4755SOL    HW125898   1.081   0.388   3.268 -1.3985  1.7759  0.5788
 4755SOL    HW225899   1.139   0.491   3.189  0.5594  0.2248 -0.4859
 4756SOL     OW25900   2.272   1.632  17.708  0.0125 -0.4116 -0.0273
 4756SOL    HW125901   2.200   1.645   0.038  0.5089  0.3759  0.3726
 4756SOL    HW225902   2.215   1.639  17.631 -0.6419  0.7444  0.5506
 4757SOL     OW25903   4.167   2.316  16.782 -0.6902 -0.0672 -0.3410
 4757SOL    HW125904   4.176   2.232  16.737 -2.2357  0.0350 -0.8653
 4757SOL    HW225905   4.078   2.336  16.752 -0.6785 -0.3765 -0.5864
 4758SOL     OW25906   3.450   2.721   9.732  0.3934 -0.2789 -0.0250
 4758SOL    HW125907   3.518   2.743   9.796 -2.2769  1.2224  2.2864
 4758SOL    HW225908   3.376   2.766   9.772 -0.7271 -1.3628 -0.8977
 4759SOL     OW25909   4.445   3.659   6.003  0.1212 -0.1322 -0.0307
 4759SOL    HW125910   4.515   3.704   5.956 -1.9152 -1.0356 -3.9497
 4759SOL    HW225911   4.485   3.645   6.088  1.0619 -0.6688 -0.5629
 4760SOL     OW25912   3.344   1.371   5.552  0.3410  0.3746  0.2499
 4760SOL    HW125913   3.328   1.278   5.531  0.1681  0.7812 -1.4324
 4760SOL    HW225914   3.364   1.350   5.643  1.2049  1.2220  0.2519
 4761SOL     OW25915   2.469   3.429   2.306  0.5707 -0.3979 -0.5307
 4761SOL    HW125916   2.473   3.354   2.247  0.5826  0.0171 -1.0612
 4761SOL    HW225917   2.441   3.499   2.246  1.5804  0.0730 -0.4601
 4762SOL     OW25918   3.838   0.234  17.349  0.1258 -0.2714  0.3520
 4762SOL    HW125919   3.906   0.166  17.352  0.5824  0.1078 -1.1157
 4762SOL    HW225920   3.766   0.173  17.335 -0.5871  0.4677  0.8758
 4763SOL     OW25921   4.148   0.332   9.066 -0.3118  0.3349  0.4389
 4763SOL    HW125922   4.171   0.244   9.038 -0.4015  0.3155  0.4273
 4763SOL    HW225923   4.102   0.311   9.147  1.0440  2.7019  1.8506
 4764SOL     OW25924   3.206   2.331   1.805  0.7096  0.1685 -0.1674
 4764SOL    HW125925   3.120   2.290   1.820 -0.3530  1.8385 -1.7548
 4764SOL    HW225926   3.249   2.269   1.746  0.9448 -0.1278  0.3146
 4765SOL     OW25927   4.352   1.875   1.657 -0.3342 -0.0126 -0.4085
 4765SOL    HW125928   4.440   1.882   1.621 -0.6210  0.6192 -0.9880
 4765SOL    HW225929   4.325   1.790   1.622  0.6877 -1.1025  1.4743
 4766SOL     OW25930   3.899   0.862   2.409 -0.9180  0.0156  0.2304
 4766SOL    HW125931   3.888   0.950   2.372 -2.2043 -0.0061  0.5606
 4766SOL    HW225932   3.869   0.861   2.500 -2.1191  1.8373 -0.1471
 4767SOL     OW25933   4.312   4.310  15.116  0.2052 -0.4350 -0.0824
 4767SOL    HW125934   4.372   4.312  15.042  0.3343  0.7612  0.0510
 4767SOL    HW225935   4.345   4.223  15.140  0.1029 -0.0958  1.3421
 4768SOL     OW25936   2.367   3.330   4.879  0.1643 -0.3671 -0.0310
 4768SOL    HW125937   2.329   3.298   4.961  0.4868 -0.2350  0.1697
 4768SOL    HW225938   2.451   3.369   4.903  0.1221  1.6210 -3.0606
 4769SOL     OW25939   1.634   1.450   6.662 -0.6367 -0.7025  0.0341
 4769SOL    HW125940   1.541   1.467   6.674 -0.2092 -0.1194  2.5685
 4769SOL    HW225941   1.647   1.355   6.661  2.7852 -0.2712  1.8354
 4770SOL     OW25942   4.213   0.289   2.968  0.1631  0.2799  0.1069
 4770SOL    HW125943   4.265   0.247   3.037  1.0216 -0.2309 -0.8503
 4770SOL    HW225944   4.278   0.347   2.927 -1.8771  1.0642 -1.9920
 4771SOL     OW25945   0.562   0.218  10.026 -0.0364  0.5870 -0.4355
 4771SOL    HW125946   0.555   0.214  10.121  0.5640  0.6209 -0.3857
 4771SOL    HW225947   0.487   0.171   9.990  1.0020 -0.0212 -1.7894
 4772SOL     OW25948   2.516   0.951   2.791  0.3575  0.2216  0.1103
 4772SOL    HW125949   2.493   1.035   2.832 -0.5579 -0.6594  1.4030
 4772SOL    HW225950   2.539   0.903   2.870  0.5656 -3.3326 -2.0860
 4773SOL     OW25951   4.204   4.215   6.977  0.0876 -0.3662  0.3601
 4773SOL    HW125952   4.140   4.228   7.047  2.5500  3.2684  1.9614
 4773SOL    HW225953   4.203   4.299   6.931  1.5636  0.0618  1.1141
 4774SOL     OW25954   3.728   0.469   3.005  0.0269 -0.6143 -0.0275
 4774SOL    HW125955   3.790   0.514   3.062 -0.3277 -1.0343  0.7045
 4774SOL    HW225956   3.648   0.515   3.030 -0.8599 -0.9634 -2.2311
 4775SOL     OW25957   0.989   1.704   8.604 -0.4137  0.0181  0.2589
 4775SOL    HW125958   1.060   1.647   8.637 -0.0120  1.0980  1.2607
 4775SOL    HW225959   0.957   1.758   8.676 -0.2377  2.1263 -1.2652
 4776SOL     OW25960   1.464   4.666   3.569 -0.4820 -0.3912  0.4053
 4776SOL    HW125961   1.478   0.026   3.584  0.3517 -0.6499  1.2325
 4776SOL    HW225962   1.405   4.647   3.642 -0.2436 -1.9605  0.1977
 4777SOL     OW25963   1.328   1.541   9.406 -0.8832 -0.8552  0.1905
 4777SOL    HW125964   1.299   1.546   9.497  0.5360  1.3688  0.5196
 4777SOL    HW225965   1.274   1.475   9.364 -1.0249 -0.8869  0.4239
 4778SOL     OW25966   1.044   4.242   8.377  0.1851 -0.0102  0.7391
 4778SOL    HW125967   1.134   4.217   8.356 -0.6611 -0.7463 -1.9941
 4778SOL    HW225968   1.040   4.337   8.369  1.1973  0.1170  1.8223
 4779SOL     OW25969   3.997   0.021   6.587  0.2779 -0.1064 -0.5064
 4779SOL    HW125970   3.961   0.059   6.667 -0.8400  3.2886 -2.6279
 4779SOL    HW225971   3.994   0.102   6.535  2.6934  1.4421  1.8075
 4780SOL     OW25972   0.387   2.086   3.386  0.3112  0.4072  0.0068
 4780SOL    HW125973   0.423   2.033   3.315 -1.9739  0.8597 -1.5039
 4780SOL    HW225974   0.413   2.039   3.465 -2.6921 -0.3156  0.5676
 4781SOL     OW25975   2.459   0.515  13.005  0.5258 -0.2459  0.2121
 4781SOL    HW125976   2.516   0.494  12.930  0.0815  0.6954 -0.3886
 4781SOL    HW225977   2.490   0.456  13.073 -1.4152 -0.0463  1.2629
 4782SOL     OW25978   3.993   1.709   7.478  0.1774 -0.8220  0.2365
 4782SOL    HW125979   3.901   1.683   7.490 -0.6532  1.9323 -0.2941
 4782SOL    HW225980   4.005   1.707   7.383 -0.3185  0.3700  0.1480
 4783SOL     OW25981   2.525   3.151  11.204 -0.5208  0.3034 -0.3476
 4783SOL    HW125982   2.619   3.141  11.193 -0.4778  1.3273 -0.8956
 4783SOL    HW225983   2.489   3.199  11.129  1.4765  1.5775 -0.4699
 4784SOL     OW25984   0.498   0.512  11.222  0.0877 -0.0065  0.2266
 4784SOL    HW125985   0.525   0.603  11.210 -0.6841  0.0262 -1.2450
 4784SOL    HW225986   0.403   0.522  11.227 -0.0990 -0.8889 -1.3230
 4785SOL     OW25987   1.888   1.191   7.729 -1.2546 -0.6755  0.0388
 4785SOL    HW125988   1.886   1.275   7.684 -2.0616 -0.9862 -0.5171
 4785SOL    HW225989   1.796   1.169   7.748 -1.5492  0.8660  0.3973
 4786SOL     OW25990   3.557   1.924   0.960  0.2100 -0.6276  1.0747
 4786SOL    HW125991   3.557   1.993   1.026  1.0535 -0.7222  1.1835
 4786SOL    HW225992   3.480   1.948   0.909  1.1708  0.2523  0.0137
 4787SOL     OW25993   1.690   2.107   4.450 -0.5885  0.4628  0.3941
 4787SOL    HW125994   1.629   2.045   4.489 -0.1022  0.4964  1.1940
 4787SOL    HW225995   1.777   2.098   4.489 -0.4099 -1.6132 -0.4441
 4788SOL     OW25996   3.107   3.935   6.544  0.2581  0.3702  0.1872
 4788SOL    HW125997   3.094   3.910   6.635  0.6227  0.2035  0.1922
 4788SOL    HW225998   3.125   3.848   6.508 -1.6370 -0.3290  0.8961
 4789SOL     OW25999   3.494   4.199   7.110  0.1652 -0.1263 -0.0130
 4789SOL    HW126000   3.470   4.245   7.191  0.0319  0.1798 -0.2266
 4789SOL    HW226001   3.578   4.242   7.090 -0.9469  1.5176 -1.1704
 4790SOL     OW26002   1.994   3.908  10.701 -0.2051  0.4805 -0.1375
 4790SOL    HW126003   2.013   3.903  10.794  0.3824 -2.9575 -0.4556
 4790SOL    HW226004   1.989   4.003  10.688  0.6358  0.7532  1.5715
 4791SOL     OW26005   2.331   0.445  12.594 -0.4267 -0.4284  0.3765
 4791SOL    HW126006   2.285   0.519  12.634  0.4349 -0.1229  0.8109
 4791SOL    HW226007   2.351   0.382  12.664  1.8147  0.2365  0.3595
 4792SOL     OW26008   1.162   1.744  17.266  0.6073  0.0078 -0.0685
 4792SOL    HW126009   1.160   1.799  17.188  0.0598  1.9447  1.3274
 4792SOL    HW226010   1.186   1.811  17.330 -2.7031 -0.9440  2.1898
 4793SOL     OW26011   0.352   1.289   2.449  0.1049 -0.3785 -0.2870
 4793SOL    HW126012   0.398   1.313   2.530  1.3595  0.8658 -1.3900
 4793SOL    HW226013   0.334   1.196   2.465  1.3758 -0.4299  0.9169
 4794SOL     OW26014   2.195   0.256   6.025  0.2537 -0.1441  0.1332
 4794SOL    HW126015   2.288   0.272   6.038  0.3324  0.9410 -1.8257
 4794SOL    HW226016   2.148   0.321   6.077 -2.7250 -2.0995 -0.1051
 4795SOL     OW26017   3.933   0.205   5.718  0.1651 -0.0835  0.3932
 4795SOL    HW126018   3.843   0.183   5.744 -0.7894 -0.5308 -3.2574
 4795SOL    HW226019   3.929   0.292   5.678 -0.8176 -0.6438 -0.7295
 4796SOL     OW26020   1.330   1.232   1.124  0.2568  0.6016  0.0706
 4796SOL    HW126021   1.326   1.138   1.136 -0.1082  0.5570 -0.3730
 4796SOL    HW226022   1.343   1.227   1.029 -2.4717 -0.0787 -0.2709
 4797SOL     OW26023   4.100   0.641   2.735 -0.1430 -0.0857  0.1750
 4797SOL    HW126024   4.062   0.602   2.814 -0.4297 -1.7090 -0.7653
 4797SOL    HW226025   4.046   0.599   2.669  0.1693  0.1334 -0.2155
 4798SOL     OW26026   0.844   1.173   6.777  0.3509  0.0460  0.4938
 4798SOL    HW126027   0.884   1.139   6.697  2.8625  0.5119  1.5752
 4798SOL    HW226028   0.769   1.217   6.737  0.1832 -0.0975  0.6498
 4799SOL     OW26029   2.974   4.362   7.129 -0.2378  0.1210 -0.9157
 4799SOL    HW126030   2.911   4.343   7.198 -1.8584  1.9510 -1.9001
 4799SOL    HW226031   3.037   4.290   7.135  0.9878  1.3345  0.5419
 4800SOL     OW26032   1.628   2.924  11.383 -0.1757 -0.4394 -0.7524
 4800SOL    HW126033   1.632   3.002  11.439  1.0772  0.1061 -1.6133
 4800SOL    HW226034   1.675   2.861  11.437  0.4527  1.4121  0.8859
 4801SOL     OW26035   3.752   1.401   0.471 -0.1933 -0.3377 -0.4203
 4801SOL    HW126036   3.694   1.365   0.403 -1.2924 -0.2913  0.4914
 4801SOL    HW226037   3.800   1.469   0.424  1.6128  0.8235  3.0974
 4802SOL     OW26038   1.849   1.689   2.626 -0.1372  0.1218  0.1069
 4802SOL    HW126039   1.856   1.641   2.544  2.3823  0.7586 -0.0756
 4802SOL    HW226040   1.934   1.681   2.671  0.6122  0.6237 -1.2012
 4803SOL     OW26041   3.227   3.414   7.529  0.1241 -0.0438 -0.2012
 4803SOL    HW126042   3.161   3.470   7.490  0.1518  0.2034  0.1031
 4803SOL    HW226043   3.255   3.462   7.607 -0.1918 -1.4478  0.7763
 4804SOL     OW26044   1.742   1.928  15.665  0.1055 -0.5664 -0.2742
 4804SOL    HW126045   1.749   1.971  15.750  1.7007 -3.3945  1.0264
 4804SOL    HW226046   1.702   1.994  15.608 -0.5884 -1.8135 -1.2458
 4805SOL     OW26047   3.053   0.421   1.627  0.4632 -0.0018  0.1433
 4805SOL    HW126048   2.997   0.343   1.625 -0.0931  0.3940  0.2453
 4805SOL    HW226049   2.994   0.491   1.655  0.4877  0.4263 -0.8681
 4806SOL     OW26050   3.013   1.800   5.045  0.0658  0.4796  0.1239
 4806SOL    HW126051   3.024   1.732   4.979 -1.1668  0.8183 -0.4163
 4806SOL    HW226052   3.100   1.839   5.036 -0.1619  0.5761 -1.5521
 4807SOL     OW26053   1.397   0.515   6.198 -0.3243 -0.0326 -0.1313
 4807SOL    HW126054   1.398   0.538   6.291  2.1197 -1.0830  0.1116
 4807SOL    HW226055   1.397   0.600   6.154 -2.3932 -1.7417 -3.4155
 4808SOL     OW26056   2.719   3.776   5.515 -0.3080  0.5233  0.6182
 4808SOL    HW126057   2.807   3.743   5.536 -0.9051 -0.2264  1.9601
 4808SOL    HW226058   2.703   3.743   5.427  2.4191  1.3322 -0.1819
 4809SOL     OW26059   3.449   1.481   8.924 -0.1578 -0.1299  0.0680
 4809SOL    HW126060   3.464   1.416   8.855  0.8975 -2.5208  2.5291
 4809SOL    HW226061   3.383   1.437   8.977  0.5028 -0.8566  0.2880
 4810SOL     OW26062   3.833   3.898   4.854  0.0195  0.5077  1.1414
 4810SOL    HW126063   3.778   3.929   4.926  2.1324  1.8355  2.1659
 4810SOL    HW226064   3.824   3.968   4.789 -0.7055 -0.6030  0.0357
 4811SOL     OW26065   3.482   4.526   9.154 -0.2108  0.2004  0.0316
 4811SOL    HW126066   3.571   4.535   9.119  0.1496  1.6625  1.3100
 4811SOL    HW226067   3.479   4.431   9.161  2.0031  0.0947 -0.5207
 4812SOL     OW26068   0.120   4.516   2.443  0.6515 -0.4140  0.6972
 4812SOL    HW126069   0.120   4.421   2.431  0.2891 -0.4566  1.0262
 4812SOL    HW226070   0.204   4.523   2.488  1.2565 -1.5696 -0.2529
 4813SOL     OW26071   3.933   1.038  15.311 -0.1108  0.3164 -0.0321
 4813SOL    HW126072   3.940   1.128  15.280  1.6157  0.4378  0.7062
 4813SOL    HW226073   3.952   0.992  15.230 -0.5890  1.5952 -0.8743
 4814SOL     OW26074   0.983   4.102   3.070  0.4940  0.1047 -0.8722
 4814SOL    HW126075   0.947   4.027   3.024 -2.0392  1.3529 -0.9365
 4814SOL    HW226076   0.924   4.121   3.143  2.0697  0.2664  0.3647
 4815SOL     OW26077   0.172   1.356   6.386 -0.7235 -0.1665 -0.3799
 4815SOL    HW126078   0.253   1.325   6.345 -1.3856  1.4048 -2.8580
 4815SOL    HW226079   0.187   1.336   6.478  0.2872 -0.0961 -0.5320
 4816SOL     OW26080   0.481   0.585  13.211  0.0765 -0.0234  0.1155
 4816SOL    HW126081   0.468   0.496  13.176 -0.2563  0.4770 -1.0573
 4816SOL    HW226082   0.567   0.564  13.247  0.3120 -0.8105 -0.8828
 4817SOL     OW26083   4.332   4.664   1.652  0.2328 -0.1111  0.8237
 4817SOL    HW126084   4.334   4.572   1.679  1.6087 -0.3852 -0.1907
 4817SOL    HW226085   4.424   4.688   1.662  0.2275 -1.0182  3.0756
 4818SOL     OW26086   1.870   3.578   4.718 -0.6218  0.4348  0.0992
 4818SOL    HW126087   1.855   3.507   4.780  0.1808  0.4623  0.3361
 4818SOL    HW226088   1.858   3.652   4.778  0.5538  1.2558 -0.6697
 4819SOL     OW26089   4.484   0.755   3.826  0.2955  0.1930 -0.2082
 4819SOL    HW126090   4.557   0.799   3.871 -1.9474  0.8196  2.8091
 4819SOL    HW226091   4.524   0.701   3.759  2.0510  2.8785 -1.3326
 4820SOL     OW26092   3.883   1.068   3.695 -0.0276  0.3692 -0.2754
 4820SOL    HW126093   3.882   1.158   3.663 -1.0833  0.2210 -0.6524
 4820SOL    HW226094   3.944   1.077   3.767 -0.6811 -2.4897  0.6547
 4821SOL     OW26095   1.693   2.949  12.974 -0.0661  0.4311 -0.2365
 4821SOL    HW126096   1.703   3.040  13.001 -1.3675  0.9081 -1.3813
 4821SOL    HW226097   1.601   2.928  12.988  0.1655 -2.2610 -2.8176
 4822SOL     OW26098   0.188   1.055   2.501 -0.5261 -0.3773  0.0341
 4822SOL    HW126099   0.230   1.005   2.571 -0.7431  0.3485  0.6886
 4822SOL    HW226100   0.096   1.040   2.522 -1.0370  2.0595 -0.4376
 4823SOL     OW26101   3.429   1.561   3.842  0.4131  0.3372 -0.2676
 4823SOL    HW126102   3.337   1.557   3.816  0.1319 -0.9889  0.8903
 4823SOL    HW226103   3.467   1.483   3.801 -0.1547  0.8424 -1.7607
 4824SOL     OW26104   4.658   0.423  12.657  0.1504  0.0749  0.8585
 4824SOL    HW126105   4.568   0.454  12.653  0.2745  0.2702 -0.4842
 4824SOL    HW226106   4.718   0.495  12.637  0.8072 -0.3541  1.2975
 4825SOL     OW26107   3.817   0.401   8.927 -0.3524  0.6057  0.0510
 4825SOL    HW126108   3.791   0.491   8.944 -0.9499  0.6994 -1.2935
 4825SOL    HW226109   3.903   0.424   8.893 -0.3722 -0.0748 -0.4711
 4826SOL     OW26110   0.800   2.659  11.439  0.2387 -0.0292  0.1832
 4826SOL    HW126111   0.816   2.567  11.458  1.0242  0.2336  0.8335
 4826SOL    HW226112   0.791   2.690  11.529  0.1047 -1.0589  0.5226
 4827SOL     OW26113   0.115   0.556   3.179 -0.1398 -0.0251  0.3032
 4827SOL    HW126114   0.145   0.561   3.088 -1.1487 -0.0875 -0.0320
 4827SOL    HW226115   0.192   0.578   3.231 -0.5179  0.4924  0.6344
 4828SOL     OW26116   2.920   4.211   6.831 -0.0141  0.2908  0.3807
 4828SOL    HW126117   2.908   4.226   6.925 -0.0303  2.5827  0.0265
 4828SOL    HW226118   2.859   4.139   6.817  0.5818 -0.0947 -0.2758
 4829SOL     OW26119   1.212   1.147   6.491 -0.6970  0.6053 -0.2060
 4829SOL    HW126120   1.269   1.206   6.442  1.2621  0.4978  1.9551
 4829SOL    HW226121   1.284   1.115   6.545 -1.2563 -0.3975 -0.0548
 4830SOL     OW26122   1.463   2.089   7.240 -0.4493 -0.2282 -0.1679
 4830SOL    HW126123   1.517   2.154   7.285 -0.8713  1.9548 -2.7903
 4830SOL    HW226124   1.418   2.038   7.307  0.7321  0.3318  1.0405
 4831SOL     OW26125   2.580   0.732   5.380 -0.4037 -0.3927 -0.4047
 4831SOL    HW126126   2.515   0.753   5.313  1.5935  1.4890 -1.7183
 4831SOL    HW226127   2.604   0.646   5.346  2.4635  0.7527 -1.2037
 4832SOL     OW26128   3.182   4.215   8.527  0.3636  0.4580  0.2099
 4832SOL    HW126129   3.091   4.246   8.535 -0.4670 -1.8738 -0.1509
 4832SOL    HW226130   3.205   4.184   8.614  0.7206  0.4723  0.1193
 4833SOL     OW26131   2.825   2.097   2.475 -0.8196 -0.3550 -0.2138
 4833SOL    HW126132   2.810   2.189   2.498  1.0494 -0.0924 -0.0127
 4833SOL    HW226133   2.745   2.074   2.427 -0.3682 -2.4925  0.0615
 4834SOL     OW26134   4.597   0.634   4.139 -1.2942  0.3164 -0.2741
 4834SOL    HW126135   4.615   0.684   4.218  3.4938  1.3115 -1.9812
 4834SOL    HW226136   4.614   0.700   4.072 -0.4224  0.0896 -0.2781
 4835SOL     OW26137   3.746   0.322  10.035 -0.2932  0.2324 -0.3062
 4835SOL    HW126138   3.711   0.298  10.121  0.6957 -4.1440 -1.1321
 4835SOL    HW226139   3.687   0.294   9.965  0.9058  0.0455 -1.2398
 4836SOL     OW26140   2.619   1.479   3.351 -0.0356 -0.5773  0.2061
 4836SOL    HW126141   2.551   1.546   3.358 -0.6888 -0.9625 -2.6293
 4836SOL    HW226142   2.594   1.418   3.420  0.8268 -1.4740 -0.2861
 4837SOL     OW26143   1.631   0.544   9.549 -0.1160  0.2593  0.4000
 4837SOL    HW126144   1.698   0.542   9.617  0.4230 -0.1724 -0.1437
 4837SOL    HW226145   1.659   0.469   9.496 -1.3180  1.1224 -1.4711
 4838SOL     OW26146   0.471   0.174  12.813 -0.3957 -0.1187 -0.3230
 4838SOL    HW126147   0.441   0.083  12.813 -1.1906  0.1422 -0.2434
 4838SOL    HW226148   0.562   0.164  12.842 -0.4285  3.3992  1.0114
 4839SOL     OW26149   4.142   4.553   1.469 -0.0359  0.0476  0.7778
 4839SOL    HW126150   4.216   4.563   1.529  0.7727  2.7563 -0.6698
 4839SOL    HW226151   4.184   4.601   1.398 -0.9563 -1.0400 -0.4779
 4840SOL     OW26152   3.796   2.416   4.810  0.5684 -0.4170  0.4685
 4840SOL    HW126153   3.786   2.482   4.742 -1.1974 -1.8948 -0.6890
 4840SOL    HW226154   3.798   2.470   4.890 -0.8289 -0.0924  0.2751
 4841SOL     OW26155   1.964   0.026   9.586 -0.1805 -0.0110 -0.0456
 4841SOL    HW126156   1.909   4.714   9.522 -0.7808 -1.8130  1.7301
 4841SOL    HW226157   1.905   0.040   9.661 -0.2145  2.1579 -0.4726
 4842SOL     OW26158   2.201   2.298   1.520  0.9388 -0.4600  0.3166
 4842SOL    HW126159   2.158   2.337   1.595  0.4563  2.1060 -1.2899
 4842SOL    HW226160   2.245   2.225   1.563 -2.2940 -1.1773  2.3438
 4843SOL     OW26161   0.152   2.987   3.932 -0.4995  0.6102  0.7067
 4843SOL    HW126162   0.105   3.060   3.973 -1.3175 -1.1569  2.8796
 4843SOL    HW226163   0.197   2.959   4.011 -0.2986 -1.1644 -0.0483
 4844SOL     OW26164   3.577   3.203  12.463 -0.0679  0.4455  0.3429
 4844SOL    HW126165   3.630   3.260  12.407  0.9469  0.1375  0.9960
 4844SOL    HW226166   3.597   3.228  12.553 -1.2319 -0.9145  0.9827
 4845SOL     OW26167   1.301   1.525  17.171 -0.6179 -0.0018 -0.5442
 4845SOL    HW126168   1.385   1.571  17.169 -1.3782  1.5351  2.3200
 4845SOL    HW226169   1.257   1.603  17.206 -0.7799  0.0307 -0.8236
 4846SOL     OW26170   2.003   3.144   3.868  0.4821 -0.7777 -0.5515
 4846SOL    HW126171   1.959   3.214   3.916 -0.8252 -0.8071 -1.7153
 4846SOL    HW226172   2.082   3.188   3.836 -1.2574  1.5140 -1.7110
 4847SOL     OW26173   0.853   0.875   4.994 -0.4149 -0.1081 -0.1848
 4847SOL    HW126174   0.857   0.779   4.997  0.6335 -0.1291 -2.5083
 4847SOL    HW226175   0.933   0.902   4.948 -0.6235 -3.8531 -2.7581
 4848SOL     OW26176   4.487   0.666  17.577 -0.2267 -0.3638 -0.7705
 4848SOL    HW126177   4.525   0.581  17.602  0.9309  0.0495 -1.1397
 4848SOL    HW226178   4.529   0.676  17.492 -0.7208 -0.3082 -1.0103
 4849SOL     OW26179   0.107   2.016   8.614 -0.6890  0.3802 -0.3542
 4849SOL    HW126180   0.104   1.951   8.684  0.3895  1.0456  0.3121
 4849SOL    HW226181   0.190   1.994   8.572 -1.3451 -1.9114 -0.4612
 4850SOL     OW26182   2.107   0.563   3.719  0.3607  0.8662 -0.4849
 4850SOL    HW126183   2.114   0.623   3.644  0.0571 -2.5769 -3.2768
 4850SOL    HW226184   2.045   0.499   3.684  1.4429 -0.0248 -0.7753
 4851SOL     OW26185   2.031   0.557   0.896  0.4236 -0.1848  0.4265
 4851SOL    HW126186   2.069   0.531   0.812 -0.6319 -0.9917  0.2002
 4851SOL    HW226187   2.056   0.649   0.889  2.3682 -0.6175  1.6338
 4852SOL     OW26188   2.246   0.183   5.509 -0.4348  0.4990  0.4137
 4852SOL    HW126189   2.289   0.104   5.476 -0.1438  1.1689 -0.7841
 4852SOL    HW226190   2.181   0.194   5.439  0.7810  1.8818 -0.4874
 4853SOL     OW26191   4.581   0.058   8.326  0.7296 -0.1808 -0.2010
 4853SOL    HW126192   4.584   0.152   8.342  0.9695 -0.5664  1.9870
 4853SOL    HW226193   4.635   0.048   8.248  0.7566  1.1970 -0.3483
 4854SOL     OW26194   3.991   0.278   1.652  0.0617  0.3862 -0.5283
 4854SOL    HW126195   3.903   0.245   1.635 -0.0552 -0.3631  1.6033
 4854SOL    HW226196   4.028   0.203   1.699  1.4425  0.1880 -1.9460
 4855SOL     OW26197   4.478   1.208   6.733  0.5090 -0.0608 -0.5376
 4855SOL    HW126198   4.442   1.199   6.645 -2.3865 -0.2501  0.6693
 4855SOL    HW226199   4.544   1.139   6.724 -0.6518 -1.0222 -1.6019
 4856SOL     OW26200   0.723   4.439   6.787 -0.3515  0.3863 -0.1379
 4856SOL    HW126201   0.796   4.494   6.759 -1.4949  1.6218 -0.7111
 4856SOL    HW226202   0.684   4.419   6.702  0.8780 -0.3138 -0.5186
 4857SOL     OW26203   0.604   0.308   6.077  0.0285  0.0222 -0.6290
 4857SOL    HW126204   0.590   0.231   6.023  3.1232 -2.2983  1.9167
 4857SOL    HW226205   0.542   0.375   6.047  0.2594  0.8072  0.5976
 4858SOL     OW26206   0.202   1.787   5.721  0.1938 -0.1260  0.5878
 4858SOL    HW126207   0.131   1.836   5.763 -1.4509 -0.4076 -1.8583
 4858SOL    HW226208   0.155   1.723   5.667 -0.8597 -1.9061  3.6429
 4859SOL     OW26209   1.399   3.627   7.554 -0.4068 -0.1862  0.1970
 4859SOL    HW126210   1.357   3.674   7.482  1.7635  3.7180  1.4773
 4859SOL    HW226211   1.401   3.537   7.523 -1.8495 -1.1168  2.8567
 4860SOL     OW26212   1.794   3.914   5.790 -0.5049 -0.2589 -0.2303
 4860SOL    HW126213   1.864   3.880   5.735 -2.0705 -0.7616 -1.8974
 4860SOL    HW226214   1.835   3.973   5.854  2.2939 -2.4491 -0.0202
 4861SOL     OW26215   4.568   0.524   4.753 -0.0305 -0.2318  0.5365
 4861SOL    HW126216   4.478   0.524   4.721  0.6477  2.9316 -1.5108
 4861SOL    HW226217   4.569   0.486   4.840  0.8543 -0.3182  0.4933
 4862SOL     OW26218   1.730   0.290   8.803  0.1737 -0.2115  0.6253
 4862SOL    HW126219   1.663   0.327   8.745  0.1832  1.2092  1.5441
 4862SOL    HW226220   1.705   0.335   8.884  2.6827  1.3711  0.4928
 4863SOL     OW26221   3.118   0.010   7.813  0.1082  0.0288 -0.0211
 4863SOL    HW126222   3.065   4.698   7.748  0.0621 -0.2358  0.1976
 4863SOL    HW226223   3.079   0.096   7.828  1.1863  0.4844  0.1869
 4864SOL     OW26224   2.717   0.810   8.233  0.4556 -0.0605  0.0427
 4864SOL    HW126225   2.696   0.752   8.306 -0.4243  1.2233  0.8018
 4864SOL    HW226226   2.807   0.833   8.259  0.4893  0.5074 -0.5703
 4865SOL     OW26227   4.382   0.841   4.571 -0.3708  0.6900 -0.1497
 4865SOL    HW126228   4.321   0.803   4.635  0.4789 -2.3301 -1.0987
 4865SOL    HW226229   4.372   0.932   4.597 -0.7636  1.5115 -3.2237
 4866SOL     OW26230   3.553   3.792  10.242  0.0854  0.0264  0.2980
 4866SOL    HW126231   3.544   3.870  10.188 -0.8687 -1.1292 -1.2095
 4866SOL    HW226232   3.549   3.831  10.330 -2.5911 -1.3644  0.8083
 4867SOL     OW26233   0.964   3.273   0.587  0.2486  0.4455 -0.7820
 4867SOL    HW126234   1.025   3.337   0.625  2.2624 -2.0849  0.2656
 4867SOL    HW226235   1.012   3.240   0.511 -0.8224 -0.0489 -1.2308
 4868SOL     OW26236   3.791   3.585  13.406 -0.0064  0.5813  0.0759
 4868SOL    HW126237   3.724   3.646  13.376 -0.3756  0.5155  0.7774
 4868SOL    HW226238   3.738   3.507  13.420  1.2336 -0.9669 -3.6440
 4869SOL     OW26239   0.350   0.742   1.313  0.2318 -0.2090 -0.4080
 4869SOL    HW126240   0.371   0.760   1.222 -0.8588  1.3501 -0.3382
 4869SOL    HW226241   0.263   0.779   1.327  1.3009  2.3369 -0.5652
 4870SOL     OW26242   0.742   3.425   1.623  0.1769 -0.4818 -0.4158
 4870SOL    HW126243   0.820   3.376   1.651  2.0406  3.1009  0.7151
 4870SOL    HW226244   0.788   3.509   1.630 -1.2545  0.1880  0.9793
 4871SOL     OW26245   2.977   3.172   8.168 -0.2318 -0.2625  0.4197
 4871SOL    HW126246   2.967   3.136   8.256  0.5585  1.2035  1.1111
 4871SOL    HW226247   2.890   3.201   8.140 -0.2589 -0.2330  0.5351
 4872SOL     OW26248   2.715   2.221   7.345  0.1541  0.5490  0.4807
 4872SOL    HW126249   2.648   2.256   7.286 -0.4438 -0.7622  0.3795
 4872SOL    HW226250   2.798   2.262   7.320  0.5888  0.1720  1.3080
 4873SOL     OW26251   3.032   0.411  11.890  0.5248 -0.3871 -0.2842
 4873SOL    HW126252   3.003   0.441  11.976  0.5685  1.5166 -0.9401
 4873SOL    HW226253   2.992   0.482  11.840  1.8445 -0.6721 -1.7028
 4874SOL     OW26254   0.447   3.651   7.628  0.2199 -0.8669  0.5980
 4874SOL    HW126255   0.450   3.657   7.533  0.3803  1.3610  0.7354
 4874SOL    HW226256   0.388   3.577   7.640 -0.9766  0.3646  2.3552
 4875SOL     OW26257   1.989   2.012  17.063 -0.9436  0.2086  0.1560
 4875SOL    HW126258   1.949   2.096  17.039  0.9360  1.5453  1.6764
 4875SOL    HW226259   1.938   1.981  17.138  2.6526  0.5182  2.7473
 4876SOL     OW26260   1.693   4.104   4.863  0.2513  0.2815 -0.1038
 4876SOL    HW126261   1.716   4.019   4.826 -1.2927 -0.1775  0.0042
 4876SOL    HW226262   1.776   4.125   4.905  0.4018  3.1765 -1.8549
 4877SOL     OW26263   3.351   2.152   9.595  0.2107 -0.3172 -0.1826
 4877SOL    HW126264   3.302   2.217   9.647 -0.4317 -2.7551  2.2303
 4877SOL    HW226265   3.438   2.141   9.634 -0.2374 -1.2879  0.5377
 4878SOL     OW26266   2.058   1.299   8.140 -0.1196 -0.3421 -0.4985
 4878SOL    HW126267   2.034   1.304   8.048 -0.4062 -0.5276 -0.4351
 4878SOL    HW226268   2.091   1.387   8.157 -1.4804  0.2469 -0.8972
 4879SOL     OW26269   4.484   1.681  11.856  0.4303  0.2502  0.0863
 4879SOL    HW126270   4.551   1.745  11.881  1.3076 -0.8457  0.5478
 4879SOL    HW226271   4.440   1.662  11.939 -0.5505  0.6692 -0.3387
 4880SOL     OW26272   1.511   1.349  15.624  0.5745  0.4493 -0.3565
 4880SOL    HW126273   1.420   1.335  15.597  0.6405  0.9546 -0.8601
 4880SOL    HW226274   1.567   1.332  15.548  0.3555 -0.3172 -0.3416
 4881SOL     OW26275   2.183   0.242   8.793 -0.5219 -0.4579 -0.1381
 4881SOL    HW126276   2.178   0.329   8.833  0.3656 -0.1785 -0.6624
 4881SOL    HW226277   2.202   0.265   8.703  1.2257  0.5940  0.5066
 4882SOL     OW26278   0.104   1.090   7.387  0.2101  0.0266 -0.2210
 4882SOL    HW126279   0.168   1.160   7.401 -0.7547  0.9492 -0.4601
 4882SOL    HW226280   0.036   1.142   7.344  0.1339 -0.0360 -0.1768
 4883SOL     OW26281   0.656   1.418   8.884  0.0436 -0.4986 -0.0376
 4883SOL    HW126282   0.743   1.422   8.845 -0.3013  1.6389 -0.6041
 4883SOL    HW226283   0.611   1.484   8.831  2.7422 -0.0333 -1.6906
 4884SOL     OW26284   2.504   1.194   5.266 -0.2697  0.1047  0.0742
 4884SOL    HW126285   2.555   1.141   5.327  1.3250  0.9050 -0.5374
 4884SOL    HW226286   2.577   1.233   5.217 -0.9793  0.4219 -0.7202
 4885SOL     OW26287   0.009   0.965   1.677  0.1826 -0.6015 -0.0727
 4885SOL    HW126288   0.083   0.932   1.728 -0.3889 -0.1880  1.0154
 4885SOL    HW226289   0.008   0.912   1.597  0.5850  0.7241 -0.9654
 4886SOL     OW26290   4.434   2.573   8.910 -0.6974  0.0075 -0.7927
 4886SOL    HW126291   4.474   2.529   8.985 -1.4881 -1.7172 -1.3817
 4886SOL    HW226292   4.491   2.547   8.837  1.2456 -1.4529  1.2508
 4887SOL     OW26293   0.137   0.868   7.942 -0.0251  0.2574  0.2664
 4887SOL    HW126294   0.130   0.961   7.921 -0.9726 -0.5089 -2.8137
 4887SOL    HW226295   0.048   0.838   7.960  0.9521 -1.3531  2.4492
 4888SOL     OW26296   3.997   1.377   0.615  0.0742 -0.6327  0.0854
 4888SOL    HW126297   3.913   1.413   0.586  0.0962 -1.8438 -1.4936
 4888SOL    HW226298   3.994   1.375   0.711  1.1531 -3.4116  0.0735
 4889SOL     OW26299   0.029   3.240   3.977 -0.3589  0.3693  0.1491
 4889SOL    HW126300   0.085   3.315   3.955  0.3659 -0.3827 -0.5546
 4889SOL    HW226301   0.019   3.243   4.072  0.3190  0.8188  0.2056
 4890SOL     OW26302   0.024   1.302   8.907 -0.3518 -0.0998 -0.7349
 4890SOL    HW126303   0.022   1.216   8.865 -1.2296  0.1951 -1.3041
 4890SOL    HW226304   0.085   1.277   8.976 -1.0799 -1.3190 -0.5223
 4891SOL     OW26305   4.414   2.094   3.632 -0.6999 -0.0409  0.0282
 4891SOL    HW126306   4.487   2.036   3.609 -1.0954 -0.4460 -0.2132
 4891SOL    HW226307   4.388   2.128   3.547  1.7907 -0.4867 -0.9148
 4892SOL     OW26308   2.064   0.251   1.242 -0.5471 -0.0665  0.1684
 4892SOL    HW126309   1.980   0.289   1.267 -0.7930 -2.6776  3.2154
 4892SOL    HW226310   2.061   0.278   1.150 -0.2708  2.0890  0.7822
 4893SOL     OW26311   3.455   3.643   5.722 -0.3135  0.0718  0.6475
 4893SOL    HW126312   3.421   3.609   5.805 -0.9320  0.7460  0.6698
 4893SOL    HW226313   3.545   3.622   5.744 -0.1431  1.0989  0.9334
 4894SOL     OW26314   1.586   1.572  14.549 -0.1893 -0.8117 -0.1137
 4894SOL    HW126315   1.618   1.505  14.609  2.1348 -0.9242 -1.4689
 4894SOL    HW226316   1.517   1.606  14.606 -0.2417 -1.1596  0.0320
 4895SOL     OW26317   0.629   0.245   4.401  0.0872  0.0958 -0.4285
 4895SOL    HW126318   0.613   0.159   4.363  1.2818 -0.0561 -0.6079
 4895SOL    HW226319   0.589   0.305   4.338 -1.8637 -1.5482 -0.7529
 4896SOL     OW26320   3.743   4.322   0.022 -0.0007 -0.1058 -0.1323
 4896SOL    HW126321   3.701   4.376  17.687  0.3321  0.4698  0.1253
 4896SOL    HW226322   3.667   4.275   0.056 -0.1632  0.0746 -0.2470
 4897SOL     OW26323   2.519   3.728  14.022 -0.6202 -0.1752  0.2481
 4897SOL    HW126324   2.473   3.795  14.073 -1.9422 -0.7047 -0.2647
 4897SOL    HW226325   2.469   3.733  13.941 -1.0633  0.0250  0.5328
 4898SOL     OW26326   1.948   2.906   8.290 -0.1895  0.5510 -0.2998
 4898SOL    HW126327   1.932   2.992   8.329 -0.1707  0.5068 -0.1934
 4898SOL    HW226328   1.893   2.846   8.341  1.2421 -0.0319  0.5869
 4899SOL     OW26329   3.791   4.544   5.762 -0.1003 -0.0085  0.0120
 4899SOL    HW126330   3.831   4.474   5.813  0.5019 -0.3997 -1.0020
 4899SOL    HW226331   3.717   4.577   5.814  1.3786  2.2324  0.7014
 4900SOL     OW26332   1.260   1.715  16.574 -0.5168 -0.0051  0.8239
 4900SOL    HW126333   1.255   1.639  16.632 -1.6203 -0.1532  0.5376
 4900SOL    HW226334   1.348   1.707  16.539 -0.7838 -3.0107  0.8712
 4901SOL     OW26335   3.394   3.657   0.545  0.2915  0.4157  0.0720
 4901SOL    HW126336   3.373   3.726   0.608 -1.4768 -1.3633  1.4311
 4901SOL    HW226337   3.382   3.694   0.458  0.7098  0.2521 -0.0557
 4902SOL     OW26338   1.995   2.591   5.513  0.0821 -0.0391 -0.2294
 4902SOL    HW126339   2.009   2.518   5.573  0.0890  1.0398  1.0747
 4902SOL    HW226340   1.965   2.541   5.437  0.8649  0.2989 -0.7626
 4903SOL     OW26341   2.159   0.071   1.560 -0.2266  0.4139  0.2401
 4903SOL    HW126342   2.111   0.142   1.517 -0.2563  1.2350  1.6484
 4903SOL    HW226343   2.208   0.116   1.628 -1.1530 -0.7738  1.7044
 4904SOL     OW26344   4.640   0.305   2.973  0.4662 -0.3982  0.1354
 4904SOL    HW126345   4.575   0.240   3.001 -0.9382  0.9546  0.0187
 4904SOL    HW226346   4.578   0.372   2.944  0.2431 -0.7107 -0.1037
 4905SOL     OW26347   3.400   1.503   5.984  0.3327 -0.1348 -0.0829
 4905SOL    HW126348   3.483   1.493   6.030  0.6826  0.2636 -0.6173
 4905SOL    HW226349   3.352   1.556   6.048 -1.1021 -1.0119 -0.4148
 4906SOL     OW26350   4.619   4.625  12.888 -0.1229  0.4099 -0.1557
 4906SOL    HW126351   4.665   4.571  12.953 -0.3788  0.5225  0.1157
 4906SOL    HW226352   4.694   4.683  12.870 -0.4649  1.0461  0.4914
 4907SOL     OW26353   1.619   3.954  13.974 -0.4280  0.3000  0.1462
 4907SOL    HW126354   1.551   3.947  14.041 -0.0257  1.2834  0.6519
 4907SOL    HW226355   1.582   3.886  13.917  1.5518 -0.9088  0.2988
 4908SOL     OW26356   0.368   3.312   0.513 -0.1275 -0.0195  0.0605
 4908SOL    HW126357   0.288   3.361   0.493 -0.0452  0.5973  1.2521
 4908SOL    HW226358   0.434   3.343   0.452  0.7262 -1.2128  0.3854
 4909SOL     OW26359   1.613   1.718  15.089 -0.4444  0.2826 -0.3537
 4909SOL    HW126360   1.689   1.661  15.092 -1.1145 -0.5603  1.0339
 4909SOL    HW226361   1.634   1.779  15.159 -2.1595 -0.9677  1.2650
 4910SOL     OW26362   0.067   1.461   4.161 -0.7695  0.4756  0.2560
 4910SOL    HW126363   4.729   1.401   4.183 -0.3495 -0.4857 -1.0221
 4910SOL    HW226364   0.023   1.507   4.090  0.1794 -0.2242 -0.7814
 4911SOL     OW26365   3.791   2.944   9.765 -0.2550 -0.3324 -0.4626
 4911SOL    HW126366   3.735   2.907   9.833 -0.2355  2.0468  0.8195
 4911SOL    HW226367   3.866   2.972   9.818  1.1400 -0.2829 -2.4697
 4912SOL     OW26368   2.273   2.978   3.547  0.6055  0.4063  0.6755
 4912SOL    HW126369   2.240   2.932   3.469  0.4428 -0.6642  1.3720
 4912SOL    HW226370   2.229   3.061   3.530  2.6825  1.3787  0.0364
 4913SOL     OW26371   1.667   2.397   1.894 -1.3452 -0.1317  0.2095
 4913SOL    HW126372   1.726   2.455   1.942 -0.0887 -2.1166  1.0187
 4913SOL    HW226373   1.594   2.460   1.894 -0.5570  0.7781  0.0429
 4914SOL     OW26374   4.419   0.246   6.661  0.3339  0.2522 -0.5339
 4914SOL    HW126375   4.501   0.293   6.648  0.1767  0.8575  0.6681
 4914SOL    HW226376   4.411   0.219   6.569 -0.8754  0.9654 -0.6470
 4915SOL     OW26377   2.806   0.938   2.092 -0.8875  0.3595  0.5417
 4915SOL    HW126378   2.845   1.019   2.127 -4.1818  1.3546  1.9768
 4915SOL    HW226379   2.835   0.876   2.159 -0.8155 -0.8379 -0.6163
 4916SOL     OW26380   1.923   4.093   2.516 -0.3606  0.0721  0.7042
 4916SOL    HW126381   1.960   4.120   2.600  2.4364  1.2252 -0.8900
 4916SOL    HW226382   1.851   4.038   2.546 -0.7717  0.6884  0.8281
 4917SOL     OW26383   0.553   0.298   3.079 -0.1265  0.5883  0.3443
 4917SOL    HW126384   0.626   0.311   3.140 -1.0383  0.8627  1.3774
 4917SOL    HW226385   0.601   0.299   2.996 -0.3001  1.9999  0.2690
 4918SOL     OW26386   2.977   2.605   4.267 -0.4647  0.1412 -0.4350
 4918SOL    HW126387   2.965   2.511   4.261 -0.9165  0.0730  1.5597
 4918SOL    HW226388   2.966   2.615   4.361 -2.8897  0.9678 -0.7821
 4919SOL     OW26389   1.296   4.110  12.067  0.1414 -0.4049 -0.0025
 4919SOL    HW126390   1.220   4.168  12.063  0.8198  0.2959 -2.6461
 4919SOL    HW226391   1.317   4.125  12.159  0.5970 -1.4753  0.0664
 4920SOL     OW26392   4.567   0.742   1.458  0.0240 -0.2924  0.0336
 4920SOL    HW126393   4.639   0.739   1.395 -2.1068  0.3576 -2.4467
 4920SOL    HW226394   4.520   0.666   1.422 -0.9458 -0.3551  1.4171
 4921SOL     OW26395   1.743   4.131   8.496 -0.6116  0.2247 -0.0633
 4921SOL    HW126396   1.728   4.172   8.411 -1.5235  1.1117  0.5283
 4921SOL    HW226397   1.728   4.038   8.476 -3.5209  1.1782 -2.2726
 4922SOL     OW26398   2.044   1.603   5.246  0.4892  0.1876  0.4859
 4922SOL    HW126399   2.066   1.686   5.204  1.5028  0.9294  2.4722
 4922SOL    HW226400   2.000   1.557   5.175  1.4091 -0.9909  0.6975
 4923SOL     OW26401   4.658   2.542  15.099  0.7198  0.2839 -0.1183
 4923SOL    HW126402   4.729   2.597  15.067  0.4847 -0.3408 -1.7051
 4923SOL    HW226403   4.663   2.549  15.195  2.6360 -2.0622 -0.0534
 4924SOL     OW26404   4.656   0.277   5.968 -0.2180 -0.6828  0.4144
 4924SOL    HW126405   4.634   0.243   6.054 -0.1354  1.5064  1.3183
 4924SOL    HW226406   4.571   0.313   5.941 -0.1756 -1.6510 -1.0308
 4925SOL     OW26407   3.411   1.653  11.461  0.1749 -0.1610 -0.0055
 4925SOL    HW126408   3.505   1.636  11.462  0.2308  0.1784  0.4897
 4925SOL    HW226409   3.394   1.669  11.554  0.3783  3.9538 -0.6754
 4926SOL     OW26410   3.506   2.281   8.561  0.4844  0.2652 -0.6461
 4926SOL    HW126411   3.448   2.226   8.614  0.3504 -0.0411 -1.1135
 4926SOL    HW226412   3.434   2.338   8.534  0.0731 -0.7525 -1.7035
 4927SOL     OW26413   0.768   1.775  15.285 -0.1593 -0.9781 -0.2856
 4927SOL    HW126414   0.749   1.743  15.373 -3.9232 -1.2135 -1.1680
 4927SOL    HW226415   0.719   1.858  15.286  0.2189 -0.7838  1.6910
 4928SOL     OW26416   4.244   2.106   9.482  0.0475  0.4837 -0.4854
 4928SOL    HW126417   4.174   2.167   9.505 -0.6732 -0.7373  0.6087
 4928SOL    HW226418   4.312   2.133   9.544  0.5713 -1.4239 -0.2258
 4929SOL     OW26419   2.922   1.918   2.062 -0.1392  0.2089 -0.3040
 4929SOL    HW126420   2.865   1.850   2.026 -1.4640  1.5055 -0.6372
 4929SOL    HW226421   2.890   1.926   2.152  0.9536  1.1438 -0.0009
 4930SOL     OW26422   2.098   3.315   9.026  0.1990  0.3820 -0.2338
 4930SOL    HW126423   2.084   3.258   8.950  1.4022 -0.6064  0.2825
 4930SOL    HW226424   2.151   3.268   9.090  0.9872  0.5505 -0.7567
 4931SOL     OW26425   2.754   2.702   9.009  0.4963  0.1157  0.0410
 4931SOL    HW126426   2.773   2.697   8.916 -0.0890  0.1131 -0.0749
 4931SOL    HW226427   2.798   2.778   9.048  0.0975  0.4791 -0.2213
 4932SOL     OW26428   4.286   0.438   9.531  0.0098  0.3479 -1.3146
 4932SOL    HW126429   4.357   0.502   9.531  0.0132  0.3389 -0.5325
 4932SOL    HW226430   4.220   0.485   9.581 -0.3936  1.8828 -3.3203
 4933SOL     OW26431   3.032   0.122  14.374 -0.0335  0.5969 -0.2113
 4933SOL    HW126432   3.033   0.029  14.398 -1.4071  0.8933  1.0184
 4933SOL    HW226433   3.003   0.124  14.283  1.6046  0.3076 -0.7460
 4934SOL     OW26434   1.338   0.814   4.771  0.1591 -0.2031  0.4930
 4934SOL    HW126435   1.407   0.757   4.805 -0.5165 -1.0386  0.4611
 4934SOL    HW226436   1.339   0.787   4.680  0.8665 -2.9824  1.3333
 4935SOL     OW26437   4.016   0.217   5.308 -0.4348  0.1209  0.2262
 4935SOL    HW126438   4.090   0.272   5.332 -0.7034  0.2223  0.8019
 4935SOL    HW226439   4.017   0.156   5.381  1.1399 -2.9809 -2.3522
 4936SOL     OW26440   3.126   0.488   8.685  0.6204  0.2171 -0.0135
 4936SOL    HW126441   3.204   0.509   8.738 -0.9370 -0.7678  2.6709
 4936SOL    HW226442   3.101   0.400   8.714 -0.3257 -0.0749 -1.7024
 4937SOL     OW26443   2.190   1.684  17.103  0.1961  0.0075  0.0344
 4937SOL    HW126444   2.162   1.621  17.170 -1.4268 -0.2693 -0.9189
 4937SOL    HW226445   2.265   1.717  17.153 -1.3047  1.2173  1.4890
 4938SOL     OW26446   3.952   4.567   9.485 -0.5296 -0.3716  0.1661
 4938SOL    HW126447   3.976   4.640   9.543  0.6643 -1.0227  0.5013
 4938SOL    HW226448   4.037   4.530   9.458 -1.4214 -2.4956  0.3019
 4939SOL     OW26449   3.070   0.933   3.427 -0.6888  0.0095  0.7340
 4939SOL    HW126450   3.138   0.999   3.413 -0.5230  0.1875  2.3923
 4939SOL    HW226451   3.027   0.991   3.491  0.5464  0.7963  0.8451
 4940SOL     OW26452   2.541   4.219   7.442  0.4236 -0.4179 -0.4454
 4940SOL    HW126453   2.501   4.216   7.529 -1.8895  3.0719 -1.3921
 4940SOL    HW226454   2.485   4.164   7.387 -1.3101  1.5479 -0.6420
 4941SOL     OW26455   2.364   2.783   7.968  0.4898 -0.1117  0.3206
 4941SOL    HW126456   2.309   2.841   8.021  2.0072  1.8024 -0.1548
 4941SOL    HW226457   2.433   2.754   8.028  1.5066 -2.8181 -2.1829
 4942SOL     OW26458   3.930   0.161   1.140 -0.1891 -0.1400 -0.4330
 4942SOL    HW126459   3.956   0.250   1.118 -1.0268  0.4194  0.8217
 4942SOL    HW226460   3.975   0.124   1.065  0.4649 -0.9392  0.3552
 4943SOL     OW26461   0.369   3.395  13.348 -0.4847 -0.2599 -0.9130
 4943SOL    HW126462   0.323   3.458  13.404 -0.1312  0.0127 -0.9287
 4943SOL    HW226463   0.321   3.316  13.373  0.9841 -1.2188 -1.1350
 4944SOL     OW26464   4.486   2.506  17.162  0.3988  0.1278  0.5703
 4944SOL    HW126465   4.429   2.430  17.153  1.9243 -0.7178 -2.1294
 4944SOL    HW226466   4.506   2.534  17.073  0.7496 -0.6330  0.4081
 4945SOL     OW26467   0.975   0.662   0.660  0.4181  0.9130  0.5410
 4945SOL    HW126468   1.050   0.603   0.663  0.6841  1.0873 -2.2071
 4945SOL    HW226469   0.900   0.611   0.690  0.0272  1.5633  0.6802
 4946SOL     OW26470   1.497   0.261   5.563 -0.6146 -0.0346  0.3966
 4946SOL    HW126471   1.418   0.265   5.618  0.1886 -0.9248  1.6215
 4946SOL    HW226472   1.479   0.286   5.473 -0.8200  0.9428  0.7088
 4947SOL     OW26473   2.527   0.712   2.668  0.1194 -0.1465  0.2505
 4947SOL    HW126474   2.493   0.798   2.696  0.4595 -0.0077  0.2397
 4947SOL    HW226475   2.461   0.660   2.714 -1.4734  0.1406 -1.6951
 4948SOL     OW26476   0.430   3.964  17.138 -0.0638  0.0652 -0.3414
 4948SOL    HW126477   0.483   3.983  17.216  0.9905 -2.6603 -0.4079
 4948SOL    HW226478   0.349   3.971  17.188 -0.0445 -1.1273 -0.1524
 4949SOL     OW26479   2.991   1.168  11.652 -0.0596 -0.1183 -0.0958
 4949SOL    HW126480   2.906   1.151  11.613  0.9196  0.0481 -2.3002
 4949SOL    HW226481   2.956   1.171  11.741 -0.9155  1.3985 -0.4764
 4950SOL     OW26482   2.672   4.435  15.511  0.2393 -0.7812 -0.0308
 4950SOL    HW126483   2.674   4.474  15.423  2.3457 -1.9872 -0.5307
 4950SOL    HW226484   2.742   4.370  15.507  0.0103 -1.0461  0.2864
 4951SOL     OW26485   0.355   1.749   3.840 -0.3093 -0.0534 -0.4857
 4951SOL    HW126486   0.414   1.774   3.911  0.4622 -0.9069 -0.8321
 4951SOL    HW226487   0.314   1.834   3.825 -1.8086 -0.2802  2.3588
 4952SOL     OW26488   1.930   2.495   5.267  0.4665  0.0158  0.7017
 4952SOL    HW126489   1.943   2.447   5.185  1.9091 -0.4302  1.1760
 4952SOL    HW226490   1.841   2.529   5.259  1.1926  1.3744 -1.8905
 4953SOL     OW26491   1.954   4.448   8.628 -0.0383  0.4251 -0.1228
 4953SOL    HW126492   1.914   4.517   8.575 -0.9646  1.1773  1.5472
 4953SOL    HW226493   2.013   4.394   8.575 -2.0590  0.8505 -2.7849
 4954SOL     OW26494   1.585   1.000   7.770 -0.3945  0.0737  0.1111
 4954SOL    HW126495   1.515   0.946   7.807  0.7820  0.1062  2.3867
 4954SOL    HW226496   1.648   0.942   7.728  0.8606  1.4236  0.1021
 4955SOL     OW26497   1.393   4.115  13.502  0.1376  0.4792  0.2074
 4955SOL    HW126498   1.442   4.121  13.420  1.0088  0.0560  0.7052
 4955SOL    HW226499   1.460   4.072  13.555 -0.4020 -0.8112 -0.1495
 4956SOL     OW26500   3.871   3.245   9.403  0.2545 -0.0709 -0.0315
 4956SOL    HW126501   3.839   3.192   9.476  0.8824  1.8125  1.6283
 4956SOL    HW226502   3.881   3.173   9.341 -0.0329 -0.3354  0.2273
 4957SOL     OW26503   0.115   0.753   2.209 -0.2285  0.0915 -0.0823
 4957SOL    HW126504   0.148   0.700   2.137  0.6639 -0.4641  0.7270
 4957SOL    HW226505   0.026   0.771   2.180  1.0269  2.0836 -2.7078
 4958SOL     OW26506   0.699   1.711  17.709 -0.0463 -0.3996 -0.1252
 4958SOL    HW126507   0.655   1.780  17.660 -0.9358 -1.7675 -1.2506
 4958SOL    HW226508   0.788   1.736  17.682  1.1505 -0.2060  4.0121
 4959SOL     OW26509   2.180   3.530   6.457 -0.2202 -0.7656 -0.1592
 4959SOL    HW126510   2.261   3.533   6.405 -0.1685  0.1080 -0.0415
 4959SOL    HW226511   2.121   3.469   6.414 -0.4588 -0.8460  0.2942
 4960SOL     OW26512   1.070   1.667   2.411 -0.4530 -0.3384  0.3096
 4960SOL    HW126513   0.982   1.630   2.420 -0.0970 -1.9412 -2.8464
 4960SOL    HW226514   1.124   1.589   2.402  1.0615  0.5672  1.5684
 4961SOL     OW26515   4.686   0.362   3.814 -0.1199 -0.2064  0.1189
 4961SOL    HW126516   4.621   0.322   3.872 -0.8025 -0.2719 -0.6898
 4961SOL    HW226517   4.731   0.286   3.779  1.4538  0.3626  0.9074
 4962SOL     OW26518   2.713   0.066  13.175  0.0156  0.7456  0.1608
 4962SOL    HW126519   2.761   4.716  13.172  0.2979  0.9468 -0.6788
 4962SOL    HW226520   2.628   0.024  13.187  0.0654  1.2482  2.2859
 4963SOL     OW26521   0.957   1.799   3.173  0.6808  0.4213 -0.6940
 4963SOL    HW126522   0.870   1.808   3.133  0.6963 -0.8168 -1.0135
 4963SOL    HW226523   0.976   1.890   3.197  2.1293 -0.1541  0.3072
 4964SOL     OW26524   4.260   1.952  11.622  0.4883 -0.6151 -0.1554
 4964SOL    HW126525   4.261   1.874  11.677  0.1968 -0.7992 -0.4106
 4964SOL    HW226526   4.346   1.942  11.583  0.4929 -0.5510 -0.1612
 4965SOL     OW26527   0.584   3.898  13.562  0.5397  0.0656 -0.1638
 4965SOL    HW126528   0.580   3.899  13.657  0.2420 -0.7372 -0.1725
 4965SOL    HW226529   0.590   3.991  13.538 -2.5881  0.3853  0.2577
 4966SOL     OW26530   4.570   1.434   1.650  0.1983 -0.2921 -0.2268
 4966SOL    HW126531   4.570   1.430   1.746 -1.4638  2.8773 -0.1021
 4966SOL    HW226532   4.628   1.362   1.627 -0.4432 -0.4407 -1.3773
 4967SOL     OW26533   3.758   3.432   4.291 -0.1559 -0.3043  0.2684
 4967SOL    HW126534   3.675   3.398   4.259  0.1656  0.0581 -0.9536
 4967SOL    HW226535   3.724   3.481   4.367  1.4210 -1.5095  1.7359
 4968SOL     OW26536   0.003   1.641  12.513  0.4976  0.0078  0.1183
 4968SOL    HW126537   0.094   1.618  12.495  0.4667  0.9128 -1.2376
 4968SOL    HW226538   4.712   1.586  12.587 -0.1799 -0.8024 -0.7129
 4969SOL     OW26539   1.414   3.455   9.340  0.0895  0.7501 -0.0598
 4969SOL    HW126540   1.437   3.547   9.329  1.8909  0.2466 -0.4697
 4969SOL    HW226541   1.498   3.410   9.331  0.7697  1.7573  1.2403
 4970SOL     OW26542   4.082   3.013   2.689 -0.1248 -0.7160 -0.1132
 4970SOL    HW126543   4.174   3.010   2.718  0.5034 -0.2279 -2.0391
 4970SOL    HW226544   4.105   2.995   2.598  1.4730  6.3237 -1.1195
 4971SOL     OW26545   1.982   2.779   2.414 -0.6266 -0.2509 -0.2069
 4971SOL    HW126546   2.019   2.848   2.359 -0.9156 -1.6323 -2.1395
 4971SOL    HW226547   2.042   2.779   2.489 -1.6876  0.4044  0.6309
 4972SOL     OW26548   2.797   0.107   3.860 -0.0631 -0.0156  0.6237
 4972SOL    HW126549   2.809   0.063   3.944 -0.0360  1.0231  1.1672
 4972SOL    HW226550   2.756   0.185   3.897 -0.4808  0.6353 -1.1999
 4973SOL     OW26551   3.546   4.253   9.205  0.3419 -0.5531  0.0543
 4973SOL    HW126552   3.493   4.189   9.252  1.9529 -1.6854  0.3564
 4973SOL    HW226553   3.600   4.215   9.136 -1.2898 -0.8159 -1.0740
 4974SOL     OW26554   2.726   4.272  15.852 -0.3983  0.3210  0.1420
 4974SOL    HW126555   2.703   4.361  15.880 -2.8557 -0.9982  2.2484
 4974SOL    HW226556   2.801   4.250  15.907  0.1577  1.5683 -0.1119
 4975SOL     OW26557   0.608   2.307  13.046 -0.4460 -0.3151 -0.2522
 4975SOL    HW126558   0.630   2.376  13.109 -1.2985 -1.1895  0.9962
 4975SOL    HW226559   0.545   2.355  12.991 -2.9466 -1.5694  1.5447
 4976SOL     OW26560   0.855   1.385   6.542 -0.2762  0.7599 -0.6135
 4976SOL    HW126561   0.894   1.458   6.590  1.6205 -0.9653  0.5119
 4976SOL    HW226562   0.882   1.401   6.451 -1.8394  0.9565 -1.0454
 4977SOL     OW26563   2.580   0.266   3.097 -0.1951 -0.1905 -0.0623
 4977SOL    HW126564   2.518   0.258   3.024  0.6540 -1.2868 -0.6677
 4977SOL    HW226565   2.591   0.171   3.110  1.9563  0.4501  2.8199
 4978SOL     OW26566   0.993   1.545   5.144 -0.1075 -0.1139 -0.1103
 4978SOL    HW126567   0.949   1.534   5.228 -0.6133  1.5137 -0.1537
 4978SOL    HW226568   1.024   1.455   5.138  2.6243  0.8894 -0.8786
 4979SOL     OW26569   2.262   3.631   2.867 -0.0389 -0.3535  0.0651
 4979SOL    HW126570   2.305   3.709   2.901  1.7709 -1.8600  1.2470
 4979SOL    HW226571   2.319   3.610   2.793 -0.5475 -0.2947 -0.3419
 4980SOL     OW26572   1.533   0.237   7.861  0.2165  0.6817 -0.6812
 4980SOL    HW126573   1.626   0.231   7.839  0.5375  1.7401  0.3961
 4980SOL    HW226574   1.525   0.212   7.953 -0.2595 -4.3348 -2.0917
 4981SOL     OW26575   2.862   2.452   8.448 -0.0972 -0.2162  0.5515
 4981SOL    HW126576   2.803   2.514   8.491  0.3925  2.4465 -2.6219
 4981SOL    HW226577   2.813   2.440   8.367  0.4581  0.1476  0.1615
 4982SOL     OW26578   0.554   1.722   2.071  0.4332  0.0966 -0.1521
 4982SOL    HW126579   0.530   1.707   2.162  1.2393 -0.3127 -0.0157
 4982SOL    HW226580   0.520   1.641   2.032 -2.2507  0.4302  1.4883
 4983SOL     OW26581   2.030   1.034   7.044  0.3174 -0.4507 -0.3451
 4983SOL    HW126582   2.126   1.035   7.036  0.3482 -0.5770  0.0241
 4983SOL    HW226583   2.023   1.046   7.138  1.3540 -0.8995 -0.2057
 4984SOL     OW26584   1.915   2.123   2.228  0.0057  1.0099 -0.2582
 4984SOL    HW126585   2.005   2.142   2.254  0.4842 -0.4436 -0.8260
 4984SOL    HW226586   1.924   2.137   2.133 -0.7442 -0.4635 -0.5472
 4985SOL     OW26587   2.878   3.847  12.252  0.3630 -0.1529 -0.1742
 4985SOL    HW126588   2.804   3.803  12.295 -0.8826  0.2150 -1.9344
 4985SOL    HW226589   2.936   3.772  12.263 -1.0726 -0.7715  3.1479
 4986SOL     OW26590   2.267   3.201   2.656  0.3420 -0.0806  0.2901
 4986SOL    HW126591   2.198   3.241   2.602  1.4190  1.0660 -0.2577
 4986SOL    HW226592   2.336   3.266   2.641  1.2773 -0.4783  2.9228
 4987SOL     OW26593   1.979   3.719   2.221  0.1031  0.2379  0.0818
 4987SOL    HW126594   2.004   3.641   2.271 -1.3053  1.4929  2.7401
 4987SOL    HW226595   1.968   3.676   2.136  0.9577 -0.5487  0.3568
 4988SOL     OW26596   4.009   2.609   1.532  0.2012 -0.1140  0.1850
 4988SOL    HW126597   4.078   2.652   1.481  0.6011  0.4943  1.2444
 4988SOL    HW226598   4.046   2.535   1.580 -1.5403 -0.6645  0.6764
 4989SOL     OW26599   1.269   3.202   6.538 -0.0220  0.1762  0.2197
 4989SOL    HW126600   1.264   3.115   6.499 -1.0100  0.1984  0.3043
 4989SOL    HW226601   1.235   3.188   6.627 -1.2006  0.5273 -0.1846
 4990SOL     OW26602   0.024   0.510   5.307 -0.1540  0.0266 -0.4389
 4990SOL    HW126603   0.111   0.475   5.290 -0.0588  0.5002 -0.9408
 4990SOL    HW226604   0.041   0.604   5.312 -2.6975  0.4530  0.2121
 4991SOL     OW26605   3.824   2.387   4.266 -0.1982  0.1938  0.8523
 4991SOL    HW126606   3.862   2.410   4.351  0.7496  2.8799 -0.2959
 4991SOL    HW226607   3.820   2.297   4.296  0.0356  0.2306  0.9897
 4992SOL     OW26608   4.342   4.074   2.498  0.5904  0.2657 -0.3798
 4992SOL    HW126609   4.297   4.139   2.444  0.5479 -0.9922 -1.8387
 4992SOL    HW226610   4.346   4.001   2.436 -1.4871 -0.6190  0.5362
 4993SOL     OW26611   0.852   3.258   7.461 -0.0600 -0.2407 -0.3701
 4993SOL    HW126612   0.824   3.312   7.535  0.3528 -0.0110 -0.3828
 4993SOL    HW226613   0.897   3.182   7.498  1.1520  1.7366  2.1960
 4994SOL     OW26614   2.330   3.733   3.809  0.0106 -0.2333 -0.0424
 4994SOL    HW126615   2.265   3.803   3.816  0.9893  0.5519  1.1846
 4994SOL    HW226616   2.407   3.791   3.812 -1.8410  2.2184 -0.0319
 4995SOL     OW26617   1.320   0.029   7.405 -0.3109 -0.7490  0.0523
 4995SOL    HW126618   1.327   4.719   7.320 -0.5614 -0.2267 -0.2287
 4995SOL    HW226619   1.397   4.732   7.454 -0.2129 -0.4965  0.0524
 4996SOL     OW26620   0.219   1.677  17.056  0.0130  0.1727 -0.5035
 4996SOL    HW126621   0.241   1.707  17.144 -1.6232 -0.4805  0.1277
 4996SOL    HW226622   0.306   1.676  17.017  0.7325  0.4562  1.0959
 4997SOL     OW26623   1.129   1.404   3.554 -0.5016  0.2841 -0.3373
 4997SOL    HW126624   1.093   1.353   3.627  1.0051  1.0460  0.9366
 4997SOL    HW226625   1.143   1.489   3.596 -3.1955  0.3697  0.4064
 4998SOL     OW26626   4.377   1.141  10.468 -0.3680  0.4744 -0.5502
 4998SOL    HW126627   4.373   1.113  10.377 -0.2356  0.8747 -0.6756
 4998SOL    HW226628   4.326   1.070  10.508 -0.6153  0.4364 -0.9383
 4999SOL     OW26629   1.507   0.872   5.390 -0.2048 -0.4881  0.0922
 4999SOL    HW126630   1.557   0.791   5.378  0.1130 -0.3858  0.7528
 4999SOL    HW226631   1.527   0.918   5.308  0.3935 -0.7050  0.1138
 5000SOL     OW26632   1.582   4.584  12.238  0.0488 -0.3840  0.1012
 5000SOL    HW126633   1.637   4.510  12.265 -1.2410 -1.1174  0.7389
 5000SOL    HW226634   1.508   4.567  12.297  0.7735 -1.8928  0.5892
 5001SOL     OW26635   3.496   0.979   8.672 -0.1815 -0.0314  0.1413
 5001SOL    HW126636   3.584   1.012   8.655  0.6520 -1.7805  1.0673
 5001SOL    HW226637   3.505   0.893   8.714  0.7103  0.0007  0.0127
 5002SOL     OW26638   1.922   0.165  14.463  0.3572  0.2061  0.3865
 5002SOL    HW126639   1.970   0.123  14.391 -2.5746 -1.7761 -0.4222
 5002SOL    HW226640   1.889   0.082  14.497  0.2849 -0.6632 -1.7669
 5003SOL     OW26641   0.380   4.691  16.595  0.3663  0.1144 -0.4530
 5003SOL    HW126642   0.442   0.028  16.575  4.2335 -2.8522  1.2356
 5003SOL    HW226643   0.324   4.681  16.518 -2.0319  2.6107  0.9850
 5004SOL     OW26644   1.873   1.708  10.869  0.2355 -0.9251 -0.1235
 5004SOL    HW126645   1.809   1.776  10.846  0.0594 -1.4552 -1.2088
 5004SOL    HW226646   1.896   1.736  10.958  1.1753 -1.1507 -0.2926
 5005SOL     OW26647   0.002   2.199   9.219  0.5614 -0.5356  0.1368
 5005SOL    HW126648   4.647   2.218   9.253  0.2003 -1.2393 -0.3941
 5005SOL    HW226649   0.013   2.110   9.253  1.6095 -0.3648  0.2442
 5006SOL     OW26650   1.169   4.707   5.650 -0.4653  0.1980  0.1556
 5006SOL    HW126651   1.238   4.682   5.589 -0.0360 -0.7225  1.0206
 5006SOL    HW226652   1.210   4.681   5.733  0.8978  1.9364  0.0159
 5007SOL     OW26653   1.160   0.090   6.801  0.4278 -0.0357  0.0421
 5007SOL    HW126654   1.092   0.062   6.862 -0.4645 -0.8627 -1.3318
 5007SOL    HW226655   1.237   0.053   6.843  0.9918  2.4521  1.1945
 5008SOL     OW26656   0.145   2.254   1.241 -0.5541 -0.0836  0.0965
 5008SOL    HW126657   0.063   2.228   1.200 -1.2874  0.0022  1.4928
 5008SOL    HW226658   0.144   2.349   1.234 -1.2917 -0.0692  0.3542
 5009SOL     OW26659   4.409   0.991   8.295 -0.2846 -0.4854 -0.1026
 5009SOL    HW126660   4.335   1.005   8.353  0.2333  0.5632  0.3190
 5009SOL    HW226661   4.375   0.914   8.251  2.3973 -2.4088  1.1952
 5010SOL     OW26662   2.644   3.524   8.578 -0.4569 -0.0357 -0.0379
 5010SOL    HW126663   2.731   3.540   8.613 -0.5296  2.4188 -1.0227
 5010SOL    HW226664   2.591   3.540   8.656 -0.0666 -0.5134  0.3280
 5011SOL     OW26665   2.208   2.117  16.480 -0.5173  0.1957 -0.5606
 5011SOL    HW126666   2.154   2.195  16.491 -0.5830 -0.0352  0.7531
 5011SOL    HW226667   2.140   2.050  16.466  0.9559 -0.9813 -2.1286
 5012SOL     OW26668   0.499   0.981   4.601 -0.0940  0.1202  0.9870
 5012SOL    HW126669   0.414   0.981   4.645 -1.9946  0.3407 -2.6599
 5012SOL    HW226670   0.511   0.890   4.573 -3.5696  0.5278 -1.8850
 5013SOL     OW26671   2.701   0.020   2.674  0.4133  0.2062 -0.1564
 5013SOL    HW126672   2.789   0.010   2.710 -0.4318 -0.2722  1.7656
 5013SOL    HW226673   2.719   0.095   2.616  1.5688  1.3672  1.6955
 5014SOL     OW26674   3.106   2.611   6.829 -0.5583  0.3384  0.2579
 5014SOL    HW126675   3.171   2.640   6.765 -1.1054 -0.0427 -0.4656
 5014SOL    HW226676   3.114   2.683   6.892 -1.7680  1.5759 -1.0143
 5015SOL     OW26677   0.092   2.149  17.369 -0.0315 -0.5205 -0.9189
 5015SOL    HW126678   0.002   2.135  17.339 -0.3557  1.2979 -0.8160
 5015SOL    HW226679   0.148   2.144  17.291 -0.6540 -0.8196 -1.3447
 5016SOL     OW26680   4.155   3.978   4.570 -0.4202  0.5016  0.8032
 5016SOL    HW126681   4.200   4.062   4.576  2.1272 -0.9319  1.8361
 5016SOL    HW226682   4.195   3.940   4.648 -1.4434 -2.2712 -0.0228
 5017SOL     OW26683   3.206   2.722   8.988  0.2100  0.1555 -0.3188
 5017SOL    HW126684   3.230   2.638   9.026  1.1181  0.9950  0.9571
 5017SOL    HW226685   3.181   2.771   9.066 -0.1011 -0.4677 -0.0299
 5018SOL     OW26686   2.830   2.827   0.607  0.2612  0.1299  0.1791
 5018SOL    HW126687   2.776   2.888   0.556 -2.2658 -1.1422  1.3031
 5018SOL    HW226688   2.877   2.893   0.657 -1.7688  1.6589  0.0942
 5019SOL     OW26689   1.212   0.365  16.694 -0.3159  0.1210 -0.0505
 5019SOL    HW126690   1.224   0.301  16.765  0.4076  1.0044  0.6146
 5019SOL    HW226691   1.293   0.414  16.708  0.8449 -1.1311 -2.3585
 5020SOL     OW26692   0.443   0.336  13.113 -0.0931  0.7866  0.6227
 5020SOL    HW126693   0.529   0.310  13.080 -0.0130  1.6352  0.1562
 5020SOL    HW226694   0.401   0.250  13.108  0.7761  0.4076 -0.1309
 5021SOL     OW26695   2.246   4.645   4.912 -0.1329  0.2874  0.2894
 5021SOL    HW126696   2.285   4.689   4.988 -3.5588  0.8428  1.7346
 5021SOL    HW226697   2.163   4.692   4.907 -1.6100 -2.5565 -1.4330
 5022SOL     OW26698   1.870   4.204   0.614  0.7060  0.5806  0.1827
 5022SOL    HW126699   1.905   4.170   0.532  0.3369  2.0805 -0.6129
 5022SOL    HW226700   1.777   4.215   0.592  1.1684  0.5264 -1.8179
 5023SOL     OW26701   4.365   2.089   3.055  0.0041 -0.5904  0.6364
 5023SOL    HW126702   4.296   2.145   3.018  0.1605 -1.6532 -1.2791
 5023SOL    HW226703   4.430   2.107   2.987  0.3871 -1.5133  0.7548
 5024SOL     OW26704   2.432   2.599   7.529 -0.1753  0.0372 -0.5751
 5024SOL    HW126705   2.393   2.513   7.517  1.2623 -0.5671 -0.9316
 5024SOL    HW226706   2.423   2.622   7.436  1.8458 -1.7170 -1.2006
 5025SOL     OW26707   4.433   0.830   5.278 -0.0667 -0.3556 -1.1316
 5025SOL    HW126708   4.401   0.775   5.348  3.0317 -0.3342  0.3128
 5025SOL    HW226709   4.506   0.884   5.309 -0.9129  0.4853 -0.5935
 5026SOL     OW26710   0.536   4.267  15.683 -0.4632  0.1370 -0.1875
 5026SOL    HW126711   0.588   4.292  15.759 -1.2814  0.2689  0.3337
 5026SOL    HW226712   0.575   4.183  15.658  0.0486  0.1050  0.7059
 5027SOL     OW26713   1.455   4.285   1.499  0.1210  0.3011  0.4120
 5027SOL    HW126714   1.384   4.294   1.436 -0.5467  1.9187  1.3832
 5027SOL    HW226715   1.497   4.371   1.496 -0.1598  0.4065 -0.4369
 5028SOL     OW26716   1.131   2.831  10.662  0.1853 -0.1328 -0.2587
 5028SOL    HW126717   1.163   2.855  10.750  1.2827  0.3241 -0.7811
 5028SOL    HW226718   1.042   2.814  10.691  0.6013 -0.0607  1.0879
 5029SOL     OW26719   0.084   0.112   3.700  0.2706  0.0330  0.1369
 5029SOL    HW126720   0.047   0.163   3.628 -0.2816 -0.0589  0.3586
 5029SOL    HW226721   0.030   0.034   3.711  0.1529  0.1383  0.3040
 5030SOL     OW26722   1.748   0.028   8.114  0.2828 -0.0486 -0.5003
 5030SOL    HW126723   1.828   4.709   8.111 -0.4714 -1.2846  0.7287
 5030SOL    HW226724   1.724   0.039   8.022  0.6306 -0.0315 -0.5891
 5031SOL     OW26725   1.118   1.900   0.103  0.1540 -0.6103  0.0480
 5031SOL    HW126726   1.060   1.865   0.035 -0.4164  0.5192 -0.0450
 5031SOL    HW226727   1.057   1.925   0.172 -0.0142  1.9110 -1.0085
 5032SOL     OW26728   2.392   1.248   9.490  0.6379 -0.0829 -0.6347
 5032SOL    HW126729   2.362   1.191   9.561  1.2839 -1.0727 -1.1590
 5032SOL    HW226730   2.415   1.327   9.539  1.3179  0.3486 -1.6550
 5033SOL     OW26731   3.861   1.627   4.655 -0.0907 -0.4015  0.0320
 5033SOL    HW126732   3.890   1.661   4.739  1.8464 -0.1847 -0.7202
 5033SOL    HW226733   3.820   1.705   4.616  0.3626 -0.1933 -0.0264
 5034SOL     OW26734   2.045   1.308   9.809 -0.4835 -0.4238 -0.0415
 5034SOL    HW126735   1.973   1.350   9.762 -0.1442  0.4221  0.1965
 5034SOL    HW226736   2.003   1.295   9.893 -0.3683 -1.1313 -0.0893
 5035SOL     OW26737   3.655   4.069  17.547 -0.3342  0.5418 -0.4755
 5035SOL    HW126738   3.569   4.110  17.555 -0.6894 -0.4371  0.7125
 5035SOL    HW226739   3.633   3.990  17.499  0.4826 -1.0020  1.6671
 5036SOL     OW26740   4.644   4.575   1.535  0.2349 -1.0335 -0.1778
 5036SOL    HW126741   4.673   4.638   1.468 -2.4029 -0.0537 -0.4130
 5036SOL    HW226742   4.606   4.626   1.607 -2.0808  0.1079 -2.1746
 5037SOL     OW26743   4.395   3.107   9.139  0.0420  1.0747  0.7164
 5037SOL    HW126744   4.308   3.144   9.155 -0.6982 -0.1295 -0.5015
 5037SOL    HW226745   4.376   3.019   9.107  0.4598  1.1702  0.2010
 5038SOL     OW26746   0.469   2.084   4.654 -0.4601 -0.1478  0.3568
 5038SOL    HW126747   0.495   2.158   4.599  0.3306 -0.4643  0.3113
 5038SOL    HW226748   0.449   2.017   4.588  0.1320 -1.1532  1.2110
 5039SOL     OW26749   3.635   3.262   6.219 -0.2799 -0.0909 -0.0231
 5039SOL    HW126750   3.694   3.187   6.217 -1.7086 -1.1778 -1.3282
 5039SOL    HW226751   3.550   3.219   6.214 -0.1648 -0.4733  1.2766
 5040SOL     OW26752   3.768   2.686   7.291 -0.2392 -0.4388  0.3287
 5040SOL    HW126753   3.836   2.618   7.288 -1.5673 -1.7436 -0.6044
 5040SOL    HW226754   3.767   2.692   7.386 -1.5386  2.0137  0.1532
 5041SOL     OW26755   0.653   3.567  15.432  0.1383  0.2656 -0.5754
 5041SOL    HW126756   0.592   3.640  15.428  0.5634  0.7843  2.0813
 5041SOL    HW226757   0.725   3.587  15.493  1.2629 -1.9407 -1.1583
 5042SOL     OW26758   1.453   3.731   9.366  0.4296  0.5325 -0.1153
 5042SOL    HW126759   1.365   3.748   9.332  1.3087  2.5217 -1.4427
 5042SOL    HW226760   1.459   3.811   9.418 -1.0833 -0.6181  1.8254
 5043SOL     OW26761   1.579   2.965  17.089  0.2967  0.5826  0.2524
 5043SOL    HW126762   1.535   3.031  17.036 -0.5656  0.3130  0.6287
 5043SOL    HW226763   1.670   2.994  17.085  0.3647  0.3139 -0.1410
 5044SOL     OW26764   3.793   3.987  15.706  0.3440  0.0903  0.5939
 5044SOL    HW126765   3.835   3.955  15.785  0.4639  1.3378  1.0363
 5044SOL    HW226766   3.772   3.907  15.658 -1.4544  1.8574 -1.5933
 5045SOL     OW26767   4.585   2.157   2.900  0.0335  0.1775  0.5065
 5045SOL    HW126768   4.612   2.246   2.922  2.0850 -0.2767 -0.1727
 5045SOL    HW226769   4.582   2.178   2.806  0.1798 -2.2263 -0.0444
 5046SOL     OW26770   1.156   4.058   5.368 -0.1894 -0.2613 -0.2229
 5046SOL    HW126771   1.235   4.105   5.394  0.0703 -0.5821 -0.4448
 5046SOL    HW226772   1.126   4.040   5.457 -2.6234 -1.0799 -1.1942
 5047SOL     OW26773   2.902   0.897  10.678  0.4650  0.4308  0.3318
 5047SOL    HW126774   2.861   0.875  10.594 -1.0171 -1.8059  1.6511
 5047SOL    HW226775   2.984   0.848  10.677  1.3558  1.9145  0.5886
 5048SOL     OW26776   2.863   1.089   7.982  0.4805  0.3044 -0.5439
 5048SOL    HW126777   2.795   1.148   7.948  0.7972  1.4344  0.7535
 5048SOL    HW226778   2.929   1.136   8.033 -0.4177  1.2121 -0.2217
 5049SOL     OW26779   3.089   3.092   2.336  0.3433 -0.1056  0.3939
 5049SOL    HW126780   3.166   3.040   2.313 -1.0983 -1.0100 -2.4409
 5049SOL    HW226781   3.032   3.019   2.360  1.7868 -1.4723 -0.4116
 5050SOL     OW26782   3.839   2.043  12.367  0.8138  0.8567  0.2141
 5050SOL    HW126783   3.885   2.041  12.283 -0.0842 -0.1796 -0.2462
 5050SOL    HW226784   3.765   1.985  12.352  0.5442  1.1016  0.5858
 5051SOL     OW26785   4.532   3.061   1.620 -0.4534  0.6358  0.6348
 5051SOL    HW126786   4.598   3.005   1.660 -0.3799  0.5582  0.4047
 5051SOL    HW226787   4.522   3.135   1.680 -0.6703 -0.1150  1.5362
 5052SOL     OW26788   2.909   3.377   3.085 -0.0970  0.8456 -0.2664
 5052SOL    HW126789   2.975   3.431   3.041  0.6436 -0.7422 -1.0910
 5052SOL    HW226790   2.957   3.325   3.149  0.8981  1.7721 -0.2583
 5053SOL     OW26791   0.613   0.013  14.912  0.1984  0.5969  0.3927
 5053SOL    HW126792   0.619   0.052  14.825 -0.4595  0.8333  0.4508
 5053SOL    HW226793   0.672   0.067  14.964  0.4762 -1.2317  1.9964
 5054SOL     OW26794   3.346   1.912   0.783 -0.5512 -0.3159 -0.0344
 5054SOL    HW126795   3.330   1.999   0.746  0.9930  1.1858  2.7681
 5054SOL    HW226796   3.425   1.892   0.733  0.3840 -0.8925  1.6649
 5055SOL     OW26797   1.408   1.629   4.982 -0.0281 -0.3812 -0.1277
 5055SOL    HW126798   1.356   1.640   5.061  2.7191 -0.2701  1.6798
 5055SOL    HW226799   1.492   1.644   5.026 -0.7769 -4.7236  2.7657
 5056SOL     OW26800   1.012   0.374   3.704 -0.0106 -0.4137  0.0840
 5056SOL    HW126801   0.917   0.357   3.709 -0.3411  1.8957  1.4712
 5056SOL    HW226802   1.044   0.326   3.780  0.6378 -1.7917 -1.0682
 5057SOL     OW26803   4.459   0.291   9.289 -0.0171  0.1680 -0.1241
 5057SOL    HW126804   4.466   0.213   9.233 -0.8410 -0.3147  0.4483
 5057SOL    HW226805   4.451   0.245   9.372  2.6881 -1.8470 -0.9693
 5058SOL     OW26806   1.580   3.418  17.560 -0.0812  0.5082  0.0936
 5058SOL    HW126807   1.639   3.456  17.496 -0.3075 -2.6673 -1.9987
 5058SOL    HW226808   1.618   3.458  17.638 -0.0916 -0.1470  0.4325
 5059SOL     OW26809   4.366   3.581  14.969 -0.2636 -0.0519  0.3961
 5059SOL    HW126810   4.423   3.595  14.893 -2.3550 -1.7838 -1.4885
 5059SOL    HW226811   4.283   3.617  14.937 -0.3913 -0.6615  0.0537
 5060SOL     OW26812   2.641   1.986   3.164  0.1191  0.6909  0.1627
 5060SOL    HW126813   2.599   1.987   3.078 -1.6657  2.1848  1.0346
 5060SOL    HW226814   2.684   1.901   3.157 -2.5964 -0.7331  0.9141
 5061SOL     OW26815   0.678   0.660   1.932 -0.4882  0.1488  0.7045
 5061SOL    HW126816   0.758   0.693   1.973 -0.7792  1.3077  0.3475
 5061SOL    HW226817   0.616   0.705   1.989 -0.5843  1.5362 -0.4930
 5062SOL     OW26818   3.633   1.433   8.161  0.2852  0.6051 -0.8074
 5062SOL    HW126819   3.600   1.440   8.251 -0.5477  2.6086 -1.2709
 5062SOL    HW226820   3.669   1.345   8.159 -1.7984 -0.3103  2.9300
 5063SOL     OW26821   0.592   0.550  16.604 -0.1922 -0.0522  0.8184
 5063SOL    HW126822   0.638   0.558  16.521  0.2394 -2.6635  0.8331
 5063SOL    HW226823   0.502   0.541  16.572  0.3503  0.4231 -0.8353
 5064SOL     OW26824   1.684   3.684   7.513 -0.1779 -0.1801  0.0613
 5064SOL    HW126825   1.716   3.616   7.573 -2.9562 -2.0717 -0.6341
 5064SOL    HW226826   1.593   3.679   7.541 -0.1016  0.4693  0.4513
 5065SOL     OW26827   0.118   4.046   6.851 -0.4342  0.0149  0.3761
 5065SOL    HW126828   0.057   4.111   6.886  1.2305  1.0533  1.3049
 5065SOL    HW226829   0.071   3.967   6.878  1.0341 -0.7363  0.7289
 5066SOL     OW26830   1.136   3.444   2.079  0.0332 -0.3552 -0.4359
 5066SOL    HW126831   1.171   3.533   2.080 -1.5604  0.2620  0.3823
 5066SOL    HW226832   1.093   3.429   2.164 -0.2781 -0.1298 -0.5530
 5067SOL     OW26833   4.466   4.093  15.134  0.6001 -0.4932  0.5453
 5067SOL    HW126834   4.471   4.000  15.115  0.1194  0.0505 -2.2114
 5067SOL    HW226835   4.538   4.123  15.078  0.1804  2.4916  1.5779
 5068SOL     OW26836   3.911   3.442  15.401 -0.2086 -0.3637 -0.1040
 5068SOL    HW126837   3.996   3.402  15.383  0.2138 -0.1892  1.4930
 5068SOL    HW226838   3.864   3.362  15.424  1.7277 -1.7802 -1.0980
 5069SOL     OW26839   2.288   4.449   8.241  0.2538  0.1755  0.0972
 5069SOL    HW126840   2.212   4.432   8.185  0.4245 -1.1990  0.2815
 5069SOL    HW226841   2.369   4.433   8.193  0.1042  2.5655 -0.9254
 5070SOL     OW26842   1.689   2.534   6.245  0.0958  0.2105  0.5792
 5070SOL    HW126843   1.628   2.568   6.311 -0.6469 -2.0544  1.0720
 5070SOL    HW226844   1.747   2.478   6.297  2.4617  0.8889 -1.3425
 5071SOL     OW26845   2.727   1.399  15.162 -1.2565  0.1846  0.1474
 5071SOL    HW126846   2.736   1.324  15.221  1.4213  0.6567  0.3370
 5071SOL    HW226847   2.676   1.459  15.216  1.1383  0.2633  2.3099
 5072SOL     OW26848   2.569   0.145   4.487  0.1326 -0.0565 -0.8184
 5072SOL    HW126849   2.659   0.160   4.456  0.5813  0.1377  0.5623
 5072SOL    HW226850   2.584   0.091   4.565 -1.2608  0.6597 -0.0713
 5073SOL     OW26851   1.690   1.658   8.276 -0.8003  0.1734  0.1374
 5073SOL    HW126852   1.680   1.580   8.221 -1.8607  2.2268 -2.5851
 5073SOL    HW226853   1.742   1.619   8.346 -1.8147 -1.5497 -0.0673
 5074SOL     OW26854   0.888   3.132   4.411  0.1066  0.2537  0.3231
 5074SOL    HW126855   0.921   3.046   4.436  1.1372  0.9831  1.5018
 5074SOL    HW226856   0.867   3.172   4.495 -0.7156  1.1840 -0.3291
 5075SOL     OW26857   3.538   4.208   5.677 -0.2477  0.3883  0.1471
 5075SOL    HW126858   3.583   4.149   5.616  0.3692  0.0408  0.9334
 5075SOL    HW226859   3.453   4.172   5.653  0.2938 -0.6671 -0.2096
 5076SOL     OW26860   4.664   0.037   1.356 -0.3595  0.3877  0.0296
 5076SOL    HW126861   4.576   0.075   1.365 -0.3550  0.1754  1.0050
 5076SOL    HW226862   4.711   0.118   1.340  0.8522 -0.4612 -0.6644
 5077SOL     OW26863   2.877   0.788   5.376  0.1145  0.0075  0.0104
 5077SOL    HW126864   2.904   0.724   5.310 -0.8648 -0.6456  0.2343
 5077SOL    HW226865   2.782   0.775   5.383  0.4502 -1.8888  0.8377
 5078SOL     OW26866   1.352   2.710  16.862  0.2004 -0.4040  0.1027
 5078SOL    HW126867   1.260   2.709  16.835 -0.3169 -0.2980  1.9156
 5078SOL    HW226868   1.370   2.800  16.835  2.5421 -0.7259  0.5514
 5079SOL     OW26869   2.927   2.766   6.313 -0.1999 -0.1062  0.1481
 5079SOL    HW126870   2.937   2.772   6.408  0.3267  0.0279  0.0869
 5079SOL    HW226871   2.861   2.698   6.302 -0.1530  0.1195 -1.5586
 5080SOL     OW26872   1.042   4.405  13.534  0.2344  0.2052  0.1490
 5080SOL    HW126873   1.098   4.347  13.587  0.4381 -0.3472 -0.6788
 5080SOL    HW226874   0.962   4.353  13.523  2.0843 -2.3808 -1.1327
 5081SOL     OW26875   4.362   4.224   4.564 -0.4164 -0.6632  0.8404
 5081SOL    HW126876   4.388   4.316   4.554  2.7399 -1.7419 -0.8071
 5081SOL    HW226877   4.306   4.238   4.640  0.0780  0.6649  0.9629
 5082SOL     OW26878   1.291   1.888  17.473 -0.2986  0.1795 -0.1352
 5082SOL    HW126879   1.329   1.851  17.552  2.1475  1.3507 -0.7611
 5082SOL    HW226880   1.337   1.971  17.460 -1.6433  0.8093 -0.9074
 5083SOL     OW26881   0.963   0.928   3.658  0.4398  0.5144 -0.8164
 5083SOL    HW126882   0.993   0.956   3.745 -0.3092 -0.7659 -0.1521
 5083SOL    HW226883   0.874   0.961   3.671 -0.7171 -3.4563  1.4472
 5084SOL     OW26884   2.504   3.347   7.592 -0.6033  0.1842  0.2593
 5084SOL    HW126885   2.442   3.276   7.609 -0.3857  0.2284  1.2396
 5084SOL    HW226886   2.534   3.374   7.679 -1.2704 -2.6786  1.3785
 5085SOL     OW26887   3.830   3.543   5.507 -0.2985 -0.0612 -0.1738
 5085SOL    HW126888   3.821   3.447   5.505  0.4187 -0.1753  1.8784
 5085SOL    HW226889   3.741   3.573   5.489 -0.4263  0.0355  0.6118
 5086SOL     OW26890   3.177   0.119  15.292  0.7970  0.8256  0.5048
 5086SOL    HW126891   3.261   0.156  15.264  1.4731 -1.5605 -0.5771
 5086SOL    HW226892   3.171   0.030  15.258  0.5778  1.2060 -0.4713
 5087SOL     OW26893   2.904   3.775  10.559 -0.8625 -0.3031 -0.2444
 5087SOL    HW126894   2.954   3.846  10.519 -0.3605 -0.5845 -0.1215
 5087SOL    HW226895   2.960   3.698  10.542  2.2770  1.2185  3.3694
 5088SOL     OW26896   3.991   4.192  13.201 -0.7133 -0.3463  0.3661
 5088SOL    HW126897   4.032   4.108  13.223  0.0487  0.1498  0.8516
 5088SOL    HW226898   4.017   4.199  13.109  0.6122 -3.1808  0.5133
 5089SOL     OW26899   1.580   3.001   7.325  0.0786  0.0552 -0.3820
 5089SOL    HW126900   1.524   3.058   7.274  2.1530  2.4242  0.0007
 5089SOL    HW226901   1.636   3.074   7.349 -1.1574  0.6759  0.5670
 5090SOL     OW26902   3.987   2.954   7.683 -0.0110  0.9407 -0.0613
 5090SOL    HW126903   3.917   3.015   7.707 -0.4714 -0.0974  1.2604
 5090SOL    HW226904   4.015   2.943   7.774 -2.9068  1.5649  0.9020
 5091SOL     OW26905   0.766   0.005   3.330 -0.4766 -0.8262 -0.6588
 5091SOL    HW126906   0.831   0.052   3.382 -0.3427 -1.7973  0.0381
 5091SOL    HW226907   0.822   4.670   3.295 -0.3504 -1.7054  1.2312
 5092SOL     OW26908   0.058   1.893  12.393  0.5219 -0.4217  0.1445
 5092SOL    HW126909   0.024   1.820  12.445 -1.4352  1.1131  1.0066
 5092SOL    HW226910   4.720   1.951  12.418  0.7065  0.5967 -1.6989
 5093SOL     OW26911   2.499   1.711   5.471 -0.5061 -0.1966 -0.0365
 5093SOL    HW126912   2.458   1.668   5.395 -1.4689 -2.4365  1.7572
 5093SOL    HW226913   2.501   1.798   5.430  0.4236  0.2426  0.9490
 5094SOL     OW26914   4.654   3.210   7.653 -0.5886 -0.5449  0.0362
 5094SOL    HW126915   4.607   3.273   7.599 -0.5720 -0.2394  0.3719
 5094SOL    HW226916   4.594   3.185   7.724  0.8713  0.2986  1.5823
 5095SOL     OW26917   3.161   2.817   2.825 -0.2094  0.2554  0.2609
 5095SOL    HW126918   3.250   2.782   2.816  0.4778  2.1989 -0.3563
 5095SOL    HW226919   3.133   2.742   2.878 -0.6135 -0.8794 -1.5410
 5096SOL     OW26920   4.524   2.862   3.867  0.1167  0.3826  0.0384
 5096SOL    HW126921   4.528   2.956   3.847  1.0055  0.4172  0.3800
 5096SOL    HW226922   4.581   2.838   3.794  0.3012  0.7247  0.0680
 5097SOL     OW26923   3.247   1.757   5.251  0.3879  0.5920 -0.1520
 5097SOL    HW126924   3.233   1.670   5.213 -1.2882 -0.4150  2.7047
 5097SOL    HW226925   3.201   1.756   5.335 -2.0192 -0.2740 -1.4530
 5098SOL     OW26926   2.213   2.661  17.475  0.3987  0.0486  0.2461
 5098SOL    HW126927   2.299   2.625  17.496  1.0249  1.4008 -0.0222
 5098SOL    HW226928   2.210   2.708  17.559  1.0517 -1.4244  1.1007
 5099SOL     OW26929   2.987   2.310   4.229  0.1830 -0.5260  0.3749
 5099SOL    HW126930   3.020   2.236   4.280  1.2230 -1.1381 -1.1721
 5099SOL    HW226931   2.925   2.268   4.169  0.9884 -3.5485  1.6315
 5100SOL     OW26932   2.239   3.690  13.813 -0.2742  0.6766  0.3232
 5100SOL    HW126933   2.233   3.752  13.886  3.0287  2.1912 -0.7017
 5100SOL    HW226934   2.234   3.747  13.736 -1.0955 -1.4312 -1.2069
 5101SOL     OW26935   3.683   1.368  14.654 -0.2658 -0.3404  0.1629
 5101SOL    HW126936   3.759   1.425  14.641 -0.6332  0.0960 -0.0872
 5101SOL    HW226937   3.723   1.284  14.630 -2.5216 -1.2468 -0.4469
 5102SOL     OW26938   4.383   0.392   7.103  0.3688 -0.6475  0.0709
 5102SOL    HW126939   4.414   0.478   7.132 -0.6962 -0.1454 -0.2883
 5102SOL    HW226940   4.293   0.388   7.135  0.5191 -0.1530  0.5569
 5103SOL     OW26941   0.136   0.646   2.483 -0.2377  0.4085  0.0122
 5103SOL    HW126942   0.162   0.681   2.398 -1.2462 -0.8291 -0.7944
 5103SOL    HW226943   0.042   0.632   2.470 -0.5822  0.7381  2.0828
 5104SOL     OW26944   1.808   4.599   6.420  0.7955  0.6401 -0.0493
 5104SOL    HW126945   1.796   4.504   6.421  0.3091  0.7050 -0.1775
 5104SOL    HW226946   1.875   4.616   6.486  1.5979 -0.0831 -0.6750
 5105SOL     OW26947   2.713   2.755   3.055  0.1270  0.2064 -0.0381
 5105SOL    HW126948   2.778   2.826   3.051 -0.3052  0.5134 -1.9330
 5105SOL    HW226949   2.697   2.746   3.149 -0.3239 -1.6836 -0.2995
 5106SOL     OW26950   1.685   3.481   6.866  0.1838 -0.1241  0.1628
 5106SOL    HW126951   1.592   3.487   6.844 -0.0321  1.3819  1.4335
 5106SOL    HW226952   1.730   3.544   6.810 -0.1539  1.2766  1.4561
 5107SOL     OW26953   4.671   2.161   6.674 -0.1396  0.3475  0.0569
 5107SOL    HW126954   4.584   2.171   6.714 -1.8794 -0.1017 -3.5894
 5107SOL    HW226955   4.678   2.236   6.615  0.9315 -1.9870 -2.7800
 5108SOL     OW26956   1.836   2.368   3.073  0.1628 -0.2698 -0.2849
 5108SOL    HW126957   1.834   2.452   3.118  0.1907 -0.7940  0.6877
 5108SOL    HW226958   1.869   2.311   3.143  0.9136  1.4579  0.7708
 5109SOL     OW26959   3.169   1.057   9.457 -0.6477 -0.1662 -0.1109
 5109SOL    HW126960   3.185   1.149   9.438  1.7939 -0.6146 -0.2833
 5109SOL    HW226961   3.237   1.034   9.521 -0.6990  0.0898  0.0333
 5110SOL     OW26962   4.364   3.476   9.263  0.0399 -0.1538 -0.3358
 5110SOL    HW126963   4.433   3.411   9.273  1.8923  1.5319 -2.1487
 5110SOL    HW226964   4.350   3.477   9.168  0.6825  1.0392 -0.4159
 5111SOL     OW26965   3.953   1.954   9.752  0.5187  0.6287  0.1458
 5111SOL    HW126966   4.011   2.027   9.732  1.0652  0.4446  1.0700
 5111SOL    HW226967   4.014   1.881   9.760  1.2338  1.4940  2.4810
 5112SOL     OW26968   1.850   4.353  16.747  0.0065  0.1975  0.5563
 5112SOL    HW126969   1.835   4.307  16.664  1.5779 -2.0049  1.4886
 5112SOL    HW226970   1.808   4.294  16.810  1.2578 -1.0849  0.2128
 5113SOL     OW26971   2.638   3.092   9.697 -0.7203 -0.5056  0.1162
 5113SOL    HW126972   2.570   3.146   9.657  0.1184  2.1348  2.2263
 5113SOL    HW226973   2.593   3.075   9.780 -2.0853  0.6059 -0.3859
 5114SOL     OW26974   1.617   0.302   8.537 -0.1218  0.5306  0.4614
 5114SOL    HW126975   1.669   0.382   8.529  1.3341 -0.3885  0.8081
 5114SOL    HW226976   1.576   0.302   8.450 -1.6677 -1.5085  1.1739
 5115SOL     OW26977   2.874   1.304  15.840 -0.2532 -0.1568 -0.2117
 5115SOL    HW126978   2.927   1.320  15.762  1.0841  1.6743  1.0505
 5115SOL    HW226979   2.875   1.209  15.843 -2.1147 -0.1788 -0.2688
 5116SOL     OW26980   4.414   4.464   7.015 -0.4357 -0.3103  0.0486
 5116SOL    HW126981   4.338   4.482   6.958  0.3070  0.7925 -0.5946
 5116SOL    HW226982   4.464   4.393   6.974 -0.7481  0.0094 -0.8902
 5117SOL     OW26983   0.102   0.842   7.281  0.5592  0.2144  0.1300
 5117SOL    HW126984   0.128   0.929   7.311 -0.2021  1.1188 -1.7796
 5117SOL    HW226985   0.018   0.841   7.328  0.3502  1.6930 -0.1821
 5118SOL     OW26986   1.839   1.855   6.825  0.1288 -0.2155  0.5282
 5118SOL    HW126987   1.825   1.770   6.866 -0.0271  0.2267  1.4123
 5118SOL    HW226988   1.825   1.910   6.902 -0.0183  0.9493 -0.3337
 5119SOL     OW26989   4.590   1.905   3.492 -0.3110  0.0086  0.0694
 5119SOL    HW126990   4.671   1.885   3.539 -0.1705 -2.1594 -1.0999
 5119SOL    HW226991   4.624   1.938   3.409  0.6802 -1.3444 -0.0570
 5120SOL     OW26992   3.927   4.390   8.359  0.3267  0.3125  0.3146
 5120SOL    HW126993   3.987   4.456   8.395  1.0519 -2.2596  3.8445
 5120SOL    HW226994   3.962   4.314   8.405 -0.2601 -1.3140 -1.9550
 5121SOL     OW26995   1.977   0.216  11.164  0.0793  0.0422 -0.3261
 5121SOL    HW126996   1.917   0.276  11.120 -0.8364  0.3587  1.3807
 5121SOL    HW226997   1.915   0.172  11.222 -0.4885  1.8413  0.4543
 5122SOL     OW26998   1.350   2.834  14.928  0.4865 -0.1468 -0.4957
 5122SOL    HW126999   1.330   2.831  15.022  0.1641  0.1741 -0.5544
 5122SOL    HW227000   1.445   2.828  14.925  0.5086  2.1766 -3.7331
 5123SOL     OW27001   3.960   0.421   6.834 -0.0310  0.2171 -0.1079
 5123SOL    HW127002   3.931   0.495   6.887  1.1588  1.7929 -1.6289
 5123SOL    HW227003   4.056   0.427   6.842  0.3008 -1.7644 -2.4973
 5124SOL     OW27004   3.882   4.510   1.452 -0.3822 -0.8024 -0.3918
 5124SOL    HW127005   3.864   4.426   1.495 -1.4117  0.9085  2.5388
 5124SOL    HW227006   3.977   4.512   1.459 -0.4714 -0.3769  0.6532
 5125SOL     OW27007   2.086   3.945  15.736 -0.3247 -0.5073 -0.2856
 5125SOL    HW127008   2.118   3.950  15.646 -0.6703 -1.0025 -0.4306
 5125SOL    HW227009   2.133   4.022  15.769  1.1434 -1.4093 -0.2667
 5126SOL     OW27010   0.267   0.970   4.095 -0.8210 -0.0556 -0.3427
 5126SOL    HW127011   0.302   0.979   4.184 -2.0834  0.7679  0.0780
 5126SOL    HW227012   0.279   0.876   4.082 -0.9991 -0.1678  0.2977
 5127SOL     OW27013   0.283   3.153   8.189  0.3398 -0.2464  0.1382
 5127SOL    HW127014   0.302   3.133   8.097  0.9954  0.6443  0.0853
 5127SOL    HW227015   0.325   3.238   8.201  0.5510 -0.5524  1.6167
 5128SOL     OW27016   2.738   2.420   4.494 -0.1664  0.2928  0.2237
 5128SOL    HW127017   2.791   2.486   4.539  1.2611 -0.3968 -0.4478
 5128SOL    HW227018   2.673   2.411   4.564  1.3164  0.2240  1.5926
 5129SOL     OW27019   3.414   0.352   7.598 -0.0452  0.4697  0.2845
 5129SOL    HW127020   3.322   0.325   7.591  0.5087 -1.1565 -0.7759
 5129SOL    HW227021   3.453   0.268   7.624  0.7984 -0.1801 -3.1897
 5130SOL     OW27022   2.097   4.442   1.692 -0.2044 -0.4096 -0.5012
 5130SOL    HW127023   2.091   4.490   1.774 -0.0041 -3.3550  1.2326
 5130SOL    HW227024   2.169   4.381   1.710  0.1619  0.1363 -0.1312
 5131SOL     OW27025   0.941   1.242   4.981  0.3536 -0.5983  0.2164
 5131SOL    HW127026   0.882   1.275   4.913  1.3182  0.2198 -0.2208
 5131SOL    HW227027   1.016   1.294   4.952  1.7652 -1.9443  1.4543
 5132SOL     OW27028   0.724   2.017  10.416 -0.2090  0.3039  1.1611
 5132SOL    HW127029   0.775   1.995  10.493  0.6169  0.4865  0.6705
 5132SOL    HW227030   0.762   2.103  10.396  1.3445 -0.6895 -0.1450
 5133SOL     OW27031   1.676   4.575  11.976  0.0771  0.1821  0.1627
 5133SOL    HW127032   1.767   4.569  12.004  0.4676 -3.4171 -1.8584
 5133SOL    HW227033   1.632   4.590  12.060  5.2353  4.2191  2.0971
 5134SOL     OW27034   2.800   3.820   3.153 -0.1500  0.3237  0.1178
 5134SOL    HW127035   2.734   3.853   3.092 -1.1674 -2.0944 -0.1161
 5134SOL    HW227036   2.884   3.834   3.111 -0.7354  1.4753 -0.6658
 5135SOL     OW27037   4.134   0.059   5.829 -0.1318  0.6730  0.0365
 5135SOL    HW127038   4.078   0.104   5.765 -0.5673 -2.5460 -1.8652
 5135SOL    HW227039   4.077   0.050   5.905 -2.7015 -0.5358 -2.0463
 5136SOL     OW27040   2.653   3.162   1.522  0.3663  0.1791 -0.2500
 5136SOL    HW127041   2.582   3.150   1.586  0.8301 -2.0408 -0.1323
 5136SOL    HW227042   2.624   3.241   1.476  0.6431  0.0775 -0.6023
 5137SOL     OW27043   0.356   1.873   8.572  0.0763 -0.2525  0.0897
 5137SOL    HW127044   0.308   1.843   8.649  0.5144 -0.5874  0.2288
 5137SOL    HW227045   0.437   1.902   8.614 -0.2277  0.3533  0.2644
 5138SOL     OW27046   2.324   4.497   3.613  0.4335  0.0527  0.2430
 5138SOL    HW127047   2.275   4.560   3.559 -0.0242  1.9964  2.9372
 5138SOL    HW227048   2.314   4.417   3.560 -0.8224  1.0161 -0.9747
 5139SOL     OW27049   2.194   3.805   8.494 -0.5077 -0.3699  0.1382
 5139SOL    HW127050   2.139   3.880   8.517 -0.6071 -0.4420  0.1383
 5139SOL    HW227051   2.192   3.816   8.399 -0.0049 -0.8804  0.0709
 5140SOL     OW27052   0.009   0.809   6.993  0.6093  0.2770 -0.1826
 5140SOL    HW127053   0.032   0.859   7.071 -3.1530  2.1020 -0.2648
 5140SOL    HW227054   0.098   0.789   6.964  1.6181  1.9328  1.7976
 5141SOL     OW27055   0.296   0.959   2.265 -0.2352  0.0881 -0.2634
 5141SOL    HW127056   0.266   0.995   2.348 -0.4881 -1.8908  0.4904
 5141SOL    HW227057   0.228   0.901   2.230  0.1591 -1.1842  1.1309
 5142SOL     OW27058   4.394   2.674   5.650  0.3787 -0.1007  0.1254
 5142SOL    HW127059   4.400   2.609   5.580  2.9504  0.7272 -0.4058
 5142SOL    HW227060   4.487   2.677   5.670  0.4170 -1.0329  0.0781
 5143SOL     OW27061   1.308   1.120   3.555 -0.6797 -0.0854  0.0696
 5143SOL    HW127062   1.338   1.156   3.639 -0.1440 -1.1119  0.3115
 5143SOL    HW227063   1.239   1.183   3.536 -1.5173 -0.9369  0.3186
 5144SOL     OW27064   1.452   1.824  14.895 -0.4023  0.1447  0.4004
 5144SOL    HW127065   1.510   1.788  14.962 -0.5834  2.1571  1.6189
 5144SOL    HW227066   1.377   1.850  14.949 -0.3568 -1.0471  1.0318
 5145SOL     OW27067   2.699   4.188   2.676  0.0964 -0.4892  0.0528
 5145SOL    HW127068   2.683   4.262   2.735 -1.5409 -1.4765  0.8560
 5145SOL    HW227069   2.652   4.206   2.595  0.4721  0.9194  0.1508
 5146SOL     OW27070   1.409   3.203   7.193 -0.2148  0.1779  0.6734
 5146SOL    HW127071   1.316   3.219   7.210 -0.7619 -0.6795 -1.5196
 5146SOL    HW227072   1.399   3.139   7.123 -2.6548 -0.0759  1.2517
 5147SOL     OW27073   0.121   0.550   3.940 -0.5155  0.3530  0.5109
 5147SOL    HW127074   0.072   0.505   3.871 -1.1671  0.0102  1.2137
 5147SOL    HW227075   0.108   0.475   3.997 -1.1582  0.1572  0.1058
 5148SOL     OW27076   0.443   2.931   4.490 -0.1098  0.0387 -0.4293
 5148SOL    HW127077   0.506   2.970   4.429 -1.9470  0.1190 -2.2670
 5148SOL    HW227078   0.378   2.889   4.433  2.7081 -1.5999 -2.4627
 5149SOL     OW27079   2.422   1.392   3.889 -0.3980 -0.1771 -0.0783
 5149SOL    HW127080   2.425   1.480   3.850  0.3531  0.8866  2.3919
 5149SOL    HW227081   2.425   1.408   3.983 -0.3669 -0.6679  0.0030
 5150SOL     OW27082   4.450   0.413   7.559 -0.5356 -0.0422 -0.2345
 5150SOL    HW127083   4.538   0.446   7.542 -0.0722 -0.1810  1.9220
 5150SOL    HW227084   4.476   0.352   7.628 -0.6548  0.7230  0.4921
 5151SOL     OW27085   1.923   1.347   3.742  0.2318 -0.2755 -0.3390
 5151SOL    HW127086   1.848   1.401   3.767  0.8069  1.2204 -1.8485
 5151SOL    HW227087   1.984   1.377   3.809 -1.3903 -1.7655  1.7921
 5152SOL     OW27088   4.107   1.346  12.597  0.0202 -0.2996  0.0342
 5152SOL    HW127089   4.169   1.406  12.554 -2.4868  0.8487 -1.9589
 5152SOL    HW227090   4.036   1.403  12.625 -0.8593 -0.8250 -1.1358
 5153SOL     OW27091   2.775   1.580   8.082  0.7259  0.1832  0.3717
 5153SOL    HW127092   2.720   1.659   8.078 -1.0928 -1.0893  0.0470
 5153SOL    HW227093   2.714   1.513   8.114 -0.7886  1.7412  0.7983
 5154SOL     OW27094   2.755   3.439   4.523 -0.2074  0.0808 -0.4073
 5154SOL    HW127095   2.772   3.529   4.495  1.2669 -0.3122 -0.7868
 5154SOL    HW227096   2.799   3.449   4.608 -0.7019 -0.6115 -0.0670
 5155SOL     OW27097   1.353   4.580   3.339 -0.1284 -0.4621 -0.3821
 5155SOL    HW127098   1.358   4.664   3.295  1.9508 -0.6418 -0.5241
 5155SOL    HW227099   1.390   4.610   3.421  2.9225 -1.4593 -1.3771
 5156SOL     OW27100   2.433   1.296  17.109  0.2300 -0.8961  0.1029
 5156SOL    HW127101   2.405   1.348  17.034  0.3978  0.1215  0.7539
 5156SOL    HW227102   2.350   1.267  17.147 -0.6564 -0.4928 -1.5095
 5157SOL     OW27103   1.173   1.383   4.925  0.0929  0.0597  0.0320
 5157SOL    HW127104   1.218   1.397   4.842  1.6278 -0.6929  0.7543
 5157SOL    HW227105   1.248   1.362   4.980 -0.0192 -1.7524 -0.5336
 5158SOL     OW27106   3.729   2.250  11.731 -0.3602 -0.6010 -0.0710
 5158SOL    HW127107   3.740   2.217  11.642  0.0222  1.4205 -0.7840
 5158SOL    HW227108   3.803   2.309  11.740  0.3177 -1.5185  0.3530
 5159SOL     OW27109   0.658   1.405   2.984 -0.2232  0.0852  0.1796
 5159SOL    HW127110   0.719   1.469   2.948 -1.3133  0.1216 -1.6493
 5159SOL    HW227111   0.694   1.382   3.069 -1.6487 -1.5103  0.3636
 5160SOL     OW27112   0.022   2.343   3.623  0.2536 -0.1080 -0.3824
 5160SOL    HW127113   4.672   2.362   3.579  0.1873 -4.5670 -2.1420
 5160SOL    HW227114   0.028   2.423   3.675  0.7427  1.2959 -2.5928
 5161SOL     OW27115   2.036   1.958   6.094  0.4268  0.2414 -0.0648
 5161SOL    HW127116   2.066   1.894   6.030  0.7411 -0.2760  0.5998
 5161SOL    HW227117   2.089   2.034   6.069  2.8798 -1.2669  0.6117
 5162SOL     OW27118   2.752   0.432   1.958 -0.9663 -0.4318  0.8357
 5162SOL    HW127119   2.714   0.345   1.970 -0.7848 -0.5750  0.3642
 5162SOL    HW227120   2.719   0.470   2.040 -1.7206 -0.4983  0.5636
 5163SOL     OW27121   0.477   0.260   2.737 -0.3564 -0.0126  0.2551
 5163SOL    HW127122   0.454   0.173   2.770 -1.5831 -0.3401 -1.4641
 5163SOL    HW227123   0.410   0.286   2.673  2.2069  1.9454 -1.6095
 5164SOL     OW27124   1.658   1.453   8.066  0.7346  0.5128 -0.0357
 5164SOL    HW127125   1.626   1.382   8.011  1.4875 -0.7100  1.0935
 5164SOL    HW227126   1.726   1.482   8.005  0.3364  0.8509 -0.3224
 5165SOL     OW27127   3.066   2.867   3.979 -0.1064 -0.0158 -0.4365
 5165SOL    HW127128   3.049   2.911   3.896  1.2098  1.2236 -0.0448
 5165SOL    HW227129   3.068   2.777   3.947  1.5836 -0.2431  0.3213
 5166SOL     OW27130   2.407   1.524   9.274  0.4285  0.1739  0.2691
 5166SOL    HW127131   2.450   1.496   9.354  2.1028 -0.8288 -0.9803
 5166SOL    HW227132   2.479   1.564   9.225 -0.4290 -0.5434 -1.5697
 5167SOL     OW27133   3.522   3.319  16.246  0.2212 -0.1392  0.2385
 5167SOL    HW127134   3.529   3.292  16.338 -0.5978 -0.4138  0.2231
 5167SOL    HW227135   3.432   3.350  16.242 -0.1938 -1.3639  0.1130
 5168SOL     OW27136   0.856   0.573  11.093 -0.3318  0.1839 -0.1300
 5168SOL    HW127137   0.835   0.650  11.146 -1.9007  0.3582 -1.0162
 5168SOL    HW227138   0.920   0.525  11.145 -0.5912  0.0951  0.1073
 5169SOL     OW27139   2.098   2.554   8.655 -0.5377  0.2724  0.6656
 5169SOL    HW127140   2.110   2.518   8.743 -3.3796 -1.3778  0.3560
 5169SOL    HW227141   2.003   2.563   8.648 -0.6349 -0.5302  1.0388
 5170SOL     OW27142   4.103   2.093   0.232 -0.3550  0.5860  0.3005
 5170SOL    HW127143   4.176   2.151   0.255 -0.9216  0.9497  1.1561
 5170SOL    HW227144   4.141   2.006   0.244 -2.6182 -0.8175 -2.7040
 5171SOL     OW27145   3.199   2.363   5.647 -0.1427 -0.1613 -0.2417
 5171SOL    HW127146   3.226   2.420   5.719 -1.4873  1.8544 -1.3145
 5171SOL    HW227147   3.211   2.419   5.570  1.8534 -0.8407 -0.4128
 5172SOL     OW27148   1.029   3.105   4.855 -0.0025 -0.0831 -0.2131
 5172SOL    HW127149   0.974   3.038   4.895 -0.7162 -1.3937 -3.3565
 5172SOL    HW227150   0.964   3.147   4.799  0.3652 -1.1305 -1.4351
 5173SOL     OW27151   4.221   4.554   4.028  0.0436  0.3438 -0.2891
 5173SOL    HW127152   4.274   4.475   4.040 -0.0434  0.3253 -0.0320
 5173SOL    HW227153   4.263   4.594   3.951  0.6774 -1.5078 -0.9236
 5174SOL     OW27154   2.612   3.326   7.333  0.5994 -0.5903  0.0568
 5174SOL    HW127155   2.572   3.309   7.418 -0.2126  0.9183 -0.0250
 5174SOL    HW227156   2.680   3.259   7.325  1.4888  0.3864 -0.4620
 5175SOL     OW27157   3.509   2.470   2.375 -0.6091  0.2595 -0.2277
 5175SOL    HW127158   3.588   2.513   2.407 -1.0946  1.4128 -0.5833
 5175SOL    HW227159   3.440   2.531   2.399 -0.9847  0.0018 -0.6497
 5176SOL     OW27160   3.566   0.116   6.068 -0.4823 -0.1159  0.1337
 5176SOL    HW127161   3.523   0.137   6.151  0.3160  0.4827  0.3914
 5176SOL    HW227162   3.607   0.030   6.080  2.4498  1.1815 -0.5789
 5177SOL     OW27163   2.107   1.868   2.360  0.5689  0.2052 -0.1295
 5177SOL    HW127164   2.153   1.815   2.424 -0.5340  0.1183  0.5885
 5177SOL    HW227165   2.163   1.945   2.371  0.5601  0.2358 -0.3016
 5178SOL     OW27166   0.044   2.575   3.792 -0.5784 -0.4646 -0.4941
 5178SOL    HW127167   0.130   2.569   3.832 -0.1389  0.3854 -1.3026
 5178SOL    HW227168   0.043   2.668   3.770  0.8945 -0.1434  0.8547
 5179SOL     OW27169   2.373   0.487   7.673  0.4477 -0.4051  0.1125
 5179SOL    HW127170   2.304   0.522   7.730 -0.4903 -0.1385 -1.1817
 5179SOL    HW227171   2.436   0.558   7.675  0.4171 -0.4006  1.2085
 5180SOL     OW27172   0.507   2.090   5.222  0.0706  0.0426  0.2506
 5180SOL    HW127173   0.473   2.055   5.139  0.2857 -2.0038  1.0380
 5180SOL    HW227174   0.554   2.161   5.178 -2.1634  1.2596 -0.1701
 5181SOL     OW27175   0.970   1.960   3.950  0.5819  0.0334  0.1214
 5181SOL    HW127176   1.009   2.042   3.919 -0.1044 -0.2509 -1.4691
 5181SOL    HW227177   1.001   1.901   3.882 -1.3081  0.8254 -1.4194
 5182SOL     OW27178   3.827   3.410   1.866 -0.2553  0.4634 -0.3630
 5182SOL    HW127179   3.758   3.443   1.808  0.4323  0.1097 -1.3656
 5182SOL    HW227180   3.803   3.462   1.943  0.6507  0.3288  0.0099
 5183SOL     OW27181   0.353   4.365   4.261 -0.1519  0.9345 -0.3036
 5183SOL    HW127182   0.376   4.376   4.169  0.8651  1.1296 -0.0266
 5183SOL    HW227183   0.300   4.285   4.265 -0.7696  1.3953  0.7119
 5184SOL     OW27184   2.289   1.430  12.051 -0.1452  0.4989  0.2151
 5184SOL    HW127185   2.343   1.415  12.128  0.3645 -0.2051 -0.2821
 5184SOL    HW227186   2.332   1.505  12.009 -0.8607  0.5949 -0.3573
 5185SOL     OW27187   0.081   1.143   5.938  0.3513 -0.0360  0.2790
 5185SOL    HW127188   0.090   1.131   5.844 -2.4912  1.2295 -0.1673
 5185SOL    HW227189   0.173   1.149   5.961  0.6665  1.0113 -1.2968
 5186SOL     OW27190   4.470   1.941   8.872 -0.2884 -0.1529 -0.5424
 5186SOL    HW127191   4.421   2.012   8.913 -0.5107  1.3137 -3.3405
 5186SOL    HW227192   4.496   1.979   8.788 -1.0990  2.4176  0.3827
 5187SOL     OW27193   0.108   2.673   6.011  0.2014 -0.0225  0.4442
 5187SOL    HW127194   0.096   2.745   5.950 -0.7092 -1.5852 -1.2157
 5187SOL    HW227195   0.037   2.689   6.074  1.2445  2.5950  0.9611
 5188SOL     OW27196   3.280   0.233   4.589 -0.3437 -0.8609 -0.2569
 5188SOL    HW127197   3.265   0.319   4.629 -0.5495 -1.0359  0.0425
 5188SOL    HW227198   3.303   0.182   4.667  0.5595  0.1789  0.1603
 5189SOL     OW27199   4.057   4.243   2.495 -0.3472 -0.3738  0.1179
 5189SOL    HW127200   4.016   4.233   2.409  0.2181 -0.6067 -0.1185
 5189SOL    HW227201   3.998   4.311   2.528  0.2713  0.6062 -0.7918
 5190SOL     OW27202   3.311   2.961   4.876 -0.6237  0.1323  0.1892
 5190SOL    HW127203   3.338   2.894   4.813 -1.9429  1.3028 -1.6151
 5190SOL    HW227204   3.376   3.031   4.868  0.5230 -0.7481  1.8278
 5191SOL     OW27205   4.219   1.279  10.013  0.3070 -0.1745  0.7306
 5191SOL    HW127206   4.277   1.355  10.021  0.4745 -0.4288  1.7958
 5191SOL    HW227207   4.138   1.328   9.999 -0.4185 -1.3680  0.7889
 5192SOL     OW27208   4.406   3.784   9.435  0.2743 -0.1164 -0.2819
 5192SOL    HW127209   4.368   3.865   9.470 -0.9721 -1.5825  1.7751
 5192SOL    HW227210   4.344   3.713   9.452 -1.2118  1.6101  1.5135
 5193SOL     OW27211   1.644   0.736   9.346  1.1843  0.6683 -0.2919
 5193SOL    HW127212   1.688   0.781   9.417  0.5977  1.2580 -0.2986
 5193SOL    HW227213   1.628   0.655   9.395 -1.1532  1.0047 -0.4738
 5194SOL     OW27214   0.219   4.418   3.885 -0.0898 -0.3129  0.1169
 5194SOL    HW127215   0.136   4.405   3.930 -0.6100 -1.5217 -1.1901
 5194SOL    HW227216   0.276   4.467   3.944 -1.8065  0.3240  1.2516
 5195SOL     OW27217   1.108   3.008  11.151  0.8830 -0.1103 -0.0765
 5195SOL    HW127218   1.017   2.990  11.177  0.1560  0.4084 -2.2627
 5195SOL    HW227219   1.147   3.014  11.238  3.4265 -0.1973 -1.2159
 5196SOL     OW27220   0.359   2.486  11.100 -0.1097 -0.2458 -0.4428
 5196SOL    HW127221   0.394   2.492  11.011  1.7703  0.2313  0.3338
 5196SOL    HW227222   0.341   2.392  11.097  0.5611 -0.3782 -0.3182
 5197SOL     OW27223   0.608   2.198  11.278  0.5234 -0.2060  0.2580
 5197SOL    HW127224   0.568   2.282  11.300 -0.7757 -0.9181  0.6226
 5197SOL    HW227225   0.585   2.149  11.357 -1.7697  0.2751 -0.0826
 5198SOL     OW27226   0.483   2.009   6.528  0.3300 -0.1115 -0.3046
 5198SOL    HW127227   0.431   2.082   6.494  1.3257  0.1448 -1.2706
 5198SOL    HW227228   0.520   1.977   6.446 -1.0149 -0.7988 -0.6446
 5199SOL     OW27229   1.736   4.723  14.590  0.3261  0.1794  0.2596
 5199SOL    HW127230   1.679   0.020  14.660  1.4495  0.0956  1.2166
 5199SOL    HW227231   1.747   4.630  14.612 -3.4149 -0.3583 -0.2148
 5200SOL     OW27232   2.868   2.654   3.799 -0.0125  0.1557 -0.7891
 5200SOL    HW127233   2.791   2.637   3.745 -1.2157  0.8519  0.7069
 5200SOL    HW227234   2.901   2.565   3.790 -3.1471 -0.7453 -3.6196
 5201SOL     OW27235   3.302   4.718   7.185  0.2320  0.1731  0.1998
 5201SOL    HW127236   3.246   4.657   7.137 -1.6962 -0.7951  3.7505
 5201SOL    HW227237   3.275   4.712   7.276 -1.0483 -0.6248 -0.2234
 5202SOL     OW27238   1.095   3.464   2.937 -0.7765  0.1704  0.5331
 5202SOL    HW127239   1.001   3.467   2.917 -0.2380  1.6110 -1.8060
 5202SOL    HW227240   1.097   3.418   3.021 -0.5005 -1.7987 -0.5632
 5203SOL     OW27241   1.965   1.663   9.144 -0.0313  0.0827 -0.1832
 5203SOL    HW127242   1.973   1.742   9.091  1.1117  1.1281  1.5700
 5203SOL    HW227243   1.952   1.605   9.068 -1.3908 -0.5200  0.5013
 5204SOL     OW27244   2.560   3.901   0.999  0.4637 -0.0817 -0.0543
 5204SOL    HW127245   2.634   3.922   0.942  0.8449  0.0414  0.4871
 5204SOL    HW227246   2.552   3.989   1.037 -2.5676  0.0074 -0.8821
 5205SOL     OW27247   1.027   0.294   4.746  0.1024  0.7201  0.1943
 5205SOL    HW127248   0.932   0.292   4.738  0.2560 -0.0841 -1.4954
 5205SOL    HW227249   1.045   0.315   4.838 -1.5118  0.4945  0.5577
 5206SOL     OW27250   3.289   3.425   6.582 -0.0332 -0.3758 -0.1600
 5206SOL    HW127251   3.278   3.430   6.677  0.1867  1.0922 -0.2097
 5206SOL    HW227252   3.383   3.441   6.578  0.0385 -0.7524 -0.0024
 5207SOL     OW27253   0.332   2.285  12.701 -0.1300  0.5121  0.4242
 5207SOL    HW127254   0.364   2.294  12.611 -2.1807  1.2005 -0.2168
 5207SOL    HW227255   0.275   2.208  12.700  0.1587  0.2965  0.4540
 5208SOL     OW27256   3.147   2.353   6.349  0.3913 -0.1033  0.9796
 5208SOL    HW127257   3.236   2.370   6.381  1.5487 -2.1784 -1.1999
 5208SOL    HW227258   3.091   2.369   6.426 -0.5525 -1.1754  0.5069
 5209SOL     OW27259   1.064   0.021   3.160 -0.3191 -0.6419 -0.1287
 5209SOL    HW127260   0.986   0.041   3.109 -0.2955 -3.1887 -1.1304
 5209SOL    HW227261   1.133   0.057   3.104 -0.6836 -0.6346 -0.5657
 5210SOL     OW27262   3.338   3.676  16.355 -0.1999  0.1775  0.0488
 5210SOL    HW127263   3.303   3.745  16.299 -0.6644  0.5178  0.7640
 5210SOL    HW227264   3.344   3.601  16.295 -0.3437 -0.9414  1.4369
 5211SOL     OW27265   1.790   2.684  12.821 -0.3255  0.1277  0.6474
 5211SOL    HW127266   1.776   2.627  12.746 -1.2827 -0.1987  1.0685
 5211SOL    HW227267   1.885   2.691  12.811 -0.3733 -0.1619  0.0267
 5212SOL     OW27268   0.648   3.350  13.342  0.1850  0.1219 -0.3891
 5212SOL    HW127269   0.653   3.402  13.423 -0.9178 -3.0309  1.7220
 5212SOL    HW227270   0.552   3.347  13.346  0.1712 -0.3107 -1.1145
 5213SOL     OW27271   0.242   4.414   6.821 -0.0271  0.2863  0.2605
 5213SOL    HW127272   0.337   4.402   6.827  0.0940  1.5542  1.0022
 5213SOL    HW227273   0.225   4.494   6.871  3.1286  0.1623  1.5622
 5214SOL     OW27274   0.953   3.382   2.318 -0.1581 -0.2373 -0.3302
 5214SOL    HW127275   0.916   3.466   2.346  2.8536  1.4557 -1.4519
 5214SOL    HW227276   0.940   3.337   2.402 -0.3711 -2.1932 -1.4220
 5215SOL     OW27277   1.312   0.308  11.038  0.2065  0.0797 -0.2438
 5215SOL    HW127278   1.396   0.267  11.060  0.3303  0.0069 -0.8551
 5215SOL    HW227279   1.256   0.248  11.087 -0.5147  1.2774  0.4090
 5216SOL     OW27280   1.726   2.908   7.736  0.0871 -0.2710  0.5361
 5216SOL    HW127281   1.803   2.933   7.786 -0.5131 -2.0164  2.3440
 5216SOL    HW227282   1.670   2.873   7.806  0.4200 -2.6094 -0.3494
 5217SOL     OW27283   1.583   1.354  12.912 -0.3480  0.2513  0.1104
 5217SOL    HW127284   1.615   1.302  12.838  2.2552  0.1621  1.2901
 5217SOL    HW227285   1.604   1.443  12.884  0.4081 -0.9405 -3.0288
 5218SOL     OW27286   1.492   4.547   7.943 -0.5115 -0.0857  0.0015
 5218SOL    HW127287   1.475   4.596   7.863 -0.7810  2.2920  1.5171
 5218SOL    HW227288   1.437   4.601   7.999 -0.1881  0.8948 -0.6327
 5219SOL     OW27289   2.613   4.330   5.123 -0.3674  0.3457 -0.0612
 5219SOL    HW127290   2.667   4.344   5.201  0.6382  0.8094 -0.8350
 5219SOL    HW227291   2.532   4.288   5.152  0.1616 -1.1956 -0.8567
 5220SOL     OW27292   4.563   3.421   3.219 -0.1763  0.4142  0.1890
 5220SOL    HW127293   4.474   3.394   3.196  0.1810 -1.9089  1.4960
 5220SOL    HW227294   4.608   3.337   3.230 -0.3064  0.3334  0.0937
 5221SOL     OW27295   1.170   1.205   7.548  0.0865 -0.2341  0.4407
 5221SOL    HW127296   1.128   1.285   7.581 -1.3676 -0.4742 -0.8061
 5221SOL    HW227297   1.102   1.151   7.507 -1.7712  4.3142 -2.6268
 5222SOL     OW27298   0.429   1.629   1.311  0.2270 -0.3674  0.3300
 5222SOL    HW127299   0.448   1.540   1.342  1.1070 -0.7104 -1.2180
 5222SOL    HW227300   0.481   1.619   1.232 -1.9379 -1.6951 -0.9345
 5223SOL     OW27301   1.237   1.739   7.978 -0.5443  0.8495 -0.2869
 5223SOL    HW127302   1.205   1.653   7.949  1.4202  0.5525 -1.5497
 5223SOL    HW227303   1.326   1.727   8.011 -0.9949  0.3107  0.7390
 5224SOL     OW27304   4.546   1.918   1.417  0.1390  0.1891 -0.3172
 5224SOL    HW127305   4.503   1.853   1.362  2.5677 -0.4481 -1.4531
 5224SOL    HW227306   4.510   2.006   1.403 -0.3859 -0.2086 -1.4652
 5225SOL     OW27307   1.668   2.236   7.744  0.2960  0.0416 -0.2436
 5225SOL    HW127308   1.637   2.167   7.802 -2.2009  0.5487 -0.9840
 5225SOL    HW227309   1.710   2.184   7.676 -2.1455 -0.4482 -1.3627
 5226SOL     OW27310   4.308   1.438   2.464 -0.1303 -0.0424 -0.3152
 5226SOL    HW127311   4.372   1.468   2.528 -0.6038 -1.5650  0.8729
 5226SOL    HW227312   4.250   1.512   2.450  1.0687  0.6868 -1.3719
 5227SOL     OW27313   4.274   1.826   0.227  0.0498  0.7850 -0.2868
 5227SOL    HW127314   4.320   1.753   0.269 -0.7950  0.2685 -0.2637
 5227SOL    HW227315   4.221   1.842   0.306  0.1757  1.6437 -0.3730
 5228SOL     OW27316   4.574   0.281   7.278 -0.3142 -0.2859  0.5417
 5228SOL    HW127317   4.518   0.328   7.217 -0.2162  0.3883  0.9691
 5228SOL    HW227318   4.659   0.314   7.250 -0.7050  0.0076 -0.2855
 5229SOL     OW27319   0.489   4.564  17.289 -0.4774 -0.0676  0.0019
 5229SOL    HW127320   0.538   4.646  17.280 -1.4818  0.4512 -0.6999
 5229SOL    HW227321   0.553   4.503  17.252 -0.0597 -0.4075  1.2611
 5230SOL     OW27322   4.156   3.324   6.634 -0.5197 -0.4042 -0.0806
 5230SOL    HW127323   4.139   3.303   6.726 -0.5469  0.8580  0.1989
 5230SOL    HW227324   4.129   3.242   6.592  0.7729 -1.3423  0.9112
 5231SOL     OW27325   2.093   3.285   4.782  0.4882 -0.8160 -0.0263
 5231SOL    HW127326   2.177   3.300   4.825  0.0590  1.0681  0.1593
 5231SOL    HW227327   2.118   3.276   4.690 -0.0134 -0.6790 -0.1807
 5232SOL     OW27328   1.694   2.432   9.513  0.1966 -0.1345  0.6922
 5232SOL    HW127329   1.661   2.347   9.484  0.4485 -0.8758  2.5637
 5232SOL    HW227330   1.787   2.417   9.497 -0.5282 -2.1720 -1.6535
 5233SOL     OW27331   2.436   3.497   0.702  0.2294 -0.1765  0.8688
 5233SOL    HW127332   2.445   3.474   0.795  1.9841 -1.0590  0.4753
 5233SOL    HW227333   2.522   3.535   0.686 -0.9792  2.0210 -0.5273
 5234SOL     OW27334   3.446   4.392   8.303  0.0537 -0.4921 -0.2959
 5234SOL    HW127335   3.490   4.313   8.271  0.9082 -0.4870  0.8863
 5234SOL    HW227336   3.519   4.424   8.355  0.2710  0.5588 -1.2481
 5235SOL     OW27337   2.457   0.065   8.253  0.2413 -0.3555  0.0087
 5235SOL    HW127338   2.536   0.100   8.295  0.0888 -0.6669  0.5525
 5235SOL    HW227339   2.413   0.016   8.322  0.8749 -0.1058  0.5857
 5236SOL     OW27340   3.069   3.330   6.121  0.7782  0.4552 -0.1618
 5236SOL    HW127341   3.138   3.388   6.153  1.1229 -1.1752  2.0276
 5236SOL    HW227342   3.070   3.271   6.196  0.1422  0.1839 -0.3670
 5237SOL     OW27343   1.292   1.389   4.665 -0.8883  0.5615 -0.3138
 5237SOL    HW127344   1.378   1.406   4.628 -1.4273  2.6654 -0.5682
 5237SOL    HW227345   1.232   1.404   4.593 -0.5056 -0.2227 -0.8007
 5238SOL     OW27346   0.670   1.406   5.749  0.1426  0.5465 -0.8144
 5238SOL    HW127347   0.600   1.341   5.748  1.3003 -0.7502  4.1011
 5238SOL    HW227348   0.611   1.478   5.771 -0.3556 -0.4583  1.0599
 5239SOL     OW27349   1.378   0.402   7.706  0.1979 -0.2304  0.0970
 5239SOL    HW127350   1.436   0.342   7.753 -1.8338 -1.5880  0.8505
 5239SOL    HW227351   1.438   0.430   7.637 -1.4331  0.2314 -1.1290
 5240SOL     OW27352   3.042   0.454   7.108  0.1397  0.0417  0.1414
 5240SOL    HW127353   3.062   0.539   7.147 -2.2636  0.4324  0.5347
 5240SOL    HW227354   2.989   0.416   7.178 -1.6048  0.3132 -1.0567
 5241SOL     OW27355   3.602   3.085   6.456  0.3881  0.2408 -0.5238
 5241SOL    HW127356   3.647   3.111   6.537  1.4361 -1.9682 -0.3959
 5241SOL    HW227357   3.615   3.158   6.395 -2.0045  0.6034 -0.6147
 5242SOL     OW27358   2.635   2.236   8.287  0.2395 -0.1653  0.2445
 5242SOL    HW127359   2.640   2.302   8.218  1.2910  0.1317  0.6084
 5242SOL    HW227360   2.650   2.167   8.223  2.4545  0.7219 -0.1926
 5243SOL     OW27361   2.271   3.469   3.161 -0.0003  0.5446  0.3856
 5243SOL    HW127362   2.281   3.511   3.246 -0.6307  0.3035  0.5771
 5243SOL    HW227363   2.345   3.505   3.113  0.5669 -0.4727  0.4962
 5244SOL     OW27364   3.351   2.127  14.918  0.2822 -0.4705  0.5924
 5244SOL    HW127365   3.439   2.159  14.939 -0.6408  2.7641 -0.5287
 5244SOL    HW227366   3.320   2.092  15.002 -0.6642 -1.5138 -0.2028
 5245SOL     OW27367   3.921   0.455   3.912 -0.2865  0.2288 -0.2872
 5245SOL    HW127368   3.991   0.510   3.877  1.9804 -0.2254  3.5280
 5245SOL    HW227369   3.904   0.504   3.993 -0.4683 -1.9263  0.9879
 5246SOL     OW27370   4.504   2.472  15.370  0.8034  0.1399 -0.4405
 5246SOL    HW127371   4.474   2.381  15.377 -0.7737  0.8261  1.4967
 5246SOL    HW227372   4.476   2.496  15.458  0.8893 -2.2017  0.2243
 5247SOL     OW27373   1.551   4.401   3.263 -0.1719  0.4518 -0.6659
 5247SOL    HW127374   1.521   4.329   3.318  0.1657  0.3166 -0.6621
 5247SOL    HW227375   1.474   4.457   3.275 -1.1557 -0.9229 -0.4549
 5248SOL     OW27376   3.535   4.277   4.913  0.3663  0.9644 -0.5895
 5248SOL    HW127377   3.567   4.360   4.947 -0.5364  0.4916  1.4034
 5248SOL    HW227378   3.602   4.269   4.844 -1.3143 -0.1034 -2.0886
 5249SOL     OW27379   1.582   3.065  13.289 -0.4767 -0.3438  0.4744
 5249SOL    HW127380   1.643   3.102  13.226 -1.8585  2.5044  0.8052
 5249SOL    HW227381   1.579   3.135  13.354  2.9283  1.1160 -0.9507
 5250SOL     OW27382   4.569   3.130   3.822 -0.1341 -0.4754  0.1652
 5250SOL    HW127383   4.509   3.196   3.856 -0.0923  0.2485 -1.1462
 5250SOL    HW227384   4.645   3.151   3.875  1.7779 -1.4219 -2.1958
 5251SOL     OW27385   2.076   0.122  10.531 -0.3818  0.0242  0.3007
 5251SOL    HW127386   2.149   0.095  10.588 -0.6594  3.1293  2.1216
 5251SOL    HW227387   2.109   0.088  10.448 -0.0235 -2.1664  1.3379
 5252SOL     OW27388   2.211   2.598  12.324 -0.4978  0.5876 -0.3109
 5252SOL    HW127389   2.290   2.644  12.354 -1.5996  0.8302  2.1691
 5252SOL    HW227390   2.155   2.669  12.294  0.0287  0.6129 -1.2687
 5253SOL     OW27391   4.484   0.971   8.970  0.4939  0.3258 -0.6410
 5253SOL    HW127392   4.452   0.909   9.036 -1.4482 -0.3986 -2.2394
 5253SOL    HW227393   4.444   0.937   8.889 -0.8852 -0.6024  0.4393
 5254SOL     OW27394   4.667   4.220   9.366 -0.3287 -0.2057 -0.0590
 5254SOL    HW127395   4.657   4.155   9.436 -0.7874 -1.1072 -0.9621
 5254SOL    HW227396   4.716   4.170   9.301  2.0100 -0.1622  1.6795
 5255SOL     OW27397   4.644   2.229   8.322 -0.1012  0.0340  1.0822
 5255SOL    HW127398   4.732   2.220   8.287 -0.7578  2.5650 -1.2769
 5255SOL    HW227399   4.623   2.136   8.325 -0.0788  0.0557  1.9630
 5256SOL     OW27400   1.968   0.911  11.427 -0.1031  0.4806  0.3218
 5256SOL    HW127401   2.043   0.969  11.442 -0.3118  0.6258  0.7803
 5256SOL    HW227402   1.908   0.973  11.387 -0.8660  0.2898  1.1838
 5257SOL     OW27403   3.293   1.036   1.318 -0.2608  0.3638  0.2437
 5257SOL    HW127404   3.385   1.010   1.324 -0.8767 -1.7455  0.2161
 5257SOL    HW227405   3.255   0.989   1.392 -0.2347 -0.2312 -0.1254
 5258SOL     OW27406   2.990   3.423  15.458 -0.1665  0.3085 -0.7428
 5258SOL    HW127407   2.944   3.427  15.374 -1.0089  4.0643 -0.1165
 5258SOL    HW227408   3.024   3.334  15.460 -1.4081 -0.2069 -2.2813
 5259SOL     OW27409   2.929   0.499  10.815  0.5392 -0.0379 -0.2954
 5259SOL    HW127410   2.858   0.514  10.753  1.1931 -1.5297 -1.4036
 5259SOL    HW227411   2.888   0.485  10.900 -0.8088 -0.4705 -1.0249
 5260SOL     OW27412   4.185   3.588   6.657 -0.4286 -0.3177  0.0688
 5260SOL    HW127413   4.181   3.494   6.642  0.7699 -0.1802 -1.0660
 5260SOL    HW227414   4.121   3.618   6.592  0.0235  0.2764 -0.1029
 5261SOL     OW27415   1.908   0.311   2.744 -0.4946 -0.3449  0.5368
 5261SOL    HW127416   1.914   0.306   2.649  2.1891 -4.2888  0.9031
 5261SOL    HW227417   1.816   0.326   2.765 -0.1985  1.2053  0.7151
 5262SOL     OW27418   3.104   0.230   4.394 -0.2089  0.2873  0.2509
 5262SOL    HW127419   3.134   0.313   4.357  0.4332 -0.7018 -1.4556
 5262SOL    HW227420   3.158   0.224   4.473  0.5997 -0.3314 -0.3447
 5263SOL     OW27421   1.655   1.872  14.691 -0.3071  0.7531 -0.3226
 5263SOL    HW127422   1.716   1.809  14.729  0.2087  1.7225  0.4389
 5263SOL    HW227423   1.590   1.862  14.761  1.2335 -2.9135  0.5797
 5264SOL     OW27424   0.336   2.015   4.967  0.0323  0.4265  0.0857
 5264SOL    HW127425   0.282   1.937   4.956 -0.4836  0.9880 -1.4122
 5264SOL    HW227426   0.395   2.014   4.891  0.0715  1.3104  0.1093
 5265SOL     OW27427   1.017   3.958  15.770 -0.1347  0.3039  0.5092
 5265SOL    HW127428   1.064   3.949  15.853  1.7335  0.9102 -0.4782
 5265SOL    HW227429   1.052   3.879  15.728 -0.6740 -0.2929  1.1895
 5266SOL     OW27430   3.203   0.688   3.306 -0.3547  0.5398 -0.7200
 5266SOL    HW127431   3.141   0.742   3.355 -0.6760 -0.8360  0.3721
 5266SOL    HW227432   3.248   0.654   3.383 -1.2178  5.0290  1.8340
 5267SOL     OW27433   1.164   1.789  12.016  0.0290  0.0092  0.7031
 5267SOL    HW127434   1.218   1.848  12.069  1.1351  0.0727 -0.4896
 5267SOL    HW227435   1.094   1.775  12.079 -1.2588  1.3207 -0.4287
 5268SOL     OW27436   0.364   1.727   2.751  0.5500  0.7813 -0.1293
 5268SOL    HW127437   0.326   1.805   2.710 -0.8514 -0.1934 -0.6500
 5268SOL    HW227438   0.312   1.660   2.708  1.2954  0.5222 -0.6326
 5269SOL     OW27439   3.297   2.712  12.331 -0.0247  0.2144 -0.1594
 5269SOL    HW127440   3.332   2.739  12.415 -2.6484 -2.3873  1.7539
 5269SOL    HW227441   3.294   2.618  12.348 -0.3408  0.0630 -1.0180
 5270SOL     OW27442   1.526   4.698  11.179 -0.0951 -0.4768 -0.1263
 5270SOL    HW127443   1.544   0.056  11.201  2.0805 -0.8129 -0.4693
 5270SOL    HW227444   1.435   4.695  11.150 -0.6773  1.4000  1.5177
 5271SOL     OW27445   3.409   4.417   7.602  0.1855  0.7328  0.6428
 5271SOL    HW127446   3.417   4.496   7.656  2.2162 -0.4055  1.9945
 5271SOL    HW227447   3.407   4.354   7.673 -1.5306 -0.1184 -0.1696
 5272SOL     OW27448   4.702   1.539   2.125  0.4051 -0.0559 -0.5326
 5272SOL    HW127449   4.637   1.499   2.183  3.0299  0.7868  3.0622
 5272SOL    HW227450   0.048   1.507   2.169  0.0150 -1.4165 -0.8198
 5273SOL     OW27451   0.042   1.378   1.893 -0.3383 -0.4076  0.0968
 5273SOL    HW127452   0.010   1.408   1.979 -1.2443 -1.1599  0.0267
 5273SOL    HW227453   0.039   1.284   1.908  0.9745 -0.6161 -1.0405
 5274SOL     OW27454   1.164   4.573   2.877 -0.4468  0.0633 -0.3764
 5274SOL    HW127455   1.237   4.521   2.844 -0.9170  0.5625 -2.2063
 5274SOL    HW227456   1.176   4.533   2.963 -1.1425 -0.3544 -0.4814
 5275SOL     OW27457   3.569   1.706   4.937  0.6898 -0.1392  0.8362
 5275SOL    HW127458   3.502   1.638   4.932 -0.5220  1.0865  0.3816
 5275SOL    HW227459   3.528   1.765   5.001 -0.2972  2.2562 -1.9880
 5276SOL     OW27460   4.159   1.390   4.213 -0.4003  0.3286  0.0854
 5276SOL    HW127461   4.166   1.469   4.266 -1.6238 -0.6239  1.6512
 5276SOL    HW227462   4.073   1.399   4.172 -0.3858 -0.2398 -0.0708
 5277SOL     OW27463   4.593   2.871   5.920 -0.1417  0.1590 -0.9326
 5277SOL    HW127464   4.516   2.927   5.925 -0.9211 -0.8609 -1.6930
 5277SOL    HW227465   4.670   2.928   5.928  0.2962 -0.4313 -0.9988
 5278SOL     OW27466   3.665   1.153   0.918 -0.1321  0.1748 -0.0201
 5278SOL    HW127467   3.643   1.181   0.829  0.7612  1.3995  0.1471
 5278SOL    HW227468   3.754   1.120   0.908 -0.9734 -1.8342 -0.7430
 5279SOL     OW27469   0.556   4.302   5.235 -0.1765  0.0692  0.5816
 5279SOL    HW127470   0.564   4.242   5.309 -1.3247  1.1837  1.5949
 5279SOL    HW227471   0.549   4.387   5.278 -1.1010  0.8280 -1.0704
 5280SOL     OW27472   3.432   2.241   3.786 -0.0385 -0.2632  0.4609
 5280SOL    HW127473   3.507   2.266   3.840 -2.4930  0.2495  3.5756
 5280SOL    HW227474   3.393   2.166   3.830  0.8156  0.3297  2.2100
 5281SOL     OW27475   1.379   2.226   3.823  0.3906 -0.8981 -0.1118
 5281SOL    HW127476   1.446   2.231   3.892  0.4916  0.6934 -0.3157
 5281SOL    HW227477   1.321   2.298   3.847  2.7949  0.6261  1.1327
 5282SOL     OW27478   2.218   0.022  13.396  0.1147  0.1216  0.0547
 5282SOL    HW127479   2.145   0.045  13.454  1.3094  3.5691  0.1743
 5282SOL    HW227480   2.199   0.084  13.325 -0.9668  1.0639  1.1781
 5283SOL     OW27481   4.002   0.043   9.686 -0.5363 -0.1791 -0.1132
 5283SOL    HW127482   4.022   0.059   9.778  1.0786  1.3774 -0.7205
 5283SOL    HW227483   3.930   0.104   9.673 -0.3191  0.6329  2.6700
 5284SOL     OW27484   1.491   0.582  11.967  0.3990 -0.2621  0.2508
 5284SOL    HW127485   1.451   0.537  12.042  0.9581 -1.0453  0.0783
 5284SOL    HW227486   1.435   0.554  11.894 -2.1825  0.0941  2.1033
 5285SOL     OW27487   2.205   1.473   5.495 -0.1403 -0.4439  0.3898
 5285SOL    HW127488   2.282   1.417   5.506  0.2866  0.4905  2.2092
 5285SOL    HW227489   2.167   1.431   5.417  0.3768  1.2469 -0.7596
 5286SOL     OW27490   0.163   1.132   5.253 -0.3584 -0.2102  0.1824
 5286SOL    HW127491   0.193   1.131   5.162 -1.7113 -4.3722 -0.2148
 5286SOL    HW227492   0.241   1.114   5.305 -2.6689  2.3989  4.5901
 5287SOL     OW27493   0.883   2.654   9.900 -0.5132 -0.6496  1.0669
 5287SOL    HW127494   0.924   2.604   9.829 -1.6063 -1.2575  0.8543
 5287SOL    HW227495   0.793   2.657   9.866  0.6792  1.6465 -1.8257
 5288SOL     OW27496   0.379   2.431   2.091  0.1894  0.3831 -0.0331
 5288SOL    HW127497   0.408   2.415   2.001 -0.2691  1.7498 -0.4186
 5288SOL    HW227498   0.294   2.469   2.067  0.9247  3.8256  2.8328
 5289SOL     OW27499   3.753   0.947   4.243  1.2270 -0.4824  0.5465
 5289SOL    HW127500   3.760   0.915   4.153 -0.4927  2.4028 -0.6181
 5289SOL    HW227501   3.826   0.896   4.278  2.5785  1.4702  0.5361
 5290SOL     OW27502   3.693   0.365   5.917  0.5320  0.0526 -0.3650
 5290SOL    HW127503   3.708   0.282   5.963  0.0888  0.0716 -0.1899
 5290SOL    HW227504   3.639   0.335   5.844 -1.5335 -0.8230  1.5428
 5291SOL     OW27505   2.769   1.075   1.356 -0.2458 -0.3085 -0.2681
 5291SOL    HW127506   2.699   1.111   1.410  2.2790  1.1289  2.0631
 5291SOL    HW227507   2.846   1.112   1.400  0.4503 -1.3464 -0.6166
 5292SOL     OW27508   4.463   2.646   3.340 -0.0604  0.5344  0.3149
 5292SOL    HW127509   4.549   2.619   3.373  0.5173  0.6900 -1.0597
 5292SOL    HW227510   4.444   2.570   3.285 -2.8263  2.1356 -0.9114
 5293SOL     OW27511   2.974   0.054   5.576  0.2825  0.0409 -0.2577
 5293SOL    HW127512   3.068   0.048   5.561 -0.0537 -1.5015 -1.7389
 5293SOL    HW227513   2.968   4.698   5.612 -2.3588  0.5696  0.6295
 5294SOL     OW27514   1.162   4.140  10.356  0.1608 -0.0906 -0.0141
 5294SOL    HW127515   1.212   4.161  10.435  1.7395  0.2757 -1.1241
 5294SOL    HW227516   1.180   4.046  10.355  3.1650  0.4827  0.2552
 5295SOL     OW27517   3.723   0.265   3.897 -0.2440 -0.2586 -0.0444
 5295SOL    HW127518   3.796   0.325   3.912 -0.6868  0.5658 -1.2485
 5295SOL    HW227519   3.733   0.194   3.961 -1.1652  0.0134  0.4087
 5296SOL     OW27520   3.203   3.029   1.345  0.2200  0.6260 -0.4524
 5296SOL    HW127521   3.134   3.094   1.355 -0.7237 -0.6127  1.1709
 5296SOL    HW227522   3.157   2.946   1.330  0.9381  0.3678 -1.2124
 5297SOL     OW27523   2.586   1.807   2.563 -0.3130 -0.2394 -0.0346
 5297SOL    HW127524   2.619   1.736   2.508 -2.0553 -0.5576 -0.6826
 5297SOL    HW227525   2.658   1.800   2.625 -0.7999  2.8944  0.8876
 5298SOL     OW27526   2.831   0.784  17.166 -0.2221  0.0381  0.3125
 5298SOL    HW127527   2.817   0.738  17.249 -0.3876 -0.0390  0.2411
 5298SOL    HW227528   2.755   0.754  17.116  0.2141  0.7257 -0.7739
 5299SOL     OW27529   1.046   0.230   8.129 -0.5851 -1.0700  0.5772
 5299SOL    HW127530   1.059   0.136   8.142  0.1091 -0.9891  0.4734
 5299SOL    HW227531   1.125   0.263   8.172 -0.6785  0.4991 -0.4470
 5300SOL     OW27532   0.967   1.091   4.546 -0.2408 -0.1758 -0.0243
 5300SOL    HW127533   1.043   1.038   4.524 -1.3961 -1.2658 -1.3445
 5300SOL    HW227534   0.896   1.039   4.507 -0.2228  0.1149 -0.4455
 5301SOL     OW27535   2.737   2.552   0.660 -0.1873  0.3091 -0.0390
 5301SOL    HW127536   2.759   2.638   0.625 -0.5589  1.0351  1.5362
 5301SOL    HW227537   2.824   2.522   0.686  0.0282  0.7605 -0.2410
 5302SOL     OW27538   0.154   1.910   3.174  0.1024 -0.0140  0.5808
 5302SOL    HW127539   0.150   1.868   3.088  2.2693  0.7952  0.0884
 5302SOL    HW227540   0.062   1.926   3.197  0.5723  1.1985  1.6296
 5303SOL     OW27541   1.584   4.269   0.567  1.4226  0.1148  0.4900
 5303SOL    HW127542   1.515   4.206   0.587  1.7776 -0.8167 -1.2879
 5303SOL    HW227543   1.636   4.225   0.500  2.4022  2.1394 -0.0725
 5304SOL     OW27544   1.424   2.918   9.381  0.2821 -0.6972  0.5355
 5304SOL    HW127545   1.451   2.846   9.438 -1.9347 -2.2298 -0.3665
 5304SOL    HW227546   1.330   2.901   9.374  0.6129 -1.1957 -2.5770
 5305SOL     OW27547   1.194   2.937   0.996  0.0467 -0.3262 -0.1993
 5305SOL    HW127548   1.288   2.952   0.988  0.0786 -0.5741 -0.2608
 5305SOL    HW227549   1.193   2.851   0.955  0.7052 -0.5286  0.2121
 5306SOL     OW27550   1.650   0.022   5.009 -0.1900  0.6086 -0.1852
 5306SOL    HW127551   1.591   4.714   4.945  2.7393 -2.5081 -0.8545
 5306SOL    HW227552   1.676   4.673   5.051 -1.1704  1.5662  2.2975
 5307SOL     OW27553   2.093   4.269   6.791  0.4188 -0.6100  0.3060
 5307SOL    HW127554   2.074   4.199   6.728  2.2563 -0.8319 -0.0115
 5307SOL    HW227555   2.165   4.313   6.746  1.0195 -0.9053  0.9735
 5308SOL     OW27556   1.838   4.247   5.739  0.5790  0.3120 -0.1408
 5308SOL    HW127557   1.922   4.291   5.751  0.7681  0.4619 -2.0078
 5308SOL    HW227558   1.826   4.218   5.829 -0.2164 -1.0421 -0.6919
 5309SOL     OW27559   1.204   3.608   7.229 -0.4117  0.2610  0.4562
 5309SOL    HW127560   1.254   3.672   7.279  0.2918 -0.2360  0.3830
 5309SOL    HW227561   1.128   3.656   7.196 -0.4407 -0.0804  0.0323
 5310SOL     OW27562   4.185   0.685   6.721 -0.6026 -0.0213  0.0949
 5310SOL    HW127563   4.202   0.591   6.726  2.1331  0.5459  1.0652
 5310SOL    HW227564   4.103   0.695   6.770 -0.9450 -0.5004 -0.3708
 5311SOL     OW27565   4.650   0.985   2.612 -0.0244  0.0422 -0.0619
 5311SOL    HW127566   4.615   0.919   2.552  0.4430 -0.1310 -0.1470
 5311SOL    HW227567   4.567   1.013   2.651  0.5087 -1.3749  2.0543
 5312SOL     OW27568   4.724   4.112  15.654  0.7404  0.6556 -0.2014
 5312SOL    HW127569   4.687   4.101  15.567 -0.6267  0.1511  0.4472
 5312SOL    HW227570   0.065   4.172  15.644  2.4632 -1.5384 -0.5042
 5313SOL     OW27571   0.969   2.173   4.775  0.0338  0.7817 -0.2066
 5313SOL    HW127572   0.999   2.168   4.866  0.8361  0.6906 -0.4761
 5313SOL    HW227573   0.879   2.142   4.783  0.4684 -1.1938 -3.0361
 5314SOL     OW27574   3.041   2.933   4.894 -0.2330 -0.2634 -0.1016
 5314SOL    HW127575   3.131   2.938   4.860 -0.2865 -0.5120 -0.2803
 5314SOL    HW227576   3.049   2.930   4.989 -1.4015 -0.0727 -0.0032
 5315SOL     OW27577   2.802   1.977   6.141 -0.1182 -0.1701  0.0940
 5315SOL    HW127578   2.715   1.979   6.181  0.3756  0.6325  1.1211
 5315SOL    HW227579   2.829   1.919   6.212  0.4867  0.0639  0.0537
 5316SOL     OW27580   3.200   0.976   2.565 -0.0359  0.3189  0.3122
 5316SOL    HW127581   3.221   0.889   2.599  0.0827 -0.3399 -1.4477
 5316SOL    HW227582   3.208   1.033   2.641 -1.3369  0.7463  0.1207
 5317SOL     OW27583   3.881   3.446   6.843  0.3019 -0.3063  0.3484
 5317SOL    HW127584   3.865   3.489   6.758  3.2628  0.4307  0.1717
 5317SOL    HW227585   3.799   3.401   6.861 -0.0047  1.0750  2.3785
 5318SOL     OW27586   4.512   2.216   7.777  0.3927 -0.0904  0.0690
 5318SOL    HW127587   4.499   2.122   7.787  0.0398 -0.3807 -3.2113
 5318SOL    HW227588   4.501   2.243   7.868  0.8307 -0.2303  0.1646
 5319SOL     OW27589   3.622   0.876   1.914  0.3573 -0.0823 -0.2721
 5319SOL    HW127590   3.539   0.903   1.953  0.3747 -0.0613 -0.2502
 5319SOL    HW227591   3.676   0.877   1.993 -0.3969 -1.2795  0.2632
 5320SOL     OW27592   2.747   3.050   5.018 -0.7996  0.3611 -0.2439
 5320SOL    HW127593   2.818   3.051   4.954  0.2470  2.0107  0.9590
 5320SOL    HW227594   2.743   3.145   5.027  2.6263  0.3189  1.4709
 5321SOL     OW27595   3.560   4.190   6.817  0.2122 -0.1157  0.2389
 5321SOL    HW127596   3.584   4.203   6.909 -1.4089  2.6594  0.2496
 5321SOL    HW227597   3.638   4.229   6.779  0.1827 -0.2278  0.0646
 5322SOL     OW27598   4.470   3.691   3.565 -0.3095 -0.1796 -0.2649
 5322SOL    HW127599   4.522   3.627   3.518 -0.2167  0.6146 -1.2473
 5322SOL    HW227600   4.406   3.638   3.612  0.0920  0.0294  0.5224
 5323SOL     OW27601   4.145   4.676   1.006  0.0256  0.4331 -0.2343
 5323SOL    HW127602   4.204   4.650   0.936  1.0391  0.8544  0.4607
 5323SOL    HW227603   4.116   4.587   1.027  0.4038  0.2531 -0.4833
 5324SOL     OW27604   1.961   3.984   4.664 -0.1711 -0.8869  0.3908
 5324SOL    HW127605   2.051   3.994   4.693  0.1729  0.4351 -1.1460
 5324SOL    HW227606   1.942   3.894   4.693  0.4835 -0.8168  1.0268
 5325SOL     OW27607   4.083   0.684   3.885 -0.1716 -0.0643  0.7961
 5325SOL    HW127608   4.152   0.692   3.951  0.3549  1.4589  0.0657
 5325SOL    HW227609   4.037   0.765   3.904 -1.4788 -0.2368 -1.6632
 5326SOL     OW27610   3.023   0.046   4.760 -0.4688  0.1371  0.5487
 5326SOL    HW127611   3.033   4.684   4.766  1.0833  0.1818 -1.3246
 5326SOL    HW227612   2.980   0.071   4.842 -0.7492 -1.5094  0.9030
 5327SOL     OW27613   1.868   3.166   2.707  0.1853  0.2990 -0.2631
 5327SOL    HW127614   1.810   3.091   2.710  1.2521 -0.6115 -2.3130
 5327SOL    HW227615   1.839   3.215   2.783 -2.0160  0.3556 -1.1481
 5328SOL     OW27616   2.173   2.465  17.313  0.4993  0.3171  1.0144
 5328SOL    HW127617   2.184   2.544  17.365 -1.1843  1.2788 -0.1139
 5328SOL    HW227618   2.261   2.429  17.298  0.0776 -1.9491  3.9469
 5329SOL     OW27619   1.050   3.665   9.565  0.0014  0.1910  0.4329
 5329SOL    HW127620   1.057   3.612   9.645  0.4906  0.6558  0.6941
 5329SOL    HW227621   1.120   3.730   9.569 -1.8009  2.0933  0.9780
 5330SOL     OW27622   3.341   3.054   4.032  0.1296  0.6426  0.0231
 5330SOL    HW127623   3.437   3.060   4.036  0.1650  1.5188 -1.9218
 5330SOL    HW227624   3.325   2.960   4.036 -0.6908  0.8335  1.2547
 5331SOL     OW27625   0.160   2.047  17.646 -0.2329 -0.6141 -0.1228
 5331SOL    HW127626   0.148   2.093  17.563 -2.8152 -1.2406 -0.1256
 5331SOL    HW227627   0.067   2.045  17.670  0.5152 -1.0795  2.8399
 5332SOL     OW27628   3.593   2.080   9.927 -0.0967  0.4416 -0.5502
 5332SOL    HW127629   3.646   2.012   9.969 -3.6649 -1.9603  0.0321
 5332SOL    HW227630   3.505   2.054   9.953  1.0045  0.4288  3.1828
 5333SOL     OW27631   4.523   2.422   9.422 -0.0791 -0.3300  0.2825
 5333SOL    HW127632   4.499   2.330   9.408 -2.1952  0.0840  1.1006
 5333SOL    HW227633   4.439   2.457   9.452  0.6305  0.2238  1.6085
 5334SOL     OW27634   3.743   1.184   7.795 -0.4125 -0.4732 -0.4941
 5334SOL    HW127635   3.703   1.264   7.828  0.2418 -0.9220  1.3828
 5334SOL    HW227636   3.828   1.195   7.835 -1.0918 -0.6517  0.9870
 5335SOL     OW27637   3.731   0.731   0.357  0.0568  0.2363 -0.0312
 5335SOL    HW127638   3.661   0.666   0.347 -0.9425  0.8318  2.9156
 5335SOL    HW227639   3.693   0.811   0.321 -1.5587 -0.8499 -0.7402
 5336SOL     OW27640   3.277   2.430   8.479 -0.4175  0.3455 -0.0287
 5336SOL    HW127641   3.303   2.477   8.401  0.5440 -1.1262 -0.6057
 5336SOL    HW227642   3.182   2.441   8.472 -0.8172 -1.8636  1.5648
 5337SOL     OW27643   1.148   1.367   6.220  0.5091 -0.1101 -0.6234
 5337SOL    HW127644   1.123   1.446   6.269 -0.9739 -0.9594 -0.0023
 5337SOL    HW227645   1.214   1.337   6.282 -0.1745  0.3302  0.3191
 5338SOL     OW27646   2.287   0.094  15.916 -0.3985  0.4123  0.2970
 5338SOL    HW127647   2.279   0.181  15.955  1.6037  0.3503  0.8527
 5338SOL    HW227648   2.212   0.097  15.856  2.0648 -0.0582 -2.7482
 5339SOL     OW27649   1.310   0.014   5.123 -0.0764 -0.3869 -0.1055
 5339SOL    HW127650   1.377   4.707   5.069  1.9768  0.2419  1.9832
 5339SOL    HW227651   1.284   4.668   5.169  2.3925 -0.1284  1.7161
 5340SOL     OW27652   2.187   2.689   8.307  0.2383  0.3069 -0.1600
 5340SOL    HW127653   2.174   2.604   8.350  0.4440  0.0135 -0.6869
 5340SOL    HW227654   2.279   2.707   8.327  0.6462 -0.6026 -1.2419
 5341SOL     OW27655   1.099   4.343  10.095 -0.0124 -0.0081  0.4927
 5341SOL    HW127656   1.100   4.421  10.151  0.4260 -0.4912  1.1498
 5341SOL    HW227657   1.097   4.280  10.167 -1.5409  0.7949  1.1492
 5342SOL     OW27658   0.200   3.670   6.947 -0.0607  0.6736 -0.1978
 5342SOL    HW127659   0.281   3.720   6.931  0.5769 -0.4075 -0.3461
 5342SOL    HW227660   0.188   3.669   7.042  0.8178 -0.6749 -0.1062
 5343SOL     OW27661   4.669   3.657   4.245  0.0313 -0.5952 -0.0243
 5343SOL    HW127662   4.622   3.648   4.328 -2.2543  0.0673 -1.2486
 5343SOL    HW227663   0.005   3.592   4.252 -0.5937 -1.3390 -0.7269
 5344SOL     OW27664   1.779   0.907   8.738 -0.0140 -0.2483 -0.1986
 5344SOL    HW127665   1.698   0.922   8.786 -0.4758  1.3704 -1.4570
 5344SOL    HW227666   1.851   0.942   8.792 -2.2896  3.1587  0.6735
 5345SOL     OW27667   4.050   3.767   7.231  0.4109 -0.1865 -0.1508
 5345SOL    HW127668   4.082   3.824   7.161  3.0665 -0.8789  0.4931
 5345SOL    HW227669   3.960   3.754   7.202 -0.1621  2.9240  0.1769
 5346SOL     OW27670   2.464   1.614   8.695 -0.4928 -0.4591 -0.4682
 5346SOL    HW127671   2.380   1.575   8.719 -0.4770  0.0718  0.4430
 5346SOL    HW227672   2.487   1.574   8.611  0.2399  1.1571 -1.0376
 5347SOL     OW27673   3.354   3.030  14.213 -0.1383 -0.0777  0.3713
 5347SOL    HW127674   3.418   2.995  14.151  0.3751  3.5100 -1.1374
 5347SOL    HW227675   3.290   2.959  14.201  0.3193  0.0229 -2.7276
 5348SOL     OW27676   1.103   4.087   9.135 -0.0783  0.2907  0.6200
 5348SOL    HW127677   1.166   4.045   9.193  2.0449  0.3677 -1.6016
 5348SOL    HW227678   1.144   4.174   9.132  0.9851 -0.3309 -2.3323
 5349SOL     OW27679   0.728   0.510   7.909 -0.4688  0.4479 -0.4212
 5349SOL    HW127680   0.785   0.573   7.866  0.2467 -1.1964 -1.8887
 5349SOL    HW227681   0.791   0.439   7.922 -0.0067  0.3088 -3.3941
 5350SOL     OW27682   3.010   1.559   6.821  0.3282  0.4156  0.4573
 5350SOL    HW127683   3.060   1.505   6.759  0.2555  0.0841  0.6854
 5350SOL    HW227684   3.081   1.597   6.873  0.7413  0.5755 -0.2202
 5351SOL     OW27685   4.373   0.817   9.968  0.1070  0.6520  0.0304
 5351SOL    HW127686   4.468   0.824   9.960 -0.1208  1.4228 -2.1219
 5351SOL    HW227687   4.359   0.855   9.881 -0.3030  0.8414  0.1788
 5352SOL     OW27688   2.212   4.221  16.670  0.2566 -0.0627 -0.0880
 5352SOL    HW127689   2.158   4.278  16.615 -0.0283 -1.5802 -1.3702
 5352SOL    HW227690   2.296   4.267  16.666  1.4547 -2.4285 -2.3337
 5353SOL     OW27691   0.261   3.694   2.678  0.4351  0.2817 -0.6942
 5353SOL    HW127692   0.272   3.602   2.698  0.7212  0.4485 -0.0986
 5353SOL    HW227693   0.333   3.716   2.619 -0.2728  0.9237 -1.3398
 5354SOL     OW27694   0.948   0.415   0.433  0.3682  0.0262 -0.0265
 5354SOL    HW127695   0.974   0.324   0.421 -2.6192 -0.6032 -1.7795
 5354SOL    HW227696   1.005   0.441   0.505 -1.8414 -0.0631  1.7672
 5355SOL     OW27697   3.123   3.080  14.404  0.6380 -0.2307  0.0499
 5355SOL    HW127698   3.144   2.987  14.411 -2.0902 -0.9400 -1.1561
 5355SOL    HW227699   3.193   3.116  14.351  2.4404 -1.7566  1.4095
 5356SOL     OW27700   1.458   0.377  10.307 -0.2861 -0.4832  0.5399
 5356SOL    HW127701   1.375   0.367  10.354  0.9880  0.4437  3.0134
 5356SOL    HW227702   1.448   0.468  10.279 -0.9390 -0.4496  0.8729
 5357SOL     OW27703   3.785   3.110   7.027 -0.1993  0.5509 -0.7812
 5357SOL    HW127704   3.792   3.025   7.070  0.9134  0.8247 -0.4280
 5357SOL    HW227705   3.810   3.168   7.099 -0.3569  0.8056 -0.9304
 5358SOL     OW27706   1.577   0.246  12.175  0.1196  0.0718  0.1689
 5358SOL    HW127707   1.524   0.189  12.119  0.5599  1.2758 -1.4935
 5358SOL    HW227708   1.606   0.321  12.123 -1.8509  1.3257  0.8908
 5359SOL     OW27709   1.126   1.409   7.289 -0.1089 -0.1860  0.4005
 5359SOL    HW127710   1.093   1.465   7.218  0.0016  0.7985  1.1219
 5359SOL    HW227711   1.123   1.318   7.261  0.4305  0.1892 -0.8564
 5360SOL     OW27712   2.169   0.820   2.661 -0.1545  0.1784 -0.0046
 5360SOL    HW127713   2.142   0.731   2.684 -0.5575  0.2474 -0.2050
 5360SOL    HW227714   2.156   0.827   2.566  0.7210  3.7693  0.1256
 5361SOL     OW27715   0.957   0.818   5.817  0.4942  0.0678 -0.3342
 5361SOL    HW127716   1.005   0.768   5.883  0.4722 -1.1455 -1.2446
 5361SOL    HW227717   0.925   0.746   5.763  0.8192 -0.2623 -0.0810
 5362SOL     OW27718   3.701   4.473   2.900 -0.3551 -0.0803 -0.4699
 5362SOL    HW127719   3.697   4.429   2.815  1.1329 -2.6571  0.8090
 5362SOL    HW227720   3.621   4.438   2.940 -1.1161  1.0895 -0.9459
 5363SOL     OW27721   3.097   2.278  14.561 -0.3633  0.8206  0.3514
 5363SOL    HW127722   3.178   2.314  14.597  1.0030 -0.1670 -1.7253
 5363SOL    HW227723   3.128   2.189  14.540  0.5589  1.4436 -0.9072
 5364SOL     OW27724   4.264   1.578   3.216  0.0000  0.0216  0.1821
 5364SOL    HW127725   4.273   1.668   3.186  0.8140  0.7013  2.4769
 5364SOL    HW227726   4.342   1.578   3.271 -1.1905 -0.6742  1.8957
 5365SOL     OW27727   0.137   4.327  12.189 -0.2037  0.6618  0.2456
 5365SOL    HW127728   0.133   4.306  12.096  0.1270  0.8045  0.1981
 5365SOL    HW227729   0.062   4.280  12.224 -0.3989  0.3624 -0.5638
 5366SOL     OW27730   1.555   2.678   4.939  0.0344  0.3081  0.2498
 5366SOL    HW127731   1.611   2.755   4.949 -0.5340  1.2205 -3.3143
 5366SOL    HW227732   1.468   2.716   4.926  0.5768  0.7318 -2.1538
 5367SOL     OW27733   3.327   1.617  10.596  0.0828 -0.5305  0.5474
 5367SOL    HW127734   3.333   1.694  10.653  0.4953  0.5548 -0.9757
 5367SOL    HW227735   3.303   1.553  10.662 -0.4760  0.8774  1.7197
 5368SOL     OW27736   0.253   3.518   2.249 -0.3268  0.2222 -0.0733
 5368SOL    HW127737   0.348   3.528   2.254 -0.2108 -0.8628 -0.0504
 5368SOL    HW227738   0.226   3.459   2.178 -0.3485  1.1628 -0.8345
 5369SOL     OW27739   2.616   3.849  17.006  0.3597  0.7773  0.4904
 5369SOL    HW127740   2.560   3.868  17.082 -0.2093 -2.1074  0.7694
 5369SOL    HW227741   2.675   3.778  17.030 -1.7578 -0.0163  3.3268
 5370SOL     OW27742   1.624   0.314  16.019 -0.2921  0.2640  0.4167
 5370SOL    HW127743   1.664   0.246  15.964 -2.0940  0.2324 -0.8659
 5370SOL    HW227744   1.674   0.297  16.099 -1.8893  0.6219  1.4953
 5371SOL     OW27745   4.492   0.310  13.815 -0.2053  0.3317 -0.2118
 5371SOL    HW127746   4.532   0.396  13.821 -0.3424  0.4561 -1.1460
 5371SOL    HW227747   4.400   0.325  13.838 -0.3932  0.5121 -1.1056
 5372SOL     OW27748   4.598   1.913   2.789 -0.1994 -0.9208  0.2634
 5372SOL    HW127749   4.586   1.997   2.835  0.2544 -0.5258 -0.3473
 5372SOL    HW227750   4.692   1.902   2.799  0.2179  1.0712 -1.3936
 5373SOL     OW27751   3.550   3.947  10.017  0.6932 -0.3190 -0.8872
 5373SOL    HW127752   3.547   3.932   9.923  0.7193 -0.4791 -0.8631
 5373SOL    HW227753   3.599   4.027  10.033 -1.2634  0.8505 -0.8313
 5374SOL     OW27754   2.006   0.976  16.360  0.3029 -0.3108  0.3942
 5374SOL    HW127755   2.003   0.971  16.265  0.4633 -0.0272  0.3756
 5374SOL    HW227756   2.044   1.063  16.374 -0.8774  0.3968 -0.8064
 5375SOL     OW27757   4.065   3.243   7.394  0.1146 -0.5416  0.5827
 5375SOL    HW127758   4.123   3.188   7.447  2.3130  1.9240  0.7258
 5375SOL    HW227759   4.025   3.289   7.468 -0.0535 -0.0945  0.2135
 5376SOL     OW27760   1.824   4.603   5.577  0.1433  0.5085  0.1474
 5376SOL    HW127761   1.858   4.615   5.665  0.0157 -2.3485  0.5962
 5376SOL    HW227762   1.760   4.674   5.574  0.1444  0.5465  1.1233
 5377SOL     OW27763   0.201   0.684   2.769 -0.5464 -0.4460  0.0729
 5377SOL    HW127764   0.152   0.664   2.689  0.0645 -0.5754 -0.2634
 5377SOL    HW227765   0.202   0.599   2.813  0.1805 -0.9948 -1.0058
 5378SOL     OW27766   4.463   3.539  15.961  0.3462 -0.4224 -0.8493
 5378SOL    HW127767   4.427   3.616  15.918 -0.5062 -0.0560  0.5215
 5378SOL    HW227768   4.550   3.574  15.977 -0.1138  0.8366 -1.1466
 5379SOL     OW27769   4.474   0.466   9.819  0.0255  0.0052  0.2762
 5379SOL    HW127770   4.531   0.540   9.797 -0.3584 -0.0480 -0.8837
 5379SOL    HW227771   4.402   0.514   9.858 -1.0061  0.5812 -2.3094
 5380SOL     OW27772   1.908   0.045   4.507 -0.2837  0.4179  0.8439
 5380SOL    HW127773   1.887   4.696   4.551  0.4539  0.7691  1.8529
 5380SOL    HW227774   1.847   0.101   4.555 -2.8244  0.2699 -2.2038
 5381SOL     OW27775   1.223   2.162  13.172  0.1911  0.2425  0.4086
 5381SOL    HW127776   1.197   2.137  13.083 -0.5878 -0.2608  0.7883
 5381SOL    HW227777   1.209   2.083  13.223  1.1484  1.2402  2.2097
 5382SOL     OW27778   3.356   4.621  14.242 -0.0565  0.4136 -0.1104
 5382SOL    HW127779   3.322   4.631  14.154  0.5484  1.0272 -0.2749
 5382SOL    HW227780   3.450   4.639  14.234 -0.3156  1.1599 -1.5556
 5383SOL     OW27781   1.947   1.916   6.586  0.3316 -0.0682  0.5589
 5383SOL    HW127782   1.864   1.918   6.539 -0.5052 -1.6149  1.9761
 5383SOL    HW227783   1.921   1.895   6.676  3.5416  2.6574  2.1506
 5384SOL     OW27784   3.920   1.041   9.705  0.6794 -0.1911 -0.7252
 5384SOL    HW127785   3.928   1.126   9.663 -1.5720 -0.4787 -1.7637
 5384SOL    HW227786   3.954   1.056   9.794 -0.9471  0.3605 -0.1908
 5385SOL     OW27787   2.491   3.575  14.383  0.8164 -0.3482  0.0175
 5385SOL    HW127788   2.536   3.522  14.317 -0.9026 -0.5140 -1.0392
 5385SOL    HW227789   2.522   3.664  14.371 -0.5363  0.1110 -0.1236
 5386SOL     OW27790   3.301   1.767   8.671  0.0681 -0.1283  0.2109
 5386SOL    HW127791   3.302   1.843   8.612 -0.4286 -0.3014 -0.0163
 5386SOL    HW227792   3.222   1.716   8.654  1.1763 -1.5419 -0.6753
 5387SOL     OW27793   4.635   0.688   7.489  0.4789  0.1210  0.0903
 5387SOL    HW127794   4.564   0.667   7.428 -1.2226  1.3487  1.6429
 5387SOL    HW227795   4.681   0.606   7.506 -0.9202 -0.3406  1.7576
 5388SOL     OW27796   0.783   3.587   2.439 -0.6248  0.1615  0.0886
 5388SOL    HW127797   0.698   3.554   2.410 -0.1131 -0.8160 -0.3108
 5388SOL    HW227798   0.792   3.566   2.532 -0.5987  0.8922  0.2497
 5389SOL     OW27799   0.023   2.444   1.759 -0.0005 -0.5486 -0.0957
 5389SOL    HW127800   0.097   2.501   1.736  0.1484 -0.9892 -0.6866
 5389SOL    HW227801   0.067   2.360   1.746 -1.9078 -1.5435 -0.0001
 5390SOL     OW27802   2.836   0.859   5.797 -0.1351  0.4230  0.1400
 5390SOL    HW127803   2.846   0.950   5.767 -0.7848  1.1285  2.0317
 5390SOL    HW227804   2.768   0.832   5.736  0.2359  0.5670 -0.3365
 5391SOL     OW27805   1.360   1.657   8.946 -0.1977  0.6576  0.3268
 5391SOL    HW127806   1.428   1.591   8.959  0.7301  1.7238  0.8361
 5391SOL    HW227807   1.410   1.734   8.922 -4.1625  2.9468 -0.6150
 5392SOL     OW27808   2.782   0.805  11.426  0.2894  0.0454 -0.4168
 5392SOL    HW127809   2.712   0.855  11.469  0.1627 -1.5934  1.2996
 5392SOL    HW227810   2.725   0.739  11.384  0.2646  0.0200 -0.3430
 5393SOL     OW27811   4.100   1.507   4.536 -0.4243 -0.4970  0.3621
 5393SOL    HW127812   4.016   1.547   4.556  0.3039  0.4732  1.4824
 5393SOL    HW227813   4.070   1.418   4.519  0.9021 -0.7432 -0.7185
 5394SOL     OW27814   4.477   0.405  10.764  0.3523 -0.3018  0.0329
 5394SOL    HW127815   4.557   0.384  10.716  0.3656  0.3593 -0.2381
 5394SOL    HW227816   4.424   0.337  10.724  0.2058 -0.5126  0.5818
 5395SOL     OW27817   4.244   3.754   8.554 -0.2359  0.2962  0.0731
 5395SOL    HW127818   4.229   3.794   8.469  1.2272  0.8831  0.0949
 5395SOL    HW227819   4.331   3.713   8.550 -0.2392  0.2379  0.6061
 5396SOL     OW27820   1.336   0.965   8.595 -0.0044  0.6977 -0.2348
 5396SOL    HW127821   1.300   0.876   8.592 -1.3333  1.2034  0.5253
 5396SOL    HW227822   1.275   1.016   8.542  0.5651  1.2964 -0.3189
 5397SOL     OW27823   4.015   4.090   8.442 -0.1015 -0.0615 -0.0413
 5397SOL    HW127824   3.984   4.021   8.384  0.0008 -1.0785  1.1358
 5397SOL    HW227825   3.969   4.063   8.521 -0.5178 -0.9105 -0.5733
 5398SOL     OW27826   0.172   2.218   3.286  0.5867 -0.2208 -0.7738
 5398SOL    HW127827   0.196   2.215   3.194 -0.7482 -1.7324 -1.0841
 5398SOL    HW227828   0.252   2.187   3.327  0.5732 -0.1106 -0.6617
 5399SOL     OW27829   0.867   4.431   0.901 -0.1448 -0.0965  0.3786
 5399SOL    HW127830   0.800   4.393   0.958 -0.5438 -0.2112 -0.1669
 5399SOL    HW227831   0.820   4.514   0.889  2.3118  1.4072  1.0468
 5400SOL     OW27832   3.653   0.248  10.312  0.0446 -0.1908  0.0603
 5400SOL    HW127833   3.593   0.323  10.306 -2.2054 -1.8778  1.1643
 5400SOL    HW227834   3.646   0.223  10.404 -1.9301  2.3904  0.6179
 5401SOL     OW27835   3.166   1.106   2.806 -0.7831  0.4494  0.2635
 5401SOL    HW127836   3.198   1.195   2.796  0.7484  0.0548  1.4976
 5401SOL    HW227837   3.074   1.119   2.786 -0.8441 -0.8821 -0.3896
 5402SOL     OW27838   3.322   2.139   7.348  0.0174  0.4292 -0.2305
 5402SOL    HW127839   3.230   2.112   7.338  0.1248 -0.8144  2.1609
 5402SOL    HW227840   3.357   2.070   7.291  0.3814  0.6741 -0.3032
 5403SOL     OW27841   4.053   0.499  12.040  0.0105  0.2913 -0.0352
 5403SOL    HW127842   4.098   0.497  11.955  2.0479  1.1535  1.0179
 5403SOL    HW227843   4.025   0.587  12.017 -3.2015 -0.3086  1.5211
 5404SOL     OW27844   4.267   1.578  11.533 -0.9119 -0.0849 -0.3406
 5404SOL    HW127845   4.173   1.594  11.526 -0.3288  2.3755 -2.7588
 5404SOL    HW227846   4.282   1.523  11.456 -1.3825  1.2115 -1.3552
 5405SOL     OW27847   3.506   0.006  12.098 -0.1812 -0.2628 -0.1912
 5405SOL    HW127848   3.523   0.067  12.027 -1.2618  2.0144  1.5297
 5405SOL    HW227849   3.441   4.679  12.060  0.8550 -1.1696 -0.5259
 5406SOL     OW27850   4.013   3.053  11.264  0.2769 -0.1831  0.0229
 5406SOL    HW127851   4.014   3.056  11.359  1.3855  0.8757 -0.0192
 5406SOL    HW227852   3.959   2.974  11.259  0.9679 -0.6632  0.0997
 5407SOL     OW27853   3.484   4.274   3.621 -0.0889 -0.2162 -0.4522
 5407SOL    HW127854   3.472   4.341   3.554  2.1050 -3.1079 -3.7474
 5407SOL    HW227855   3.396   4.238   3.633  1.6768 -3.1492  3.8394
 5408SOL     OW27856   1.246   1.539  16.782  0.0409 -0.3867  0.4901
 5408SOL    HW127857   1.330   1.571  16.817 -0.6482  0.8730  0.9667
 5408SOL    HW227858   1.211   1.472  16.841 -0.1188 -1.0012 -0.3029
 5409SOL     OW27859   3.612   3.745   2.936  0.0857  0.1727  0.0374
 5409SOL    HW127860   3.583   3.685   3.005  0.2888  0.5220  0.4239
 5409SOL    HW227861   3.632   3.814   2.999 -0.1390 -0.0074  0.3073
 5410SOL     OW27862   2.396   0.169   3.691  0.2165  0.3294  0.1903
 5410SOL    HW127863   2.331   0.199   3.627  0.4816  0.4250 -0.0335
 5410SOL    HW227864   2.387   0.226   3.767  0.1641 -1.1275  1.2775
 5411SOL     OW27865   3.117   4.345  14.028  0.4331  0.1161 -0.0271
 5411SOL    HW127866   3.127   4.420  13.970 -0.0713 -0.9577 -1.5084
 5411SOL    HW227867   3.148   4.269  13.979  0.6306  0.4554 -0.4250
 5412SOL     OW27868   2.050   0.387   6.868  0.1686  0.0572 -0.0570
 5412SOL    HW127869   1.956   0.365   6.864 -0.3704  2.5084 -0.4413
 5412SOL    HW227870   2.067   0.388   6.962 -3.1635 -1.1671  0.5786
 5413SOL     OW27871   3.979   4.107   1.948  0.1777 -0.1266 -0.1715
 5413SOL    HW127872   3.903   4.051   1.938  0.7828 -0.8909 -0.4998
 5413SOL    HW227873   3.949   4.169   1.882 -1.2770 -0.0299  0.5928
 5414SOL     OW27874   0.726   4.487  16.169  0.2001  0.4268  0.1928
 5414SOL    HW127875   0.772   4.479  16.252  0.8430 -1.6522 -0.3605
 5414SOL    HW227876   0.770   4.421  16.117 -1.7344  0.7955 -1.9279
 5415SOL     OW27877   0.857   1.481   6.274  0.3171 -0.1885 -0.3759
 5415SOL    HW127878   0.819   1.479   6.186 -0.2133  3.3171 -0.2135
 5415SOL    HW227879   0.869   1.576   6.275  2.5203 -0.4646  0.1778
 5416SOL     OW27880   2.312   0.732   3.453 -0.3180  0.0738 -0.1305
 5416SOL    HW127881   2.344   0.686   3.375  1.3712  1.3805 -0.2048
 5416SOL    HW227882   2.398   0.741   3.495 -0.2091 -0.8276 -0.1555
 5417SOL     OW27883   2.658   1.447   1.582  0.5794  0.1464 -0.3998
 5417SOL    HW127884   2.748   1.458   1.553  0.1075  3.3615 -0.5655
 5417SOL    HW227885   2.621   1.456   1.494 -0.8063 -0.4177  0.1211
 5418SOL     OW27886   3.122   0.542   6.385 -0.1099 -0.1101  0.5690
 5418SOL    HW127887   3.135   0.552   6.291  0.2748  2.7508  0.9109
 5418SOL    HW227888   3.033   0.573   6.398  1.1688  2.3341  3.6363
 5419SOL     OW27889   4.410   2.240   4.653 -0.0567 -0.0109 -0.4898
 5419SOL    HW127890   4.385   2.149   4.669  0.2307  0.0038  0.0391
 5419SOL    HW227891   4.427   2.268   4.743  2.6555 -0.0504 -0.9792
 5420SOL     OW27892   4.232   2.925   3.763  0.2605  0.3794 -0.9583
 5420SOL    HW127893   4.315   2.883   3.788 -0.1616 -1.8736 -3.3602
 5420SOL    HW227894   4.208   2.861   3.695  2.6084  0.3644 -1.7735
 5421SOL     OW27895   1.386   1.807   9.613  0.2190 -0.0354 -0.1652
 5421SOL    HW127896   1.355   1.717   9.627 -0.2373  0.3321  1.1650
 5421SOL    HW227897   1.476   1.811   9.644 -0.4593  1.6858  1.5554
 5422SOL     OW27898   3.784   1.566   1.679 -0.4008  0.2857 -0.2218
 5422SOL    HW127899   3.829   1.561   1.595  0.6660  2.2920  0.2175
 5422SOL    HW227900   3.694   1.569   1.646  0.2365 -1.2048 -2.1217
 5423SOL     OW27901   4.396   1.816   4.887 -0.1506 -0.3493 -0.5633
 5423SOL    HW127902   4.392   1.737   4.940 -1.0762  0.5630  0.7412
 5423SOL    HW227903   4.431   1.880   4.949 -0.1967 -1.4461  0.5725
 5424SOL     OW27904   2.445   3.794   0.770  0.5378 -0.0580 -0.2955
 5424SOL    HW127905   2.516   3.730   0.774  0.1251 -0.4645  0.7051
 5424SOL    HW227906   2.484   3.858   0.829  1.0679 -0.2073 -0.4889
 5425SOL     OW27907   1.913   1.347  12.857 -0.2207  0.8530 -0.1400
 5425SOL    HW127908   1.840   1.354  12.796  1.2060  0.8205 -1.8508
 5425SOL    HW227909   1.951   1.260  12.839  1.7448  1.6812  0.0536
 5426SOL     OW27910   3.389   1.865  10.209  0.1232 -0.0849 -0.1604
 5426SOL    HW127911   3.326   1.937  10.210  0.6945  0.3891  1.8872
 5426SOL    HW227912   3.346   1.793  10.256  0.1000  0.3785  0.5163
 5427SOL     OW27913   2.633   1.779  17.633  0.2677 -0.1572 -0.1616
 5427SOL    HW127914   2.585   1.729  17.700 -5.0448  1.2095 -2.9708
 5427SOL    HW227915   2.702   1.820  17.686 -0.4133 -0.8675  1.2840
 5428SOL     OW27916   1.212   2.584  15.321  0.1473 -0.5943 -0.1170
 5428SOL    HW127917   1.299   2.607  15.353 -0.2650  0.1927  0.4399
 5428SOL    HW227918   1.218   2.502  15.272  2.1326 -0.9622  0.7251
 5429SOL     OW27919   4.469   3.717   4.464  0.2529  0.4655  0.0767
 5429SOL    HW127920   4.523   3.729   4.542 -0.0460 -0.3093  0.3981
 5429SOL    HW227921   4.451   3.808   4.439  0.4652  0.8628  1.3757
 5430SOL     OW27922   0.077   0.755   1.256 -0.7225 -0.0373 -0.0205
 5430SOL    HW127923   0.080   0.849   1.273 -0.7512 -0.3675  1.7446
 5430SOL    HW227924   0.046   0.748   1.165 -2.3005  2.1175  0.3698
 5431SOL     OW27925   4.348   0.108   5.486  0.2211 -0.1653  0.2376
 5431SOL    HW127926   4.426   0.055   5.500  1.0365  1.2195  0.9462
 5431SOL    HW227927   4.275   0.048   5.504 -1.9477  1.7798 -1.9551
 5432SOL     OW27928   2.536   2.559  17.216  0.2090 -0.1271 -0.6569
 5432SOL    HW127929   2.467   2.501  17.183  1.2576 -1.8757  0.2154
 5432SOL    HW227930   2.525   2.555  17.311 -1.5693  1.2374 -0.8050
 5433SOL     OW27931   2.308   2.775  10.123  0.0796  0.6407  0.1162
 5433SOL    HW127932   2.214   2.765  10.133  0.1592 -1.5605 -1.2240
 5433SOL    HW227933   2.336   2.746  10.209 -2.6602  0.9775  1.1160
 5434SOL     OW27934   1.969   0.175  11.554  0.6284 -0.3553 -0.3055
 5434SOL    HW127935   2.061   0.160  11.533  0.3004 -0.9248 -1.3187
 5434SOL    HW227936   1.969   0.192  11.648 -1.5666 -0.3174 -0.3149
 5435SOL     OW27937   2.474   2.085  16.476 -0.2227 -0.2901  0.5335
 5435SOL    HW127938   2.378   2.086  16.471 -0.2009 -1.2522 -0.0848
 5435SOL    HW227939   2.501   2.019  16.540  1.1696  2.8443  3.2186
 5436SOL     OW27940   3.911   1.319  15.222 -0.1743  0.4532 -0.4341
 5436SOL    HW127941   3.820   1.332  15.247 -0.3477 -0.4991 -0.5900
 5436SOL    HW227942   3.963   1.350  15.297 -0.8525  1.1277 -0.2471
 5437SOL     OW27943   1.895   3.437   7.942  0.6159  0.0806  0.4087
 5437SOL    HW127944   1.808   3.413   7.975  0.7420 -0.2949  0.4675
 5437SOL    HW227945   1.880   3.521   7.898  0.0056  0.8280  2.0289
 5438SOL     OW27946   0.669   1.560  12.347 -0.1603  0.2558  0.4357
 5438SOL    HW127947   0.692   1.638  12.398  2.6299  1.3648 -2.5361
 5438SOL    HW227948   0.589   1.598  12.311  0.1523  0.7098  0.2132
 5439SOL     OW27949   4.215   3.062   8.179 -0.0285 -0.2527  0.4407
 5439SOL    HW127950   4.291   3.004   8.184 -1.5147 -2.2880 -1.1019
 5439SOL    HW227951   4.211   3.083   8.272 -1.6086  1.1866  0.0492
 5440SOL     OW27952   3.260   1.223  17.463 -0.3383 -0.0386 -0.1851
 5440SOL    HW127953   3.311   1.286  17.413 -0.3654 -1.2993 -1.7874
 5440SOL    HW227954   3.269   1.266  17.548  2.9467  0.4859 -0.7814
 5441SOL     OW27955   1.870   1.358   4.192  0.3834 -1.2205 -0.1602
 5441SOL    HW127956   1.797   1.348   4.131 -0.9061  2.7933  0.7165
 5441SOL    HW227957   1.936   1.376   4.124 -0.6405  1.5294 -0.4141
 5442SOL     OW27958   0.879   2.583  16.982  0.5794 -0.2644 -0.1619
 5442SOL    HW127959   0.826   2.602  16.904  1.0344  0.0896 -0.3887
 5442SOL    HW227960   0.812   2.584  17.050 -0.0829 -0.3735 -0.8139
 5443SOL     OW27961   1.919   1.161  16.806  0.0598  0.4402 -0.3765
 5443SOL    HW127962   1.910   1.087  16.747  0.0361  0.7624 -0.7761
 5443SOL    HW227963   1.945   1.114  16.885 -0.1833 -0.6315 -0.9457
 5444SOL     OW27964   1.485   3.757   6.161 -0.0690 -0.0025  0.3909
 5444SOL    HW127965   1.509   3.810   6.086 -1.2541 -0.0951 -0.0462
 5444SOL    HW227966   1.432   3.693   6.114 -0.9301  0.9283  0.1083
 5445SOL     OW27967   1.542   4.484   2.114  0.4379 -0.1126 -0.2475
 5445SOL    HW127968   1.481   4.557   2.129  0.4855  0.2622 -1.8738
 5445SOL    HW227969   1.488   4.415   2.078 -0.1629 -0.9178  2.1759
 5446SOL     OW27970   2.463   2.271   9.154  0.0249 -0.6814 -0.2081
 5446SOL    HW127971   2.419   2.356   9.156 -0.9503 -1.2201  1.2198
 5446SOL    HW227972   2.390   2.216   9.126  1.1725 -2.4786  0.3282
 5447SOL     OW27973   1.050   3.380   5.896 -0.3604 -0.3515  0.8484
 5447SOL    HW127974   0.981   3.393   5.831 -0.6654 -1.3507  0.9770
 5447SOL    HW227975   1.045   3.460   5.949  0.0500  0.1115  0.1860
 5448SOL     OW27976   1.922   3.402   7.414 -0.4056  0.3760  0.0536
 5448SOL    HW127977   1.879   3.472   7.464  1.0644  2.1459 -1.1556
 5448SOL    HW227978   2.014   3.426   7.405  0.7043 -2.4413  3.6773
 5449SOL     OW27979   4.471   1.729   6.912  0.1428  0.3462  0.2290
 5449SOL    HW127980   4.563   1.753   6.905  0.2096 -0.3786 -1.3025
 5449SOL    HW227981   4.462   1.729   7.008  0.6492 -0.5384  0.2800
 5450SOL     OW27982   3.242   2.446   9.050 -0.5565 -0.4271 -0.0653
 5450SOL    HW127983   3.298   2.483   8.981 -0.6051 -0.7042 -0.2518
 5450SOL    HW227984   3.297   2.453   9.128  0.2919 -3.5579 -0.4047
 5451SOL     OW27985   2.617   4.653   6.447 -0.1055  0.0504 -0.1107
 5451SOL    HW127986   2.570   4.724   6.491  2.1506 -0.0235  2.4217
 5451SOL    HW227987   2.706   4.675   6.473 -0.0644  0.7172 -0.7986
 5452SOL     OW27988   0.363   0.442   2.442  0.4234  0.1051 -0.2854
 5452SOL    HW127989   0.275   0.479   2.441  0.5281  0.3745  0.4023
 5452SOL    HW227990   0.341   0.360   2.486  1.6501 -2.0824 -3.7325
 5453SOL     OW27991   3.238   3.313  17.653  0.4582 -0.1368  0.1682
 5453SOL    HW127992   3.210   3.283  17.567  0.0923  0.1360  0.1972
 5453SOL    HW227993   3.155   3.293  17.695 -0.4517  1.0557 -1.0661
 5454SOL     OW27994   3.715   3.387  12.305 -0.2507  0.1255 -0.2681
 5454SOL    HW127995   3.651   3.442  12.260  2.2102  1.8456 -1.6309
 5454SOL    HW227996   3.778   3.360  12.238 -0.2433  0.0503 -0.2314
 5455SOL     OW27997   2.967   4.325   9.087 -0.2241 -0.1765  0.0137
 5455SOL    HW127998   2.910   4.377   9.030 -0.3809 -0.1699  0.1779
 5455SOL    HW227999   2.931   4.237   9.091 -1.6760  0.3014 -2.7018
 5456SOL     OW28000   3.039   3.381   9.380  0.7239 -0.6065 -0.1795
 5456SOL    HW128001   3.106   3.388   9.312  1.2552  0.1589  0.4102
 5456SOL    HW228002   3.099   3.407   9.450 -0.4202  2.2801 -0.2512
 5457SOL     OW28003   3.930   4.640   7.081  0.0120  0.2270 -0.2677
 5457SOL    HW128004   3.910   4.704   7.149  1.3727 -1.8087  2.0370
 5457SOL    HW228005   3.949   4.704   7.012  0.5458  1.6087  1.1509
 5458SOL     OW28006   0.617   0.856   7.956 -0.4341  0.5154 -0.0475
 5458SOL    HW128007   0.676   0.834   8.028 -1.3583 -0.7812  0.3133
 5458SOL    HW228008   0.556   0.921   7.991 -1.8099 -0.2973 -0.9437
 5459SOL     OW28009   4.732   2.376   2.953  0.3186  0.0194 -0.5390
 5459SOL    HW128010   0.002   2.441   2.882 -0.5187 -0.6405 -1.1846
 5459SOL    HW228011   0.089   2.374   2.983  0.0304 -3.5693  0.1096
 5460SOL     OW28012   1.849   1.660  16.318 -0.4450 -0.4730  0.2570
 5460SOL    HW128013   1.888   1.587  16.270 -0.9415 -0.2133 -0.5438
 5460SOL    HW228014   1.835   1.721  16.245  0.8640  0.2663  0.6276
 5461SOL     OW28015   1.514   0.926  14.929  0.2807 -0.4254  0.0559
 5461SOL    HW128016   1.590   0.983  14.918 -1.5174  1.9313 -0.0357
 5461SOL    HW228017   1.526   0.878  14.847 -0.7313  2.0981 -1.5853
 5462SOL     OW28018   4.246   3.980  14.845  0.0503 -0.7576  0.4520
 5462SOL    HW128019   4.230   3.886  14.846  2.9394 -1.2745 -1.7442
 5462SOL    HW228020   4.339   3.994  14.829 -0.3480  0.2857 -0.9528
 5463SOL     OW28021   2.240   0.912  12.510 -0.0254 -0.4699 -0.1575
 5463SOL    HW128022   2.154   0.947  12.487 -0.1199  0.6036  1.8038
 5463SOL    HW228023   2.298   0.989  12.506 -0.7499  0.0419 -0.7643
 5464SOL     OW28024   3.080   1.451   4.225  0.3376 -0.3340 -0.4816
 5464SOL    HW128025   3.041   1.500   4.152  0.3840 -0.9242 -0.8968
 5464SOL    HW228026   3.062   1.361   4.199  1.4089 -0.2541 -1.5238
 5465SOL     OW28027   2.822   1.157   3.233  0.2806  0.4988 -0.0587
 5465SOL    HW128028   2.765   1.110   3.294  1.7530 -0.6924  0.4077
 5465SOL    HW228029   2.866   1.084   3.189 -1.2192 -0.9614  0.8459
 5466SOL     OW28030   4.235   1.740  11.755 -0.2765 -0.4204 -0.2226
 5466SOL    HW128031   4.223   1.689  11.675 -0.1367  1.1832 -1.2604
 5466SOL    HW228032   4.309   1.689  11.788  0.7205  0.9822 -0.3125
 5467SOL     OW28033   3.040   1.394   1.122 -0.1750 -0.3087  0.7176
 5467SOL    HW128034   3.073   1.370   1.208 -0.1831  2.0056  1.3693
 5467SOL    HW228035   2.947   1.416   1.131 -0.3409 -0.8655  0.3635
 5468SOL     OW28036   3.480   2.117   7.604  0.6211 -0.3239 -0.0211
 5468SOL    HW128037   3.437   2.102   7.520 -0.6548  0.4310  0.4850
 5468SOL    HW228038   3.487   2.028   7.637  1.3275  0.2041  1.2487
 5469SOL     OW28039   4.090   0.474   8.018 -0.1840  0.5614  0.3435
 5469SOL    HW128040   4.020   0.444   7.961  2.5838 -3.8168 -0.6932
 5469SOL    HW228041   4.038   0.473   8.099 -2.5160 -0.7063 -1.1865
 5470SOL     OW28042   3.784   0.829  12.270 -0.0824 -0.2356 -0.3519
 5470SOL    HW128043   3.859   0.815  12.213  2.2404 -0.5595  2.8255
 5470SOL    HW228044   3.748   0.915  12.250 -0.4748 -0.5894 -1.1670
 5471SOL     OW28045   4.076   4.505  12.738  0.0555  0.4189  0.1508
 5471SOL    HW128046   4.168   4.502  12.762  1.3960  1.3831 -4.8726
 5471SOL    HW228047   4.073   4.544  12.650 -1.1510  2.7512  1.2208
 5472SOL     OW28048   2.695   3.659   7.238  0.9049 -0.2823  0.5355
 5472SOL    HW128049   2.775   3.639   7.190 -1.6903 -1.6281 -3.1755
 5472SOL    HW228050   2.728   3.656   7.328  0.3131  1.2877  0.8035
 5473SOL     OW28051   2.387   2.936   7.569  0.0199  0.1678 -0.1915
 5473SOL    HW128052   2.372   3.017   7.619  4.0935 -0.8025  2.5724
 5473SOL    HW228053   2.402   2.964   7.479  0.7333  1.4779  0.3346
 5474SOL     OW28054   0.013   2.870   1.664  0.0150  0.0118  0.2879
 5474SOL    HW128055   4.723   2.778   1.656  0.4454 -0.1375  0.7612
 5474SOL    HW228056   0.099   2.867   1.705  0.9679  0.2457 -1.7144
 5475SOL     OW28057   2.051   2.151   7.781 -0.1318 -0.0978  0.2271
 5475SOL    HW128058   2.126   2.118   7.832  0.4176  1.5024  0.4373
 5475SOL    HW228059   2.011   2.195   7.855  0.1031  1.7095 -0.7339
 5476SOL     OW28060   4.221   0.095   3.208 -0.1919  0.0775 -0.4005
 5476SOL    HW128061   4.166   0.036   3.157 -0.0153 -0.2261 -0.2409
 5476SOL    HW228062   4.308   0.074   3.173 -0.1235 -0.5281  0.1455
 5477SOL     OW28063   2.200   2.446   5.354 -0.1734 -0.3745 -0.4999
 5477SOL    HW128064   2.234   2.521   5.402 -0.5540 -1.2003  1.0768
 5477SOL    HW228065   2.118   2.481   5.322 -0.4548  1.2180  1.9773
 5478SOL     OW28066   4.075   2.468   4.660  0.1574 -0.0003 -0.7212
 5478SOL    HW128067   4.086   2.383   4.617 -1.8927 -1.5338  1.8712
 5478SOL    HW228068   4.035   2.515   4.586  1.8626 -2.5112 -3.2643
 5479SOL     OW28069   1.404   0.051   0.023  0.7583 -0.4489 -0.4450
 5479SOL    HW128070   1.431   4.693   0.020  1.3268 -0.3026  0.0975
 5479SOL    HW228071   1.488   0.097   0.028  1.1963 -1.3079  0.0681
 5480SOL     OW28072   0.824   3.940  12.389 -0.8038 -0.1979 -0.5036
 5480SOL    HW128073   0.733   3.961  12.366 -0.9383 -1.5602 -1.2313
 5480SOL    HW228074   0.828   3.847  12.367  2.0698 -0.0585 -0.4890
 5481SOL     OW28075   4.649   3.634   7.331 -0.2915 -0.4366  0.0540
 5481SOL    HW128076   4.607   3.625   7.245 -1.8686 -1.9756  0.9822
 5481SOL    HW228077   4.565   3.650   7.375 -0.8946  2.1770 -2.0323
 5482SOL     OW28078   4.217   3.126  12.739 -0.3791 -0.1409  0.0448
 5482SOL    HW128079   4.123   3.118  12.720 -0.6987  0.6765  1.2848
 5482SOL    HW228080   4.230   3.053  12.801 -1.2313  0.7836  1.3167
 5483SOL     OW28081   2.719   4.108   4.671  0.8102 -0.6031  0.1646
 5483SOL    HW128082   2.735   4.115   4.576 -1.4322  1.3712 -0.0702
 5483SOL    HW228083   2.641   4.165   4.675  1.8075  0.8407 -0.8028
 5484SOL     OW28084   2.515   3.290  12.495 -0.4166  0.2457  0.3916
 5484SOL    HW128085   2.550   3.355  12.556  1.0466 -1.3574  1.2671
 5484SOL    HW228086   2.470   3.233  12.558  1.4544 -0.1821  1.3309
 5485SOL     OW28087   2.598   2.971   1.331 -0.5012  0.4474  0.1509
 5485SOL    HW128088   2.657   2.897   1.343  0.0962  0.9127  0.0705
 5485SOL    HW228089   2.614   3.019   1.412 -0.2994  2.0608 -0.8465
 5486SOL     OW28090   2.966   1.392  15.065  0.1483  0.6774  0.2040
 5486SOL    HW128091   2.963   1.475  15.016  0.5155 -0.1649 -1.2362
 5486SOL    HW228092   2.872   1.398  15.084 -0.0021 -1.6327  0.1296
 5487SOL     OW28093   0.156   0.064  13.386  0.3442 -0.0740 -0.7065
 5487SOL    HW128094   0.090   0.012  13.432  2.1903 -1.0432  0.9041
 5487SOL    HW228095   0.114   0.068  13.300 -2.1613 -1.4174  0.4699
 5488SOL     OW28096   2.243   4.666   3.427  0.4915  0.4521 -0.7312
 5488SOL    HW128097   2.198   4.640   3.347  1.0533  1.5749 -1.4004
 5488SOL    HW228098   2.295   0.008   3.398 -2.3957  1.7684 -2.4800
 5489SOL     OW28099   0.218   2.064  17.142  0.2502 -0.5993 -0.4695
 5489SOL    HW128100   0.278   2.107  17.081  2.7813 -0.9102  1.7978
 5489SOL    HW228101   0.135   2.066  17.094 -1.2618  0.8196  2.1575
 5490SOL     OW28102   1.868   4.199   7.310 -0.2710  0.6353 -0.0288
 5490SOL    HW128103   1.809   4.184   7.384  0.3893 -1.0400  0.1384
 5490SOL    HW228104   1.829   4.142   7.244  0.0277  1.4518 -0.9093
 5491SOL     OW28105   0.856   4.223   5.302 -0.5542  0.3163  0.4755
 5491SOL    HW128106   0.805   4.222   5.383 -0.7314 -2.5360  0.3336
 5491SOL    HW228107   0.795   4.259   5.238 -0.6447 -0.0429  0.3593
 5492SOL     OW28108   3.639   3.382   8.666  0.4866 -0.0803  0.6234
 5492SOL    HW128109   3.589   3.347   8.592 -0.4283 -0.3343  1.3654
 5492SOL    HW228110   3.698   3.309   8.686  1.7758  0.3902 -1.4260
 5493SOL     OW28111   3.539   3.414  12.673  0.6346 -0.0951  0.0432
 5493SOL    HW128112   3.630   3.444  12.669  0.5645 -0.0148 -0.9912
 5493SOL    HW228113   3.500   3.494  12.639 -0.7871 -1.2543 -1.0432
 5494SOL     OW28114   4.192   2.635   7.709 -0.0072  0.5851  0.1045
 5494SOL    HW128115   4.272   2.685   7.691 -0.4237  0.2885 -2.4424
 5494SOL    HW228116   4.141   2.646   7.629 -0.3823  2.0269  0.5359
 5495SOL     OW28117   3.307   1.493  15.209  0.3220 -0.7956 -0.0831
 5495SOL    HW128118   3.291   1.575  15.256 -0.0050 -1.0767  0.3002
 5495SOL    HW228119   3.342   1.521  15.124  0.8293 -2.5766 -0.4532
 5496SOL     OW28120   2.437   0.153   7.041 -0.3625 -0.9860  0.0336
 5496SOL    HW128121   2.473   0.238   7.014 -0.6915 -1.3801 -1.6811
 5496SOL    HW228122   2.498   0.090   7.002  0.3272  0.4841 -1.2609
 5497SOL     OW28123   4.481   1.951   8.208  0.0168  0.3448  0.0612
 5497SOL    HW128124   4.411   1.980   8.149 -2.5056 -3.0200  1.4635
 5497SOL    HW228125   4.427   1.921   8.280 -1.2492  4.7089  0.9210
 5498SOL     OW28126   3.329   4.183   3.305  0.0096  0.3595  0.1961
 5498SOL    HW128127   3.423   4.196   3.298  0.1452 -1.0046 -0.6234
 5498SOL    HW228128   3.323   4.108   3.364  0.4655 -0.1869 -0.4539
 5499SOL     OW28129   1.740   3.959   6.594  0.0255 -0.0932 -0.2309
 5499SOL    HW128130   1.701   4.046   6.591  1.5035  0.6446  1.7061
 5499SOL    HW228131   1.697   3.913   6.522 -0.1242 -3.2303  1.8460
 5500SOL     OW28132   3.355   0.620   3.551  0.2741  0.2675 -0.8296
 5500SOL    HW128133   3.430   0.679   3.543 -1.0889  2.0395 -0.5309
 5500SOL    HW228134   3.320   0.665   3.628  0.5040  1.1195 -1.2308
 5501SOL     OW28135   1.747   1.084   6.923 -0.2671  0.4777 -0.3910
 5501SOL    HW128136   1.679   1.017   6.924  0.1648  0.0619  0.6918
 5501SOL    HW228137   1.822   1.043   6.966  0.1013  1.3677 -0.1861
 5502SOL     OW28138   1.807   0.238   6.310  0.2123 -0.1932  0.0687
 5502SOL    HW128139   1.713   0.227   6.295  0.2526 -1.1117  0.5261
 5502SOL    HW228140   1.800   0.333   6.320 -1.1181 -0.5255  2.3796
 5503SOL     OW28141   3.182   3.334   8.195  0.0062 -0.1550 -0.2277
 5503SOL    HW128142   3.260   3.279   8.203 -0.8334 -1.4006 -0.6490
 5503SOL    HW228143   3.109   3.276   8.171  1.2483 -1.0454 -1.9124
 5504SOL     OW28144   3.619   2.303   5.544  0.1802  0.2037  0.1514
 5504SOL    HW128145   3.673   2.265   5.614 -0.7909 -1.2384  0.1365
 5504SOL    HW228146   3.545   2.320   5.602 -1.8592 -0.7955 -2.1700
 5505SOL     OW28147   1.238   0.897   9.124  0.2753  0.6559  0.6228
 5505SOL    HW128148   1.189   0.948   9.059 -2.5901 -0.1690  2.1420
 5505SOL    HW228149   1.327   0.930   9.109  0.7496 -1.1233 -0.4582
 5506SOL     OW28150   0.795   0.094   7.393 -0.4745 -0.3832 -0.1182
 5506SOL    HW128151   0.711   0.049   7.384 -0.7130 -0.1186  0.8396
 5506SOL    HW228152   0.771   0.164   7.453  1.6862  0.3686 -0.1244
 5507SOL     OW28153   1.735   1.079  14.871 -0.1037  0.3023 -0.8669
 5507SOL    HW128154   1.699   1.116  14.790 -0.0649  1.2232 -0.4624
 5507SOL    HW228155   1.806   1.029  14.832 -0.0679  0.0560 -0.4887
 5508SOL     OW28156   0.508   0.115   1.429  0.1590 -0.5962  0.1430
 5508SOL    HW128157   0.456   0.089   1.505  0.6215  1.0532  1.0234
 5508SOL    HW228158   0.452   0.115   1.351  0.9786 -0.1691 -0.4402
 5509SOL     OW28159   3.319   4.251   5.831  0.1725  0.3171  0.2633
 5509SOL    HW128160   3.300   4.171   5.781  0.5994 -0.6776  1.6976
 5509SOL    HW228161   3.247   4.246   5.894 -0.7239 -1.8759 -0.9210
 5510SOL     OW28162   4.346   0.760   9.105  0.1370  0.5238 -0.5575
 5510SOL    HW128163   4.371   0.765   9.197 -2.9705 -1.9820  0.4186
 5510SOL    HW228164   4.372   0.673   9.075  0.7840  0.7058 -0.5392
 5511SOL     OW28165   2.392   3.830   2.980  0.4566 -0.0387 -0.0672
 5511SOL    HW128166   2.317   3.861   3.032 -1.1029 -1.8370 -1.2292
 5511SOL    HW228167   2.451   3.905   2.968  1.5732 -0.4684  2.8323
 5512SOL     OW28168   4.262   3.004   2.060  0.2392  0.0639 -0.2591
 5512SOL    HW128169   4.175   2.966   2.056  0.6183 -0.5887 -2.1089
 5512SOL    HW228170   4.282   3.004   1.966 -2.3814  0.7897 -0.8021
 5513SOL     OW28171   0.270   4.621   8.631  0.1852  0.2046  0.0285
 5513SOL    HW128172   0.200   4.556   8.635 -0.5933  0.9483 -1.4931
 5513SOL    HW228173   0.296   4.627   8.539 -0.4851 -1.9378 -0.3059
 5514SOL     OW28174   4.358   3.559   8.998  0.1406  0.2799  0.5317
 5514SOL    HW128175   4.323   3.644   8.972 -2.4970 -0.3472  1.9523
 5514SOL    HW228176   4.342   3.507   8.920  1.3273 -0.0540  0.5234
 5515SOL     OW28177   2.611   4.303   0.416  0.2179  0.0259  0.2299
 5515SOL    HW128178   2.652   4.389   0.425  0.9760 -0.5142  1.9976
 5515SOL    HW228179   2.550   4.317   0.344 -0.2425 -0.6293  0.4975
 5516SOL     OW28180   1.878   3.692   6.448  0.1579 -0.1369  0.5853
 5516SOL    HW128181   1.795   3.706   6.403  1.7684 -3.7129 -3.5313
 5516SOL    HW228182   1.924   3.749   6.387  0.6043  0.2052  1.2419
 5517SOL     OW28183   4.388   0.112   5.765  0.4035 -0.1059 -0.2221
 5517SOL    HW128184   4.305   0.071   5.788  1.0647 -2.1797 -1.5372
 5517SOL    HW228185   4.375   0.166   5.687  0.4946  0.9746  0.5085
 5518SOL     OW28186   1.059   0.974  17.646  0.2455 -0.2540 -0.4803
 5518SOL    HW128187   0.990   0.956  17.711  0.9127 -0.4362  0.1801
 5518SOL    HW228188   1.062   1.069  17.640  3.1093 -0.2384  1.3766
 5519SOL     OW28189   0.674   2.071  16.943 -0.0337  0.0492 -0.8197
 5519SOL    HW128190   0.735   2.009  16.983 -2.0988 -0.9822  0.7324
 5519SOL    HW228191   0.738   2.135  16.914  2.4536 -1.4086  1.4762
 5520SOL     OW28192   2.279   3.145   5.122 -0.7757 -0.3448  0.2692
 5520SOL    HW128193   2.341   3.090   5.074 -0.7181  0.1469 -0.2143
 5520SOL    HW228194   2.198   3.123   5.077 -1.4687  1.4488  0.6174
 5521SOL     OW28195   3.944   3.816   5.247  0.3148  0.2397 -0.5402
 5521SOL    HW128196   4.019   3.873   5.229  0.3488  0.3632 -0.0070
 5521SOL    HW228197   3.980   3.787   5.330 -0.1343 -1.9338 -1.1173
 5522SOL     OW28198   0.075   0.543   6.810  0.4187 -0.3278 -0.3026
 5522SOL    HW128199   0.127   0.563   6.732  0.7302 -5.1091 -1.2879
 5522SOL    HW228200   0.132   0.479   6.854 -0.8184 -0.4695  1.0826
 5523SOL     OW28201   4.421   4.083   9.079  0.5376  0.0305  0.2058
 5523SOL    HW128202   4.506   4.111   9.046  0.0743 -0.2409 -1.2150
 5523SOL    HW228203   4.358   4.150   9.051  0.2604 -0.2444  0.1656
 5524SOL     OW28204   3.419   3.650   4.957 -0.1036  0.1256  0.9515
 5524SOL    HW128205   3.468   3.675   4.878 -0.0829  3.1427  1.9188
 5524SOL    HW228206   3.440   3.557   4.962  0.4986  0.2473  0.6797
 5525SOL     OW28207   0.740   0.292   4.657 -0.1069 -0.1929  0.1223
 5525SOL    HW128208   0.701   0.284   4.569  1.6678  2.3412 -0.9107
 5525SOL    HW228209   0.664   0.272   4.711  0.3012  0.5702  0.9801
 5526SOL     OW28210   4.244   3.960  11.720 -0.6247  0.7016 -0.1402
 5526SOL    HW128211   4.158   3.924  11.700  0.6739 -1.7027 -1.4093
 5526SOL    HW228212   4.299   3.888  11.749 -0.9967  0.3139 -0.4045
 5527SOL     OW28213   3.408   3.397   5.402  0.4523  0.3124  0.2399
 5527SOL    HW128214   3.341   3.454   5.439  0.0479 -0.1513  0.2206
 5527SOL    HW228215   3.486   3.448   5.427  0.4892  0.9655 -1.2282
 5528SOL     OW28216   1.040   1.363   1.790  0.1170  0.4827  0.9564
 5528SOL    HW128217   1.056   1.436   1.730 -1.5780 -0.7303 -0.9808
 5528SOL    HW228218   0.956   1.401   1.817  0.6640 -0.1140  3.4823
 5529SOL     OW28219   3.632   2.221   4.889 -0.0223  0.3499 -0.0666
 5529SOL    HW128220   3.690   2.281   4.842  1.8508 -1.9656 -0.7275
 5529SOL    HW228221   3.622   2.262   4.975 -0.7061  2.8196 -1.3334
 5530SOL     OW28222   4.261   2.102   8.092  0.8478  0.0935 -0.0843
 5530SOL    HW128223   4.219   2.101   8.006 -2.7228  0.6617  1.6324
 5530SOL    HW228224   4.193   2.143   8.146 -0.8755 -1.6306 -0.9539
 5531SOL     OW28225   2.750   0.562   3.534  0.0652 -0.1238  0.6541
 5531SOL    HW128226   2.684   0.492   3.532 -0.8675  0.7973 -0.3058
 5531SOL    HW228227   2.819   0.522   3.481  1.6260 -0.0405  2.6371
 5532SOL     OW28228   2.462   4.226   3.003  0.4301  0.1217  0.0719
 5532SOL    HW128229   2.391   4.278   3.040  1.5163  0.8615  1.1454
 5532SOL    HW228230   2.423   4.190   2.924  1.1223 -0.0767 -0.1842
 5533SOL     OW28231   0.774   3.363   3.068  0.4297  0.3879  0.0659
 5533SOL    HW128232   0.847   3.367   3.130  0.3679 -0.5091  0.2050
 5533SOL    HW228233   0.736   3.447   3.095 -0.5843 -0.1384  0.2871
 5534SOL     OW28234   1.680   4.279   8.262 -0.1640 -0.3739 -0.0805
 5534SOL    HW128235   1.707   4.287   8.170  1.1116 -0.0320  0.3192
 5534SOL    HW228236   1.590   4.310   8.263  0.0598  0.2359  1.4303
 5535SOL     OW28237   1.607   3.090   8.035  0.6214 -0.0469  0.0597
 5535SOL    HW128238   1.534   3.054   7.985  0.3300  1.6640 -0.7434
 5535SOL    HW228239   1.617   3.179   8.002 -3.0012  0.1509 -0.5488
 5536SOL     OW28240   4.436   3.911   6.812  0.7707 -0.1746  0.1390
 5536SOL    HW128241   4.524   3.884   6.839 -0.4956 -2.1915  2.2331
 5536SOL    HW228242   4.426   3.995   6.857  1.0801  0.5531 -1.1428
 5537SOL     OW28243   1.997   4.691  15.752  0.0895 -0.3431  0.2703
 5537SOL    HW128244   1.927   4.634  15.720  2.0226 -2.8638  0.4696
 5537SOL    HW228245   1.938   0.032  15.763  0.3464  0.1020 -1.3940
 5538SOL     OW28246   2.761   4.017   7.101  0.7763 -0.4227 -0.0273
 5538SOL    HW128247   2.734   4.095   7.054 -0.0444 -0.0941  0.9832
 5538SOL    HW228248   2.727   4.036   7.188 -0.8539 -0.4972 -0.6469
 5539SOL     OW28249   2.109   4.568   1.916 -0.1286 -0.5359 -0.1137
 5539SOL    HW128250   2.039   4.620   1.957 -2.6322 -2.1656 -2.2976
 5539SOL    HW228251   2.185   4.616   1.948 -0.8249 -0.4185  1.3425
 5540SOL     OW28252   3.057   0.486   9.080 -0.3211  0.0001 -0.3035
 5540SOL    HW128253   2.989   0.552   9.069  2.4283  2.4641 -2.3135
 5540SOL    HW228254   3.056   0.459   9.172  2.0812 -0.4970 -0.4194
 5541SOL     OW28255   4.008   1.869   4.403  0.4742  0.0724  1.3933
 5541SOL    HW128256   3.917   1.856   4.431 -0.3291 -1.2944 -1.8436
 5541SOL    HW228257   4.008   1.964   4.412  0.1814  0.3116 -1.1880
 5542SOL     OW28258   3.547   1.480   6.398 -0.1116 -0.3494 -0.3094
 5542SOL    HW128259   3.541   1.480   6.494 -0.5676  1.6647 -0.3311
 5542SOL    HW228260   3.611   1.409   6.395  0.5176  0.2688 -1.7992
 5543SOL     OW28261   3.667   0.161   5.708 -0.5160  0.1364  0.2449
 5543SOL    HW128262   3.617   0.194   5.633  0.6710 -0.4570 -0.8024
 5543SOL    HW228263   3.600   0.103   5.745  0.6858 -1.2045  0.3466
 5544SOL     OW28264   0.081   2.827   6.982 -0.0171  0.5472 -0.1696
 5544SOL    HW128265   4.727   2.819   6.944 -0.3482 -1.2744  0.9380
 5544SOL    HW228266   0.083   2.922   6.985  0.8802  0.5490 -0.6241
 5545SOL     OW28267   4.197   2.073  16.614 -0.3264 -0.3572 -0.1322
 5545SOL    HW128268   4.102   2.065  16.610 -0.3624  0.3641 -0.9289
 5545SOL    HW228269   4.223   2.084  16.522  3.1492  0.2334  0.8987
 5546SOL     OW28270   1.711   0.186   4.306  0.4704 -0.3140 -0.1488
 5546SOL    HW128271   1.735   0.149   4.221  1.9413 -2.3934  1.1974
 5546SOL    HW228272   1.785   0.234   4.342 -0.2501 -0.2226  1.2269
 5547SOL     OW28273   1.552   3.425   8.256 -0.0989 -0.0185 -0.4730
 5547SOL    HW128274   1.462   3.397   8.276  1.1284 -1.0181  3.4705
 5547SOL    HW228275   1.597   3.415   8.339 -0.1239 -2.8016 -0.7720
 5548SOL     OW28276   2.565   0.729   9.003  0.2008 -0.3584  0.0850
 5548SOL    HW128277   2.538   0.638   9.014  0.3715 -0.5686 -1.2343
 5548SOL    HW228278   2.659   0.723   9.020  0.1913  1.2964  0.7961
 5549SOL     OW28279   3.004   3.341   6.544  0.1308  0.5344  0.1398
 5549SOL    HW128280   3.095   3.335   6.574 -0.4168  0.5484  1.8359
 5549SOL    HW228281   2.965   3.407   6.601 -0.7991  0.6989 -0.6958
 5550SOL     OW28282   4.552   2.785  11.425 -0.9092 -0.2850 -0.0396
 5550SOL    HW128283   4.503   2.842  11.365  3.0914 -0.0743 -3.1001
 5550SOL    HW228284   4.570   2.705  11.376  1.6196 -1.2824  2.5044
 5551SOL     OW28285   3.538   3.191  12.884  0.3315  0.1682 -0.1057
 5551SOL    HW128286   3.540   3.285  12.867 -1.4906  0.5552  1.7692
 5551SOL    HW228287   3.521   3.203  12.978  1.4600  1.7312 -0.0986
 5552SOL     OW28288   0.606   4.243   9.697 -0.1341  0.3941 -0.4324
 5552SOL    HW128289   0.612   4.147   9.698 -2.6293  0.2710  2.0820
 5552SOL    HW228290   0.587   4.262   9.788 -0.4469 -3.3039  0.2709
 5553SOL     OW28291   0.490   0.865   5.934  0.2941  0.3011  0.4678
 5553SOL    HW128292   0.575   0.890   5.901  0.3130  0.4124  0.5999
 5553SOL    HW228293   0.463   0.814   5.857 -1.1451  2.1825 -0.2634
 5554SOL     OW28294   2.147   2.316   9.164 -0.1887  0.1782  0.3499
 5554SOL    HW128295   2.119   2.294   9.253 -0.0367 -1.5492 -0.0317
 5554SOL    HW228296   2.196   2.397   9.170 -1.1723  0.5826  2.9080
 5555SOL     OW28297   2.443   1.160  13.413 -0.2236 -0.0547  0.1108
 5555SOL    HW128298   2.452   1.253  13.395 -2.4136  0.2010  0.3380
 5555SOL    HW228299   2.349   1.143  13.421 -0.2095 -0.7301 -1.0463
 5556SOL     OW28300   4.150   3.756   3.729  0.4480  0.9014  0.3614
 5556SOL    HW128301   4.143   3.813   3.805 -0.9574  0.2754  0.6957
 5556SOL    HW228302   4.153   3.809   3.649  0.4304  0.3120 -0.0238
 5557SOL     OW28303   2.067   3.596   6.078 -0.0547 -0.0244  0.5351
 5557SOL    HW128304   2.073   3.681   6.034 -2.1759  0.8626  1.9066
 5557SOL    HW228305   1.994   3.546   6.040  1.2830 -0.2100 -1.7427
 5558SOL     OW28306   1.300   1.681   1.511  0.6228  0.4878  0.2751
 5558SOL    HW128307   1.235   1.708   1.576  0.1090  0.8723 -0.3884
 5558SOL    HW228308   1.257   1.717   1.433  0.6709 -1.7528 -0.7909
 5559SOL     OW28309   2.618   0.928   9.305 -0.2800 -0.5202  0.2720
 5559SOL    HW128310   2.599   1.021   9.300  0.3675 -0.4353 -0.5511
 5559SOL    HW228311   2.555   0.886   9.246 -0.7991  0.2171  0.3074
 5560SOL     OW28312   1.886   4.566   3.835  0.2163 -0.1587  0.1403
 5560SOL    HW128313   1.822   4.496   3.827 -1.3453  1.5216 -1.8257
 5560SOL    HW228314   1.925   4.575   3.749 -0.4174 -2.4948 -0.3819
 5561SOL     OW28315   0.487   3.466   8.425  0.7097  0.0798 -0.1912
 5561SOL    HW128316   0.556   3.399   8.432  1.3614  0.7601 -0.1005
 5561SOL    HW228317   0.466   3.467   8.332 -1.3127 -1.3190  0.2574
 5562SOL     OW28318   3.376   3.551   8.570 -0.8661  0.5946 -0.9089
 5562SOL    HW128319   3.342   3.621   8.514 -0.9569  1.0682 -0.2583
 5562SOL    HW228320   3.468   3.570   8.588 -0.3950 -0.4232 -2.2232
 5563SOL     OW28321   2.702   1.392   6.980  0.2778 -0.1484 -0.0145
 5563SOL    HW128322   2.782   1.356   6.941  0.3605  0.0131  0.0072
 5563SOL    HW228323   2.730   1.468   7.031 -0.6182  0.0731  0.1544
 5564SOL     OW28324   1.808   1.226   1.407  0.3302 -0.3135  0.0974
 5564SOL    HW128325   1.790   1.145   1.358  1.3635  0.3441 -1.3840
 5564SOL    HW228326   1.728   1.230   1.459  0.7804  0.1844  0.7415
 5565SOL     OW28327   0.900   1.831  16.445 -0.1755  0.1507  0.3833
 5565SOL    HW128328   0.820   1.857  16.491 -0.5815 -0.2205 -0.1109
 5565SOL    HW228329   0.854   1.790  16.371 -0.6452  0.4911  0.4869
 5566SOL     OW28330   0.288   1.175  12.263 -0.0165  0.5060  0.3379
 5566SOL    HW128331   0.301   1.082  12.280 -1.1288  0.4002  0.6118
 5566SOL    HW228332   0.195   1.189  12.284 -0.6208 -1.8486 -0.8288
 5567SOL     OW28333   0.035   4.660   5.148  0.1180  0.4647  0.7498
 5567SOL    HW128334   0.100   4.601   5.187 -0.3343  0.1638  1.0386
 5567SOL    HW228335   0.098   4.723   5.112 -0.8532 -0.1574 -2.0161
 5568SOL     OW28336   2.924   0.412   3.374 -0.3228  0.3516  0.6717
 5568SOL    HW128337   2.999   0.410   3.433  0.1415 -1.2649  0.0148
 5568SOL    HW228338   2.954   0.370   3.294  0.7321 -0.3918  1.4559
 5569SOL     OW28339   3.291   1.037  13.910  0.5169  0.3954  0.0568
 5569SOL    HW128340   3.337   1.099  13.853 -2.1807  1.0868 -1.3502
 5569SOL    HW228341   3.218   1.092  13.939 -0.6298 -0.3898 -1.3810
 5570SOL     OW28342   2.884   3.022   7.003  0.8176  0.7202  0.2186
 5570SOL    HW128343   2.879   2.933   6.968  0.6202  0.8912 -0.1891
 5570SOL    HW228344   2.978   3.038   7.007  0.7847  1.1479 -0.7748
 5571SOL     OW28345   4.257   2.700   6.758 -0.0733  0.2494 -0.4218
 5571SOL    HW128346   4.311   2.637   6.806  0.4026  0.1398 -1.0958
 5571SOL    HW228347   4.308   2.722   6.680  0.0898 -0.9991 -0.6677
 5572SOL     OW28348   0.931   2.453   6.146  0.3841  0.2009  0.4392
 5572SOL    HW128349   0.980   2.377   6.175  0.4351  0.8471  2.0624
 5572SOL    HW228350   0.913   2.439   6.053 -1.1032 -1.6153  1.0083
 5573SOL     OW28351   1.154   2.584   3.506  0.2024 -0.3009  0.1495
 5573SOL    HW128352   1.247   2.564   3.515  0.3932  0.2619 -0.5905
 5573SOL    HW228353   1.111   2.558   3.588  1.2501  0.0292  0.7873
 5574SOL     OW28354   1.723   2.036   9.625 -0.2618  0.3257 -0.4055
 5574SOL    HW128355   1.800   2.087   9.648  0.4233 -0.7981 -0.2337
 5574SOL    HW228356   1.661   2.085   9.680  2.2413  0.4691  2.2719
 5575SOL     OW28357   3.924   4.439   7.610 -0.1188  0.1214 -0.6930
 5575SOL    HW128358   3.978   4.370   7.649 -0.9805 -0.7031 -0.9606
 5575SOL    HW228359   3.989   4.498   7.573  0.5087  1.8029  3.0642
 5576SOL     OW28360   2.524   1.371  10.575 -0.4866  0.2128 -0.3712
 5576SOL    HW128361   2.568   1.370  10.490 -1.0394 -1.7531 -0.6418
 5576SOL    HW228362   2.596   1.384  10.637 -1.6214  0.3880  0.9138
 5577SOL     OW28363   0.538   1.588   1.068  0.1093 -0.2390 -0.0614
 5577SOL    HW128364   0.600   1.642   1.019 -0.2320 -1.1215 -1.4803
 5577SOL    HW228365   0.580   1.502   1.071  1.3638  0.3538 -0.5833
 5578SOL     OW28366   0.541   0.151   3.813 -0.1836  0.2166  0.1251
 5578SOL    HW128367   0.506   0.076   3.765  1.1690 -0.3447 -0.0078
 5578SOL    HW228368   0.456   0.193   3.825 -0.4461 -0.6874  1.4000
 5579SOL     OW28369   0.127   4.052   4.773  0.3243 -0.6416  1.0706
 5579SOL    HW128370   0.139   4.143   4.801 -1.2565 -0.4207  1.0594
 5579SOL    HW228371   0.197   4.009   4.821  0.4924  0.7424  2.0595
 5580SOL     OW28372   1.385   0.930   6.719  0.0203  0.0818  0.3931
 5580SOL    HW128373   1.325   0.969   6.783 -0.6611  0.1584 -0.2924
 5580SOL    HW228374   1.323   0.874   6.673 -0.3143  0.0192  0.9214
 5581SOL     OW28375   3.288   0.009  11.698 -0.3602  0.1842 -0.4745
 5581SOL    HW128376   3.377   0.024  11.730 -0.1784 -0.1672 -0.8238
 5581SOL    HW228377   3.249   0.096  11.705 -1.0102 -0.2619  1.6003
 5582SOL     OW28378   4.122   4.580   7.490 -0.0581  0.3388  0.0041
 5582SOL    HW128379   4.195   4.580   7.551  0.6646 -0.0868 -0.8673
 5582SOL    HW228380   4.123   4.668   7.453  1.0274  1.2495  2.2851
 5583SOL     OW28381   3.967   4.672  12.358  0.3428  0.0228  0.2948
 5583SOL    HW128382   3.992   4.733  12.289 -1.4079  0.4650  0.0448
 5583SOL    HW228383   4.046   4.654  12.409  1.2748  0.7045 -0.8960
 5584SOL     OW28384   3.674   4.569   7.693  0.0693  0.2133  0.3666
 5584SOL    HW128385   3.606   4.517   7.735  1.0611 -0.4692  1.1170
 5584SOL    HW228386   3.736   4.508   7.653  0.0068  0.5940 -0.3192
 5585SOL     OW28387   2.785   1.510   7.239 -0.0460 -0.0918 -0.0445
 5585SOL    HW128388   2.732   1.562   7.299  0.5570 -0.3674  0.7327
 5585SOL    HW228389   2.721   1.442   7.219 -0.9179 -0.0822  2.7422
 5586SOL     OW28390   4.273   4.166   2.963  0.4690 -0.1976 -0.2414
 5586SOL    HW128391   4.279   4.096   2.897  2.3608 -0.2413 -0.0224
 5586SOL    HW228392   4.358   4.144   3.001 -0.3870 -1.5074  0.9040
 5587SOL     OW28393   4.403   1.625   8.007  0.1544  0.4314 -0.3207
 5587SOL    HW128394   4.314   1.655   7.990  0.6426  2.3989  0.4968
 5587SOL    HW228395   4.416   1.658   8.097 -0.4101 -1.2440  0.3653
 5588SOL     OW28396   0.228   1.361   3.962  0.1162  0.3123  0.2959
 5588SOL    HW128397   0.213   1.412   4.041  1.8272  0.0318  0.7877
 5588SOL    HW228398   0.145   1.314   3.970  0.3838 -0.3231 -0.6624
 5589SOL     OW28399   2.312   1.745   2.526  0.2981 -0.3354 -0.1352
 5589SOL    HW128400   2.398   1.777   2.501  0.4222 -1.8594 -1.6663
 5589SOL    HW228401   2.306   1.764   2.619  0.8492 -1.2918  0.1003
 5590SOL     OW28402   3.173   2.061  15.406 -0.4197 -0.3973 -0.1979
 5590SOL    HW128403   3.229   2.071  15.483 -1.9670  0.6001  0.7878
 5590SOL    HW228404   3.114   2.134  15.422  0.3354  0.1974 -0.1301
 5591SOL     OW28405   2.904   1.184  10.583  0.0474  0.0380 -0.2208
 5591SOL    HW128406   2.989   1.221  10.606  0.0313  0.0731 -0.2179
 5591SOL    HW228407   2.894   1.118  10.652  0.1269 -1.0755 -1.2669
 5592SOL     OW28408   3.258   2.519   4.593  0.7192  0.6387  0.2292
 5592SOL    HW128409   3.334   2.483   4.639  0.2764 -0.2776  0.2463
 5592SOL    HW228410   3.297   2.518   4.506 -0.1311 -1.7323 -0.1250
 5593SOL     OW28411   1.475   0.767   3.005  0.2058 -0.4860  0.3161
 5593SOL    HW128412   1.453   0.849   3.049  3.2331  0.3087  0.3798
 5593SOL    HW228413   1.513   0.808   2.927 -0.6158  1.1928  0.7941
 5594SOL     OW28414   0.128   4.226   7.960  0.7063  0.6034  0.5637
 5594SOL    HW128415   0.114   4.152   7.900  0.6827  0.4030  0.8162
 5594SOL    HW228416   0.180   4.178   8.024 -0.6328  0.3366  1.4481
 5595SOL     OW28417   1.833   1.599  15.164  0.2659 -0.3090 -0.4568
 5595SOL    HW128418   1.896   1.588  15.235  0.2125 -0.8669 -0.4990
 5595SOL    HW228419   1.899   1.619  15.097 -1.5984 -1.2677 -2.5676
 5596SOL     OW28420   3.895   0.073   4.413 -0.5632 -0.3850 -0.2974
 5596SOL    HW128421   3.953   4.732   4.399  0.0019  0.2274 -1.2047
 5596SOL    HW228422   3.956   0.137   4.452 -0.2747 -0.4857 -0.5883
 5597SOL     OW28423   0.457   1.309  12.068 -0.6600  0.7342  0.3649
 5597SOL    HW128424   0.391   1.270  12.125 -0.4380 -1.2167 -0.7068
 5597SOL    HW228425   0.536   1.302  12.122 -0.3061  0.8056 -0.1470
 5598SOL     OW28426   4.405   2.884   1.454  0.2282  0.0955  0.0677
 5598SOL    HW128427   4.435   2.942   1.524 -3.0689  0.1920  1.3714
 5598SOL    HW228428   4.372   2.815   1.511  1.2604 -0.4717 -0.0025
 5599SOL     OW28429   4.235   3.915   3.242  0.2561  0.1038  0.3586
 5599SOL    HW128430   4.308   3.971   3.268 -1.1415  1.1826  1.9713
 5599SOL    HW228431   4.189   3.911   3.326 -0.3443  1.5632  0.1024
 5600SOL     OW28432   0.194   0.168  11.172 -0.2070 -0.0488  1.0912
 5600SOL    HW128433   0.199   0.225  11.096 -0.7931  1.7147  2.3618
 5600SOL    HW228434   0.181   0.081  11.135  0.7774  0.1991  0.1912
 5601SOL     OW28435   1.716   4.299   6.263  0.0465 -0.4624  0.5195
 5601SOL    HW128436   1.789   4.284   6.204 -0.7084  0.8247 -0.7319
 5601SOL    HW228437   1.649   4.312   6.196  0.5301 -1.3070 -0.1163
 5602SOL     OW28438   3.032   3.731   6.117 -0.6857 -0.1342 -0.0638
 5602SOL    HW128439   3.025   3.635   6.118  0.0699 -0.2089 -1.3710
 5602SOL    HW228440   3.024   3.760   6.208  1.4485  0.8623 -0.1922
 5603SOL     OW28441   2.912   2.719   8.763  0.4601 -0.3680  0.0066
 5603SOL    HW128442   2.996   2.701   8.720 -0.1882 -3.4696  0.0052
 5603SOL    HW228443   2.920   2.813   8.778  1.5984 -0.3661 -0.5804
 5604SOL     OW28444   4.545   4.684   0.560  0.4047 -0.5047 -0.0333
 5604SOL    HW128445   4.606   0.011   0.603 -0.9789  0.8188  0.0742
 5604SOL    HW228446   4.599   4.605   0.557 -1.0585 -1.3754 -3.4796
 5605SOL     OW28447   2.726   2.521   6.330  0.0327  0.0925 -0.2949
 5605SOL    HW128448   2.724   2.427   6.343 -1.3962 -0.0267 -1.3764
 5605SOL    HW228449   2.732   2.529   6.235 -0.3830 -0.7305 -0.3871
 5606SOL     OW28450   4.399   3.046   6.919 -0.0415  0.3776  0.5827
 5606SOL    HW128451   4.387   3.122   6.862  2.1774 -1.2416 -2.0765
 5606SOL    HW228452   4.413   3.098   6.998  2.7372  0.2725  0.1607
 5607SOL     OW28453   1.654   0.668   5.328  0.2297  0.0632 -0.6575
 5607SOL    HW128454   1.660   0.584   5.372  0.6801  0.2519 -0.3687
 5607SOL    HW228455   1.679   0.643   5.239 -0.2290 -0.4532 -0.6427
 5608SOL     OW28456   0.228   0.388  10.981 -0.3302  0.7785  0.4053
 5608SOL    HW128457   0.267   0.470  10.952 -0.4697  0.0682 -1.8680
 5608SOL    HW228458   0.150   0.389  10.924 -1.0933 -0.5815  1.4305
 5609SOL     OW28459   0.955   1.111   6.540 -0.1477 -0.4248 -0.2312
 5609SOL    HW128460   1.042   1.093   6.505  0.2971 -1.0256  1.1722
 5609SOL    HW228461   0.944   1.201   6.512  0.9350 -0.1872  0.1055
 5610SOL     OW28462   3.274   4.274   6.916 -0.1096 -0.7745 -0.0297
 5610SOL    HW128463   3.329   4.196   6.910  1.0607  0.0805 -0.3799
 5610SOL    HW228464   3.252   4.294   6.825 -0.5846 -1.0209  0.0314
 5611SOL     OW28465   0.456   1.232   6.853 -0.3303 -0.2857 -0.1315
 5611SOL    HW128466   0.516   1.203   6.785 -0.0569 -0.2423  0.0952
 5611SOL    HW228467   0.501   1.312   6.882  2.0556 -1.2632 -1.1667
 5612SOL     OW28468   0.746   4.011   7.178 -0.0258  0.2481 -0.3635
 5612SOL    HW128469   0.738   4.103   7.156  0.9540  0.6090  0.8058
 5612SOL    HW228470   0.782   4.006   7.267 -1.0247 -1.0556 -0.0233
 5613SOL     OW28471   2.548   1.099  13.681  0.5266 -0.5033  0.2296
 5613SOL    HW128472   2.587   1.178  13.720 -1.1349  1.4750 -2.1262
 5613SOL    HW228473   2.499   1.132  13.606  1.3827 -1.2736 -0.6659
 5614SOL     OW28474   2.907   4.019   1.327 -0.4357  0.2843  0.0856
 5614SOL    HW128475   2.843   4.086   1.302  0.3427  1.2162  0.6071
 5614SOL    HW228476   2.907   4.031   1.422 -0.9344  0.7363  0.0274
 5615SOL     OW28477   4.678   4.162   0.676 -0.4334 -0.1755  0.4607
 5615SOL    HW128478   0.038   4.156   0.697  0.1666 -0.4933 -2.3389
 5615SOL    HW228479   4.636   4.176   0.761 -2.0293 -0.3656 -0.2916
 5616SOL     OW28480   3.611   3.278   7.419  0.2034  0.3312 -0.5687
 5616SOL    HW128481   3.661   3.197   7.424 -0.9960 -0.2491  2.0313
 5616SOL    HW228482   3.687   3.336   7.424 -0.9732  1.7515  0.9421
 5617SOL     OW28483   2.869   3.602   8.695 -0.4600 -0.4413  0.2383
 5617SOL    HW128484   2.962   3.595   8.674 -0.2584  0.9287  0.6650
 5617SOL    HW228485   2.870   3.653   8.776  1.7470  0.0717 -0.1191
 5618SOL     OW28486   1.581   3.651   8.705  0.2477 -0.4659  0.1883
 5618SOL    HW128487   1.617   3.638   8.793 -0.2188 -1.7963  0.1831
 5618SOL    HW228488   1.490   3.658   8.731  0.2117  0.0441 -0.0740
 5619SOL     OW28489   4.304   4.308   8.969  0.0074 -0.0651  0.3030
 5619SOL    HW128490   4.354   4.367   8.913 -1.7365  0.0238 -1.1232
 5619SOL    HW228491   4.214   4.331   8.950  0.1208 -0.0498 -0.2153
 5620SOL     OW28492   2.022   0.665  12.249  0.0879  0.4920  0.0515
 5620SOL    HW128493   1.949   0.722  12.225 -0.9555  0.1296  2.3511
 5620SOL    HW228494   2.002   0.654  12.342  1.5351  1.1809  0.4505
 5621SOL     OW28495   1.530   2.243  15.243 -0.9093 -0.0725 -0.4798
 5621SOL    HW128496   1.522   2.320  15.300 -1.8665  0.2602 -1.0410
 5621SOL    HW228497   1.622   2.260  15.225 -1.3768  1.6727 -1.2776
 5622SOL     OW28498   1.358   1.726  15.740 -0.3962 -0.3759  0.2728
 5622SOL    HW128499   1.393   1.661  15.802 -1.3894 -0.8496  0.3399
 5622SOL    HW228500   1.397   1.697  15.658 -1.2694  1.4390 -0.7587
 5623SOL     OW28501   4.380   3.105   6.199  0.1480 -0.1561 -0.3383
 5623SOL    HW128502   4.398   3.058   6.281  1.1405 -0.9700 -1.0201
 5623SOL    HW228503   4.459   3.159   6.186 -0.9740  1.7733  0.8889
 5624SOL     OW28504   2.696   2.876   4.303 -0.4052 -0.0558  0.6214
 5624SOL    HW128505   2.628   2.880   4.235  0.7635  0.1036 -0.5417
 5624SOL    HW228506   2.754   2.814   4.257 -1.8345 -1.3705  0.5840
 5625SOL     OW28507   1.457   0.983   4.386 -0.5899 -0.7355 -0.3677
 5625SOL    HW128508   1.548   1.000   4.362 -0.6621  0.2878  0.0716
 5625SOL    HW228509   1.437   0.908   4.329 -1.2715  0.3037 -1.4880
 5626SOL     OW28510   0.231   2.202   2.137  0.2373 -0.0688  0.1654
 5626SOL    HW128511   0.255   2.171   2.225 -2.5351  0.0440  0.9463
 5626SOL    HW228512   0.279   2.285   2.130  2.0050 -0.9847  1.1841
 5627SOL     OW28513   4.080   4.432  11.647 -0.6191 -0.9463  0.0186
 5627SOL    HW128514   4.061   4.363  11.710 -1.1080 -1.4513 -0.6782
 5627SOL    HW228515   4.032   4.508  11.679 -1.5936 -1.7072  0.3820
 5628SOL     OW28516   1.800   0.480   9.211  0.0420 -0.3121 -0.5041
 5628SOL    HW128517   1.777   0.570   9.188  0.4040  0.5063  2.2800
 5628SOL    HW228518   1.844   0.453   9.131  1.7416  2.7092 -0.5715
 5629SOL     OW28519   2.380   3.011   9.393 -0.2113  0.0626 -0.0943
 5629SOL    HW128520   2.394   3.071   9.467 -1.8238 -0.6631  0.7960
 5629SOL    HW228521   2.285   3.002   9.401 -0.1853 -0.5341 -0.4947
 5630SOL     OW28522   2.081   3.091  16.653  0.1420  0.2425  0.4569
 5630SOL    HW128523   1.995   3.085  16.695  0.0912  1.0039  0.4571
 5630SOL    HW228524   2.115   3.175  16.683  1.1521  0.3895 -1.0893
 5631SOL     OW28525   3.657   1.142   6.246  0.3703 -0.5260  0.1260
 5631SOL    HW128526   3.680   1.221   6.196  1.8919 -0.0612  1.5902
 5631SOL    HW228527   3.562   1.147   6.235  0.4992  0.8588 -0.4544
 5632SOL     OW28528   1.449   3.367  16.472  0.2255 -0.1281  0.0638
 5632SOL    HW128529   1.481   3.277  16.461  1.5177  0.3077  0.2240
 5632SOL    HW228530   1.362   3.346  16.505  0.6769  0.4062  1.5968
 5633SOL     OW28531   4.610   4.248   2.080  0.3251  1.0089  0.3003
 5633SOL    HW128532   4.593   4.330   2.032  0.6912  0.2863 -1.0674
 5633SOL    HW228533   4.560   4.181   2.035  0.3401  2.0129 -1.2270
 5634SOL     OW28534   4.090   2.174   7.881 -0.6130  0.0886 -0.3595
 5634SOL    HW128535   4.082   2.235   7.808  0.2581 -1.8934 -2.1069
 5634SOL    HW228536   4.003   2.135   7.892 -2.6483  4.8587  0.4940
 5635SOL     OW28537   4.518   3.897   2.264 -0.1408 -0.5332 -0.2687
 5635SOL    HW128538   4.423   3.886   2.261  0.0819 -1.6212 -3.5104
 5635SOL    HW228539   4.536   3.849   2.345  1.6382  1.7679  0.6857
 5636SOL     OW28540   4.474   0.565   6.588 -0.8163  0.1438 -0.5776
 5636SOL    HW128541   4.564   0.532   6.584 -0.5045  0.9825 -0.6082
 5636SOL    HW228542   4.461   0.562   6.683 -2.2502  0.2937 -0.7653
 5637SOL     OW28543   3.417   2.755   4.085 -0.0793  0.4332 -0.1713
 5637SOL    HW128544   3.476   2.702   4.139 -0.6227  0.7788  0.7668
 5637SOL    HW228545   3.338   2.706   4.110 -1.9164  3.2319 -0.5622
 5638SOL     OW28546   0.432   2.411   9.254  0.3602  0.1057  0.0727
 5638SOL    HW128547   0.424   2.377   9.165  0.5584 -1.3417  0.6078
 5638SOL    HW228548   0.353   2.466   9.254  0.0089 -0.3915 -0.8297
 5639SOL     OW28549   0.526   0.167   2.184 -0.3919 -0.5658 -0.2474
 5639SOL    HW128550   0.589   0.102   2.213 -1.3230 -0.8801  1.0869
 5639SOL    HW228551   0.525   0.155   2.089 -1.4484 -0.1464 -0.2900
 5640SOL     OW28552   4.241   4.704  16.818 -0.3259 -0.3571  0.3830
 5640SOL    HW128553   4.261   4.634  16.757 -1.1370  0.4179 -0.7657
 5640SOL    HW228554   4.227   0.046  16.760 -5.7068 -0.2896  1.7705
 5641SOL     OW28555   3.821   2.980  10.321 -0.0286  0.7718  0.0430
 5641SOL    HW128556   3.890   3.044  10.338  2.6501 -1.5430 -2.1264
 5641SOL    HW228557   3.768   3.027  10.256 -0.4964  2.9303  1.9779
 5642SOL     OW28558   3.336   3.004   9.128  0.1343  0.3694  0.1225
 5642SOL    HW128559   3.318   2.965   9.042  2.6541  0.8948 -0.6301
 5642SOL    HW228560   3.320   3.094   9.100  0.4077  0.6682  0.9387
 5643SOL     OW28561   2.252   1.716   4.732  0.4799 -0.0118 -0.2480
 5643SOL    HW128562   2.317   1.647   4.717 -0.1214 -0.5588 -0.3719
 5643SOL    HW228563   2.305   1.792   4.710  0.9418  0.4773  2.4841
 5644SOL     OW28564   0.260   4.481   0.131  0.1509  0.5132 -0.0529
 5644SOL    HW128565   0.332   4.531   0.092  3.0347 -0.6675  3.7459
 5644SOL    HW228566   0.210   4.465   0.051 -0.2236 -1.3497  0.5733
 5645SOL     OW28567   1.114   4.544   4.835 -0.5013 -0.1846 -0.5274
 5645SOL    HW128568   1.117   4.494   4.754 -0.0505 -0.6311 -0.2362
 5645SOL    HW228569   1.209   4.547   4.833 -0.4016 -2.4320  0.2425
 5646SOL     OW28570   1.453   0.984  15.376  0.1175  0.1477  0.0068
 5646SOL    HW128571   1.543   0.967  15.349 -0.8074 -4.3473 -0.2902
 5646SOL    HW228572   1.404   0.938  15.307  0.0235  0.3510 -0.0609
 5647SOL     OW28573   2.257   3.010   7.073 -0.0961 -0.5625 -0.1490
 5647SOL    HW128574   2.215   3.058   7.145 -0.4831 -0.0787 -0.6972
 5647SOL    HW228575   2.289   3.084   7.021  0.7429  0.0172  1.1951
 5648SOL     OW28576   3.030   3.349   5.630  0.6742 -0.5494  0.1752
 5648SOL    HW128577   3.112   3.301   5.628 -1.3773 -3.9151 -2.5798
 5648SOL    HW228578   3.006   3.326   5.720  2.2597 -3.2561 -0.1113
 5649SOL     OW28579   3.418   1.616   4.536 -0.3694 -0.8376  0.5253
 5649SOL    HW128580   3.325   1.626   4.556 -0.5707 -0.2231 -0.7295
 5649SOL    HW228581   3.407   1.597   4.443 -0.7343 -2.5608  0.9081
 5650SOL     OW28582   1.318   3.711   9.057  0.3990 -0.1536  0.4589
 5650SOL    HW128583   1.344   3.763   8.980  0.9192  0.3697  0.9852
 5650SOL    HW228584   1.224   3.725   9.060  0.2747 -0.5649 -1.4997
 5651SOL     OW28585   1.467   3.353   1.989 -0.0646  0.4496  0.1103
 5651SOL    HW128586   1.538   3.357   1.925  1.3331 -2.5851  1.4687
 5651SOL    HW228587   1.428   3.270   1.961  0.9473  0.1837 -0.5193
 5652SOL     OW28588   3.095   2.724   7.090 -0.1462 -0.1043  0.0885
 5652SOL    HW128589   3.149   2.703   7.167  0.7330  1.9708  0.0226
 5652SOL    HW228590   3.008   2.705   7.126  0.4718  0.0169  1.6749
 5653SOL     OW28591   3.467   4.490   6.303 -0.0324  0.2385  0.4502
 5653SOL    HW128592   3.560   4.512   6.305  0.8032 -3.1163 -0.6886
 5653SOL    HW228593   3.435   4.553   6.368 -0.5836  0.5335 -0.1126
 5654SOL     OW28594   4.513   1.752  16.644  0.1435 -0.4306  0.3037
 5654SOL    HW128595   4.470   1.783  16.723  2.2937  0.8946  0.9379
 5654SOL    HW228596   4.606   1.760  16.665 -0.4501 -1.0070  3.0644
 5655SOL     OW28597   2.058   4.283   1.960  0.2425  0.4562 -0.1694
 5655SOL    HW128598   1.966   4.264   1.945  0.4644 -0.6482 -0.1597
 5655SOL    HW228599   2.051   4.369   2.003  0.4925  0.6433 -0.5047
 5656SOL     OW28600   2.865   0.403   9.407  0.4931 -0.0783  0.5592
 5656SOL    HW128601   2.860   0.447   9.492 -0.4133  2.7132 -0.9419
 5656SOL    HW228602   2.780   0.424   9.369  0.1572 -0.6823  0.9618
 5657SOL     OW28603   1.969   3.369  13.044 -0.0285 -0.0932 -0.3264
 5657SOL    HW128604   2.058   3.389  13.075 -1.0669  1.6413  1.5954
 5657SOL    HW228605   1.981   3.374  12.950 -0.2498  0.5171 -0.3215
 5658SOL     OW28606   0.223   4.253   8.237  0.6690  0.5456  0.3040
 5658SOL    HW128607   0.286   4.181   8.227  1.0232  0.6349  1.8882
 5658SOL    HW228608   0.169   4.237   8.313 -1.5730 -1.8941 -1.8009
 5659SOL     OW28609   1.361   3.766  11.219 -0.2731 -0.8694  0.0535
 5659SOL    HW128610   1.333   3.808  11.137  0.3676 -1.8269 -0.6519
 5659SOL    HW228611   1.279   3.732  11.255 -1.9601  0.0502 -2.9036
 5660SOL     OW28612   2.328   4.179   1.166  0.3704  0.1151 -0.1272
 5660SOL    HW128613   2.371   4.198   1.250 -2.0316  2.0805  0.6599
 5660SOL    HW228614   2.249   4.135   1.196 -0.5985  1.9042 -0.0567
 5661SOL     OW28615   1.146   4.579   9.111 -0.1473  0.0134 -0.0900
 5661SOL    HW128616   1.164   4.610   9.200  0.4132 -2.2634  0.5901
 5661SOL    HW228617   1.149   4.487   9.135  1.1948 -0.1404 -0.8218
 5662SOL     OW28618   0.979   1.074   8.540  0.4187  0.6212  1.0966
 5662SOL    HW128619   0.906   1.093   8.600  0.2306  0.9929  0.7481
 5662SOL    HW228620   1.007   1.165   8.535 -1.0201  0.8790 -2.2632
 5663SOL     OW28621   1.565   4.175   3.485  0.7635  0.2886 -0.5738
 5663SOL    HW128622   1.546   4.234   3.558  0.5747  0.1407 -0.5027
 5663SOL    HW228623   1.492   4.113   3.487 -0.2904  1.4981 -0.9651
 5664SOL     OW28624   3.245   4.462   6.648 -0.6323  0.0708 -0.1792
 5664SOL    HW128625   3.189   4.386   6.632 -0.3016 -0.9479  3.3986
 5664SOL    HW228626   3.173   4.526   6.650 -0.8246 -0.1031 -2.0200
 5665SOL     OW28627   2.696   2.015   4.819  0.0883  0.0957 -0.3930
 5665SOL    HW128628   2.692   2.083   4.752 -1.1157  1.1377  0.7461
 5665SOL    HW228629   2.788   2.009   4.843  0.0582 -1.1605 -0.5801
 5666SOL     OW28630   0.166   2.889  10.308  0.5688 -0.3481  0.2821
 5666SOL    HW128631   0.127   2.937  10.381  0.2036  0.1683 -0.2532
 5666SOL    HW228632   0.248   2.865  10.351  1.2975  1.8949  0.1642
 5667SOL     OW28633   2.516   1.409   2.351 -0.8891 -0.3707  0.5438
 5667SOL    HW128634   2.464   1.375   2.278 -0.6956  2.2225 -0.7804
 5667SOL    HW228635   2.449   1.398   2.419 -0.8277 -0.9498  0.5113
 5668SOL     OW28636   0.044   3.714   6.434  0.1131  0.2252  0.0045
 5668SOL    HW128637   0.046   3.689   6.526  0.8829 -0.3958 -0.1800
 5668SOL    HW228638   0.137   3.728   6.416 -0.0931 -0.0130 -1.2365
 5669SOL     OW28639   3.806   0.067   7.268  0.3421 -0.6420  0.1812
 5669SOL    HW128640   3.844   0.101   7.349 -1.2656 -0.9398  1.0602
 5669SOL    HW228641   3.758   0.144   7.238  2.6162  0.2855 -1.1050
 5670SOL     OW28642   3.843   3.434   7.477 -0.0456 -0.1474  0.5343
 5670SOL    HW128643   3.862   3.528   7.476  0.7656 -0.3117  1.9826
 5670SOL    HW228644   3.883   3.408   7.560  0.4283  0.0783  0.3769
 5671SOL     OW28645   3.742   3.512   2.565 -1.0444  0.2344 -0.2941
 5671SOL    HW128646   3.762   3.425   2.530  0.0803  0.9587 -1.4657
 5671SOL    HW228647   3.750   3.498   2.659 -0.1779  0.3196 -0.3543
 5672SOL     OW28648   3.121   1.373   8.530  0.4646  0.6361 -0.3536
 5672SOL    HW128649   3.105   1.441   8.595 -0.7675 -0.6603  0.7024
 5672SOL    HW228650   3.199   1.329   8.564 -0.1469 -0.0009  0.2310
 5673SOL     OW28651   2.884   1.887   7.916 -0.0992  0.6266 -0.0398
 5673SOL    HW128652   2.927   1.909   7.833  2.7422 -0.3111  1.1751
 5673SOL    HW228653   2.961   1.894   7.973  0.6060  0.8979 -1.0331
 5674SOL     OW28654   2.407   1.590   6.774 -0.6315  0.1379 -0.0240
 5674SOL    HW128655   2.498   1.616   6.765 -1.0399  2.1513  1.7321
 5674SOL    HW228656   2.355   1.649   6.719 -1.7849  1.4931  2.5324
 5675SOL     OW28657   1.357   3.174  13.134 -0.2373 -0.4090  0.1809
 5675SOL    HW128658   1.421   3.173  13.206  0.4122 -0.8066 -0.4046
 5675SOL    HW228659   1.407   3.121  13.072  1.4764 -2.1279  3.0123
 5676SOL     OW28660   3.386   3.587  10.362  0.3257 -0.0366 -0.2355
 5676SOL    HW128661   3.370   3.512  10.305 -0.3744  0.2695 -0.4439
 5676SOL    HW228662   3.435   3.651  10.310  0.2416  1.0310  0.9972
 5677SOL     OW28663   0.960   0.702   4.319 -0.1250 -0.0502  0.2002
 5677SOL    HW128664   0.886   0.646   4.340 -0.8372  0.8766  0.1241
 5677SOL    HW228665   1.020   0.655   4.378 -0.7300  0.5480  1.2851
 5678SOL     OW28666   3.779   1.602  10.997  0.4070  0.1205  0.1917
 5678SOL    HW128667   3.812   1.512  10.999  1.9940  0.7320  2.3891
 5678SOL    HW228668   3.808   1.630  10.910  0.0685 -0.3632 -0.0729
 5679SOL     OW28669   4.361   0.438   8.471 -0.0510  0.4573 -0.0539
 5679SOL    HW128670   4.300   0.381   8.518 -2.0070  0.4924 -2.5370
 5679SOL    HW228671   4.298   0.485   8.416  0.0701  2.1638  1.2974
 5680SOL     OW28672   2.924   3.516   4.751  0.0025 -0.3529 -0.0153
 5680SOL    HW128673   2.990   3.567   4.703  0.3566 -1.6269 -0.8905
 5680SOL    HW228674   2.895   3.574   4.821  1.2757 -0.2094  0.3977
 5681SOL     OW28675   0.300   4.171   7.143 -0.3168 -0.5537 -0.0263
 5681SOL    HW128676   0.207   4.181   7.162  0.1752  0.8780  1.6127
 5681SOL    HW228677   0.308   4.078   7.167 -0.5609 -1.4339 -3.2825
 5682SOL     OW28678   0.829   2.943   7.305 -0.0127 -0.0163 -0.2779
 5682SOL    HW128679   0.783   2.863   7.278 -1.5483  1.2628 -1.4592
 5682SOL    HW228680   0.842   2.988   7.222 -0.1748 -1.4528 -1.0832
 5683SOL     OW28681   3.232   4.617   9.899 -0.4482 -0.4578  0.2524
 5683SOL    HW128682   3.275   4.531   9.901 -0.0084 -0.2515 -0.1106
 5683SOL    HW228683   3.144   4.596   9.868  0.0702 -1.0936 -0.7722
 5684SOL     OW28684   0.940   3.447   1.029  0.3906  0.2919  0.1689
 5684SOL    HW128685   0.936   3.352   1.043  0.6528  0.3511  0.6350
 5684SOL    HW228686   0.873   3.449   0.961 -0.2019 -0.4999  0.7338
 5685SOL     OW28687   4.731   1.230   1.254 -0.4900  0.2523 -0.4035
 5685SOL    HW128688   0.027   1.320   1.238  0.6492  0.0069  0.2876
 5685SOL    HW228689   4.642   1.221   1.220 -1.3344  1.5436  1.3877
 5686SOL     OW28690   2.741   3.318   5.146 -0.1212 -0.1959  0.1507
 5686SOL    HW128691   2.741   3.283   5.235  0.0172  0.6023  0.4670
 5686SOL    HW228692   2.655   3.359   5.141 -0.6188 -1.4046 -1.2862
 5687SOL     OW28693   0.165   2.153  13.301 -0.4837  0.2467  0.2124
 5687SOL    HW128694   0.168   2.158  13.396  0.8680  1.5321  0.1034
 5687SOL    HW228695   0.082   2.108  13.288 -1.7956  2.3031  1.5252
 5688SOL     OW28696   2.088   1.728   6.304  0.3863 -0.6208  0.2561
 5688SOL    HW128697   2.103   1.793   6.373  1.6658 -1.1094  0.4274
 5688SOL    HW228698   2.144   1.758   6.233 -0.1414 -1.4902 -0.5239
 5689SOL     OW28699   2.327   0.193   2.025 -0.5267  0.0066 -0.1884
 5689SOL    HW128700   2.322   0.109   2.072  1.3540  1.8813  3.3320
 5689SOL    HW228701   2.390   0.240   2.080  0.1115 -2.6796  1.3918
 5690SOL     OW28702   2.104   0.430   0.334 -0.1047 -0.0916 -0.2878
 5690SOL    HW128703   2.087   0.501   0.272 -1.4916 -1.9022 -1.9754
 5690SOL    HW228704   2.083   0.357   0.276 -1.5156  0.2270 -0.1732
 5691SOL     OW28705   4.205   2.879  12.467 -0.1078 -0.2335 -0.6140
 5691SOL    HW128706   4.214   2.916  12.379 -3.3555  1.2425 -0.3314
 5691SOL    HW228707   4.296   2.869  12.495 -0.4578  0.8377  0.9292
 5692SOL     OW28708   2.484   2.971  14.889 -0.5706  0.2606 -0.1814
 5692SOL    HW128709   2.412   2.911  14.906 -1.3430  2.0439  2.8935
 5692SOL    HW228710   2.434   3.041  14.848 -0.8419 -0.4250 -1.0281
 5693SOL     OW28711   2.175   3.164   6.166  0.2425  0.1081 -0.4115
 5693SOL    HW128712   2.190   3.076   6.202  1.4956  0.5111  0.0785
 5693SOL    HW228713   2.104   3.198   6.220 -0.6579 -3.6238  0.7866
 5694SOL     OW28714   3.081   3.864   7.367  0.3069 -0.2667  0.4667
 5694SOL    HW128715   3.001   3.857   7.419 -0.2423 -1.3911 -0.5377
 5694SOL    HW228716   3.111   3.951   7.393  0.6344  0.5690 -2.6594
 5695SOL     OW28717   0.819   2.327   2.963 -0.3539  0.2319  0.0080
 5695SOL    HW128718   0.912   2.350   2.965 -1.0380  2.9728  0.4226
 5695SOL    HW228719   0.826   2.254   3.023 -2.4720 -1.3102 -1.6102
 5696SOL     OW28720   3.082   1.386  12.678  0.2344 -0.2170  0.4993
 5696SOL    HW128721   3.149   1.352  12.737 -1.5576 -0.3043  2.4968
 5696SOL    HW228722   3.005   1.382  12.735  1.0070 -0.5560  1.5028
 5697SOL     OW28723   4.530   0.745  12.534  0.5357  0.2818 -0.2885
 5697SOL    HW128724   4.436   0.733  12.539  0.6370 -0.1750  0.4482
 5697SOL    HW228725   4.564   0.738  12.623  3.6474  0.7150 -1.4253
 5698SOL     OW28726   2.858   4.475   1.327  0.4494  0.9093 -0.2657
 5698SOL    HW128727   2.825   4.389   1.300  0.2521  0.5577  1.0825
 5698SOL    HW228728   2.813   4.531   1.264 -0.0695 -1.7595 -2.2877
 5699SOL     OW28729   1.075   2.056   3.322 -0.2800  0.2595 -0.3189
 5699SOL    HW128730   1.132   2.022   3.390 -0.4358 -0.8043 -0.7157
 5699SOL    HW228731   1.087   2.151   3.318 -1.5303  0.4409  0.3393
 5700SOL     OW28732   4.589   4.165   8.102 -0.2624  0.2309 -0.1236
 5700SOL    HW128733   4.573   4.214   8.021  2.5908  2.3821  0.6381
 5700SOL    HW228734   4.560   4.078   8.072 -0.5796 -0.2053  1.4617
 5701SOL     OW28735   2.340   0.304   3.929 -0.3969 -0.0798 -0.1166
 5701SOL    HW128736   2.344   0.212   3.957  1.8822 -0.1195 -0.6160
 5701SOL    HW228737   2.247   0.322   3.943 -0.2822  0.0423  0.4683
 5702SOL     OW28738   3.326   1.088   6.953 -0.0131 -0.4008  0.3250
 5702SOL    HW128739   3.358   1.177   6.942  0.7086 -0.7888 -0.6970
 5702SOL    HW228740   3.321   1.082   7.049 -0.7148 -0.5739  0.2766
 5703SOL     OW28741   4.077   0.173  10.432  0.2520 -1.0145 -0.0630
 5703SOL    HW128742   4.161   0.205  10.466 -0.5780  0.2100  0.8084
 5703SOL    HW228743   4.014   0.194  10.500 -0.5608 -1.3005 -0.7253
 5704SOL     OW28744   4.700   2.250   8.601  0.0784  0.3891 -0.1123
 5704SOL    HW128745   4.662   2.240   8.514  0.8573 -0.5668 -0.3494
 5704SOL    HW228746   0.026   2.174   8.602  1.9935  1.8984  1.7620
 5705SOL     OW28747   0.483   2.855   3.743  0.3891  0.5152  0.4319
 5705SOL    HW128748   0.574   2.878   3.724 -0.0463 -0.1349 -2.3302
 5705SOL    HW228749   0.483   2.893   3.831 -3.1501  0.8980  0.2478
 5706SOL     OW28750   2.605   1.843   3.558 -0.3439 -0.7470  0.0255
 5706SOL    HW128751   2.665   1.770   3.571  0.7733  0.1315 -0.2059
 5706SOL    HW228752   2.533   1.791   3.522 -3.4546  4.0553 -0.6739
 5707SOL     OW28753   0.887   4.142  10.307  0.6917 -0.4171 -0.4614
 5707SOL    HW128754   0.978   4.171  10.309  0.4833  0.2554 -0.7806
 5707SOL    HW228755   0.894   4.059  10.355  0.3024 -0.0309  0.2514
 5708SOL     OW28756   3.232   0.087   5.154 -0.1698  0.1656 -0.1048
 5708SOL    HW128757   3.202   4.730   5.165 -0.3028  0.0894 -1.0929
 5708SOL    HW228758   3.303   0.071   5.092 -0.9765 -0.6040 -0.8245
 5709SOL     OW28759   1.294   1.313   6.825 -0.0725  0.1327  0.6293
 5709SOL    HW128760   1.251   1.231   6.801 -0.0525  0.3976 -0.3343
 5709SOL    HW228761   1.249   1.342   6.903  0.7191 -0.2623  1.2376
 5710SOL     OW28762   4.502   4.445   4.059 -0.1450  0.1031  0.7015
 5710SOL    HW128763   4.592   4.417   4.073 -0.7156 -2.6341 -1.2114
 5710SOL    HW228764   4.505   4.522   4.003 -0.0130  1.5240  2.6336
 5711SOL     OW28765   1.835   1.158   5.728 -0.5565  0.1783  0.2019
 5711SOL    HW128766   1.799   1.232   5.679  0.4260 -1.3295 -2.7485
 5711SOL    HW228767   1.928   1.165   5.708 -0.4042 -3.7688 -0.3376
 5712SOL     OW28768   3.370   2.100  17.043  0.7004  0.2227  0.2964
 5712SOL    HW128769   3.433   2.031  17.025  1.0819  1.4290 -3.0735
 5712SOL    HW228770   3.318   2.066  17.115 -2.4509  0.7121 -1.7125
 5713SOL     OW28771   2.116   1.516  17.310 -0.4185  0.0536 -0.4103
 5713SOL    HW128772   2.131   1.431  17.351  2.1323  0.2269 -0.9784
 5713SOL    HW228773   2.104   1.573  17.386  0.4903  3.1483 -2.5781
 5714SOL     OW28774   3.869   0.021   9.129 -0.5000 -0.6732  0.9948
 5714SOL    HW128775   3.863   0.073   9.210 -0.3728  2.1698 -0.8390
 5714SOL    HW228776   3.807   0.071   9.077  0.1314 -0.1312  0.7678
 5715SOL     OW28777   1.755   1.779  16.025  0.5956  0.4608 -0.3094
 5715SOL    HW128778   1.736   1.751  15.936 -0.6471  1.4771 -0.3586
 5715SOL    HW228779   1.766   1.871  16.003 -0.9113  0.5310 -0.7860
 5716SOL     OW28780   3.765   2.765   7.583 -0.2213 -0.2288 -0.1354
 5716SOL    HW128781   3.813   2.709   7.644 -1.7450 -1.8317 -0.4028
 5716SOL    HW228782   3.679   2.752   7.624  0.2153  2.6817  1.7111
 5717SOL     OW28783   2.119   2.102   8.446 -0.2859  0.1096  0.5435
 5717SOL    HW128784   2.105   2.116   8.539  0.6813  2.6553  0.2994
 5717SOL    HW228785   2.042   2.052   8.420 -0.7499  0.9272  0.3356
 5718SOL     OW28786   1.396   0.682   5.877  0.1599 -0.2328 -0.1297
 5718SOL    HW128787   1.476   0.657   5.831  0.6843  0.2558  0.5189
 5718SOL    HW228788   1.365   0.591   5.870  2.2145 -1.0402  1.3194
 5719SOL     OW28789   3.071   1.137   6.534  0.1848 -0.2742  0.6764
 5719SOL    HW128790   3.080   1.093   6.619 -0.0477 -0.7115  0.4742
 5719SOL    HW228791   3.124   1.215   6.551 -2.1073  1.6109 -0.9983
 5720SOL     OW28792   0.779   0.080  10.892  0.0486 -0.4493 -0.1741
 5720SOL    HW128793   0.792   0.158  10.946 -0.1224 -1.6196  1.5433
 5720SOL    HW228794   0.687   0.092  10.870 -0.3136  0.3217  1.7931
 5721SOL     OW28795   3.831   3.047   7.997 -0.4138 -0.3022 -0.0615
 5721SOL    HW128796   3.797   2.999   8.072 -1.1051  0.8440  0.3618
 5721SOL    HW228797   3.906   2.988   7.994 -0.1650 -0.1121  2.1497
 5722SOL     OW28798   0.251   1.086   7.090  0.3528 -0.4647 -0.0192
 5722SOL    HW128799   0.332   1.045   7.059 -0.1696 -1.3211 -0.2300
 5722SOL    HW228800   0.295   1.145   7.151  0.9370 -1.6943  0.7566
 5723SOL     OW28801   4.514   3.571  14.735 -0.2952  0.1941 -0.0794
 5723SOL    HW128802   4.547   3.487  14.768 -0.4530 -0.3580 -1.3228
 5723SOL    HW228803   4.549   3.560  14.647 -1.0125  1.0310 -0.4737
 5724SOL     OW28804   2.189   1.820   8.375 -0.0321 -0.6402 -0.2984
 5724SOL    HW128805   2.211   1.911   8.394  1.8292 -1.1462 -0.0332
 5724SOL    HW228806   2.169   1.831   8.282  0.1448  1.2457 -0.1006
 5725SOL     OW28807   3.309   2.022   3.924 -0.4870 -0.0448  0.2250
 5725SOL    HW128808   3.355   1.985   3.999 -2.6873  0.0261  1.5951
 5725SOL    HW228809   3.225   2.039   3.965 -1.4032  0.3873 -1.8521
 5726SOL     OW28810   2.911   2.148   7.106 -0.4284  0.5164  0.2083
 5726SOL    HW128811   2.923   2.223   7.049  2.2743  0.0738  0.2289
 5726SOL    HW228812   2.929   2.084   7.037 -1.1190 -0.6812  1.1156
 5727SOL     OW28813   2.978   4.520   8.274  0.0017  0.0236  0.3892
 5727SOL    HW128814   2.960   4.582   8.203 -0.3912  0.5919  0.9840
 5727SOL    HW228815   3.047   4.463   8.240  0.3956  0.6706  0.0884
 5728SOL     OW28816   0.405   0.225   6.709 -0.4612  0.3525 -0.1372
 5728SOL    HW128817   0.366   0.141   6.687 -0.9184  0.4511  0.2846
 5728SOL    HW228818   0.492   0.194   6.733 -0.0618  0.3646 -1.6300
 5729SOL     OW28819   4.178   3.735   7.663 -0.1438  0.0489  0.4259
 5729SOL    HW128820   4.202   3.653   7.706  0.0452 -1.0133 -1.6758
 5729SOL    HW228821   4.090   3.743   7.699 -0.0273  2.0571  0.2580
 5730SOL     OW28822   2.257   0.335   2.429  0.0934 -0.2637 -0.3674
 5730SOL    HW128823   2.181   0.278   2.439 -0.5246  0.8813  1.4123
 5730SOL    HW228824   2.327   0.283   2.468  0.1877 -1.0370 -1.5614
 5731SOL     OW28825   4.555   2.476   3.975 -0.5614 -0.1219 -0.4616
 5731SOL    HW128826   4.622   2.497   3.910 -0.3062  1.0249  0.1611
 5731SOL    HW228827   4.498   2.412   3.933  0.2383 -0.7639 -0.5604
 5732SOL     OW28828   3.238   3.260   7.865  0.2825  0.0448  0.7609
 5732SOL    HW128829   3.144   3.276   7.854  0.3222 -0.2838 -0.0375
 5732SOL    HW228830   3.247   3.169   7.838  1.5636 -0.1369  1.7943
 5733SOL     OW28831   3.697   1.486   4.496 -0.0064  0.2345  0.3043
 5733SOL    HW128832   3.625   1.536   4.533  0.3397  1.8088 -1.1501
 5733SOL    HW228833   3.766   1.530   4.546  0.5089  1.6695 -1.6767
 5734SOL     OW28834   0.810   3.250   2.823 -0.4589 -0.5974 -0.2553
 5734SOL    HW128835   0.783   3.296   2.902 -2.8024 -0.7017 -1.0177
 5734SOL    HW228836   0.825   3.161   2.855 -0.5408 -0.4827  0.0999
 5735SOL     OW28837   4.060   2.949  13.331 -0.2542  0.0094  0.6038
 5735SOL    HW128838   3.978   2.905  13.349  1.0428 -1.4225  3.0192
 5735SOL    HW228839   4.091   2.891  13.262 -0.8569 -1.3315  1.4624
 5736SOL     OW28840   3.935   2.357   1.240  0.3137 -0.1623 -0.0211
 5736SOL    HW128841   3.853   2.345   1.290  0.1149  0.1463 -0.2762
 5736SOL    HW228842   3.948   2.267   1.211 -0.4063  0.1796 -1.4005
 5737SOL     OW28843   4.503   0.439  16.628 -0.2249  0.3043  0.1499
 5737SOL    HW128844   4.479   0.504  16.694 -0.0917  2.9754 -2.3870
 5737SOL    HW228845   4.516   0.364  16.686  0.9224  0.4740  0.1107
 5738SOL     OW28846   4.395   3.658   7.455 -0.0700  0.2017 -0.2292
 5738SOL    HW128847   4.419   3.723   7.521 -2.9488  1.0682 -0.0086
 5738SOL    HW228848   4.306   3.693   7.441 -0.4263 -0.1811  1.1438
 5739SOL     OW28849   1.869   1.630  12.625  0.6030 -0.6201  0.5409
 5739SOL    HW128850   1.951   1.586  12.647  1.0391  0.6424  1.4629
 5739SOL    HW228851   1.908   1.717  12.623 -1.3237  0.2265 -0.1261
 5740SOL     OW28852   1.140   0.607   1.517 -0.0813  0.6531 -0.5550
 5740SOL    HW128853   1.101   0.602   1.605 -1.7012  0.5983 -1.2762
 5740SOL    HW228854   1.183   0.691   1.533 -0.4519  0.6014  0.7470
 5741SOL     OW28855   2.531   0.431   4.642 -0.3516  0.0104 -0.0342
 5741SOL    HW128856   2.453   0.384   4.611 -0.5463  0.5479 -0.3660
 5741SOL    HW228857   2.484   0.510   4.615  0.9965  1.8322  3.0240
 5742SOL     OW28858   2.931   2.527   1.389  0.5366 -0.1700 -0.0835
 5742SOL    HW128859   2.973   2.583   1.455 -0.3988 -0.5989  0.8709
 5742SOL    HW228860   2.999   2.462   1.375  2.4629  1.6616  0.8745
 5743SOL     OW28861   1.756   1.622  10.606  0.4225 -0.2897 -0.1954
 5743SOL    HW128862   1.770   1.615  10.700 -0.3719  1.1425  0.0228
 5743SOL    HW228863   1.786   1.540  10.565 -0.5394  0.3706 -2.2136
 5744SOL     OW28864   2.784   3.848  14.101 -0.1060  0.2852 -0.4783
 5744SOL    HW128865   2.697   3.811  14.089 -0.1569 -0.4752  2.1688
 5744SOL    HW228866   2.770   3.905  14.177 -0.0409 -0.8887  0.4141
 5745SOL     OW28867   0.049   2.408   9.421 -0.2870  0.5073 -0.0254
 5745SOL    HW128868   0.079   2.447   9.339  2.4593  0.6811  1.0536
 5745SOL    HW228869   4.690   2.398   9.399 -0.1826 -1.4944  0.5390
 5746SOL     OW28870   1.330   4.021  11.346  0.3878 -0.2827 -0.3889
 5746SOL    HW128871   1.415   4.064  11.336  1.6203 -1.9346  2.7443
 5746SOL    HW228872   1.347   3.937  11.303  1.0812 -0.4245  0.1618
 5747SOL     OW28873   0.096   3.360   5.263  0.0394  0.2250 -0.1125
 5747SOL    HW128874   0.005   3.353   5.291  0.5823  1.3272  1.9259
 5747SOL    HW228875   0.096   3.425   5.193  0.2218  0.3006 -0.0423
 5748SOL     OW28876   0.438   2.490   6.883 -0.4236  0.6982  0.1065
 5748SOL    HW128877   0.376   2.536   6.940 -2.2211  0.6758 -1.8571
 5748SOL    HW228878   0.384   2.446   6.818  1.3123  2.9895 -2.8606
 5749SOL     OW28879   2.435   4.357  16.642  0.1655 -0.2233 -0.3227
 5749SOL    HW128880   2.529   4.358  16.658 -0.0363 -0.0098  0.8792
 5749SOL    HW228881   2.429   4.400  16.556 -0.0208 -1.3114 -0.8486
 5750SOL     OW28882   1.923   2.713   6.188 -0.0024  0.0489  0.4659
 5750SOL    HW128883   1.881   2.628   6.180  2.3491 -1.3498  2.9673
 5750SOL    HW228884   1.908   2.742   6.098  0.2576  0.3966  0.5325
 5751SOL     OW28885   3.551   3.995   4.923 -0.4831  0.1062  0.3459
 5751SOL    HW128886   3.535   4.089   4.919  0.0011  0.1039 -1.7913
 5751SOL    HW228887   3.600   3.990   5.006 -2.4606  1.9323  1.6083
 5752SOL     OW28888   0.774   1.581   4.972  0.2594 -0.0300  0.5342
 5752SOL    HW128889   0.811   1.544   4.892 -2.5195  2.1087 -1.7502
 5752SOL    HW228890   0.847   1.563   5.031  1.9035  0.8205 -1.2563
 5753SOL     OW28891   2.834   4.466   2.465  0.7206  0.4288 -0.2095
 5753SOL    HW128892   2.911   4.523   2.472  0.0788  1.2429  0.1580
 5753SOL    HW228893   2.843   4.412   2.543  2.1752  0.7932 -0.1264
 5754SOL     OW28894   4.182   2.483   4.930 -0.0109  0.1131 -0.7237
 5754SOL    HW128895   4.145   2.483   4.841 -0.5596 -0.7019 -0.4977
 5754SOL    HW228896   4.154   2.572   4.951 -0.7858 -0.2674 -0.1589
 5755SOL     OW28897   1.371   3.880   3.011  0.1998 -0.3613  0.4222
 5755SOL    HW128898   1.359   3.812   2.944  0.0296  2.3622 -2.3221
 5755SOL    HW228899   1.455   3.854   3.050  0.7263  0.3152 -0.2579
 5756SOL     OW28900   4.524   3.262   4.457  0.3151  0.2969  0.0774
 5756SOL    HW128901   4.513   3.236   4.366  1.1568 -0.4630  0.1884
 5756SOL    HW228902   4.458   3.331   4.457  0.7250  0.6938 -0.2576
 5757SOL     OW28903   1.771   0.664  10.200 -0.4894  0.1817  0.1781
 5757SOL    HW128904   1.829   0.672  10.124  0.5731 -1.2613  0.8474
 5757SOL    HW228905   1.716   0.740  10.181  1.6655  2.1279  1.7889
 5758SOL     OW28906   4.528   0.314  12.222 -0.7195  0.4483  0.0480
 5758SOL    HW128907   4.482   0.393  12.251  1.4802  1.1501  1.6407
 5758SOL    HW228908   4.534   0.267  12.306  0.5610 -0.8924 -0.8023
 5759SOL     OW28909   2.881   2.469   8.794  0.0158 -0.4285  0.5930
 5759SOL    HW128910   2.789   2.442   8.784 -0.7270  1.2456  2.7716
 5759SOL    HW228911   2.873   2.564   8.785 -2.8796 -0.6657  0.4077
 5760SOL     OW28912   0.972   4.168   1.385  0.3270 -0.1900 -0.7384
 5760SOL    HW128913   0.886   4.127   1.380 -0.3694  1.6324 -3.7289
 5760SOL    HW228914   0.958   4.249   1.337 -1.9196 -0.0313  0.1799
 5761SOL     OW28915   1.654   3.099  12.304 -0.0095 -0.6568  0.3604
 5761SOL    HW128916   1.580   3.142  12.262 -0.2304 -0.5254  0.8810
 5761SOL    HW228917   1.720   3.099  12.235 -1.8671 -0.0973 -1.4088
 5762SOL     OW28918   0.014   1.525   2.931 -0.5153 -0.3581  0.6821
 5762SOL    HW128919   4.731   1.438   2.967  0.3546 -1.2125 -0.9996
 5762SOL    HW228920   4.676   1.576   2.969 -0.1987  1.4490 -1.1321
 5763SOL     OW28921   1.577   1.301   5.827  0.6369  0.3542 -0.3384
 5763SOL    HW128922   1.506   1.238   5.823  0.2640  0.5692  3.2433
 5763SOL    HW228923   1.646   1.250   5.784  0.0452 -0.3152 -0.4851
 5764SOL     OW28924   0.548   4.651  16.230  0.1775  0.1215 -0.0212
 5764SOL    HW128925   0.531   4.701  16.150  1.7091 -0.0572 -0.4499
 5764SOL    HW228926   0.616   4.591  16.200  1.4351  1.5489 -0.0194
 5765SOL     OW28927   3.452   1.596  16.366  0.1767 -0.0991 -0.6186
 5765SOL    HW128928   3.482   1.670  16.420 -1.0921  0.2595 -0.4038
 5765SOL    HW228929   3.405   1.648  16.301 -0.1677  1.2071  0.6803
 5766SOL     OW28930   2.996   1.134  17.418  0.5643 -0.0371  0.4463
 5766SOL    HW128931   3.090   1.154  17.422  0.5918  0.5753 -2.8720
 5766SOL    HW228932   2.962   1.172  17.499  0.2984  1.9134 -0.5663
 5767SOL     OW28933   2.955   4.093   3.447 -0.3513 -0.5687 -0.2019
 5767SOL    HW128934   2.916   4.176   3.473 -0.4317 -0.0292 -2.0828
 5767SOL    HW228935   2.987   4.110   3.359  2.3782  0.3915  0.9767
 5768SOL     OW28936   0.208   3.417   2.709  0.2629 -0.4238 -0.5191
 5768SOL    HW128937   0.218   3.343   2.648 -1.3034 -0.5695 -0.6050
 5768SOL    HW228938   0.114   3.435   2.698  0.3190 -0.2502 -0.7172
 5769SOL     OW28939   1.471   3.415   4.272 -0.5006 -0.2102 -0.5133
 5769SOL    HW128940   1.540   3.479   4.255 -0.9163 -0.1631 -2.0348
 5769SOL    HW228941   1.519   3.336   4.249  0.4475  0.7354 -1.7972
 5770SOL     OW28942   4.393   2.867   8.183 -0.1288  0.2311 -0.2621
 5770SOL    HW128943   4.327   2.798   8.174 -0.5739  0.8618 -1.7467
 5770SOL    HW228944   4.442   2.860   8.102  1.8840 -1.0738  1.0787
 5771SOL     OW28945   2.565   0.373   3.521  0.0075  0.5254  0.0068
 5771SOL    HW128946   2.473   0.396   3.532  0.1513  1.4278 -0.6732
 5771SOL    HW228947   2.552   0.283   3.491  0.8989 -0.0137  1.2723
 5772SOL     OW28948   1.801   1.243   4.543 -0.5669 -1.4272  0.2880
 5772SOL    HW128949   1.780   1.219   4.634 -0.3424  0.3787  0.8047
 5772SOL    HW228950   1.715   1.274   4.513 -0.6843 -0.2756  1.8107
 5773SOL     OW28951   4.562   0.567   9.391 -0.6103 -0.7638  0.5422
 5773SOL    HW128952   4.657   0.553   9.392 -0.2701  1.6517 -0.3320
 5773SOL    HW228953   4.529   0.484   9.355 -2.0602 -0.7037  1.7227
 5774SOL     OW28954   4.010   3.158  13.500 -0.3927  0.2590  0.0933
 5774SOL    HW128955   4.031   3.084  13.443  0.9135  0.6116  0.1043
 5774SOL    HW228956   4.078   3.223  13.482 -1.1035  0.3098 -2.3948
 5775SOL     OW28957   4.269   0.283   1.591 -0.2324  0.1998 -0.2902
 5775SOL    HW128958   4.174   0.273   1.600 -0.2394  1.5861  1.0750
 5775SOL    HW228959   4.269   0.329   1.506 -0.6099  1.5835  0.4581
 5776SOL     OW28960   3.828   2.495   5.757  0.1479 -0.4902 -0.4393
 5776SOL    HW128961   3.915   2.496   5.798 -0.9076 -0.1372  1.8231
 5776SOL    HW228962   3.803   2.403   5.750  1.4583 -0.8487 -0.3338
 5777SOL     OW28963   0.577   0.202  16.635 -0.3457 -0.7060 -0.0042
 5777SOL    HW128964   0.523   0.219  16.558 -2.4945  2.8988  2.2970
 5777SOL    HW228965   0.624   0.285  16.648 -2.4011  0.7114 -1.5754
 5778SOL     OW28966   1.667   1.493   2.780 -0.1607 -0.0860  0.0522
 5778SOL    HW128967   1.687   1.557   2.712  2.6786 -0.4888  0.4980
 5778SOL    HW228968   1.602   1.540   2.833 -0.6078 -0.4523 -0.1718
 5779SOL     OW28969   4.497   2.471   2.727 -0.2924 -0.3337  0.5661
 5779SOL    HW128970   4.430   2.497   2.664  0.0822  2.0388  1.1410
 5779SOL    HW228971   4.488   2.526   2.805  1.4785  0.9954 -0.1616
 5780SOL     OW28972   3.736   0.796   6.391 -0.0732  0.2768 -0.1357
 5780SOL    HW128973   3.705   0.862   6.330 -0.8128 -0.0480 -0.1132
 5780SOL    HW228974   3.669   0.728   6.387  0.4166 -0.1984 -0.4352
 5781SOL     OW28975   2.131   1.061  15.996  0.0901  0.5923 -0.3337
 5781SOL    HW128976   2.217   1.057  15.953  0.1128 -2.9721  0.1053
 5781SOL    HW228977   2.137   0.991  16.061  0.4021  0.5176 -0.4400
 5782SOL     OW28978   2.884   2.240   9.502 -0.3270 -0.0481 -0.0560
 5782SOL    HW128979   2.792   2.258   9.522 -0.7964 -1.7358 -0.7268
 5782SOL    HW228980   2.945   2.292   9.556  0.3658  1.2316 -2.0723
 5783SOL     OW28981   3.717   4.657   8.201 -0.2738 -0.6951 -0.7547
 5783SOL    HW128982   3.657   4.644   8.275 -0.2518  3.1602 -0.0489
 5783SOL    HW228983   3.784   4.595   8.231 -1.4870 -1.4987  0.2969
 5784SOL     OW28984   1.717   4.218   0.129  0.0904  0.1697 -0.0067
 5784SOL    HW128985   1.665   4.266   0.064 -0.7533  0.7108  1.0636
 5784SOL    HW228986   1.739   4.149   0.066  1.1667  0.0369  0.5329
 5785SOL     OW28987   3.030   0.483   4.681  0.4576 -0.1664  0.2974
 5785SOL    HW128988   2.960   0.418   4.682 -0.6412  1.0454  1.5926
 5785SOL    HW228989   3.009   0.532   4.601 -0.1866  1.0162  1.1826
 5786SOL     OW28990   4.605   2.292  14.953 -0.1729  0.4253  0.0260
 5786SOL    HW128991   4.690   2.263  14.986 -0.3053 -1.2873 -1.1418
 5786SOL    HW228992   4.612   2.385  14.973  0.5039  0.6194 -1.0908
 5787SOL     OW28993   1.173   3.553   6.888 -0.1394 -0.0450 -0.1043
 5787SOL    HW128994   1.163   3.618   6.957 -0.6953 -0.7144  0.4581
 5787SOL    HW228995   1.147   3.602   6.810  1.2820  0.4822 -0.2380
 5788SOL     OW28996   4.239   4.673  12.503 -0.0343 -0.1592  0.0782
 5788SOL    HW128997   4.332   4.654  12.518  0.2177  1.6649  0.8709
 5788SOL    HW228998   4.242   0.004  12.432  0.6507  0.8307  1.0006
 5789SOL     OW28999   1.225   3.104   8.624 -0.1451 -0.0690 -0.3320
 5789SOL    HW129000   1.216   3.089   8.530  2.3046  0.4009 -0.6467
 5789SOL    HW229001   1.294   3.170   8.618  0.5302 -0.7856 -0.5441
 5790SOL     OW29002   4.667   3.010   6.616  0.7296 -0.2191 -0.6213
 5790SOL    HW129003   4.600   3.042   6.677  1.1567  1.6972 -1.1557
 5790SOL    HW229004   4.670   2.915   6.625 -1.0103 -0.1243  0.8213
 5791SOL     OW29005   3.383   1.529   4.879  0.3840  0.2913  0.3972
 5791SOL    HW129006   3.373   1.458   4.815  1.3572 -0.0812  0.6550
 5791SOL    HW229007   3.298   1.572   4.882 -0.3593 -0.9797 -2.5022
 5792SOL     OW29008   4.120   3.650   4.235 -0.3207  0.4617 -0.2889
 5792SOL    HW129009   4.099   3.584   4.169  0.9606  2.5112 -2.7606
 5792SOL    HW229010   4.211   3.667   4.212  0.3285  1.0460  2.6340
 5793SOL     OW29011   3.921   4.477   4.635  0.6627  0.4019  0.0221
 5793SOL    HW129012   3.848   4.533   4.661  0.5798 -0.2663  1.2511
 5793SOL    HW229013   3.998   4.533   4.629  0.6189  0.4016 -0.4992
 5794SOL     OW29014   0.437   0.117   8.736  0.5558  0.5338 -0.6102
 5794SOL    HW129015   0.391   0.049   8.686 -0.7768  1.4405 -0.6164
 5794SOL    HW229016   0.358   0.159   8.772  0.8574 -0.7099  1.4586
 5795SOL     OW29017   1.608   1.024   2.392 -0.4547  0.0406 -0.0964
 5795SOL    HW129018   1.533   1.078   2.369  0.6248  0.8337 -1.7279
 5795SOL    HW229019   1.646   1.069   2.468  3.2096 -3.2770  0.0530
 5796SOL     OW29020   1.336   4.629   7.185 -0.3823 -0.0275 -0.9706
 5796SOL    HW129021   1.266   4.575   7.149  0.3530 -2.4758  1.2992
 5796SOL    HW229022   1.407   4.569   7.206 -1.1417 -0.3116  0.7843
 5797SOL     OW29023   4.590   0.320   8.411  0.5085 -0.0234  0.0025
 5797SOL    HW129024   4.504   0.355   8.437 -0.6984 -0.6228 -3.1618
 5797SOL    HW229025   4.642   0.400   8.403 -0.9941  0.9259 -0.2676
 5798SOL     OW29026   1.782   0.481   0.999 -0.7716  0.5993  0.5257
 5798SOL    HW129027   1.760   0.483   0.906 -0.2048 -2.5324  0.3123
 5798SOL    HW229028   1.874   0.507   1.006 -0.4734 -0.6655  1.3921
 5799SOL     OW29029   1.292   3.077   4.763  0.1829  0.2787  0.2252
 5799SOL    HW129030   1.203   3.106   4.785 -0.3813 -1.1102 -0.1953
 5799SOL    HW229031   1.355   3.123   4.818  2.6033 -2.2063 -0.4972
 5800SOL     OW29032   4.053   3.115   5.203  0.0543 -0.0936  1.0672
 5800SOL    HW129033   4.033   3.206   5.180  0.0370  0.0670  1.7282
 5800SOL    HW229034   3.978   3.068   5.165 -0.2439 -0.3656  1.9974
 5801SOL     OW29035   1.560   2.063  16.948  0.7297 -0.1674 -0.4229
 5801SOL    HW129036   1.548   1.975  16.914 -1.0483  0.5140 -1.5378
 5801SOL    HW229037   1.646   2.093  16.918  1.5797 -1.4420  0.7244
 5802SOL     OW29038   4.205   3.018  14.632  0.7628  0.1352 -0.3176
 5802SOL    HW129039   4.298   2.999  14.621  0.3416 -1.6988 -0.7600
 5802SOL    HW229040   4.210   3.113  14.635  0.3579  0.2011 -1.7817
 5803SOL     OW29041   0.983   0.774   0.413  0.1878 -0.6429  0.2607
 5803SOL    HW129042   0.888   0.775   0.424 -0.0531 -2.1027 -1.6273
 5803SOL    HW229043   1.007   0.723   0.490 -1.0336 -0.1980  0.9482
 5804SOL     OW29044   2.284   3.486   8.217 -0.3003 -0.6223  0.6724
 5804SOL    HW129045   2.269   3.481   8.123 -0.3330 -0.2539  0.6572
 5804SOL    HW229046   2.191   3.493   8.237 -0.2840  0.9135  0.1654
 5805SOL     OW29047   4.205   3.220   9.455 -0.1685  0.1787 -0.5491
 5805SOL    HW129048   4.299   3.232   9.437 -0.2345  2.2806  0.6162
 5805SOL    HW229049   4.180   3.199   9.365  1.3339  0.1794 -0.9728
 5806SOL     OW29050   0.670   2.786  11.646 -0.6346  0.6181 -0.1112
 5806SOL    HW129051   0.701   2.862  11.596 -0.4406 -1.2849 -2.9014
 5806SOL    HW229052   0.710   2.805  11.730 -2.0774  0.3244  0.6361
 5807SOL     OW29053   2.723   2.993   3.512 -0.2592  0.2498  0.1369
 5807SOL    HW129054   2.742   3.049   3.437 -0.1413  1.2950  0.9453
 5807SOL    HW229055   2.738   3.056   3.583  0.6809  3.0370 -2.5812
 5808SOL     OW29056   4.615   3.147   6.361 -0.1803 -0.5753 -0.1247
 5808SOL    HW129057   4.641   3.123   6.450 -0.3041 -0.2044  0.0092
 5808SOL    HW229058   4.675   3.221   6.348  1.5045 -2.0138 -0.5777
 5809SOL     OW29059   1.802   2.548  12.236  0.4588 -0.0445  0.3296
 5809SOL    HW129060   1.797   2.628  12.288 -0.6224 -1.2962  2.1996
 5809SOL    HW229061   1.862   2.489  12.282 -0.6579 -0.5016  1.2009
 5810SOL     OW29062   0.797   1.719  17.372  0.0908  0.3559  0.3861
 5810SOL    HW129063   0.712   1.737  17.332 -0.0234 -1.5072 -0.2076
 5810SOL    HW229064   0.808   1.627  17.346  3.1963  0.4848  1.2238
 5811SOL     OW29065   4.209   1.867   2.726  0.0551 -0.6704 -0.3406
 5811SOL    HW129066   4.126   1.885   2.681 -0.0879 -1.6675 -0.4597
 5811SOL    HW229067   4.206   1.940   2.788  0.8268  0.5500 -1.7201
 5812SOL     OW29068   4.493   0.955  15.818  0.0789 -0.6813  0.2449
 5812SOL    HW129069   4.399   0.945  15.835 -0.0587  0.8554  0.3914
 5812SOL    HW229070   4.510   0.865  15.792  1.0797 -0.7363  1.0831
 5813SOL     OW29071   2.867   4.519  11.039 -0.5414  0.3423 -0.2095
 5813SOL    HW129072   2.866   4.528  11.134 -0.6240 -3.1978  0.1233
 5813SOL    HW229073   2.958   4.531  11.014  0.4925 -1.6600  2.5727
 5814SOL     OW29074   4.378   2.135   1.370  1.0025  0.3942  0.2128
 5814SOL    HW129075   4.332   2.201   1.317  0.0003 -2.1810 -2.0906
 5814SOL    HW229076   4.406   2.178   1.451 -2.2471 -1.0283  2.0381
 5815SOL     OW29077   1.081   3.682  14.306 -0.2257  0.5009  0.4615
 5815SOL    HW129078   1.099   3.771  14.275  2.3788  0.5504  2.1442
 5815SOL    HW229079   0.988   3.686  14.331 -0.5630  0.1135 -0.7329
 5816SOL     OW29080   0.344   0.114   1.192  0.0342 -0.4908 -0.2822
 5816SOL    HW129081   0.406   0.170   1.144  0.1987 -1.3995 -1.1475
 5816SOL    HW229082   0.318   0.052   1.124 -0.2824  0.2455 -0.8408
 5817SOL     OW29083   3.049   2.093   1.918  0.7305  0.3435  0.1589
 5817SOL    HW129084   3.135   2.062   1.945  0.0332 -1.2459  0.5983
 5817SOL    HW229085   2.990   2.038   1.971  0.9262  1.2002  1.2672
 5818SOL     OW29086   4.041   3.760   4.939 -0.1201 -0.2242 -0.2571
 5818SOL    HW129087   4.044   3.753   5.034  1.6335 -2.2460 -0.4401
 5818SOL    HW229088   3.960   3.807   4.921  1.1485  1.8632 -0.5109
 5819SOL     OW29089   0.567   1.576   7.379 -0.5432  0.1416 -0.1552
 5819SOL    HW129090   0.499   1.618   7.432 -1.6079  1.1135 -2.2905
 5819SOL    HW229091   0.549   1.601   7.288 -2.2672 -1.4721 -0.2392
 5820SOL     OW29092   0.265   0.969  10.564 -0.0222  0.0811 -0.0002
 5820SOL    HW129093   0.176   0.948  10.536  1.1722 -1.8693 -2.4243
 5820SOL    HW229094   0.284   1.030  10.492  1.0997  0.5787  0.7190
 5821SOL     OW29095   1.453   1.628  12.572 -0.1278 -0.1354 -0.0657
 5821SOL    HW129096   1.520   1.592  12.631  2.5637  3.0840 -1.1315
 5821SOL    HW229097   1.501   1.687  12.514  0.8450  0.2957  1.1721
 5822SOL     OW29098   3.376   4.359  14.986  0.3576  0.0712 -0.2180
 5822SOL    HW129099   3.428   4.419  14.934  1.1038  0.4110  0.9278
 5822SOL    HW229100   3.433   4.283  14.972  1.5314  0.6518  1.3888
 5823SOL     OW29101   4.488   2.956   2.564 -0.0835  0.3094  0.2102
 5823SOL    HW129102   4.446   2.917   2.488 -0.7232 -0.0825  0.7630
 5823SOL    HW229103   4.577   2.921   2.561  0.5822  2.0434 -0.8208
 5824SOL     OW29104   0.402   0.669  16.292  0.3612 -0.2357  0.3687
 5824SOL    HW129105   0.369   0.618  16.366  1.4774  0.5433  1.4103
 5824SOL    HW229106   0.323   0.708  16.254 -0.4714  0.1714  2.5117
 5825SOL     OW29107   1.880   2.889   7.166  0.2059 -0.1788 -0.4791
 5825SOL    HW129108   1.881   2.875   7.261 -1.4453  1.8612 -0.1676
 5825SOL    HW229109   1.817   2.960   7.169 -1.1803 -1.4688  1.0904
 5826SOL     OW29110   0.570   0.771   6.192 -0.0695  0.1222  0.0032
 5826SOL    HW129111   0.523   0.829   6.133  0.0948 -0.1135 -0.3579
 5826SOL    HW229112   0.660   0.794   6.172  0.0465 -0.8603 -0.5912
 5827SOL     OW29113   2.606   0.443  11.766 -0.1689 -0.9211 -0.1817
 5827SOL    HW129114   2.571   0.360  11.800 -2.4661  0.1594  0.1107
 5827SOL    HW229115   2.544   0.511  11.793  1.0643  0.2245 -0.2662
 5828SOL     OW29116   4.287   2.992   3.421 -0.2429  0.1304 -0.3061
 5828SOL    HW129117   4.292   2.960   3.331  0.5734 -0.7650  0.0643
 5828SOL    HW229118   4.275   2.912   3.472  1.4359  0.2592  0.3086
 5829SOL     OW29119   3.519   0.908   6.918 -0.1736  0.3533 -0.5369
 5829SOL    HW129120   3.513   0.886   6.825 -1.2237 -1.7947  0.0522
 5829SOL    HW229121   3.444   0.968   6.918  1.8482  2.8653  0.9876
 5830SOL     OW29122   4.009   1.127   7.614 -0.3773  0.1862  0.2538
 5830SOL    HW129123   4.004   1.041   7.655 -1.2530 -0.5561 -1.4595
 5830SOL    HW229124   4.017   1.186   7.690 -1.2311  1.2771 -0.4932
 5831SOL     OW29125   4.493   4.555   3.096  0.0873  0.1034 -0.2411
 5831SOL    HW129126   4.431   4.584   3.163  0.0771 -1.0915  0.2716
 5831SOL    HW229127   4.578   4.555   3.140  1.8581  0.6852 -3.6165
 5832SOL     OW29128   3.336   3.839   6.896  0.2983  0.5650 -0.0945
 5832SOL    HW129129   3.321   3.747   6.919  1.3613 -0.1289 -2.1363
 5832SOL    HW229130   3.353   3.877   6.982  0.8321  1.8873 -0.7900
 5833SOL     OW29131   0.403   3.919   9.028  0.1731 -0.0683  0.1246
 5833SOL    HW129132   0.425   3.836   9.069  0.1829  0.3108  0.8712
 5833SOL    HW229133   0.308   3.911   9.039 -0.0488  0.7477 -1.1096
 5834SOL     OW29134   0.943   4.127   4.028 -0.8775 -0.3371 -0.3630
 5834SOL    HW129135   0.955   4.034   4.048 -1.0655 -0.4003 -0.5402
 5834SOL    HW229136   0.879   4.124   3.957  1.8416 -0.8214 -2.7597
 5835SOL     OW29137   1.073   2.825   8.869 -0.8171 -0.0121 -0.0460
 5835SOL    HW129138   1.024   2.832   8.787 -1.1843  3.0069  0.4114
 5835SOL    HW229139   1.071   2.916   8.898  0.5702 -0.1513  0.5115
 5836SOL     OW29140   4.098   0.818   5.452 -0.2368  0.5836  0.0802
 5836SOL    HW129141   4.012   0.843   5.418 -0.5167  0.0740  0.4058
 5836SOL    HW229142   4.107   0.888   5.517  1.1047  0.7772 -0.3236
 5837SOL     OW29143   2.450   4.363  13.351  0.1299 -0.0588  0.3615
 5837SOL    HW129144   2.454   4.422  13.426 -2.0216  1.8156 -1.0020
 5837SOL    HW229145   2.398   4.290  13.382  0.0893  0.1203  0.7099
 5838SOL     OW29146   4.695   4.662   9.909  0.2302 -0.2176 -0.2702
 5838SOL    HW129147   4.611   4.617   9.917 -0.2044  0.6237 -0.2129
 5838SOL    HW229148   0.011   4.633   9.986 -1.5583  0.0651  0.9474
 5839SOL     OW29149   1.872   2.390   8.604 -0.2420 -0.0276 -0.1733
 5839SOL    HW129150   1.785   2.373   8.639 -0.3007  0.9514  0.1397
 5839SOL    HW229151   1.923   2.313   8.630  0.8889  1.4984  2.1134
 5840SOL     OW29152   0.091   0.727   4.805 -0.2863  0.0839  0.3904
 5840SOL    HW129153   0.122   0.667   4.873  1.7161  0.5618 -0.1169
 5840SOL    HW229154   0.008   0.688   4.774 -0.0094  0.5010 -0.8688
 5841SOL     OW29155   3.213   0.428   2.103  0.2075  0.1417 -0.0811
 5841SOL    HW129156   3.213   0.474   2.020 -0.8078 -0.7894 -0.6028
 5841SOL    HW229157   3.128   0.457   2.136  0.3350 -0.0516  0.4305
 5842SOL     OW29158   4.004   1.661  11.517 -0.0243 -0.3820 -0.0336
 5842SOL    HW129159   3.995   1.750  11.482  0.4999  0.1403  1.1331
 5842SOL    HW229160   3.916   1.635  11.542  0.3335  0.7073  2.4810
 5843SOL     OW29161   2.626   4.042   4.223  0.0692 -0.2705 -0.5252
 5843SOL    HW129162   2.666   4.066   4.139 -2.4270 -0.3130 -1.7316
 5843SOL    HW229163   2.531   4.046   4.214  0.0814 -0.6055 -0.8349
 5844SOL     OW29164   4.577   4.721   6.732 -0.3768 -0.2459  0.0006
 5844SOL    HW129165   4.567   0.027   6.819  0.8278 -1.5785  0.7276
 5844SOL    HW229166   4.509   0.029   6.678  0.3475  1.2076  0.1920
 5845SOL     OW29167   4.247   1.075   9.345 -0.1722  0.1365  0.2596
 5845SOL    HW129168   4.240   1.150   9.286 -1.4663 -0.0476  0.1717
 5845SOL    HW229169   4.319   1.101   9.402  1.0854 -2.2212 -0.2448
 5846SOL     OW29170   2.403   0.488   2.769 -0.0192  0.6477  0.6390
 5846SOL    HW129171   2.325   0.459   2.816 -1.1271  2.3587 -0.1446
 5846SOL    HW229172   2.431   0.425   2.703 -0.8566  1.9388 -0.9442
 5847SOL     OW29173   3.528   1.800   8.414 -0.1316  0.4221 -0.0459
 5847SOL    HW129174   3.454   1.801   8.474  0.2278  1.3691  0.3971
 5847SOL    HW229175   3.570   1.886   8.413  1.8710 -0.5270  3.4252
 5848SOL     OW29176   1.892   2.535   4.265 -0.0051  0.5197  0.0308
 5848SOL    HW129177   1.953   2.469   4.298  0.5448  0.7968 -0.4212
 5848SOL    HW229178   1.879   2.501   4.176 -0.0985 -1.7668  0.9184
 5849SOL     OW29179   1.536   1.498   4.558 -0.3512 -0.1908  0.2844
 5849SOL    HW129180   1.601   1.552   4.512 -0.3527 -1.5242 -1.2911
 5849SOL    HW229181   1.533   1.427   4.494  1.1546  0.4844 -0.5481
 5850SOL     OW29182   2.408   0.074   5.952 -0.1836  0.1550  0.2642
 5850SOL    HW129183   2.363   0.009   5.897 -0.2592 -0.1790  0.7256
 5850SOL    HW229184   2.388   0.034   6.036 -1.3013  0.4653  0.1428
 5851SOL     OW29185   3.099   0.322  15.467  0.4870  0.1841 -0.2272
 5851SOL    HW129186   3.127   0.253  15.406  1.1752  0.1335  0.1499
 5851SOL    HW229187   3.186   0.359  15.486  1.6083 -1.7062 -1.5987
 5852SOL     OW29188   1.938   4.380   0.193  0.3639  0.2403 -0.2677
 5852SOL    HW129189   1.857   4.336   0.168  1.6265 -2.5969  0.5614
 5852SOL    HW229190   1.986   4.307   0.231  0.9642 -0.4743 -2.3936
 5853SOL     OW29191   2.377   0.163  15.532 -0.5136 -0.5623  0.1859
 5853SOL    HW129192   2.292   0.178  15.491 -1.3960  1.1884  2.6524
 5853SOL    HW229193   2.422   0.107  15.469 -0.3533  0.9880 -1.0837
 5854SOL     OW29194   4.372   0.416  11.275  0.0059  0.1250 -0.1901
 5854SOL    HW129195   4.368   0.426  11.180  0.3008 -4.3962 -0.6625
 5854SOL    HW229196   4.462   0.392  11.295  0.0944 -1.8222 -2.8877
 5855SOL     OW29197   1.656   0.318   7.109 -0.0888 -0.1908 -0.6425
 5855SOL    HW129198   1.614   0.331   7.024 -0.8925 -1.4941 -0.4550
 5855SOL    HW229199   1.583   0.327   7.170  0.6292  1.8345 -0.0997
 5856SOL     OW29200   3.558   2.989  11.642 -0.5583  0.5515  0.4662
 5856SOL    HW129201   3.479   3.013  11.690  0.0222  1.8080  0.7837
 5856SOL    HW229202   3.553   3.036  11.559 -0.7151 -0.4131 -0.0790
 5857SOL     OW29203   1.934   3.367   3.484 -0.1306  0.2507 -0.0292
 5857SOL    HW129204   1.892   3.421   3.416  0.2729  1.9811  1.1137
 5857SOL    HW229205   1.885   3.396   3.561 -1.1986 -1.5091 -0.0391
 5858SOL     OW29206   0.599   1.983   6.269 -0.0364  0.0748 -0.1118
 5858SOL    HW129207   0.584   2.014   6.179  1.3140 -2.4938 -1.2138
 5858SOL    HW229208   0.667   2.047   6.290  0.8971 -0.3370 -1.8476
 5859SOL     OW29209   0.332   2.422  15.787 -0.1613  0.1929  0.5009
 5859SOL    HW129210   0.295   2.510  15.787  3.6362  1.7692 -1.7686
 5859SOL    HW229211   0.421   2.438  15.756 -0.8043  0.8719 -0.9777
 5860SOL     OW29212   2.049   1.776   3.122 -0.7142 -0.5116  0.0395
 5860SOL    HW129213   2.144   1.774   3.121 -0.7721 -2.5518 -0.8113
 5860SOL    HW229214   2.031   1.852   3.066 -1.2891  0.5470  1.6473
 5861SOL     OW29215   0.694   4.219   0.563 -0.1381 -0.7021  0.3069
 5861SOL    HW129216   0.763   4.155   0.577  0.2239 -0.3400  0.1954
 5861SOL    HW229217   0.722   4.267   0.484 -0.2204 -0.4947  0.4036
 5862SOL     OW29218   2.006   3.383   4.216 -0.2381 -0.6266 -0.2387
 5862SOL    HW129219   2.088   3.337   4.235 -0.0402 -0.4133 -0.5632
 5862SOL    HW229220   2.029   3.401   4.124  1.9546 -0.8855  0.2519
 5863SOL     OW29221   1.703   4.659   9.659  0.2552 -0.4023 -0.0146
 5863SOL    HW129222   1.642   4.597   9.619  0.4726 -1.9023  1.9839
 5863SOL    HW229223   1.648   0.004   9.661 -1.1595 -1.4466  1.2408
 5864SOL     OW29224   3.407   0.133   6.283  0.0119  0.0392 -0.3658
 5864SOL    HW129225   3.385   0.051   6.328 -0.6778 -0.3933 -1.5076
 5864SOL    HW229226   3.378   0.200   6.346  0.8450 -2.3851  2.6256
 5865SOL     OW29227   4.619   2.242   7.534  0.4582  0.2350  0.3979
 5865SOL    HW129228   4.696   2.190   7.557 -0.4751 -1.6213 -0.7358
 5865SOL    HW229229   4.569   2.211   7.609  2.2682 -1.5829  0.8433
 5866SOL     OW29230   4.406   1.357   9.075 -0.2733  0.1687 -0.1028
 5866SOL    HW129231   4.478   1.296   9.091  0.7073  1.1899 -0.6319
 5866SOL    HW229232   4.447   1.412   9.008 -1.1729  0.2002 -0.6383
 5867SOL     OW29233   1.083   3.753  10.029  0.5061 -0.1963  0.2179
 5867SOL    HW129234   1.149   3.773   9.962 -1.0783  1.8001 -0.7345
 5867SOL    HW229235   1.047   3.675   9.987 -2.4523  1.0657  0.4359
 5868SOL     OW29236   3.683   4.212  14.191  0.2477 -0.4061  0.0434
 5868SOL    HW129237   3.683   4.162  14.109  0.2869  0.2010 -0.3283
 5868SOL    HW229238   3.594   4.207  14.226  0.2242  0.2021  0.0685
 5869SOL     OW29239   1.446   2.869   6.607  0.1665  0.4415 -0.2113
 5869SOL    HW129240   1.435   2.937   6.540 -1.5883  0.4733  0.1141
 5869SOL    HW229241   1.372   2.886   6.665  0.6728 -2.2863  1.2304
 5870SOL     OW29242   1.162   2.624  17.689 -0.1589  0.0694  0.1995
 5870SOL    HW129243   1.073   2.646  17.661 -0.3177  0.8676  1.3008
 5870SOL    HW229244   1.204   2.588  17.611  0.6638 -0.2824  0.7952
 5871SOL     OW29245   1.247   2.725   4.943 -0.1554 -0.8039  0.3628
 5871SOL    HW129246   1.272   2.658   4.880 -1.6818 -0.0633 -1.0190
 5871SOL    HW229247   1.153   2.731   4.929  0.3591  1.3820 -2.0337
 5872SOL     OW29248   3.866   0.168   9.353  0.2879  0.0200  0.0435
 5872SOL    HW129249   3.833   0.164   9.443 -1.1681  1.7360 -0.4071
 5872SOL    HW229250   3.948   0.214   9.366  0.7452 -0.7685 -0.0523
 5873SOL     OW29251   1.779   1.549   3.875  0.3070 -0.3569 -0.4834
 5873SOL    HW129252   1.711   1.602   3.917  0.4521 -0.7316  0.2174
 5873SOL    HW229253   1.755   1.472   3.926 -0.6317  0.4406  0.2895
 5874SOL     OW29254   3.745   1.567  15.736  0.5684  0.1861 -0.3083
 5874SOL    HW129255   3.719   1.540  15.823 -0.1767  0.6706 -0.3770
 5874SOL    HW229256   3.783   1.483  15.708  2.6405  0.5958  1.2717
 5875SOL     OW29257   4.180   4.388  14.024 -0.4695  0.5801 -0.1104
 5875SOL    HW129258   4.160   4.452  13.956 -2.1641  2.2125  1.8833
 5875SOL    HW229259   4.192   4.314  13.966 -0.4059  1.1378 -0.8039
 5876SOL     OW29260   3.027   0.864   6.988 -0.2119 -0.5603 -0.1535
 5876SOL    HW129261   3.007   0.793   7.050  0.9782 -1.1769 -0.4772
 5876SOL    HW229262   2.941   0.906   6.982 -0.3704 -1.3210 -2.8217
 5877SOL     OW29263   1.547   3.849   5.651 -0.2396 -0.3281  0.6305
 5877SOL    HW129264   1.572   3.767   5.610 -0.0991 -0.3571  0.7735
 5877SOL    HW229265   1.626   3.878   5.697 -1.1136 -1.6183  2.9753
 5878SOL     OW29266   0.143   1.312   5.686  1.0231  0.4445 -0.2881
 5878SOL    HW129267   0.210   1.351   5.743  0.5422 -1.0821  1.3106
 5878SOL    HW229268   0.144   1.371   5.610 -0.8079  0.3007 -0.4276
 5879SOL     OW29269   1.342   0.396   2.678 -0.0837 -0.2831 -0.1782
 5879SOL    HW129270   1.307   0.482   2.654 -1.0714 -0.1281  1.7943
 5879SOL    HW229271   1.318   0.350   2.598 -1.0603  0.2516 -0.1933
 5880SOL     OW29272   3.498   0.157   2.348  0.7341  0.2905 -0.1419
 5880SOL    HW129273   3.487   0.251   2.339  2.6173  0.6294  1.2601
 5880SOL    HW229274   3.431   0.138   2.414  2.3038  1.5927  1.8120
 5881SOL     OW29275   1.152   1.197  11.803  0.6408  0.0440 -0.1145
 5881SOL    HW129276   1.224   1.235  11.854  1.1703 -1.0888 -0.0013
 5881SOL    HW229277   1.098   1.157  11.871 -2.5600  0.2947 -2.5308
 5882SOL     OW29278   3.653   0.410  15.389  0.4238 -0.4999 -0.4942
 5882SOL    HW129279   3.590   0.366  15.333 -0.9879 -0.5473  1.1268
 5882SOL    HW229280   3.708   0.462  15.331 -0.1517  1.4925  0.7428
 5883SOL     OW29281   4.133   2.723   7.112  0.1599 -0.2231  0.0525
 5883SOL    HW129282   4.069   2.711   7.042 -1.1847  0.3831  1.1668
 5883SOL    HW229283   4.142   2.818   7.112  0.5372 -0.2577  0.1190
 5884SOL     OW29284   4.486   0.793  10.477  0.0356 -0.0672  0.1478
 5884SOL    HW129285   4.482   0.769  10.384 -0.6920 -0.2622  0.2343
 5884SOL    HW229286   4.403   0.837  10.494  0.0324 -0.6850  1.6620
 5885SOL     OW29287   0.737   1.979   1.157  0.4587 -0.0515 -0.3016
 5885SOL    HW129288   0.712   2.037   1.084  0.1978  0.6803  0.3698
 5885SOL    HW229289   0.757   2.045   1.223 -1.3209 -1.5769  1.7577
 5886SOL     OW29290   2.007   1.621   4.647  0.5150  0.2653 -0.1460
 5886SOL    HW129291   2.082   1.604   4.705  0.3481  0.0555  0.0115
 5886SOL    HW229292   2.010   1.553   4.580 -3.0731  0.6793 -0.6935
 5887SOL     OW29293   1.038   0.688   4.058  0.0324  0.1956 -0.3004
 5887SOL    HW129294   1.001   0.695   4.146  0.8323 -0.2699  0.0730
 5887SOL    HW229295   0.967   0.643   4.012 -0.0288  0.3073 -0.3160
 5888SOL     OW29296   4.498   0.836   4.876  0.1418  0.2245 -0.4713
 5888SOL    HW129297   4.539   0.762   4.920  2.5416  0.2681 -2.6673
 5888SOL    HW229298   4.565   0.866   4.814  0.6143  1.6315  0.7179
 5889SOL     OW29299   1.426   1.189   2.350 -0.0215 -0.4678  0.6679
 5889SOL    HW129300   1.432   1.275   2.391  2.2588 -0.9216  1.2875
 5889SOL    HW229301   1.368   1.149   2.414  0.4539  0.2911  1.5729
 5890SOL     OW29302   3.986   1.245   7.879 -0.0853  0.0418 -0.0455
 5890SOL    HW129303   4.027   1.315   7.929  2.6176 -3.0924  2.1612
 5890SOL    HW229304   4.007   1.166   7.929  1.4194  0.5900  0.1955
 5891SOL     OW29305   3.078   3.299   0.739  0.3790  0.2323  0.2611
 5891SOL    HW129306   3.096   3.367   0.674 -1.1101  0.4153  0.0329
 5891SOL    HW229307   3.170   3.299   0.767 -0.0882  0.3236  1.7768
 5892SOL     OW29308   2.467   3.721  12.995 -0.1648 -0.7860 -0.5657
 5892SOL    HW129309   2.513   3.663  13.056 -0.1189 -2.3013 -2.0457
 5892SOL    HW229310   2.393   3.667  12.968 -0.0388 -0.4684 -1.5276
 5893SOL     OW29311   2.129   3.851   9.345  0.0182  0.0133 -0.4031
 5893SOL    HW129312   2.182   3.871   9.268  0.3785  0.0174 -0.1547
 5893SOL    HW229313   2.189   3.907   9.394  0.8494 -0.9891 -0.2792
 5894SOL     OW29314   2.383   0.462   5.300  0.0933  0.1042 -0.0687
 5894SOL    HW129315   2.412   0.551   5.324 -0.4158 -0.7866  3.7417
 5894SOL    HW229316   2.457   0.408   5.328  0.0621 -0.7500 -1.6658
 5895SOL     OW29317   3.752   0.631   9.942  0.4290  0.0138  0.1582
 5895SOL    HW129318   3.660   0.636   9.968  0.2950  0.8487 -0.4618
 5895SOL    HW229319   3.779   0.722   9.928  1.4674 -0.1554  1.1335
 5896SOL     OW29320   1.351   2.934   5.056  0.2347  0.3568 -0.2824
 5896SOL    HW129321   1.305   2.866   5.007  0.4602 -0.8816  1.2101
 5896SOL    HW229322   1.304   2.940   5.139 -0.2642 -1.9754 -0.3972
 5897SOL     OW29323   4.160   1.245   1.646 -0.5184 -0.9040 -0.4531
 5897SOL    HW129324   4.228   1.251   1.714  1.5082  0.2844 -2.6016
 5897SOL    HW229325   4.180   1.319   1.589  0.5514 -0.8387  0.0165
 5898SOL     OW29326   3.147   3.690   1.891  0.1557 -0.4318  0.2959
 5898SOL    HW129327   3.085   3.756   1.922 -0.1458  0.1208 -1.4672
 5898SOL    HW229328   3.083   3.619   1.880  0.8621 -1.1845  1.1020
 5899SOL     OW29329   2.795   3.105  11.145  0.4546  0.1264 -0.0474
 5899SOL    HW129330   2.807   3.028  11.089 -0.1881 -1.0002  1.3707
 5899SOL    HW229331   2.857   3.078  11.213 -0.0425 -0.1029  0.3104
 5900SOL     OW29332   1.624   0.573   4.637 -0.5047 -0.1041  0.1382
 5900SOL    HW129333   1.605   0.546   4.547  2.1730 -0.0295 -0.4381
 5900SOL    HW229334   1.625   0.666   4.616 -4.5820 -0.4919 -1.7865
 5901SOL     OW29335   1.645   3.591   5.561 -0.8719  0.5756 -0.5127
 5901SOL    HW129336   1.705   3.531   5.605 -1.4470  0.0061 -0.4892
 5901SOL    HW229337   1.577   3.536   5.519  0.6350 -1.1965 -0.6326
 5902SOL     OW29338   2.084   0.712  17.282 -0.1063 -0.0511  0.4340
 5902SOL    HW129339   1.989   0.704  17.267 -0.0327 -0.4662  0.1899
 5902SOL    HW229340   2.090   0.684  17.374 -0.8371 -2.2621 -0.1845
 5903SOL     OW29341   3.903   1.408  16.292 -0.1781 -0.2478 -0.5756
 5903SOL    HW129342   3.921   1.501  16.307 -1.4638 -0.0989  0.0494
 5903SOL    HW229343   3.814   1.414  16.258 -0.9465 -0.3976  1.3651
 5904SOL     OW29344   4.270   4.115   6.267  0.1247 -0.1807  0.2868
 5904SOL    HW129345   4.339   4.154   6.320  1.0346 -0.9554 -0.3401
 5904SOL    HW229346   4.207   4.087   6.334 -2.1038 -0.6060 -1.9742
 5905SOL     OW29347   2.965   0.622   4.466 -0.8283  0.4655  0.0106
 5905SOL    HW129348   2.935   0.585   4.383 -1.2620 -1.7017  1.1376
 5905SOL    HW229349   2.951   0.717   4.460  0.8690  0.6545 -1.1950
 5906SOL     OW29350   1.902   4.296   8.083  0.2202 -0.0388  0.2685
 5906SOL    HW129351   1.932   4.208   8.106 -2.1040 -0.9301 -0.0755
 5906SOL    HW229352   1.881   4.334   8.168  0.8771  0.7794  0.0627
 5907SOL     OW29353   4.156   3.069   6.498  0.2214 -0.4151  0.3904
 5907SOL    HW129354   4.112   3.039   6.578  0.3095 -0.6367  0.3560
 5907SOL    HW229355   4.107   3.023   6.430  0.4965  0.0513 -0.1144
 5908SOL     OW29356   1.068   4.204  15.051 -0.1337  0.1308  0.2449
 5908SOL    HW129357   1.055   4.203  15.146 -1.1682 -2.2992  0.0674
 5908SOL    HW229358   1.031   4.286  15.019  0.3691  0.1439 -0.3162
 5909SOL     OW29359   2.493   3.470   7.148  0.0074  0.3301  0.0333
 5909SOL    HW129360   2.507   3.386   7.191  1.9697  2.4762  3.5571
 5909SOL    HW229361   2.555   3.519   7.202  0.9409 -0.5873 -0.2064
 5910SOL     OW29362   2.592   1.926   1.956  0.0086 -0.1044 -0.1165
 5910SOL    HW129363   2.584   1.892   1.867 -1.1927 -1.6073  0.5639
 5910SOL    HW229364   2.630   2.010   1.929  2.9156 -1.1213  0.8229
 5911SOL     OW29365   3.989   0.827   4.337  0.0415 -0.2405  0.3964
 5911SOL    HW129366   3.990   0.835   4.432 -3.9637  2.3587  0.2294
 5911SOL    HW229367   4.053   0.757   4.329  0.2693 -0.0158  0.2527
 5912SOL     OW29368   0.073   4.175   8.452  0.5643  0.2544 -0.1726
 5912SOL    HW129369   0.082   4.082   8.434  0.8287  0.0578  0.9577
 5912SOL    HW229370   4.718   4.198   8.424  0.4364 -0.7643 -0.5942
 5913SOL     OW29371   0.567   1.525   3.872  0.0281  0.0351  0.4190
 5913SOL    HW129372   0.572   1.526   3.967 -1.0442  0.5955  0.4688
 5913SOL    HW229373   0.514   1.603   3.855  0.1239  0.1742  0.7670
 5914SOL     OW29374   0.195   0.081   2.005 -0.1855 -0.3752  0.3705
 5914SOL    HW129375   0.281   0.098   1.965 -0.7316  0.8132 -0.2938
 5914SOL    HW229376   0.143   0.123   1.937 -1.2474 -2.1363  0.0800
 5915SOL     OW29377   2.178   1.051   1.961  0.3279 -0.2164 -0.2613
 5915SOL    HW129378   2.241   1.019   2.026  0.5114 -0.1342 -0.3987
 5915SOL    HW229379   2.239   1.113   1.920 -1.0216  0.9056 -0.5528
 5916SOL     OW29380   1.466   3.170  12.145  0.2693  0.4482 -0.0972
 5916SOL    HW129381   1.401   3.105  12.171  1.0716 -0.5540 -0.5921
 5916SOL    HW229382   1.463   3.158  12.050 -0.4878  0.2471 -0.0457
 5917SOL     OW29383   2.462   4.369   9.065  0.7224 -0.1904  0.7348
 5917SOL    HW129384   2.467   4.315   9.144 -1.0795 -0.4549  0.6629
 5917SOL    HW229385   2.555   4.374   9.043  0.6196  3.7616  1.2032
 5918SOL     OW29386   3.455   0.637   9.967 -0.5273  0.2851 -0.0716
 5918SOL    HW129387   3.368   0.602   9.949  0.1277 -1.0023 -0.6893
 5918SOL    HW229388   3.484   0.674   9.884  1.6748 -0.3951  0.4008
 5919SOL     OW29389   0.919   1.175   8.931 -0.2711 -0.2039 -0.3119
 5919SOL    HW129390   0.850   1.135   8.878 -2.0404  0.8483  1.1905
 5919SOL    HW229391   0.928   1.260   8.888 -1.6169  0.3256  0.4696
 5920SOL     OW29392   3.556   1.674   9.556 -0.9709  0.2084 -0.6066
 5920SOL    HW129393   3.504   1.646   9.631 -1.3484 -0.3209 -1.0645
 5920SOL    HW229394   3.498   1.744   9.526 -1.2038  1.0817  1.9025
 5921SOL     OW29395   4.321   0.045   2.126  0.3110 -0.2185  0.2579
 5921SOL    HW129396   4.244   0.009   2.082 -1.0850  1.9459  0.8956
 5921SOL    HW229397   4.323   4.725   2.205  0.1174 -0.8752 -0.1821
 5922SOL     OW29398   2.232   3.379   5.307 -0.0348 -0.4264 -0.7450
 5922SOL    HW129399   2.261   3.302   5.257  2.3630 -1.3830  2.1071
 5922SOL    HW229400   2.158   3.413   5.257  0.6992 -0.0083 -1.5647
 5923SOL     OW29401   4.068   2.927   7.972  0.6728 -0.1290  0.4945
 5923SOL    HW129402   4.125   2.850   7.982 -0.0819 -1.1861 -3.0377
 5923SOL    HW229403   4.110   2.977   8.041  1.4744 -0.3508  0.1788
 5924SOL     OW29404   0.223   3.673  10.702  0.1151 -0.3307  0.5583
 5924SOL    HW129405   0.137   3.713  10.712  0.2599  0.2595 -0.5603
 5924SOL    HW229406   0.204   3.583  10.728  1.2958  0.4023  3.9095
 5925SOL     OW29407   4.060   0.542   2.982  0.1936 -0.2055 -0.0082
 5925SOL    HW129408   3.986   0.551   3.041 -0.0835  0.0956 -0.4023
 5925SOL    HW229409   4.076   0.448   2.972  0.1106 -0.2722  0.4943
 5926SOL     OW29410   1.771   4.595   2.286 -0.1265 -0.6029 -0.0991
 5926SOL    HW129411   1.728   4.680   2.280 -0.5322 -0.7814  0.3128
 5926SOL    HW229412   1.707   4.539   2.241 -0.0682  0.9433 -2.0989
 5927SOL     OW29413   2.727   4.219   1.287  0.5112 -0.0792  0.0451
 5927SOL    HW129414   2.657   4.254   1.342 -0.5564 -2.5909  0.3122
 5927SOL    HW229415   2.693   4.231   1.198  0.1920  0.8296  0.2905
 5928SOL     OW29416   3.298   0.209   3.884 -0.1236  0.0083  0.0503
 5928SOL    HW129417   3.350   0.244   3.812  0.0463 -0.1310  0.1052
 5928SOL    HW229418   3.221   0.174   3.841 -0.2756 -1.1340  1.2531
 5929SOL     OW29419   4.261   4.266   7.460  0.0872  0.3378  0.1598
 5929SOL    HW129420   4.230   4.303   7.377  2.4802 -0.0670 -0.8958
 5929SOL    HW229421   4.186   4.269   7.519 -0.1545 -0.2063 -0.1242
 5930SOL     OW29422   1.315   3.423   8.783 -0.3476 -0.1361  0.6886
 5930SOL    HW129423   1.230   3.455   8.814  0.2751  0.4999  1.6787
 5930SOL    HW229424   1.355   3.412   8.869  3.0242 -0.1200 -0.8762
 5931SOL     OW29425   3.422   0.303   4.264 -0.0078  0.4338  0.0665
 5931SOL    HW129426   3.487   0.345   4.208  0.6816 -0.1617  0.4299
 5931SOL    HW229427   3.483   0.298   4.338 -0.4238  1.1137  0.4573
 5932SOL     OW29428   2.323   0.023   1.320  0.5774  0.0287 -0.1131
 5932SOL    HW129429   2.383   0.052   1.388  1.2314  0.2936 -0.8121
 5932SOL    HW229430   2.242   0.036   1.370  1.1381  0.6776  0.6169
 5933SOL     OW29431   4.606   1.343  14.215 -0.2460 -0.1711  1.2510
 5933SOL    HW129432   4.664   1.268  14.204 -0.1899 -0.1816  1.6136
 5933SOL    HW229433   4.570   1.322  14.302 -3.3089  1.3794  0.3609
 5934SOL     OW29434   0.052   1.773   6.058  0.4259 -0.2712  0.3538
 5934SOL    HW129435   0.145   1.796   6.067  0.9279 -0.5236 -4.1378
 5934SOL    HW229436   0.054   1.685   6.021  2.6041 -0.8735  1.8843
 5935SOL     OW29437   4.502   0.011  14.924 -0.2320  0.4476  0.0854
 5935SOL    HW129438   4.446   4.698  14.986 -0.5168 -0.9007 -1.1583
 5935SOL    HW229439   4.588   4.722  14.958 -0.1055  1.7128  0.5566
 5936SOL     OW29440   1.210   2.027   8.718  0.3272  0.0569 -0.2412
 5936SOL    HW129441   1.131   2.044   8.667  1.8810 -1.3920 -3.1541
 5936SOL    HW229442   1.265   1.997   8.645  0.9893  0.0065  0.2746
 5937SOL     OW29443   1.821   0.622   2.585 -0.2276  0.1594  0.5473
 5937SOL    HW129444   1.912   0.602   2.606 -0.0310 -0.8505 -1.3369
 5937SOL    HW229445   1.779   0.537   2.576 -1.9726  1.0203  0.3619
 5938SOL     OW29446   1.806   0.212  17.695 -0.5097  0.4037  0.0448
 5938SOL    HW129447   1.774   0.151  17.628 -1.6766 -0.9661  1.8537
 5938SOL    HW229448   1.729   0.224   0.019 -1.5207  0.4402 -1.3375
 5939SOL     OW29449   4.457   1.525   5.604  0.5642  0.7252  0.0564
 5939SOL    HW129450   4.527   1.482   5.653 -0.2017 -0.9445 -0.3254
 5939SOL    HW229451   4.399   1.547   5.678  2.5060 -0.9025  2.0605
 5940SOL     OW29452   1.173   3.351   0.099  0.0201  0.3280  0.9304
 5940SOL    HW129453   1.195   3.270   0.053  0.2194 -0.4107  2.3435
 5940SOL    HW229454   1.223   3.411   0.045  0.9696 -1.3945 -0.1123
 5941SOL     OW29455   2.911   0.813   0.837 -0.1701 -0.1608  0.4170
 5941SOL    HW129456   2.943   0.822   0.926  0.5008 -1.8732  0.3418
 5941SOL    HW229457   2.904   0.905   0.812  0.4150  0.1860  1.5322
 5942SOL     OW29458   2.508   4.328   4.356  0.0820 -0.0745 -0.0211
 5942SOL    HW129459   2.564   4.395   4.315 -3.8890  1.0387 -3.6435
 5942SOL    HW229460   2.438   4.325   4.291 -0.7209  0.7903  0.8016
 5943SOL     OW29461   3.333   0.281   3.126 -0.1376  0.2356 -0.1170
 5943SOL    HW129462   3.348   0.337   3.202  0.7681 -2.0516  1.3855
 5943SOL    HW229463   3.336   0.197   3.172  1.8483 -0.4969 -1.5994
 5944SOL     OW29464   3.902   0.467   9.185  0.0545 -0.1999 -0.1327
 5944SOL    HW129465   3.850   0.406   9.132 -0.9172  0.7813 -0.3005
 5944SOL    HW229466   3.845   0.478   9.261 -1.0003  0.8288 -1.0765
 5945SOL     OW29467   3.229   4.189   3.692  0.3987  0.0847 -0.6869
 5945SOL    HW129468   3.167   4.261   3.687 -0.0921 -0.3456 -0.8774
 5945SOL    HW229469   3.167   4.122   3.720  0.9042  1.3180  3.3422
 5946SOL     OW29470   0.981   4.509   3.968  0.3456 -0.4485  0.3044
 5946SOL    HW129471   1.033   4.581   4.006 -0.1950 -0.9325  1.9619
 5946SOL    HW229472   1.055   4.466   3.926  0.3450  1.5945 -1.8057
 5947SOL     OW29473   2.233   1.838   3.854 -0.5402  0.7184 -0.3907
 5947SOL    HW129474   2.173   1.774   3.892  0.0066  0.0729 -0.5969
 5947SOL    HW229475   2.194   1.924   3.869 -0.8552  0.6541 -0.8185
 5948SOL     OW29476   1.750   1.314   8.554  0.6143 -0.3524 -0.2706
 5948SOL    HW129477   1.739   1.280   8.643 -3.7495 -0.6964 -0.9603
 5948SOL    HW229478   1.672   1.282   8.510  0.5203  0.8545 -0.9830
 5949SOL     OW29479   1.309   0.218   2.445 -0.2498 -0.1234 -0.7014
 5949SOL    HW129480   1.376   0.159   2.478 -1.0290  0.2893  1.6352
 5949SOL    HW229481   1.263   0.165   2.380 -1.4034 -0.1390  0.1150
 5950SOL     OW29482   3.332   1.581  16.103  0.7732 -0.5210 -0.1505
 5950SOL    HW129483   3.276   1.607  16.175  1.5819 -0.5433  0.4838
 5950SOL    HW229484   3.317   1.487  16.112 -1.6556 -0.1853 -0.6073
 5951SOL     OW29485   3.330   4.141   6.459  0.1323 -0.1654  0.0109
 5951SOL    HW129486   3.245   4.165   6.495  0.1206 -1.8244  1.0557
 5951SOL    HW229487   3.378   4.095   6.527 -1.5693 -1.5529  0.2811
 5952SOL     OW29488   2.018   4.692  16.053 -0.4058 -0.4980  0.1337
 5952SOL    HW129489   1.963   0.032  16.025  1.3341  1.1673  1.0856
 5952SOL    HW229490   2.046   4.659  15.968  0.5932 -0.5289  0.4777
 5953SOL     OW29491   3.549   1.189  16.389 -0.3629 -0.2785  0.3402
 5953SOL    HW129492   3.512   1.236  16.464  0.6342  0.5084  0.3437
 5953SOL    HW229493   3.495   1.111  16.395 -1.5000  0.4527 -0.3526
 5954SOL     OW29494   4.050   4.160   2.200  0.0435 -0.0196 -0.0544
 5954SOL    HW129495   4.038   4.132   2.110 -0.5325  1.7720 -0.5356
 5954SOL    HW229496   3.969   4.130   2.240  0.9770 -2.2345  0.1680
 5955SOL     OW29497   1.949   0.188   2.233  0.4339 -0.0792 -0.1471
 5955SOL    HW129498   1.998   0.189   2.315 -0.5532 -0.7183  0.4483
 5955SOL    HW229499   1.983   0.270   2.196  0.6445  0.6376  1.6398
 5956SOL     OW29500   0.566   4.187  13.562  0.0352 -0.3175 -0.0364
 5956SOL    HW129501   0.513   4.150  13.491 -0.4764  0.0159  0.1757
 5956SOL    HW229502   0.551   4.281  13.553  2.8465  0.2292  0.9174
 5957SOL     OW29503   1.656   2.048   3.611  0.1866  0.0029 -0.9579
 5957SOL    HW129504   1.692   2.137   3.605  0.8659 -0.2051 -0.0757
 5957SOL    HW229505   1.686   2.013   3.527 -2.9443 -2.4505 -1.0761
 5958SOL     OW29506   1.346   1.474   4.003 -0.2290  0.6363  0.1961
 5958SOL    HW129507   1.341   1.438   4.092  0.7461  0.4341  0.1761
 5958SOL    HW229508   1.317   1.564   4.020 -0.2999  0.9334 -1.5398
 5959SOL     OW29509   0.640   4.361   7.628  0.2499 -0.2352  0.0362
 5959SOL    HW129510   0.553   4.372   7.665 -0.8348 -0.9658 -2.2857
 5959SOL    HW229511   0.673   4.288   7.681  3.5319  2.5964  1.8909
 5960SOL     OW29512   0.268   1.341   4.529  0.5565  0.1820 -0.2878
 5960SOL    HW129513   0.233   1.429   4.539  0.0278 -0.3311  2.2637
 5960SOL    HW229514   0.194   1.293   4.490  0.2114 -0.4570  1.1813
 5961SOL     OW29515   2.564   1.816   6.153  0.2755 -0.7025 -0.1626
 5961SOL    HW129516   2.587   1.763   6.076 -1.8749  1.0753 -2.0363
 5961SOL    HW229517   2.489   1.765   6.184  0.9070 -0.8579  1.1185
 5962SOL     OW29518   2.737   1.970  12.157 -0.7004 -0.2679  0.6038
 5962SOL    HW129519   2.701   1.882  12.147  1.2346 -0.7480 -2.0249
 5962SOL    HW229520   2.656   2.021  12.160 -1.9875 -2.3742  2.1840
 5963SOL     OW29521   1.448   3.936  16.890 -0.7064 -0.3857  0.2029
 5963SOL    HW129522   1.421   3.992  16.818 -1.1546  0.6617  1.1911
 5963SOL    HW229523   1.478   3.861  16.838 -0.6475 -0.5015  0.4023
 5964SOL     OW29524   2.001   4.318   6.505 -0.2607  0.2313 -0.1397
 5964SOL    HW129525   2.021   4.341   6.415  1.0957 -2.2309 -0.4796
 5964SOL    HW229526   2.017   4.224   6.493 -0.2565  0.1762  0.2788
 5965SOL     OW29527   3.031   3.408   4.264  0.4860 -0.0088  0.3724
 5965SOL    HW129528   3.077   3.396   4.347  0.6615  1.6720  0.5233
 5965SOL    HW229529   3.046   3.327   4.214  0.3099  0.4157 -0.3688
 5966SOL     OW29530   3.414   0.070   5.755 -0.0490 -0.3325 -0.3587
 5966SOL    HW129531   3.343   0.075   5.692  0.9317  1.1704 -1.3361
 5966SOL    HW229532   3.368   0.004   5.807 -1.1791 -0.5828 -1.6723
 5967SOL     OW29533   0.505   0.902   5.613  0.1705 -0.5615 -0.0517
 5967SOL    HW129534   0.583   0.902   5.667 -1.0876 -0.5651  1.7546
 5967SOL    HW229535   0.449   0.830   5.642  0.5058 -0.0293  1.8901
 5968SOL     OW29536   1.326   1.228  16.675  0.5131  0.3860  0.2630
 5968SOL    HW129537   1.414   1.262  16.660  0.6931 -0.9043 -1.6083
 5968SOL    HW229538   1.318   1.218  16.770  1.5177  0.6918  0.3754
 5969SOL     OW29539   2.780   2.230   6.273  0.1172  0.6942  0.0822
 5969SOL    HW129540   2.807   2.169   6.342 -5.0634 -2.2368 -0.5299
 5969SOL    HW229541   2.851   2.224   6.209 -1.1812  0.9109 -1.3560
 5970SOL     OW29542   1.110   1.974   6.732  0.1055 -0.4503 -0.5505
 5970SOL    HW129543   1.164   2.035   6.683  0.8027 -0.8239 -0.2439
 5970SOL    HW229544   1.157   1.980   6.815  1.0760 -2.5586 -0.9702
 5971SOL     OW29545   4.497   2.956  15.543 -0.0733  0.1812  0.0246
 5971SOL    HW129546   4.582   2.966  15.500 -0.3757  0.0017 -0.6111
 5971SOL    HW229547   4.453   2.900  15.479 -0.9848  0.7807  0.1413
 5972SOL     OW29548   2.509   2.643  13.827  0.6671 -0.0359 -0.5752
 5972SOL    HW129549   2.603   2.648  13.810  0.6598 -0.6590 -0.7866
 5972SOL    HW229550   2.504   2.734  13.854  0.2691  0.2344 -1.5470
 5973SOL     OW29551   2.927   0.007  10.207 -0.3001  0.0028 -0.4969
 5973SOL    HW129552   2.859   0.008  10.139 -2.2399 -0.6540  1.4273
 5973SOL    HW229553   2.910   0.084  10.260 -0.1974  0.6171 -1.3505
 5974SOL     OW29554   4.406   2.648   2.138 -0.3141 -0.4275  0.4109
 5974SOL    HW129555   4.456   2.593   2.078  2.1248  2.0123  0.1979
 5974SOL    HW229556   4.317   2.620   2.117  0.2932 -0.9220 -1.5296
 5975SOL     OW29557   2.869   1.028  15.816 -0.5320  0.6638  1.1609
 5975SOL    HW129558   2.797   0.965  15.810  0.1416  0.1479 -1.5428
 5975SOL    HW229559   2.928   0.982  15.757  0.4748  0.2406  2.5060
 5976SOL     OW29560   3.624   1.128   2.357  0.2503  0.2442 -0.5937
 5976SOL    HW129561   3.573   1.048   2.346 -1.2004  0.8735  1.6044
 5976SOL    HW229562   3.627   1.142   2.452  0.2531 -0.2626 -0.5193
 5977SOL     OW29563   3.964   1.113   5.430 -0.0834  0.2632 -0.0456
 5977SOL    HW129564   3.952   1.202   5.396 -2.2494  1.0512  2.7599
 5977SOL    HW229565   3.928   1.124   5.518  2.7261 -3.0954  1.4998
 5978SOL     OW29566   2.456   0.138  13.091 -0.0134 -0.3741  0.9137
 5978SOL    HW129567   2.521   0.101  13.032 -0.8222  0.8798 -0.7822
 5978SOL    HW229568   2.509   0.195  13.146 -1.2921  2.0429 -0.3543
 5979SOL     OW29569   0.132   0.284   6.281  0.2462  0.2132 -0.4473
 5979SOL    HW129570   0.225   0.299   6.299  0.3239 -0.2999 -0.4151
 5979SOL    HW229571   0.113   0.214   6.344  1.0254  0.2286 -0.1974
 5980SOL     OW29572   1.870   3.297  12.048 -1.0815  0.1391  0.1741
 5980SOL    HW129573   1.908   3.372  12.002 -2.1286  0.2533 -0.4934
 5980SOL    HW229574   1.938   3.282  12.114 -0.2133  0.8246 -0.5662
 5981SOL     OW29575   1.815   1.101   3.431 -0.6741 -0.3965  0.6115
 5981SOL    HW129576   1.839   1.172   3.371 -0.8178 -0.2168  0.7675
 5981SOL    HW229577   1.721   1.094   3.418 -0.9978  0.5053  2.3597
 5982SOL     OW29578   3.735   4.050  16.064 -0.0779 -0.4908  0.0058
 5982SOL    HW129579   3.749   4.130  16.013  0.8732 -1.5154 -1.3245
 5982SOL    HW229580   3.770   3.976  16.015 -0.2647  0.2285 -1.2371
 5983SOL     OW29581   0.184   2.373   5.774 -0.2223 -0.0563  0.6102
 5983SOL    HW129582   0.110   2.379   5.713 -0.3930 -0.2733  0.7999
 5983SOL    HW229583   0.167   2.287   5.811 -3.1799  0.8870  1.4912
 5984SOL     OW29584   1.905   4.210   2.266  0.6860  0.1317  0.1104
 5984SOL    HW129585   1.925   4.157   2.343  1.7992  0.5064  0.0735
 5984SOL    HW229586   1.891   4.143   2.199 -3.8051 -1.9967  3.1840
 5985SOL     OW29587   4.208   3.637   3.215 -0.0206  0.1849 -0.1089
 5985SOL    HW129588   4.133   3.612   3.269 -1.6088  0.4533 -2.1869
 5985SOL    HW229589   4.200   3.732   3.211 -0.6924  0.1244 -0.2337
 5986SOL     OW29590   2.517   4.619  17.173 -0.2769  0.3223 -0.2855
 5986SOL    HW129591   2.465   4.679  17.225 -0.7846  1.8224 -2.5131
 5986SOL    HW229592   2.492   4.628  17.081  0.3055 -1.0163 -0.5857
 5987SOL     OW29593   4.428   0.964   1.422  0.1162  0.0154 -0.3690
 5987SOL    HW129594   4.466   0.881   1.450 -0.5671  0.3123  1.4409
 5987SOL    HW229595   4.342   0.957   1.464 -0.4094  0.1009 -1.4292
 5988SOL     OW29596   0.251   1.141   8.093 -0.4128  0.2590  0.2538
 5988SOL    HW129597   0.163   1.170   8.068 -0.2210  2.1961  1.7847
 5988SOL    HW229598   0.219   1.116   8.179  0.3696  1.7488  0.9981
 5989SOL     OW29599   2.905   1.376   5.042  0.3791  0.0096 -0.3224
 5989SOL    HW129600   2.876   1.373   5.133  1.0766 -1.4693 -0.1563
 5989SOL    HW229601   2.994   1.407   5.057  0.7820 -1.7234  0.7919
 5990SOL     OW29602   3.073   4.142   0.247  0.4224 -0.3147 -0.1379
 5990SOL    HW129603   2.982   4.113   0.240  0.5508 -0.2405 -2.2673
 5990SOL    HW229604   3.050   4.226   0.286 -3.2219 -1.5360  0.2697
 5991SOL     OW29605   3.602   2.424   6.837 -0.2549 -0.2457  0.3495
 5991SOL    HW129606   3.634   2.515   6.834 -1.6315  0.1663 -1.9203
 5991SOL    HW229607   3.684   2.377   6.830  0.2194  0.4238  1.2801
 5992SOL     OW29608   4.531   2.422   6.791 -0.2331 -0.0484 -0.4747
 5992SOL    HW129609   4.473   2.439   6.718 -0.6151  1.4893  0.1841
 5992SOL    HW229610   4.615   2.453   6.755 -0.2147 -0.8642 -1.1239
 5993SOL     OW29611   3.026   3.748   3.807 -0.2366  0.0604 -0.0612
 5993SOL    HW129612   3.079   3.746   3.887 -0.0596 -0.4261 -0.1907
 5993SOL    HW229613   3.002   3.840   3.795  2.9281  0.9049  0.1029
 5994SOL     OW29614   0.297   2.138   0.151  0.1870  0.0122 -0.2834
 5994SOL    HW129615   0.259   2.085   0.081  1.2725  0.3269 -1.1240
 5994SOL    HW229616   0.298   2.218   0.098  1.4991 -0.1288 -0.4661
 5995SOL     OW29617   1.130   1.349   0.857  0.1614  0.3204  0.3900
 5995SOL    HW129618   1.214   1.359   0.902  0.9054 -0.9476 -0.7116
 5995SOL    HW229619   1.143   1.399   0.777  0.5001  1.6119  1.2543
 5996SOL     OW29620   2.336   1.702   8.075  0.3446 -0.2416  0.0985
 5996SOL    HW129621   2.285   1.776   8.109 -0.2123 -0.7761  0.4226
 5996SOL    HW229622   2.316   1.723   7.984 -1.0723  0.2910  0.5222
 5997SOL     OW29623   2.290   4.366  10.218 -0.2922 -0.3826  0.1637
 5997SOL    HW129624   2.308   4.321  10.301 -1.0242 -1.1502 -0.0926
 5997SOL    HW229625   2.203   4.403  10.233  0.2596  1.6660 -1.6766
 5998SOL     OW29626   2.454   3.277   8.746  0.2779  0.7027 -0.8366
 5998SOL    HW129627   2.521   3.229   8.697 -0.0406 -1.4953  0.8540
 5998SOL    HW229628   2.406   3.208   8.792  0.6150 -0.4709 -2.2458
 5999SOL     OW29629   1.330   0.482  11.709 -0.1129 -0.2622 -0.1181
 5999SOL    HW129630   1.413   0.443  11.682  0.4244 -0.1813  1.4297
 5999SOL    HW229631   1.316   0.545  11.639  0.4478 -0.5281 -0.4678
 6000SOL     OW29632   2.414   1.382   2.614 -0.1017  0.6118 -0.4054
 6000SOL    HW129633   2.365   1.300   2.607  0.0884  0.3297  1.5962
 6000SOL    HW229634   2.342   1.439   2.640 -0.9176 -1.2685  1.4113
 6001SOL     OW29635   3.961   3.283   6.267  0.2058  0.9895  0.2106
 6001SOL    HW129636   3.954   3.271   6.172  1.6726 -0.1642  0.2554
 6001SOL    HW229637   3.923   3.199   6.292  0.8176  0.6062 -0.1654
 6002SOL     OW29638   0.933   3.274   1.708 -0.3396 -0.0418 -0.3093
 6002SOL    HW129639   0.918   3.179   1.703  2.2840 -0.4376 -0.7881
 6002SOL    HW229640   1.006   3.270   1.769  0.5445 -0.9886 -1.4301
 6003SOL     OW29641   4.035   0.806   1.356 -0.0447 -0.3905 -0.0407
 6003SOL    HW129642   4.057   0.754   1.433  2.0151 -0.2226 -0.5143
 6003SOL    HW229643   3.965   0.867   1.380 -0.4580 -0.2144 -1.7406
 6004SOL     OW29644   0.063   4.197   7.246 -0.1843  0.2066  0.3782
 6004SOL    HW129645   0.036   4.276   7.200  0.9598  0.8706  0.8547
 6004SOL    HW229646   0.001   4.191   7.318  1.3356  0.0748  1.6728
 6005SOL     OW29647   0.466   2.387   2.836 -0.2975 -0.4196  0.3661
 6005SOL    HW129648   0.478   2.315   2.899  0.6833 -0.6273 -0.0484
 6005SOL    HW229649   0.392   2.430   2.878  0.7091  2.0400 -0.3944
 6006SOL     OW29650   3.684   3.265   2.954  0.1526 -0.1518  0.0878
 6006SOL    HW129651   3.753   3.247   3.017  1.3476  3.1247 -0.2658
 6006SOL    HW229652   3.742   3.325   2.906  1.6090 -0.2912  1.6822
 6007SOL     OW29653   3.793   0.761  15.433 -0.1409 -0.0455 -0.3229
 6007SOL    HW129654   3.774   0.845  15.391 -0.9121 -0.5371 -0.9402
 6007SOL    HW229655   3.885   0.768  15.461 -0.8699 -0.4434  2.1608
 6008SOL     OW29656   1.138   3.264   5.062 -0.4903 -0.2590  0.7814
 6008SOL    HW129657   1.114   3.201   4.994 -1.6762 -0.9448  1.8410
 6008SOL    HW229658   1.064   3.324   5.074 -0.0373  0.6147 -0.7764
 6009SOL     OW29659   1.798   0.326   9.677 -0.0705  0.2287 -0.2204
 6009SOL    HW129660   1.733   0.278   9.727 -0.1950 -0.0493 -0.6458
 6009SOL    HW229661   1.766   0.305   9.589 -0.3489 -2.5943  0.5686
 6010SOL     OW29662   4.040   1.364   1.177 -0.1161 -0.2535 -0.4003
 6010SOL    HW129663   4.020   1.311   1.254  1.1356 -0.9940 -0.5861
 6010SOL    HW229664   4.135   1.359   1.166 -0.0357 -0.4338  0.3801
 6011SOL     OW29665   0.531   0.923   2.803  0.3718  0.2178 -0.0511
 6011SOL    HW129666   0.552   1.007   2.844  0.0368  0.4332 -0.3135
 6011SOL    HW229667   0.571   0.864   2.867 -0.5029 -2.5710 -2.0849
 6012SOL     OW29668   1.778   4.711   6.177  0.1729  0.5456  0.1001
 6012SOL    HW129669   1.791   4.702   6.271  0.3144 -1.5969 -0.1306
 6012SOL    HW229670   1.763   0.071   6.159  0.7202  0.5351 -0.4431
 6013SOL     OW29671   3.586   2.095   1.163  0.1847 -0.5781  0.4890
 6013SOL    HW129672   3.558   2.024   1.221 -0.1352 -1.2945 -0.5480
 6013SOL    HW229673   3.630   2.147   1.231  1.8881 -0.8410 -0.4118
 6014SOL     OW29674   3.404   3.418   3.371  0.5359  0.6231 -0.3055
 6014SOL    HW129675   3.468   3.439   3.439 -0.0989 -0.2280  0.5494
 6014SOL    HW229676   3.349   3.356   3.419  1.2796  0.7547  0.7180
 6015SOL     OW29677   1.933   3.574  14.838  0.8531  0.1718  0.1272
 6015SOL    HW129678   1.915   3.667  14.851  0.7537  0.3401 -1.1958
 6015SOL    HW229679   1.974   3.583  14.751  0.2722 -1.3118 -0.2886
 6016SOL     OW29680   0.151   4.389   8.621  0.0328 -0.1126 -0.0186
 6016SOL    HW129681   0.188   4.329   8.555 -0.4504 -0.8486  0.3821
 6016SOL    HW229682   0.175   4.340   8.700 -1.4659 -0.6514  0.1007
 6017SOL     OW29683   0.871   0.720  12.302 -0.3277 -0.4010 -0.6755
 6017SOL    HW129684   0.888   0.648  12.363  4.2522  0.1809 -1.2534
 6017SOL    HW229685   0.879   0.678  12.217 -1.3030 -0.4409 -0.7434
 6018SOL     OW29686   4.526   4.055   4.992 -0.2329 -0.5471 -0.0092
 6018SOL    HW129687   4.534   4.150   5.001  0.8010 -0.7158  0.9061
 6018SOL    HW229688   4.570   4.036   5.075 -1.2154 -0.6216  0.5009
 6019SOL     OW29689   4.500   4.072   3.060  0.5410 -0.0862  0.4697
 6019SOL    HW129690   4.550   3.993   3.039  0.7825  0.2075 -0.0455
 6019SOL    HW229691   4.518   4.060   3.153 -0.6105  2.3091  0.9896
 6020SOL     OW29692   3.046   4.381   3.665  0.5537 -0.2761 -0.5726
 6020SOL    HW129693   2.981   4.449   3.686  0.1993 -0.0126 -2.5551
 6020SOL    HW229694   3.034   4.374   3.570 -0.1680 -0.7094 -0.4500
 6021SOL     OW29695   1.966   1.229  15.837  0.3907  0.1074 -0.3699
 6021SOL    HW129696   2.035   1.178  15.878 -2.1141 -2.1965  0.9190
 6021SOL    HW229697   1.968   1.190  15.749 -0.6216  0.6386 -0.6415
 6022SOL     OW29698   0.715   2.855   6.362  0.0022 -0.2518 -0.2114
 6022SOL    HW129699   0.711   2.930   6.302  1.0144  0.3085  0.4211
 6022SOL    HW229700   0.663   2.788   6.318  1.8008 -1.2909 -0.7584
 6023SOL     OW29701   3.364   2.720  11.862  0.5034 -0.4125 -0.3702
 6023SOL    HW129702   3.298   2.768  11.812  1.1315  1.1898  0.3416
 6023SOL    HW229703   3.343   2.746  11.952  0.8797  2.6346 -1.1638
 6024SOL     OW29704   4.291   3.888   1.420 -0.4612  0.6233 -0.1151
 6024SOL    HW129705   4.307   3.901   1.513 -1.0080  1.9656 -0.1979
 6024SOL    HW229706   4.196   3.903   1.423 -0.9014 -1.6858 -2.5717
 6025SOL     OW29707   4.425   2.935   6.404 -0.6287 -0.9071 -0.0636
 6025SOL    HW129708   4.384   2.994   6.467  0.1473 -1.0773  0.6012
 6025SOL    HW229709   4.514   2.972   6.404 -0.5244 -1.1684  0.7985
 6026SOL     OW29710   3.011   4.572   6.341  0.5214  0.1942  0.4285
 6026SOL    HW129711   3.026   4.646   6.283 -0.1796 -0.8519 -1.1060
 6026SOL    HW229712   3.049   4.597   6.426 -1.0534  0.8172  0.9456
 6027SOL     OW29713   4.529   0.122  11.867 -0.1146  0.3154 -0.6274
 6027SOL    HW129714   4.515   0.212  11.895 -2.3021 -0.4520  0.7936
 6027SOL    HW229715   4.480   0.129  11.786 -3.0056  0.2285  1.1155
 6028SOL     OW29716   2.996   0.129   9.822 -0.4100 -0.3042  0.7895
 6028SOL    HW129717   2.909   0.136   9.862 -0.6134 -2.4715  0.7127
 6028SOL    HW229718   2.981   0.093   9.735  1.2240 -0.7986  0.7080
 6029SOL     OW29719   3.742   0.699  11.686  0.2094 -0.1332  0.4503
 6029SOL    HW129720   3.776   0.782  11.720  1.4402 -0.3407 -0.3086
 6029SOL    HW229721   3.665   0.731  11.638  0.1328  0.3878  0.9187
 6030SOL     OW29722   0.824   1.502   5.995  0.3385 -0.0134  0.5950
 6030SOL    HW129723   0.781   1.526   5.912  1.1356  0.6046  0.3600
 6030SOL    HW229724   0.917   1.502   5.974  0.5807  3.1568  1.6517
 6031SOL     OW29725   4.270   0.893   7.943  0.0984  0.1021 -0.0898
 6031SOL    HW129726   4.346   0.837   7.924 -1.4999 -1.0658 -3.1136
 6031SOL    HW229727   4.311   0.974   7.912 -0.5039  0.7401  0.8144
 6032SOL     OW29728   3.901   1.370   5.354  0.2335 -0.2269 -0.4432
 6032SOL    HW129729   3.856   1.451   5.328  3.2653  1.4189 -0.5289
 6032SOL    HW229730   3.956   1.363   5.276  2.3799  1.4137  0.9309
 6033SOL     OW29731   3.784   1.325   6.965 -0.2166  0.1169  0.5715
 6033SOL    HW129732   3.760   1.234   6.982 -2.1086  0.3510 -0.9172
 6033SOL    HW229733   3.847   1.363   7.027 -1.0109  0.7939  0.9752
 6034SOL     OW29734   4.025   3.228   1.819 -0.7012  0.4505  0.3166
 6034SOL    HW129735   3.952   3.287   1.835 -0.0042  1.3915  0.0402
 6034SOL    HW229736   4.092   3.284   1.860  1.0371 -2.7197  1.8476
 6035SOL     OW29737   4.180   0.641  11.019 -0.1462  0.2509  0.5546
 6035SOL    HW129738   4.240   0.626  11.092 -0.6440 -0.9172  0.7264
 6035SOL    HW229739   4.229   0.710  10.975 -0.2967  0.1020  0.1482
 6036SOL     OW29740   2.705   0.932   1.674 -0.1621  0.5948 -0.1344
 6036SOL    HW129741   2.609   0.926   1.673  0.0173 -2.5058  0.8114
 6036SOL    HW229742   2.730   0.865   1.610  0.1572 -1.2208  1.8760
 6037SOL     OW29743   0.589   3.341  16.617 -0.1071 -0.3312  0.0053
 6037SOL    HW129744   0.591   3.401  16.542  0.9022 -0.4965 -0.0930
 6037SOL    HW229745   0.495   3.330  16.630 -0.3311 -0.0182 -1.3041
 6038SOL     OW29746   0.520   3.181   5.769 -0.1115  0.2909  0.1847
 6038SOL    HW129747   0.600   3.202   5.816  1.1641 -1.6909 -1.1093
 6038SOL    HW229748   0.557   3.142   5.690  1.9785  0.5567  1.0365
 6039SOL     OW29749   3.434   0.419   2.404  0.4740  0.6478 -0.5250
 6039SOL    HW129750   3.437   0.408   2.500 -0.9838 -2.8783 -0.8773
 6039SOL    HW229751   3.401   0.508   2.402 -0.2235  0.3585 -1.6370
 6040SOL     OW29752   0.335   1.347   2.051  0.1940  0.6693  0.5311
 6040SOL    HW129753   0.392   1.289   2.102 -1.1946 -0.0570  1.2690
 6040SOL    HW229754   0.330   1.301   1.967  1.2490  1.8254 -0.1540
 6041SOL     OW29755   0.242   3.093   3.711  0.0665 -0.2066 -0.5358
 6041SOL    HW129756   0.199   3.057   3.789 -1.5643 -0.4977 -1.5577
 6041SOL    HW229757   0.235   3.021   3.649 -3.3771 -0.5821  0.2814
 6042SOL     OW29758   0.624   1.917   1.890  0.1586 -0.0043 -0.3493
 6042SOL    HW129759   0.546   1.971   1.903 -0.7413 -0.7416 -2.7710
 6042SOL    HW229760   0.606   1.837   1.939  0.8586 -0.0747 -0.2190
 6043SOL     OW29761   3.371   0.054   9.669  0.3023  0.4375  0.1472
 6043SOL    HW129762   3.303   0.071   9.735 -1.3184  0.6109 -1.5735
 6043SOL    HW229763   3.368   4.692   9.675  0.4410  0.3766 -0.6853
 6044SOL     OW29764   0.034   1.475   8.319  0.6424 -0.0278 -0.3791
 6044SOL    HW129765   0.089   1.550   8.342  1.0319 -0.0973 -1.1255
 6044SOL    HW229766   0.027   1.501   8.228  0.8778  1.4959  0.0374
 6045SOL     OW29767   3.488   3.569   3.804  0.4709  0.2386 -0.0464
 6045SOL    HW129768   3.560   3.571   3.867  0.8142  1.0894 -0.4726
 6045SOL    HW229769   3.538   3.548   3.725 -0.0223 -1.2790  0.0369
 6046SOL     OW29770   2.605   0.624  11.539  0.1830 -0.0519  0.0870
 6046SOL    HW129771   2.582   0.690  11.604 -0.9735  1.6961 -2.0833
 6046SOL    HW229772   2.606   0.544  11.592  3.2575  0.8359  1.3562
 6047SOL     OW29773   1.758   0.632  12.037 -0.2325 -0.1591 -0.0085
 6047SOL    HW129774   1.771   0.722  12.067 -0.7345 -0.5705  1.4527
 6047SOL    HW229775   1.665   0.614  12.023 -0.0785 -1.4379  0.6143
 6048SOL     OW29776   1.868   0.788  16.845 -0.1120 -0.3847 -0.0777
 6048SOL    HW129777   1.927   0.717  16.821  1.2382  0.4189  0.8874
 6048SOL    HW229778   1.833   0.814  16.759 -0.5731  2.0281  0.8600
 6049SOL     OW29779   2.584   4.029  16.517 -0.5062 -0.6684 -0.2556
 6049SOL    HW129780   2.611   3.973  16.589  2.1572  0.8249 -0.1111
 6049SOL    HW229781   2.560   4.115  16.553 -0.2808 -0.2924 -1.0026
 6050SOL     OW29782   3.332   0.710   7.091 -0.4448 -0.2253  0.2713
 6050SOL    HW129783   3.387   0.784   7.066  1.2516 -1.1687  1.2561
 6050SOL    HW229784   3.267   0.702   7.021 -0.0270 -0.2066 -0.1130
 6051SOL     OW29785   2.969   3.373   9.924 -0.2672  0.8238  0.2547
 6051SOL    HW129786   2.985   3.425   9.846  3.0071 -0.1244  0.2927
 6051SOL    HW229787   2.985   3.429  10.000  1.5839 -2.6745  2.4396
 6052SOL     OW29788   4.712   2.893   3.390  0.3023  0.2377  0.4073
 6052SOL    HW129789   4.708   2.837   3.312 -0.9486 -2.5026  2.4394
 6052SOL    HW229790   0.029   2.972   3.371  3.0565 -1.4509  0.5640
 6053SOL     OW29791   1.844   2.220  16.945  0.1665 -0.5659 -0.4481
 6053SOL    HW129792   1.765   2.273  16.953  0.7199  0.3621 -1.1937
 6053SOL    HW229793   1.878   2.248  16.861 -1.6716  0.8179 -0.7289
 6054SOL     OW29794   3.988   3.598   2.990 -0.2276 -0.3279 -0.1836
 6054SOL    HW129795   4.069   3.553   3.011  0.6401  0.5014 -1.7658
 6054SOL    HW229796   4.017   3.687   2.970  0.0995  0.1067  2.3408
 6055SOL     OW29797   1.678   1.754   9.636 -0.3029  0.7027  0.4689
 6055SOL    HW129798   1.681   1.733   9.729  0.8691 -1.5782 -0.0964
 6055SOL    HW229799   1.710   1.845   9.640  0.8311  0.2717  1.3002
 6056SOL     OW29800   0.613   1.115   2.961  0.0362 -0.2154 -0.1982
 6056SOL    HW129801   0.703   1.138   2.984  0.0240  1.0093 -1.3466
 6056SOL    HW229802   0.581   1.204   2.943  0.1727  0.0890  1.0748
 6057SOL     OW29803   1.379   0.817  15.976  0.3316 -0.0043 -0.3044
 6057SOL    HW129804   1.318   0.814  16.049  0.6597  3.3049  0.0951
 6057SOL    HW229805   1.454   0.836  16.032  0.0186 -0.9867  0.4464
 6058SOL     OW29806   1.199   0.974   4.520  0.4349 -0.0222 -0.6171
 6058SOL    HW129807   1.292   0.982   4.499  0.7712 -0.8795  0.5680
 6058SOL    HW229808   1.178   0.881   4.508 -3.2530  0.7227 -0.1888
 6059SOL     OW29809   3.062   3.160   6.339  0.3808  0.2878 -0.1596
 6059SOL    HW129810   3.018   3.215   6.404  0.2149  2.0548 -1.7492
 6059SOL    HW229811   3.050   3.079   6.389  0.5093  0.1860 -0.2910
 6060SOL     OW29812   0.221   4.709   0.959 -0.3959  0.6669 -0.5514
 6060SOL    HW129813   0.194   0.063   0.930  3.6329  0.9648 -3.3416
 6060SOL    HW229814   0.151   4.692   1.022 -0.1185 -0.8189 -0.6478
 6061SOL     OW29815   4.557   4.239  14.896 -0.0472  0.8669 -0.0844
 6061SOL    HW129816   4.466   4.252  14.872 -1.1023 -2.1644  2.2730
 6061SOL    HW229817   4.606   4.230  14.814 -0.0149 -1.2065  0.1702
 6062SOL     OW29818   2.472   4.081   7.188  1.0386 -0.1620 -0.2364
 6062SOL    HW129819   2.484   4.161   7.138 -0.8000  1.5583  2.0774
 6062SOL    HW229820   2.388   4.049   7.156  1.2505 -0.4796 -0.4716
 6063SOL     OW29821   0.736   4.510   0.570  0.1941  0.6625  0.3864
 6063SOL    HW129822   0.640   4.512   0.565 -0.0062 -2.1698  2.6207
 6063SOL    HW229823   0.751   4.417   0.588 -0.9088  0.4342  0.1334
 6064SOL     OW29824   2.505   0.154  15.288 -0.0983  0.4239 -0.6588
 6064SOL    HW129825   2.465   0.168  15.203 -0.3980  1.7285 -0.2906
 6064SOL    HW229826   2.588   0.197  15.273  0.4156  0.0257  0.9827
 6065SOL     OW29827   1.245   1.111   3.210 -0.1030  0.0387  0.2292
 6065SOL    HW129828   1.216   1.039   3.266 -1.5838  0.6154  0.2150
 6065SOL    HW229829   1.172   1.172   3.219  0.6291  1.1070 -1.0760
 6066SOL     OW29830   2.733   3.673   9.298 -0.1387 -0.7542 -0.0072
 6066SOL    HW129831   2.722   3.635   9.211 -2.1106 -0.5345  0.1514
 6066SOL    HW229832   2.783   3.753   9.281 -0.1602 -0.1952  2.4759
 6067SOL     OW29833   0.503   3.475   4.233 -0.1975 -0.3127  0.0197
 6067SOL    HW129834   0.552   3.415   4.289 -0.9642 -1.2402 -0.2805
 6067SOL    HW229835   0.434   3.414   4.204 -1.3943  0.4621  1.2158
 6068SOL     OW29836   0.630   2.163   3.253  0.1072 -0.2356  0.4687
 6068SOL    HW129837   0.568   2.131   3.319 -0.0685  1.0444  0.9307
 6068SOL    HW229838   0.712   2.125   3.284  0.3839  0.2872  0.3704
 6069SOL     OW29839   2.474   3.980  14.998  0.2728  0.0518  0.8351
 6069SOL    HW129840   2.471   3.980  14.903 -0.3395  2.8747  0.8320
 6069SOL    HW229841   2.550   4.037  15.012  1.3549 -1.2106  0.0039
 6070SOL     OW29842   1.524   0.670   7.405  0.8878  0.0577  0.0290
 6070SOL    HW129843   1.535   0.748   7.351  0.2530 -0.1048 -0.3307
 6070SOL    HW229844   1.430   0.678   7.421  0.7312 -3.6614  1.0697
 6071SOL     OW29845   1.146   1.248  11.221  0.0472 -0.1207  0.3195
 6071SOL    HW129846   1.125   1.166  11.177 -0.6817  0.6615 -0.7745
 6071SOL    HW229847   1.106   1.227  11.306 -1.3732 -1.3804 -0.6576
 6072SOL     OW29848   4.607   0.097   5.300 -0.5278  0.5641  0.0091
 6072SOL    HW129849   4.646   0.018   5.263  2.1515  0.5111  2.8462
 6072SOL    HW229850   4.673   0.111   5.369 -0.1608 -0.9432 -0.0357
 6073SOL     OW29851   4.009   1.804   1.577 -0.1551  0.3065  0.6749
 6073SOL    HW129852   4.030   1.882   1.527  2.3261 -0.7266  0.0731
 6073SOL    HW229853   3.998   1.843   1.664 -2.9748 -1.0922  0.9340
 6074SOL     OW29854   3.347   2.660   2.493 -0.5959  0.0128 -0.1134
 6074SOL    HW129855   3.328   2.627   2.581 -1.2711 -0.8952 -0.6003
 6074SOL    HW229856   3.265   2.706   2.475 -0.2197 -0.1410 -2.1496
 6075SOL     OW29857   3.465   0.507  16.257 -0.2211 -0.5773 -0.0855
 6075SOL    HW129858   3.515   0.454  16.319 -0.6083  0.6712  1.3048
 6075SOL    HW229859   3.381   0.512  16.302 -0.2362 -1.0898 -0.0574
 6076SOL     OW29860   4.592   1.754   9.038  0.4855  0.3148 -0.3211
 6076SOL    HW129861   4.557   1.670   9.008  0.2184  0.6041 -0.8218
 6076SOL    HW229862   4.565   1.810   8.965 -0.5858  1.0734  0.6528
 6077SOL     OW29863   2.970   3.856   2.013 -0.0161  0.1135 -0.0751
 6077SOL    HW129864   2.923   3.938   2.028  0.4336  0.4715 -0.6648
 6077SOL    HW229865   2.899   3.799   2.045 -0.0469  0.0715 -0.2174
 6078SOL     OW29866   1.274   2.009   1.929 -0.4291 -0.1166 -0.2909
 6078SOL    HW129867   1.290   2.039   2.018 -0.0883 -1.4860  0.1030
 6078SOL    HW229868   1.277   1.916   1.950  1.7098  0.2076  0.7976
 6079SOL     OW29869   2.541   4.055   9.163  0.1264 -0.6437  0.4993
 6079SOL    HW129870   2.506   4.021   9.081  0.3638 -2.1455  1.0307
 6079SOL    HW229871   2.534   3.980   9.221  1.9030 -0.1274  1.3633
 6080SOL     OW29872   4.071   1.855   3.950  0.1740  0.3405  0.0051
 6080SOL    HW129873   4.048   1.769   3.915 -0.9403  0.9108 -0.6446
 6080SOL    HW229874   4.092   1.904   3.871 -2.9011  0.2619 -0.8534
 6081SOL     OW29875   3.950   2.636   4.483  0.2853  0.3380 -0.0599
 6081SOL    HW129876   3.977   2.655   4.393 -0.5797 -2.4914 -0.9175
 6081SOL    HW229877   3.999   2.704   4.529  1.8672  0.0456 -1.2984
 6082SOL     OW29878   4.426   3.375   3.841 -0.1683  0.1527 -0.2413
 6082SOL    HW129879   4.425   3.402   3.749  0.2476  0.4644 -0.1546
 6082SOL    HW229880   4.417   3.465   3.871  0.5898 -0.2524  1.2244
 6083SOL     OW29881   2.817   2.829   8.327  0.0411 -0.3754  0.2123
 6083SOL    HW129882   2.776   2.769   8.390  0.2108 -0.4598  0.2415
 6083SOL    HW229883   2.874   2.772   8.275  1.4918  2.0145 -0.7866
 6084SOL     OW29884   0.626   2.399  16.997  0.2588 -0.1273 -0.1279
 6084SOL    HW129885   0.562   2.460  16.960 -0.5142 -1.3678 -0.8411
 6084SOL    HW229886   0.680   2.379  16.921  0.4588  1.0160 -0.2922
 6085SOL     OW29887   0.063   4.623   4.631 -0.4975 -0.1755 -0.0839
 6085SOL    HW129888   0.065   4.689   4.562  1.4862 -1.1028 -0.9071
 6085SOL    HW229889   0.114   4.549   4.599  0.0049  0.3760 -0.5515
 6086SOL     OW29890   1.771   4.305   1.938 -0.1165  0.5344 -0.0007
 6086SOL    HW129891   1.753   4.293   1.845  1.7723  0.0929 -0.3014
 6086SOL    HW229892   1.761   4.399   1.946  6.4352  1.3295 -1.1319
 6087SOL     OW29893   2.173   2.576   4.977  0.1082 -0.1204  0.0789
 6087SOL    HW129894   2.199   2.629   5.053  1.0961 -2.6169  1.4764
 6087SOL    HW229895   2.164   2.649   4.915  2.0771  0.1261  0.0995
 6088SOL     OW29896   2.420   0.049   4.043 -0.4622  0.0602  0.2354
 6088SOL    HW129897   2.496   0.002   4.077  0.5782  2.9731  1.8919
 6088SOL    HW229898   2.384   0.091   4.121  0.2956  2.2405 -0.6110
 6089SOL     OW29899   3.912   1.153  12.994  0.2971 -0.1811 -0.0594
 6089SOL    HW129900   3.856   1.170  12.918  0.5073  1.0067  0.0424
 6089SOL    HW229901   3.850   1.154  13.067  1.2539 -0.5317  0.7565
 6090SOL     OW29902   3.628   2.395   5.126  0.4976 -0.0570  0.1370
 6090SOL    HW129903   3.671   2.470   5.084  0.8339  0.7207  1.8849
 6090SOL    HW229904   3.653   2.420   5.215  2.1487  1.0126 -0.6237
 6091SOL     OW29905   1.200   2.570   9.872  0.0346  0.0494  0.2531
 6091SOL    HW129906   1.130   2.562   9.808  0.8106  1.5215 -0.7754
 6091SOL    HW229907   1.237   2.657   9.861  1.9852 -1.0629 -1.9321
 6092SOL     OW29908   0.944   3.144   0.308  0.5619 -0.4295  0.0168
 6092SOL    HW129909   1.019   3.202   0.320  0.4680 -0.9100  2.8735
 6092SOL    HW229910   0.974   3.092   0.234 -0.7523 -1.2814  0.0697
 6093SOL     OW29911   2.764   2.615   2.804  0.4354 -0.5954  0.0386
 6093SOL    HW129912   2.747   2.603   2.710  1.2138 -0.3347 -0.1377
 6093SOL    HW229913   2.786   2.708   2.798  0.0705 -0.4072  1.7369
 6094SOL     OW29914   0.083   0.220   1.798 -0.3244  0.7503 -0.3529
 6094SOL    HW129915   0.030   0.275   1.855  1.1615  1.7012  0.1238
 6094SOL    HW229916   0.121   0.284   1.737 -3.2126  1.6100 -1.2217
 6095SOL     OW29917   3.250   3.969   9.425  0.3364 -0.1962 -0.4201
 6095SOL    HW129918   3.266   3.973   9.331  1.5678 -0.0993 -0.2046
 6095SOL    HW229919   3.329   4.012   9.458 -1.0360  1.5379  0.6165
 6096SOL     OW29920   2.766   1.627   7.705  0.4218 -0.1111  0.4660
 6096SOL    HW129921   2.679   1.665   7.717 -0.6531 -1.4374 -2.9529
 6096SOL    HW229922   2.754   1.532   7.696  0.0685 -0.0153 -0.1014
 6097SOL     OW29923   2.847   3.854   6.325  0.0288 -0.3182 -0.6910
 6097SOL    HW129924   2.805   3.781   6.279  0.1371 -0.9393  0.2066
 6097SOL    HW229925   2.774   3.891   6.374 -0.0978 -3.2004  1.2721
 6098SOL     OW29926   1.759   2.533   2.736  0.1263  0.1298 -0.0884
 6098SOL    HW129927   1.730   2.610   2.685  0.3191  1.1902  1.4153
 6098SOL    HW229928   1.740   2.563   2.825  2.0916 -1.2597  0.7837
 6099SOL     OW29929   3.454   3.943   8.533  0.0445 -0.3838 -0.1727
 6099SOL    HW129930   3.517   4.014   8.539  1.7308 -1.8726 -0.3930
 6099SOL    HW229931   3.451   3.923   8.439  0.2941 -1.4032  0.0407
 6100SOL     OW29932   4.701   0.375  15.609  0.2644  0.3885  0.4332
 6100SOL    HW129933   4.722   0.465  15.587 -1.2432  0.7334  0.4500
 6100SOL    HW229934   4.643   0.386  15.684 -1.0960 -1.1895 -0.3843
 6101SOL     OW29935   2.845   1.096   6.420 -0.1447 -0.0148 -0.2185
 6101SOL    HW129936   2.936   1.122   6.435  0.2175 -1.2882 -0.1625
 6101SOL    HW229937   2.815   1.065   6.505 -1.3149  0.0509 -0.6098
 6102SOL     OW29938   1.683   0.678   9.087  0.7955  0.2241  0.1289
 6102SOL    HW129939   1.660   0.718   9.171 -1.9776 -0.9710 -0.0775
 6102SOL    HW229940   1.610   0.696   9.028  2.3070 -0.1266 -1.8815
 6103SOL     OW29941   1.712   1.039  12.357  0.3597  0.9202  0.5330
 6103SOL    HW129942   1.635   1.077  12.400  1.0128  0.7997  1.8244
 6103SOL    HW229943   1.733   1.116  12.304 -1.0607 -0.5659 -2.1837
 6104SOL     OW29944   0.006   3.808   5.477 -0.5633 -0.1590  0.1971
 6104SOL    HW129945   0.053   3.733   5.441 -1.3129  0.3692 -1.8925
 6104SOL    HW229946   0.060   3.835   5.551 -0.4625  0.7153 -0.1907
 6105SOL     OW29947   2.070   1.638  17.539  0.1011 -0.0162  0.3165
 6105SOL    HW129948   1.988   1.591  17.556 -0.5025  0.8345 -0.2629
 6105SOL    HW229949   2.032   1.725  17.530  2.8993  0.9968 -1.6324
 6106SOL     OW29950   1.503   2.482  14.186  1.1742  0.2665 -0.3736
 6106SOL    HW129951   1.562   2.487  14.111  0.2074 -1.6976 -1.2594
 6106SOL    HW229952   1.498   2.574  14.213  1.7988  0.1090  0.2896
 6107SOL     OW29953   3.626   0.346  15.668  0.7292 -0.1232 -0.2006
 6107SOL    HW129954   3.532   0.358  15.684  1.0378  1.0095  0.7736
 6107SOL    HW229955   3.632   0.368  15.575 -0.7483 -3.0155 -0.9930
 6108SOL     OW29956   3.094   3.506   7.963 -0.0241  0.0614  0.0476
 6108SOL    HW129957   3.106   3.418   7.999 -0.4410 -0.1851 -0.4169
 6108SOL    HW229958   3.128   3.563   8.032  0.1266 -1.1192  0.9455
 6109SOL     OW29959   3.470   4.633   4.725 -0.1880  0.5522 -0.1428
 6109SOL    HW129960   3.558   4.597   4.718  0.3083  1.6556  0.4923
 6109SOL    HW229961   3.427   4.592   4.649 -3.8963 -1.5601  3.0766
 6110SOL     OW29962   0.408   4.005  11.585 -0.3753  0.0021  0.0267
 6110SOL    HW129963   0.432   3.912  11.586 -0.5254 -0.0678 -1.7743
 6110SOL    HW229964   0.381   4.019  11.675 -0.7891  2.6257 -0.5188
 6111SOL     OW29965   0.706   1.138   3.912  0.0532 -0.3615  0.4726
 6111SOL    HW129966   0.623   1.175   3.941 -0.8916 -1.2342 -1.0931
 6111SOL    HW229967   0.708   1.168   3.821 -0.8075  0.5518  0.7522
 6112SOL     OW29968   3.250   4.021   4.740  0.0506  0.7742 -0.2083
 6112SOL    HW129969   3.154   4.029   4.741  0.2390  2.6942  2.0381
 6112SOL    HW229970   3.273   4.113   4.755 -0.8290  0.7436  1.3167
 6113SOL     OW29971   4.560   3.187  11.791  0.5348  0.2351 -0.5894
 6113SOL    HW129972   4.622   3.239  11.740  0.8300  1.0602  0.6138
 6113SOL    HW229973   4.558   3.099  11.752  0.4542  0.0798 -0.2361
 6114SOL     OW29974   0.770   0.656   3.264 -0.0096  0.2792 -0.3515
 6114SOL    HW129975   0.855   0.672   3.224 -0.5835 -2.6685 -2.7512
 6114SOL    HW229976   0.791   0.705   3.344  0.8807 -2.0835  0.8442
 6115SOL     OW29977   4.120   2.130   4.378  0.0819 -0.5541  0.1554
 6115SOL    HW129978   4.125   2.222   4.402 -3.3530 -0.6460  1.2709
 6115SOL    HW229979   4.212   2.107   4.389  0.3187 -0.1610 -0.9888
 6116SOL     OW29980   3.264   2.864   9.841  0.3978  0.5740 -0.4558
 6116SOL    HW129981   3.176   2.834   9.820  0.3341 -0.2663  0.9815
 6116SOL    HW229982   3.264   2.953   9.806 -3.1521  0.6350 -0.2311
 6117SOL     OW29983   0.339   4.103  12.066 -0.0572 -0.6677  0.4431
 6117SOL    HW129984   0.276   4.065  12.129 -1.8577  2.9110  0.8330
 6117SOL    HW229985   0.276   4.156  12.016 -0.0134 -0.9236  0.1231
 6118SOL     OW29986   3.031   2.983   3.745 -0.4345  0.1176  0.1865
 6118SOL    HW129987   2.973   3.050   3.709  1.4533  1.4583 -0.3833
 6118SOL    HW229988   3.103   3.041   3.770  0.1272  0.1463 -1.5106
 6119SOL     OW29989   2.817   1.870   0.133  0.1275  0.2105 -0.2282
 6119SOL    HW129990   2.842   1.817   0.208  1.2561  0.0722 -0.6984
 6119SOL    HW229991   2.741   1.916   0.169 -0.2587  0.6159 -1.5828
 6120SOL     OW29992   2.022   1.052   6.140 -0.3123 -0.3695 -0.7601
 6120SOL    HW129993   1.943   1.105   6.126 -0.1384  0.6671  2.2938
 6120SOL    HW229994   2.088   1.122   6.141 -0.5005 -0.2413  1.6298
 6121SOL     OW29995   3.712   0.583   3.636  0.2416 -0.5771 -0.0518
 6121SOL    HW129996   3.716   0.491   3.611  3.9022 -0.9246  1.7945
 6121SOL    HW229997   3.797   0.609   3.601 -0.8301  0.6568 -1.7446
 6122SOL     OW29998   2.719   2.920   7.239  0.0818 -0.0913 -0.4711
 6122SOL    HW129999   2.645   2.974   7.265 -0.6898 -0.8395 -1.1279
 6122SOL    HW230000   2.757   2.970   7.167  0.3018 -0.9400 -0.9402
 6123SOL     OW30001   0.733   2.756   7.117 -0.2844  0.5313 -0.3736
 6123SOL    HW130002   0.796   2.683   7.110 -0.0994  0.7900 -1.4313
 6123SOL    HW230003   0.755   2.823   7.052  1.0636 -2.0215 -2.5691
 6124SOL     OW30004   2.998   1.737  16.492  0.2598  1.0220 -0.0907
 6124SOL    HW130005   2.903   1.745  16.495  0.0565 -1.3639 -0.4554
 6124SOL    HW230006   3.019   1.797  16.564  1.5508  0.3800  0.0579
 6125SOL     OW30007   0.777   4.404   6.254  0.6893  0.0082  1.0135
 6125SOL    HW130008   0.765   4.359   6.338 -0.3608  0.7096  1.2455
 6125SOL    HW230009   0.867   4.381   6.235  0.9111  1.4508  0.2687
 6126SOL     OW30010   2.105   2.568  11.148 -0.6624  0.0684 -0.4498
 6126SOL    HW130011   2.018   2.571  11.108 -0.9979 -0.1640  0.2584
 6126SOL    HW230012   2.159   2.629  11.097  0.0993 -0.8805 -0.7646
 6127SOL     OW30013   3.677   0.543   1.107  0.1590 -0.0002  0.2064
 6127SOL    HW130014   3.585   0.535   1.134 -0.1832  3.0977 -0.0063
 6127SOL    HW230015   3.670   0.600   1.030 -0.3509 -0.7008 -0.2632
 6128SOL     OW30016   0.511   3.682   7.109 -0.4178  0.1182  0.0086
 6128SOL    HW130017   0.486   3.591   7.097 -0.0912  0.3196 -2.2056
 6128SOL    HW230018   0.570   3.663   7.182  0.9752 -0.5537 -1.2811
 6129SOL     OW30019   0.930   1.880   1.823  0.3749  0.5886 -0.4634
 6129SOL    HW130020   0.946   1.853   1.914  2.5811 -1.2857 -1.4063
 6129SOL    HW230021   0.836   1.872   1.812  0.0127  1.0749  2.2276
 6130SOL     OW30022   3.557   0.759   8.773 -0.4351 -0.2085 -0.1601
 6130SOL    HW130023   3.648   0.773   8.748 -0.2780  0.4041  0.7447
 6130SOL    HW230024   3.574   0.740   8.866  2.2439  2.1910 -0.1726
 6131SOL     OW30025   1.390   1.278  11.889  0.5307 -0.3543  0.1293
 6131SOL    HW130026   1.461   1.216  11.871  0.9896  0.2316 -0.0452
 6131SOL    HW230027   1.400   1.314  11.977 -2.2856  0.5227  0.1071
 6132SOL     OW30028   1.737   0.711   1.246 -0.6365 -0.0274 -0.3770
 6132SOL    HW130029   1.756   0.718   1.152  1.3746 -1.8762 -0.1315
 6132SOL    HW230030   1.799   0.640   1.265  1.5098  1.6368 -1.1959
 6133SOL     OW30031   3.915   1.754   5.178  0.4133  0.1070 -0.3994
 6133SOL    HW130032   3.995   1.756   5.230  1.0855 -0.2215 -1.4259
 6133SOL    HW230033   3.915   1.844   5.147  3.6385 -0.7814 -2.9092
 6134SOL     OW30034   0.916   3.654   1.940 -0.5024 -0.0513 -0.0038
 6134SOL    HW130035   0.958   3.726   1.986 -0.7564  1.4171 -2.1064
 6134SOL    HW230036   0.919   3.585   2.007  0.4436 -0.4791 -0.4908
 6135SOL     OW30037   4.025   2.121   5.638 -0.2043  0.6058  0.1435
 6135SOL    HW130038   4.107   2.097   5.681  0.5083 -0.2647 -1.7011
 6135SOL    HW230039   4.052   2.106   5.548 -1.5857 -1.8633  0.1259
 6136SOL     OW30040   2.022   1.355   8.680  0.2788 -0.1700 -0.3769
 6136SOL    HW130041   1.944   1.304   8.659 -2.5978  2.9495  2.8467
 6136SOL    HW230042   2.067   1.331   8.599 -2.6113 -1.8893 -1.4770
 6137SOL     OW30043   2.114   1.108   4.055 -0.4673  0.4258 -0.2583
 6137SOL    HW130044   2.079   1.022   4.029  1.5470 -0.5836  0.3460
 6137SOL    HW230045   2.134   1.091   4.147  0.4559  0.6747 -0.4118
 6138SOL     OW30046   1.033   3.517  10.861  0.0503 -0.7061  0.0702
 6138SOL    HW130047   1.019   3.537  10.953  0.9761  0.9387 -0.1423
 6138SOL    HW230048   1.021   3.594  10.805 -1.6932 -0.2432  1.0777
 6139SOL     OW30049   4.109   3.494   4.030 -0.4380 -0.5825 -0.7869
 6139SOL    HW130050   4.203   3.507   4.029 -0.1203 -2.6610  1.8022
 6139SOL    HW230051   4.099   3.443   3.950 -2.9244  0.0563 -0.8864
 6140SOL     OW30052   1.833   0.448   0.435 -0.2068  0.2467 -0.0939
 6140SOL    HW130053   1.839   0.471   0.528 -1.8092  2.4636 -0.5165
 6140SOL    HW230054   1.918   0.406   0.427  0.7522  2.1281  0.1881
 6141SOL     OW30055   3.584   0.717   2.729  0.7143  0.1923 -0.1906
 6141SOL    HW130056   3.493   0.748   2.724  1.5222  2.4777 -0.5950
 6141SOL    HW230057   3.599   0.702   2.636  2.5521 -0.2900  0.1877
 6142SOL     OW30058   0.747   0.969   6.460  0.4713 -0.3817 -0.6573
 6142SOL    HW130059   0.741   0.908   6.534 -1.7492  0.8091  0.1365
 6142SOL    HW230060   0.833   1.011   6.463  0.8291 -1.2058  0.4550
 6143SOL     OW30061   4.614   4.289  13.679  0.1231  0.4606  0.2401
 6143SOL    HW130062   4.542   4.350  13.697 -0.5788 -0.4635  0.5510
 6143SOL    HW230063   4.578   4.237  13.607 -1.5491  1.5654  0.2742
 6144SOL     OW30064   1.957   0.822   6.297 -0.0692 -0.5995 -0.3756
 6144SOL    HW130065   1.863   0.806   6.287 -0.2766 -0.4905  1.4931
 6144SOL    HW230066   1.982   0.909   6.263 -1.9813 -0.6706 -1.9866
 6145SOL     OW30067   4.212   1.816   3.414  0.0713 -0.3054  0.1427
 6145SOL    HW130068   4.242   1.789   3.327  0.7220  0.5027  0.1099
 6145SOL    HW230069   4.209   1.912   3.408 -1.6122 -0.3635  0.1527
 6146SOL     OW30070   4.497   1.499   7.467  0.1492 -0.3060 -0.1390
 6146SOL    HW130071   4.484   1.472   7.376 -1.5815  0.0821 -0.0003
 6146SOL    HW230072   4.412   1.473   7.501  0.4963 -0.9131  0.2663
 6147SOL     OW30073   1.946   0.016   2.023 -0.2940  0.1187  0.3085
 6147SOL    HW130074   1.942   0.061   2.108 -0.5025 -1.2291  1.0126
 6147SOL    HW230075   1.863   4.702   2.027 -0.5326  0.4615 -0.6558
 6148SOL     OW30076   0.551   4.036   7.895 -0.8014  0.5645 -0.1779
 6148SOL    HW130077   0.596   4.068   7.816  0.2403 -1.5743 -0.4707
 6148SOL    HW230078   0.630   3.995   7.929 -2.4381 -2.1309  0.3530
 6149SOL     OW30079   0.078   3.917   1.613  0.4689  0.2835  0.2249
 6149SOL    HW130080   0.134   3.958   1.547  1.7460 -0.9514  0.5212
 6149SOL    HW230081   0.101   3.961   1.695 -2.9327  0.0062  1.3384
 6150SOL     OW30082   3.212   3.752   4.022  0.4943 -0.1339  0.3019
 6150SOL    HW130083   3.233   3.845   4.028 -0.0029  0.1612 -2.7158
 6150SOL    HW230084   3.237   3.716   4.107  1.0169 -1.7968 -0.5550
 6151SOL     OW30085   1.079   4.299  12.023  0.4992 -0.4581 -0.3743
 6151SOL    HW130086   1.130   4.375  12.051  1.3073 -1.3517  0.5680
 6151SOL    HW230087   1.087   4.320  11.930 -0.0478  0.0715 -0.3040
 6152SOL     OW30088   0.950   4.260   7.740  0.2132  0.0989 -0.7845
 6152SOL    HW130089   0.985   4.284   7.654  0.9035  0.7945 -0.3137
 6152SOL    HW230090   0.958   4.352   7.767  2.1668 -1.1437  2.7792
 6153SOL     OW30091   0.910   2.791   2.969 -0.1684  0.5572  0.0249
 6153SOL    HW130092   0.960   2.869   2.944 -0.3462  0.1753 -1.5138
 6153SOL    HW230093   0.930   2.728   2.900  0.3252  0.6401  0.0945
 6154SOL     OW30094   1.210   1.202   2.827 -0.1073  0.3331 -0.0595
 6154SOL    HW130095   1.133   1.246   2.863 -0.1436  2.0694 -2.2621
 6154SOL    HW230096   1.289   1.247   2.857  0.3439 -0.5409  0.0883
 6155SOL     OW30097   0.580   0.723   3.923 -0.1360  0.2435  0.0580
 6155SOL    HW130098   0.598   0.801   3.871  3.7970  0.8056  2.2320
 6155SOL    HW230099   0.548   0.654   3.865 -1.7971  1.3087 -0.3121
 6156SOL     OW30100   4.351   3.414  11.503 -0.3068  0.4906  0.6043
 6156SOL    HW130101   4.348   3.426  11.599  1.8308  0.0318  0.7269
 6156SOL    HW230102   4.336   3.320  11.493  1.1452  0.4034 -0.6360
 6157SOL     OW30103   0.730   2.610   4.343  0.4629  0.7013  0.4795
 6157SOL    HW130104   0.802   2.547   4.351 -0.4576 -0.4256 -0.1892
 6157SOL    HW230105   0.688   2.590   4.427  1.1707  1.1826  0.9470
 6158SOL     OW30106   3.389   0.820   5.986 -0.2271  0.5332  0.2928
 6158SOL    HW130107   3.409   0.728   6.002 -0.9093  0.0414 -1.7849
 6158SOL    HW230108   3.328   0.850   6.054  1.3704 -0.7853  2.3295
 6159SOL     OW30109   2.035   4.045   6.633  0.0631 -1.0801 -0.0141
 6159SOL    HW130110   1.945   4.032   6.603 -0.1437  0.2300  0.0225
 6159SOL    HW230111   2.081   3.962   6.623  0.8931 -0.8157  1.5610
 6160SOL     OW30112   1.803   0.047   1.716  0.3443 -0.2089 -0.8772
 6160SOL    HW130113   1.846   4.711   1.665  0.8616  1.2261 -2.3792
 6160SOL    HW230114   1.789   0.107   1.643 -1.8864  0.6028  0.2441
 6161SOL     OW30115   1.967   0.021  13.044  0.0438  0.2136 -0.1989
 6161SOL    HW130116   2.019   4.684  13.006 -1.8059 -0.7333 -0.9745
 6161SOL    HW230117   2.031   0.092  13.054 -0.0156  0.1136  0.9246
 6162SOL     OW30118   3.525   2.940   5.274 -0.0928 -0.3177 -0.1591
 6162SOL    HW130119   3.456   3.003   5.292  1.1306  0.1847  2.6666
 6162SOL    HW230120   3.480   2.901   5.199 -2.5233  2.1261  0.0459
 6163SOL     OW30121   2.882   3.595  15.647  0.0692 -0.3995 -0.1961
 6163SOL    HW130122   2.923   3.548  15.575  0.6737  0.2454 -0.2710
 6163SOL    HW230123   2.966   3.628  15.679 -0.2908  0.6125 -0.2946
 6164SOL     OW30124   3.251   1.990   2.382 -0.5480  0.4376  0.2149
 6164SOL    HW130125   3.315   1.919   2.388 -1.1334 -0.3130 -2.7767
 6164SOL    HW230126   3.261   2.021   2.292 -1.9845  0.4271  0.0554
 6165SOL     OW30127   4.607   0.406   5.001 -0.0596 -0.3379  0.3473
 6165SOL    HW130128   4.654   0.409   5.084  2.0408 -2.5450 -0.7779
 6165SOL    HW230129   4.527   0.446   5.036 -1.5591 -1.6067 -1.6528
 6166SOL     OW30130   1.073   1.819  16.749 -0.0593  0.0315  0.1205
 6166SOL    HW130131   1.131   1.754  16.711 -2.2363 -0.3279 -2.5766
 6166SOL    HW230132   0.999   1.759  16.761  0.9816 -0.8885  2.0293
 6167SOL     OW30133   2.478   3.110   7.956 -0.0383  0.1456 -0.4757
 6167SOL    HW130134   2.431   3.045   8.009 -0.9793  1.6143  0.4727
 6167SOL    HW230135   2.477   3.185   8.015  1.2904  0.9914 -1.5310
 6168SOL     OW30136   4.313   2.022   6.905 -1.0020  0.8123  0.0409
 6168SOL    HW130137   4.360   1.955   6.855  0.6320  2.8072 -1.1237
 6168SOL    HW230138   4.264   1.970   6.968  0.1203 -1.9383 -1.3386
 6169SOL     OW30139   3.492   4.378   3.072 -0.1998  0.3718  0.4011
 6169SOL    HW130140   3.556   4.307   3.075 -0.4053  0.1401 -0.6902
 6169SOL    HW230141   3.448   4.368   3.156  0.9429 -1.2535  0.7968
 6170SOL     OW30142   1.163   0.135   2.839 -0.3095  0.0656 -0.0556
 6170SOL    HW130143   1.099   0.091   2.895  0.5187 -0.3055  0.6004
 6170SOL    HW230144   1.242   0.108   2.886  0.0734 -1.2504 -1.4449
 6171SOL     OW30145   1.660   3.469   8.541  0.1474  0.1282 -0.3356
 6171SOL    HW130146   1.635   3.546   8.593  1.9197  0.2006  0.3982
 6171SOL    HW230147   1.750   3.468   8.573 -0.4677  0.5472  1.4421
 6172SOL     OW30148   0.572   2.631   8.042  0.0673  0.4076 -0.2686
 6172SOL    HW130149   0.511   2.560   8.020  1.5227 -1.6815  2.3100
 6172SOL    HW230150   0.513   2.705   8.041  1.7686  1.7236 -2.1343
 6173SOL     OW30151   2.884   3.480   3.525 -0.3776 -0.0312 -0.0081
 6173SOL    HW130152   2.798   3.484   3.566  0.5249 -2.2489  2.1274
 6173SOL    HW230153   2.876   3.547   3.457 -0.8082 -0.1664 -0.0868
 6174SOL     OW30154   0.082   4.330   6.494 -0.0860 -0.5565  0.4306
 6174SOL    HW130155   0.097   4.419   6.463  0.2190 -1.1971 -1.2483
 6174SOL    HW230156   0.155   4.288   6.449 -1.5541 -0.5487 -1.9529
 6175SOL     OW30157   2.307   3.801   1.043 -0.4155 -0.2673  0.0225
 6175SOL    HW130158   2.275   3.885   1.075  0.4311  0.1732 -0.2835
 6175SOL    HW230159   2.397   3.823   1.022 -1.1737  1.1249 -1.7621
 6176SOL     OW30160   1.628   3.149   4.313 -0.3195  0.5245  0.1430
 6176SOL    HW130161   1.647   3.178   4.402  2.7603 -2.4237  0.4613
 6176SOL    HW230162   1.540   3.117   4.334 -0.2653  1.5914  2.0229
 6177SOL     OW30163   4.465   3.073   8.683 -0.0079  0.6966  0.3906
 6177SOL    HW130164   4.496   3.124   8.758 -0.5365  0.0802  1.0281
 6177SOL    HW230165   4.443   2.989   8.723  0.6039  0.0489 -0.6262
 6178SOL     OW30166   4.147   4.182  16.657 -0.1567 -0.0926  0.0202
 6178SOL    HW130167   4.172   4.227  16.577 -2.3678  0.0804 -0.5751
 6178SOL    HW230168   4.053   4.168  16.648  0.0674 -0.9953 -0.9177
 6179SOL     OW30169   3.356   2.427   7.912  0.0484 -0.4524 -0.0486
 6179SOL    HW130170   3.327   2.518   7.906  0.2180 -0.2238  2.5495
 6179SOL    HW230171   3.284   2.366   7.901 -2.1237  2.3240 -1.1674
 6180SOL     OW30172   1.370   2.956   4.139 -0.6012  0.3274 -0.6397
 6180SOL    HW130173   1.340   3.034   4.186  0.0025  1.3379 -1.8914
 6180SOL    HW230174   1.306   2.952   4.067 -0.5046  1.8312 -0.8214
 6181SOL     OW30175   1.128   4.712   7.612 -0.1717 -0.3623 -0.1241
 6181SOL    HW130176   1.188   4.710   7.538  0.1270  0.9652  0.0828
 6181SOL    HW230177   1.048   4.683   7.568  0.4817 -1.8548 -0.3456
 6182SOL     OW30178   2.906   1.640  14.974 -0.0736  0.7780 -0.2522
 6182SOL    HW130179   2.919   1.630  14.880  0.2904 -0.0982 -0.1107
 6182SOL    HW230180   2.823   1.685  14.963  0.0397  0.4784 -2.3478
 6183SOL     OW30181   3.227   2.543   6.157  0.5425 -0.4689 -0.7352
 6183SOL    HW130182   3.167   2.611   6.126  0.4107  0.1371  0.8427
 6183SOL    HW230183   3.168   2.486   6.206  1.5451 -0.8093  0.0548
 6184SOL     OW30184   2.580   0.435   8.015 -0.1943 -0.5571 -0.5068
 6184SOL    HW130185   2.567   0.450   8.109  0.7138  1.5927 -0.7145
 6184SOL    HW230186   2.578   0.341   8.001 -1.8055 -0.5916 -0.0010
 6185SOL     OW30187   2.082   2.600   2.861  0.2620 -0.5852 -0.0784
 6185SOL    HW130188   2.135   2.677   2.885 -1.2248  0.5753 -0.5241
 6185SOL    HW230189   1.993   2.630   2.878 -0.8090 -2.5529 -2.2660
 6186SOL     OW30190   3.387   2.794   3.808 -0.1095 -0.1059 -0.0445
 6186SOL    HW130191   3.412   2.812   3.898 -0.5268 -0.2145  0.0917
 6186SOL    HW230192   3.309   2.745   3.833 -0.3555  0.0735 -0.4513
 6187SOL     OW30193   2.733   0.210   8.961  0.2280 -0.6391 -0.4449
 6187SOL    HW130194   2.648   0.226   9.002 -0.2129  0.8190 -1.9672
 6187SOL    HW230195   2.703   0.226   8.872  0.4568  1.2997 -0.1695
 6188SOL     OW30196   1.542   4.351   6.486  0.2738 -0.2106  0.1789
 6188SOL    HW130197   1.575   4.321   6.402  0.5048 -0.3571  0.3193
 6188SOL    HW230198   1.619   4.334   6.541  0.7042 -3.3373 -1.4021
 6189SOL     OW30199   0.761   3.627   6.383 -0.0453  0.1324 -0.3128
 6189SOL    HW130200   0.836   3.660   6.434  0.7800 -1.2331 -0.6437
 6189SOL    HW230201   0.798   3.606   6.297  1.5958  0.0669  0.4111
 6190SOL     OW30202   0.404   0.582   3.245 -0.4327  0.0480  0.0274
 6190SOL    HW130203   0.453   0.523   3.303 -2.2224 -2.0642 -0.6182
 6190SOL    HW230204   0.430   0.560   3.156  1.7723 -1.5934  1.0721
 6191SOL     OW30205   4.515   1.482   2.637 -0.1447 -0.4571  0.3209
 6191SOL    HW130206   4.462   1.537   2.694 -0.7096 -0.1001 -0.5507
 6191SOL    HW230207   4.596   1.532   2.626  0.4963 -1.0475  2.3134
 6192SOL     OW30208   4.230   0.731   4.797 -0.0082  0.3258 -0.2881
 6192SOL    HW130209   4.303   0.760   4.851 -0.1623 -0.5094  0.3740
 6192SOL    HW230210   4.169   0.707   4.867  0.1597  0.1538 -0.2023
 6193SOL     OW30211   2.685   0.032  12.518 -0.0051  0.0474 -0.5200
 6193SOL    HW130212   2.679   0.039  12.613  1.0320 -0.6583 -0.4012
 6193SOL    HW230213   2.741   4.688  12.508  0.8678  0.7604 -1.1505
 6194SOL     OW30214   0.289   4.591   2.185  0.3445 -0.1258 -0.5531
 6194SOL    HW130215   0.217   4.589   2.248 -1.7104  1.4870 -2.9037
 6194SOL    HW230216   0.241   4.589   2.103  0.4708  1.0423 -0.6473
 6195SOL     OW30217   0.496   1.198  11.380 -0.1129 -0.4602 -0.0146
 6195SOL    HW130218   0.496   1.103  11.391  1.4416 -0.3236  1.1284
 6195SOL    HW230219   0.583   1.228  11.406  0.4850 -0.6625 -1.7408
 6196SOL     OW30220   3.912   4.254   1.718 -0.3138  0.1803 -0.2957
 6196SOL    HW130221   3.975   4.323   1.737 -0.8571 -0.0589  2.4196
 6196SOL    HW230222   3.957   4.200   1.653 -0.7549 -1.0803  0.4396
 6197SOL     OW30223   3.031   2.295   8.949  0.5280 -0.0503  0.7400
 6197SOL    HW130224   3.124   2.317   8.961  0.4834  0.4671  0.1749
 6197SOL    HW230225   2.992   2.372   8.908 -0.1591 -1.5466 -1.4217
 6198SOL     OW30226   1.432   3.490   7.898 -0.2373  0.3540  0.7977
 6198SOL    HW130227   1.367   3.469   7.965  0.9789 -2.4381  1.1183
 6198SOL    HW230228   1.414   3.583   7.887 -1.1484 -0.0958 -1.7289
 6199SOL     OW30229   1.026   3.913   3.451  0.3459  0.2789 -0.4184
 6199SOL    HW130230   1.066   3.992   3.416  1.5160 -0.0185  0.2649
 6199SOL    HW230231   0.945   3.921   3.400 -0.0991  1.3167  0.4269
 6200SOL     OW30232   4.405   2.695  11.161  0.2056 -0.1829  0.6425
 6200SOL    HW130233   4.482   2.655  11.199  0.0090 -0.5192  0.6833
 6200SOL    HW230234   4.345   2.622  11.148  2.1660 -1.3398 -1.8934
 6201SOL     OW30235   3.818   2.863   4.014 -0.5421 -0.2644 -0.3455
 6201SOL    HW130236   3.879   2.935   3.997  0.7232 -1.1271  0.5653
 6201SOL    HW230237   3.779   2.878   4.101  1.4077 -0.7484  0.6010
 6202SOL     OW30238   4.132   2.512  15.895 -0.8691 -0.6592  0.0156
 6202SOL    HW130239   4.175   2.582  15.845  1.5887 -0.4929  2.3971
 6202SOL    HW230240   4.059   2.565  15.927 -0.6063  0.4739 -1.2404
 6203SOL     OW30241   1.363   0.066   3.010  0.5948  0.1904 -0.3363
 6203SOL    HW130242   1.409   4.717   3.025 -0.0095 -0.3319 -1.3506
 6203SOL    HW230243   1.427   0.128   2.975 -1.2256  1.8379 -0.7170
 6204SOL     OW30244   1.885   0.371   3.660  0.2699  0.4805 -0.5618
 6204SOL    HW130245   1.929   0.378   3.576  0.1338 -2.6722 -0.9103
 6204SOL    HW230246   1.802   0.407   3.629  0.9221  0.0593 -2.7560
 6205SOL     OW30247   1.670   2.695   7.584 -0.2144  0.4028 -0.1887
 6205SOL    HW130248   1.694   2.774   7.633 -2.2153  0.9151 -0.0410
 6205SOL    HW230249   1.760   2.667   7.570  0.2064  0.5630  2.2620
 6206SOL     OW30250   3.131   0.184   1.873 -0.3246 -0.4895 -0.2524
 6206SOL    HW130251   3.153   0.276   1.886  0.3086 -0.6359 -0.3156
 6206SOL    HW230252   3.204   0.160   1.816 -1.1148 -2.4876 -0.4435
 6207SOL     OW30253   2.955   2.979   5.453  0.5728 -0.2353  0.4097
 6207SOL    HW130254   2.943   2.938   5.539  1.7849 -2.3379 -0.4106
 6207SOL    HW230255   2.956   3.073   5.468  0.1629 -0.2156  0.3214
 6208SOL     OW30256   3.271   4.010   4.134  0.2496  0.2240  0.0477
 6208SOL    HW130257   3.304   4.084   4.083  0.8942 -0.2446 -0.2112
 6208SOL    HW230258   3.328   4.006   4.210 -0.7938 -1.1491  0.7583
 6209SOL     OW30259   1.525   2.708   7.001  0.0630  0.2956  0.2288
 6209SOL    HW130260   1.620   2.718   6.998 -0.0582  0.9238 -1.8558
 6209SOL    HW230261   1.511   2.637   7.064  3.1444 -0.4569  0.0877
 6210SOL     OW30262   1.757   4.576   1.919  0.0450  0.0063  0.0974
 6210SOL    HW130263   1.783   4.621   1.839  0.7698 -1.2222 -0.3691
 6210SOL    HW230264   1.664   4.596   1.926  0.1217  0.2042  0.5221
 6211SOL     OW30265   0.180   0.550   1.766 -0.6381 -0.1304  1.0884
 6211SOL    HW130266   0.237   0.592   1.701 -1.5927 -0.9191 -0.2503
 6211SOL    HW230267   0.109   0.520   1.710  0.4592 -0.8703  0.0744
 6212SOL     OW30268   3.845   2.467   6.263  0.4917  0.0682 -0.3553
 6212SOL    HW130269   3.883   2.402   6.204 -1.9216 -1.8209  0.1365
 6212SOL    HW230270   3.909   2.469   6.334 -0.1796 -2.2033  0.3125
 6213SOL     OW30271   2.681   0.545   2.209 -0.1320  0.0099 -0.4167
 6213SOL    HW130272   2.637   0.563   2.292 -0.2891  2.2207 -0.9827
 6213SOL    HW230273   2.755   0.606   2.211 -1.8674  2.1316 -1.5506
 6214SOL     OW30274   2.255   1.793   3.584  0.4119 -0.1731 -0.5907
 6214SOL    HW130275   2.163   1.811   3.565  0.3662  0.8573  0.6856
 6214SOL    HW230276   2.247   1.813   3.677  0.9544  3.2801 -1.3053
 6215SOL     OW30277   3.874   0.201  12.827 -0.3630  0.3449 -0.6773
 6215SOL    HW130278   3.791   0.201  12.780 -1.0273  0.8800  0.4674
 6215SOL    HW230279   3.849   0.268  12.891  1.8760  1.7643 -1.3170
 6216SOL     OW30280   0.885   0.200  16.359  0.1281 -0.0147 -0.6989
 6216SOL    HW130281   0.952   0.172  16.421 -0.4749 -1.4096 -0.6735
 6216SOL    HW230282   0.809   0.152  16.392 -0.2946  0.0609 -1.5655
 6217SOL     OW30283   0.186   1.865   4.138  0.1861  0.1818 -0.5578
 6217SOL    HW130284   0.091   1.859   4.136  0.2333 -0.6930 -0.2140
 6217SOL    HW230285   0.197   1.931   4.206 -3.8380  0.1137  0.1358
 6218SOL     OW30286   0.055   4.428   4.308  0.5881  0.4137  0.7988
 6218SOL    HW130287   0.026   4.389   4.390  0.2172 -1.8479 -0.4029
 6218SOL    HW230288   0.135   4.470   4.339  0.4070  1.5594 -0.2753
 6219SOL     OW30289   1.116   0.368   3.449 -0.6130  0.1886  1.1126
 6219SOL    HW130290   1.073   0.357   3.534  2.4364 -0.4017  2.5626
 6219SOL    HW230291   1.204   0.396   3.473 -0.7900 -0.2006  2.2322
 6220SOL     OW30292   1.063   4.159   3.396 -0.2312 -0.5898  0.3047
 6220SOL    HW130293   0.974   4.143   3.425  0.1461 -1.2414  1.0998
 6220SOL    HW230294   1.057   4.254   3.405 -0.7210 -0.5886 -0.0424
 6221SOL     OW30295   3.629   1.764   7.049  0.0825 -0.6725  0.4343
 6221SOL    HW130296   3.712   1.754   7.002  0.3856  1.4257  0.5067
 6221SOL    HW230297   3.635   1.739   7.142 -3.0462 -0.1730  0.7412
 6222SOL     OW30298   0.902   0.192  11.304  0.1424  0.2155 -0.4795
 6222SOL    HW130299   0.856   0.263  11.260  0.2433  0.4814 -0.1536
 6222SOL    HW230300   0.834   0.143  11.351  0.9703 -0.9908 -0.5367
 6223SOL     OW30301   1.297   1.754   3.353 -1.0318  0.5515  0.4637
 6223SOL    HW130302   1.338   1.733   3.269 -1.1426  0.4459  0.4368
 6223SOL    HW230303   1.222   1.695   3.361 -1.3134  0.8554  0.1159
 6224SOL     OW30304   2.644   0.031   3.660  0.6217 -0.1871 -0.3450
 6224SOL    HW130305   2.564   0.080   3.678 -1.1287 -3.2797  0.3051
 6224SOL    HW230306   2.692   0.045   3.742 -0.2241  2.2302 -0.2491
 6225SOL     OW30307   0.715   2.396  13.580 -0.1207 -0.5567  0.1075
 6225SOL    HW130308   0.746   2.335  13.514  0.0435 -1.5115  1.0552
 6225SOL    HW230309   0.621   2.374  13.575 -0.1822  0.5300 -3.4917
 6226SOL     OW30310   4.468   1.799   9.757  0.4057 -0.3017  0.5393
 6226SOL    HW130311   4.487   1.858   9.830 -2.2079 -2.5799  3.0768
 6226SOL    HW230312   4.542   1.739   9.761  2.1040  1.7820  0.1548
 6227SOL     OW30313   3.970   0.482   9.988 -0.0359 -0.8974 -0.1018
 6227SOL    HW130314   3.906   0.553   9.979 -1.5765 -2.2990 -0.2392
 6227SOL    HW230315   3.909   0.418  10.026  0.1522 -0.8936  0.2027
 6228SOL     OW30316   2.475   0.348   5.529 -0.1582  0.0178  0.1232
 6228SOL    HW130317   2.399   0.291   5.524 -0.0027  0.0007 -1.8668
 6228SOL    HW230318   2.456   0.359   5.623 -1.5400 -2.6573  0.1467
 6229SOL     OW30319   4.344   3.741  14.600  0.4927 -0.0807 -0.4497
 6229SOL    HW130320   4.343   3.665  14.541  1.6986  0.3057 -0.9568
 6229SOL    HW230321   4.420   3.728  14.656  0.6397  1.4543 -0.3122
 6230SOL     OW30322   1.473   2.281   4.441  0.3081 -0.0314 -0.1425
 6230SOL    HW130323   1.447   2.275   4.349  1.5636  1.3232 -0.6058
 6230SOL    HW230324   1.541   2.214   4.442 -0.0740 -0.4041  0.4730
 6231SOL     OW30325   3.476   0.549   2.143  0.0895 -0.1804 -0.1601
 6231SOL    HW130326   3.433   0.634   2.132 -2.9487 -1.2226  3.5611
 6231SOL    HW230327   3.408   0.494   2.105  0.9833 -1.6895  0.4053
 6232SOL     OW30328   2.297   4.023   9.750  0.1992 -0.0013 -0.0620
 6232SOL    HW130329   2.365   4.082   9.784  1.1539  0.3800 -2.6430
 6232SOL    HW230330   2.221   4.048   9.802  0.9740  0.8092  0.6962
 6233SOL     OW30331   4.621   3.798   2.036  0.7929  0.6418 -0.1567
 6233SOL    HW130332   4.609   3.817   2.129 -2.8422 -0.6902 -0.3605
 6233SOL    HW230333   4.716   3.785   2.039  1.0395  2.1437 -1.3828
 6234SOL     OW30334   0.952   3.142   6.390  0.3809 -0.3107  0.6191
 6234SOL    HW130335   0.939   3.229   6.427  1.4606  0.7167 -1.4889
 6234SOL    HW230336   1.006   3.166   6.316  3.4909 -1.0450  2.6344
 6235SOL     OW30337   3.517   2.578   3.501  0.0908  0.4220 -0.4908
 6235SOL    HW130338   3.422   2.570   3.494  0.0495 -1.6961  2.6249
 6235SOL    HW230339   3.528   2.583   3.406  0.5784 -0.7194 -0.4935
 6236SOL     OW30340   0.186   3.976  12.245  0.4903  0.0401  0.1361
 6236SOL    HW130341   0.227   3.893  12.220  1.0188 -0.0086  1.1571
 6236SOL    HW230342   0.263   4.014  12.288  0.2256  1.3543 -0.5454
 6237SOL     OW30343   4.243   2.027   6.118 -0.4213  0.0679 -0.5366
 6237SOL    HW130344   4.237   1.931   6.114 -3.2791  0.2292 -0.2792
 6237SOL    HW230345   4.154   2.058   6.130  0.0533  1.0065  0.6496
 6238SOL     OW30346   1.124   4.219  12.683 -0.1399  0.1578 -0.5381
 6238SOL    HW130347   1.030   4.229  12.673 -0.2390  0.2035  0.4930
 6238SOL    HW230348   1.139   4.124  12.682  1.9633  0.4700 -0.4420
 6239SOL     OW30349   4.046   1.019   8.036  0.3276  0.1009  0.3717
 6239SOL    HW130350   4.008   0.955   8.097  2.5444 -0.4228  1.2301
 6239SOL    HW230351   4.136   0.990   8.026 -0.2415 -1.2461 -0.7959
 6240SOL     OW30352   2.850   3.129   4.308  0.5449  0.1050  0.3402
 6240SOL    HW130353   2.827   3.137   4.216  1.0106 -2.2297  0.0054
 6240SOL    HW230354   2.797   3.051   4.327 -0.6079 -0.0888 -3.7509
 6241SOL     OW30355   2.212   2.489   6.393 -0.4043  0.3103  0.1829
 6241SOL    HW130356   2.148   2.539   6.443  1.3686 -0.9248  3.6627
 6241SOL    HW230357   2.153   2.436   6.340  0.1783 -1.2687  1.1363
 6242SOL     OW30358   0.543   1.158   1.013 -0.1958  0.2065  0.1799
 6242SOL    HW130359   0.591   1.220   0.959  1.9443 -1.2647  0.4037
 6242SOL    HW230360   0.455   1.190   0.992  0.3205  2.7402  1.8613
 6243SOL     OW30361   2.666   4.430   3.247  0.1954  0.0310  0.4970
 6243SOL    HW130362   2.642   4.470   3.330  2.3826 -0.4487  1.3495
 6243SOL    HW230363   2.652   4.336   3.262 -0.7299  0.2042  0.7597
 6244SOL     OW30364   3.345   3.277   0.812  0.3454 -0.2715  0.1658
 6244SOL    HW130365   3.433   3.314   0.801  0.2151  0.3703  1.2767
 6244SOL    HW230366   3.318   3.327   0.889 -0.8985 -1.2220  0.3579
 6245SOL     OW30367   2.211   1.526   8.769  0.4103  0.1247 -0.7199
 6245SOL    HW130368   2.234   1.535   8.862  0.2872  0.9678 -0.7739
 6245SOL    HW230369   2.136   1.467   8.768 -0.3618  1.0823  0.0315
 6246SOL     OW30370   4.212   3.001  12.235  0.3980 -0.2294 -0.0760
 6246SOL    HW130371   4.234   2.982  12.144  0.0504 -3.6942  0.5524
 6246SOL    HW230372   4.119   3.019  12.230  0.3720 -0.5638 -0.7107
 6247SOL     OW30373   3.479   3.093   4.558  0.8404  0.4503 -0.2619
 6247SOL    HW130374   3.490   3.188   4.567  3.0461  0.1159  0.5331
 6247SOL    HW230375   3.412   3.085   4.491  1.3699  1.9459 -0.9842
 6248SOL     OW30376   1.952   3.314   7.144  0.2932 -0.3926  0.2529
 6248SOL    HW130377   1.893   3.361   7.204  0.2102 -0.7363  0.4457
 6248SOL    HW230378   1.900   3.234   7.136  0.8474 -0.5604 -1.6762
 6249SOL     OW30379   4.134   2.213   0.884  0.4656  0.1229  0.3224
 6249SOL    HW130380   4.177   2.294   0.857  0.6435  0.9589  3.2079
 6249SOL    HW230381   4.045   2.246   0.888  1.1889  2.1055 -0.1525
 6250SOL     OW30382   3.401   3.933   7.132 -0.3353  0.0820 -0.6699
 6250SOL    HW130383   3.387   3.956   7.224  0.3411 -0.5800 -0.4083
 6250SOL    HW230384   3.436   4.019   7.106  2.8402 -1.6289 -2.0640
 6251SOL     OW30385   3.299   2.098   2.144  0.0479 -0.0431 -0.2053
 6251SOL    HW130386   3.309   2.191   2.124 -0.3661  0.0703  0.1194
 6251SOL    HW230387   3.320   2.066   2.056  0.0575  0.2890 -0.3227
 6252SOL     OW30388   1.987   1.254   1.964 -0.7368 -0.2468 -0.0470
 6252SOL    HW130389   1.947   1.217   2.042  1.2766 -2.2073  0.0735
 6252SOL    HW230390   2.052   1.188   1.939 -0.0359 -0.0608  1.3364
 6253SOL     OW30391   3.903   3.203  11.054 -0.5143 -0.7892 -0.7210
 6253SOL    HW130392   3.908   3.163  11.141 -0.5038 -0.2270 -0.4595
 6253SOL    HW230393   3.993   3.191  11.022  0.2830  0.9794  0.8035
 6254SOL     OW30394   0.161   3.243   6.058  0.1841 -0.2008 -0.2794
 6254SOL    HW130395   0.195   3.310   6.117 -1.2577  0.7050 -0.4675
 6254SOL    HW230396   0.214   3.262   5.980  0.6614  0.3264  0.1752
 6255SOL     OW30397   2.575   3.979   8.344  0.6679 -0.2015  0.1480
 6255SOL    HW130398   2.531   3.955   8.262  2.1728 -2.1304 -0.1049
 6255SOL    HW230399   2.617   3.896   8.370  0.4218 -0.2987  0.2294
 6256SOL     OW30400   2.695   4.634  14.330  0.0210  0.2490 -0.2838
 6256SOL    HW130401   2.760   4.585  14.279  0.9383  1.4539 -0.2839
 6256SOL    HW230402   2.612   4.613  14.288  0.7007  0.4958 -1.7521
 6257SOL     OW30403   1.890   0.705  15.482  0.2668  0.5138  0.1403
 6257SOL    HW130404   1.879   0.708  15.577 -0.0153 -1.8582  0.1675
 6257SOL    HW230405   1.804   0.678  15.452 -0.1261  1.4268  0.4490
 6258SOL     OW30406   4.689   4.275   5.937 -0.1044  0.0691  0.0085
 6258SOL    HW130407   4.704   4.184   5.910  2.6533  0.4668  0.1612
 6258SOL    HW230408   0.049   4.297   5.942  0.0719 -0.6153 -0.1954
 6259SOL     OW30409   2.938   2.794   6.609 -0.3214  0.1752  0.3443
 6259SOL    HW130410   2.865   2.770   6.667 -0.8748  1.5446  0.2260
 6259SOL    HW230411   3.010   2.769   6.667  0.3866  0.1299 -0.5552
 6260SOL     OW30412   2.164   3.938   3.857 -0.0298  0.3628 -0.0133
 6260SOL    HW130413   2.201   3.982   3.933 -0.3223 -0.1469  0.4245
 6260SOL    HW230414   2.071   3.940   3.877 -0.0258  0.3622  0.0052
 6261SOL     OW30415   1.432   2.000   9.186  0.5512  0.0031 -0.2019
 6261SOL    HW130416   1.358   1.988   9.125  0.0622  4.0845 -0.3897
 6261SOL    HW230417   1.409   1.931   9.249 -1.0926 -0.1758 -0.9850
 6262SOL     OW30418   4.693   2.575   1.200  0.2620  0.2139 -0.0529
 6262SOL    HW130419   0.016   2.533   1.135  1.7082  1.4970  0.3537
 6262SOL    HW230420   0.019   2.647   1.222 -1.8798  2.0206 -0.2043
 6263SOL     OW30421   1.684   4.372   7.846 -0.0942 -0.3362  0.2677
 6263SOL    HW130422   1.610   4.429   7.869  1.0105  0.8137  0.9718
 6263SOL    HW230423   1.746   4.391   7.916 -1.4654 -2.6274  2.0973
 6264SOL     OW30424   3.969   1.560   1.465 -0.1149 -0.1173  0.4442
 6264SOL    HW130425   3.985   1.645   1.506 -0.1270 -1.1982  2.7309
 6264SOL    HW230426   4.055   1.521   1.482 -0.1587  0.1087  1.2082
 6265SOL     OW30427   1.096   1.581   6.877 -0.3112 -0.2269  0.0525
 6265SOL    HW130428   1.174   1.602   6.928  0.3892 -1.2857 -0.5851
 6265SOL    HW230429   1.108   1.641   6.803 -2.6205 -0.1931 -0.2776
 6266SOL     OW30430   1.072   2.386   7.609  0.3601 -0.0463 -0.2047
 6266SOL    HW130431   1.125   2.318   7.566  0.9656  0.0405  0.3943
 6266SOL    HW230432   1.133   2.425   7.672  1.1517 -1.0731 -0.3355
 6267SOL     OW30433   1.005   4.182   0.403  0.1185  0.8432 -0.2703
 6267SOL    HW130434   1.009   4.101   0.453  0.1854  2.2714  2.0512
 6267SOL    HW230435   1.081   4.224   0.445 -0.8886  1.1334  1.3013
 6268SOL     OW30436   0.244   0.247  12.720 -0.2973  0.2942  0.2743
 6268SOL    HW130437   0.330   0.241  12.762 -0.9155  0.5240  1.5637
 6268SOL    HW230438   0.250   0.195  12.640 -0.8699  2.1547 -0.9838
 6269SOL     OW30439   2.471   2.728   9.047 -0.8108 -0.2066 -0.0435
 6269SOL    HW130440   2.567   2.730   9.038 -0.7177 -0.8895  0.7931
 6269SOL    HW230441   2.457   2.814   9.086  0.8260  0.1681 -0.2808
 6270SOL     OW30442   0.045   3.718   3.997 -0.5402 -0.2257 -0.1101
 6270SOL    HW130443   4.732   3.655   3.942 -0.1426  1.6641 -2.6305
 6270SOL    HW230444   0.012   3.694   4.083 -0.1760 -1.1844 -0.2341
 6271SOL     OW30445   0.390   4.427   7.105 -0.4843  0.0286  0.1554
 6271SOL    HW130446   0.333   4.350   7.101  1.1306 -1.2069  0.6679
 6271SOL    HW230447   0.363   4.456   7.192  0.1329  2.4330 -0.4629
 6272SOL     OW30448   3.545   3.133   4.848 -0.6750  0.2087  0.2210
 6272SOL    HW130449   3.521   3.210   4.796  1.0430 -0.0906 -1.0393
 6272SOL    HW230450   3.634   3.151   4.880  0.7393 -0.9030 -3.1279
 6273SOL     OW30451   2.610   3.696   3.545 -0.4049  0.0983 -0.0868
 6273SOL    HW130452   2.699   3.680   3.514 -0.6423  2.2310 -1.8607
 6273SOL    HW230453   2.613   3.664   3.635 -0.9072  0.3838  0.0268
 6274SOL     OW30454   1.728   0.307   9.412 -0.0332 -0.1053 -0.1814
 6274SOL    HW130455   1.760   0.350   9.333 -0.2477  3.1659  1.5251
 6274SOL    HW230456   1.704   0.224   9.371  1.6476 -2.6338  3.8882
 6275SOL     OW30457   3.546   1.666   9.195  0.6427 -0.0945 -0.0825
 6275SOL    HW130458   3.527   1.652   9.102 -0.1005  1.9553 -0.2470
 6275SOL    HW230459   3.520   1.758   9.194 -0.6711 -0.4607 -0.2660
 6276SOL     OW30460   0.113   1.315   1.532 -0.3110  0.2831 -0.2877
 6276SOL    HW130461   0.111   1.261   1.453  1.7996  1.2132 -0.9747
 6276SOL    HW230462   0.074   1.257   1.598  0.2579  2.2502  1.7847
 6277SOL     OW30463   0.136   3.382   6.912  0.9442  0.2360 -0.0205
 6277SOL    HW130464   0.098   3.466   6.940  0.6993 -0.1023  0.6399
 6277SOL    HW230465   0.101   3.367   6.824 -1.8564 -3.2063  1.6773
 6278SOL     OW30466   0.123   3.058   8.799  0.8399  0.4698 -0.2784
 6278SOL    HW130467   0.083   3.116   8.735  0.9254 -1.6935 -2.2789
 6278SOL    HW230468   0.199   3.109   8.828  0.9915 -0.5844  1.2301
 6279SOL     OW30469   3.367   0.702   8.481 -0.4581  0.3576  0.1666
 6279SOL    HW130470   3.382   0.639   8.411 -0.8654 -0.2873  0.6588
 6279SOL    HW230471   3.382   0.643   8.555  3.0918  0.3473 -0.5545
 6280SOL     OW30472   4.337   1.295   5.169 -0.5293  0.0616  0.0915
 6280SOL    HW130473   4.331   1.360   5.238  0.5241 -0.8598  1.0472
 6280SOL    HW230474   4.429   1.270   5.172 -0.4332  0.4162  0.0835
 6281SOL     OW30475   2.011   3.636   1.955  0.4903  0.7693  0.1472
 6281SOL    HW130476   1.938   3.640   1.892  0.3436 -1.1731  0.1956
 6281SOL    HW230477   2.038   3.727   1.943 -2.5608  1.7746  0.8528
 6282SOL     OW30478   0.405   2.479   8.503  0.1356  0.2109  0.0647
 6282SOL    HW130479   0.403   2.405   8.564  0.6734  0.0633 -0.0919
 6282SOL    HW230480   0.499   2.492   8.487  0.2820 -1.0545 -0.1174
 6283SOL     OW30481   4.354   0.880   9.699  0.0098 -0.3047  0.5281
 6283SOL    HW130482   4.368   0.970   9.669 -1.0374 -0.5621 -0.7380
 6283SOL    HW230483   4.279   0.863   9.641  0.8471  1.7589 -1.1606
 6284SOL     OW30484   2.856   1.477   8.337  0.4969  0.4519 -0.1698
 6284SOL    HW130485   2.870   1.528   8.257  0.8279  1.6405  0.6529
 6284SOL    HW230486   2.806   1.409   8.292 -0.1222 -0.1670  1.4787
 6285SOL     OW30487   2.634   1.332   3.106  0.8511 -0.0028 -0.0922
 6285SOL    HW130488   2.641   1.397   3.177  1.1114 -0.9854  0.7838
 6285SOL    HW230489   2.686   1.260   3.140  1.0960  1.8249  3.4239
 6286SOL     OW30490   0.968   0.558  12.844  0.3120  0.0275  0.1415
 6286SOL    HW130491   0.875   0.541  12.853  0.3786  0.5328  1.7703
 6286SOL    HW230492   1.021   0.485  12.876 -0.9467 -2.0260 -2.4801
 6287SOL     OW30493   4.446   0.249  16.808 -0.2654 -0.2481 -0.0640
 6287SOL    HW130494   4.464   0.223  16.899 -0.4477 -0.6705 -0.1488
 6287SOL    HW230495   4.350   0.254  16.811 -0.3125 -2.7175  2.3550
 6288SOL     OW30496   2.427   0.572   6.854 -0.1860 -0.5066 -0.2503
 6288SOL    HW130497   2.345   0.532   6.825 -0.7259  0.7711 -0.4657
 6288SOL    HW230498   2.478   0.495   6.880 -0.0326  0.4334  2.2796
 6289SOL     OW30499   1.190   0.923   2.860 -0.3374 -0.2424  0.3645
 6289SOL    HW130500   1.122   0.915   2.928 -0.5791 -0.6061  0.0786
 6289SOL    HW230501   1.202   1.018   2.854 -0.1771 -0.1401  2.0911
 6290SOL     OW30502   0.531   3.461   2.407  0.3289 -0.1554  0.0105
 6290SOL    HW130503   0.510   3.388   2.348  3.0016 -0.9300 -0.0080
 6290SOL    HW230504   0.540   3.419   2.492 -3.2994 -0.0907  0.4073
 6291SOL     OW30505   4.112   2.464   2.832 -0.3046 -0.1919  0.8740
 6291SOL    HW130506   4.126   2.389   2.774 -4.4791  0.3002 -0.7618
 6291SOL    HW230507   4.176   2.460   2.904  1.1282 -0.0583 -0.3982
 6292SOL     OW30508   3.370   2.338   2.028 -0.1868 -0.4803 -0.5131
 6292SOL    HW130509   3.311   2.331   1.953 -2.5070 -0.5418  1.3051
 6292SOL    HW230510   3.369   2.433   2.042  1.1342 -0.7890  1.6508
 6293SOL     OW30511   1.918   4.104   3.042  0.1616  0.0010  0.1685
 6293SOL    HW130512   2.003   4.105   2.998  0.1090  2.3644  0.1215
 6293SOL    HW230513   1.916   4.018   3.083  1.1880 -1.8319 -3.6436
 6294SOL     OW30514   1.295   0.920   2.223 -0.1590 -0.2835 -0.0186
 6294SOL    HW130515   1.337   0.969   2.152  1.0538 -2.0784 -0.5321
 6294SOL    HW230516   1.228   0.978   2.259  0.4139  1.1081 -1.1676
 6295SOL     OW30517   1.169   3.333   7.148  0.5896 -0.2915  0.0031
 6295SOL    HW130518   1.168   3.425   7.172 -1.4984 -0.4311  0.4903
 6295SOL    HW230519   1.080   3.309   7.175  0.6858 -0.7887 -0.1175
 6296SOL     OW30520   2.653   1.693   8.417  0.2699 -0.0466 -0.0604
 6296SOL    HW130521   2.672   1.786   8.434 -0.0436  0.0112 -0.0307
 6296SOL    HW230522   2.632   1.699   8.324 -0.0345  0.7126  0.0509
 6297SOL     OW30523   3.314   4.004  16.274  0.5136 -0.2779  0.1237
 6297SOL    HW130524   3.269   3.976  16.194  0.3352 -0.6776  0.3656
 6297SOL    HW230525   3.409   4.002  16.258  0.8835  2.6014  1.9195
 6298SOL     OW30526   0.016   4.237   7.658  0.4581 -0.1921  0.0338
 6298SOL    HW130527   4.716   4.236   7.568  1.1048 -1.7057 -0.1820
 6298SOL    HW230528   0.096   4.187   7.640 -0.6610 -2.0807  0.3576
 6299SOL     OW30529   3.090   4.136   1.939 -0.0818 -0.1684 -0.0151
 6299SOL    HW130530   3.073   4.051   1.897 -2.6936 -0.3094  1.3637
 6299SOL    HW230531   3.002   4.167   1.959 -0.3593 -1.1190  0.2575
 6300SOL     OW30532   3.054   4.587   5.103  0.0735  0.0908 -0.0749
 6300SOL    HW130533   3.124   4.539   5.148 -0.2789 -0.7041 -0.3589
 6300SOL    HW230534   2.984   4.523   5.092 -0.8028  0.8115  1.3335
 6301SOL     OW30535   3.359   3.794  17.578 -0.0417  0.1828  0.0130
 6301SOL    HW130536   3.439   3.778  17.629 -0.1110 -1.3307 -0.3480
 6301SOL    HW230537   3.298   3.785  17.651 -1.1961 -0.9480 -1.0714
 6302SOL     OW30538   4.597   2.278   2.287  0.4797  0.1817  0.3389
 6302SOL    HW130539   4.601   2.223   2.209  1.9215  0.3950  0.2760
 6302SOL    HW230540   4.516   2.249   2.330 -0.2924  2.5195  0.4870
 6303SOL     OW30541   0.817   1.989   4.535  0.1081 -0.1489 -0.2218
 6303SOL    HW130542   0.905   2.008   4.568  0.8844 -0.7518 -1.9515
 6303SOL    HW230543   0.767   1.980   4.617  1.0147 -0.9277  0.2419
 6304SOL     OW30544   2.929   1.238  17.671 -0.1815 -0.0386  0.6572
 6304SOL    HW130545   2.923   1.205   0.029  1.1915 -2.9570 -0.3122
 6304SOL    HW230546   2.878   1.318  17.683 -1.1459 -0.3359 -1.5300
 6305SOL     OW30547   0.739   4.100   7.709  0.0930 -0.1723  0.5812
 6305SOL    HW130548   0.815   4.154   7.730 -0.9380  1.4367  0.1829
 6305SOL    HW230549   0.768   4.055   7.630  0.8022 -0.8239  1.2245
 6306SOL     OW30550   0.711   2.617   2.524  0.6143  0.2995 -0.2204
 6306SOL    HW130551   0.743   2.570   2.601 -0.2219 -0.1228 -0.1311
 6306SOL    HW230552   0.666   2.551   2.472 -1.1841  1.5054 -0.1952
 6307SOL     OW30553   0.908   4.729  16.904 -0.3780 -0.2095  0.0804
 6307SOL    HW130554   0.878   0.044  16.828  3.2587 -1.5404 -2.2177
 6307SOL    HW230555   0.972   0.050  16.951  0.1985 -0.3351 -0.5611
 6308SOL     OW30556   1.586   2.049  11.694 -0.2836  0.1591 -0.1665
 6308SOL    HW130557   1.527   1.994  11.746 -0.6414  1.4752  0.8337
 6308SOL    HW230558   1.557   2.137  11.719 -2.4483 -0.9529  1.2178
 6309SOL     OW30559   0.393   4.137   5.515 -0.0107 -0.1142 -0.1888
 6309SOL    HW130560   0.332   4.101   5.579 -0.2525  0.0494 -0.3266
 6309SOL    HW230561   0.345   4.133   5.432 -0.6446 -0.0221  0.1729
 6310SOL     OW30562   2.319   2.361   1.943 -0.1981 -0.3430  0.5142
 6310SOL    HW130563   2.368   2.312   2.009 -1.7195 -0.0403  1.8759
 6310SOL    HW230564   2.231   2.335   1.971 -0.2045 -1.1222 -0.2509
 6311SOL     OW30565   2.416   0.530   8.758  0.2072  0.1962 -0.3466
 6311SOL    HW130566   2.343   0.519   8.819  0.2507  0.7418 -0.1964
 6311SOL    HW230567   2.485   0.522   8.823 -0.4758 -0.3633  0.3180
 6312SOL     OW30568   0.004   2.389  11.684  0.3662 -0.2501  0.4961
 6312SOL    HW130569   0.002   2.354  11.595 -0.0821 -0.9853  0.7910
 6312SOL    HW230570   4.645   2.375  11.705 -0.0652  0.8052 -0.7602
 6313SOL     OW30571   4.579   2.796   2.826 -0.1194 -0.3409 -0.7132
 6313SOL    HW130572   4.563   2.855   2.753 -0.7285  2.6150  1.7789
 6313SOL    HW230573   4.562   2.865   2.891  1.9829 -1.7726  1.3646
 6314SOL     OW30574   4.206   3.192   3.874  0.8186  0.1323 -0.6054
 6314SOL    HW130575   4.239   3.126   3.814 -1.4952 -3.0062  1.5944
 6314SOL    HW230576   4.282   3.250   3.875  1.3657 -0.5930 -1.0088
 6315SOL     OW30577   2.323   3.856   7.455 -0.3987  0.0070 -0.6120
 6315SOL    HW130578   2.288   3.820   7.374 -1.4213 -0.1848 -0.0894
 6315SOL    HW230579   2.350   3.778   7.503  1.8652  0.5236 -1.0846
 6316SOL     OW30580   2.767   4.728   9.143 -0.7090 -0.5001 -0.0536
 6316SOL    HW130581   2.752   0.079   9.101  1.1036  0.4171  1.1828
 6316SOL    HW230582   2.862   4.732   9.155 -0.5147 -2.2578 -1.0122
 6317SOL     OW30583   4.559   4.605   7.191 -0.1732  0.5820  0.3380
 6317SOL    HW130584   4.495   4.574   7.255 -1.0668  1.0102 -0.3417
 6317SOL    HW230585   4.515   4.566   7.115 -0.1905  0.0027  0.6507
 6318SOL     OW30586   3.481   4.455   3.382  0.7295 -0.0827  0.2717
 6318SOL    HW130587   3.577   4.450   3.384  0.7896  0.2414 -1.2967
 6318SOL    HW230588   3.472   4.539   3.426 -1.5625 -1.1458  1.8254
 6319SOL     OW30589   1.051   2.067   6.405 -0.6844 -0.3548 -0.0087
 6319SOL    HW130590   1.085   1.987   6.364  0.0844 -0.0715  0.0678
 6319SOL    HW230591   1.117   2.079   6.474  0.6146 -1.0818 -1.1348
 6320SOL     OW30592   3.876   2.676   5.236  0.0915 -0.4968 -0.4670
 6320SOL    HW130593   3.951   2.662   5.294  0.1849  2.0278  0.0131
 6320SOL    HW230594   3.809   2.635   5.291 -1.0131  1.8808 -0.0294
 6321SOL     OW30595   2.883   1.837  16.911 -0.2531 -0.4579 -0.0817
 6321SOL    HW130596   2.799   1.876  16.887 -0.8531  0.1395  3.1073
 6321SOL    HW230597   2.857   1.763  16.966 -1.9530  0.9887  1.0242
 6322SOL     OW30598   2.019   2.173   6.725 -0.3799 -0.1199 -0.2816
 6322SOL    HW130599   1.924   2.169   6.738 -0.2553 -1.5451  0.1867
 6322SOL    HW230600   2.024   2.101   6.662  0.0560 -0.5670  0.2610
 6323SOL     OW30601   2.401   0.760   7.056 -0.2070 -0.2255 -0.4695
 6323SOL    HW130602   2.426   0.720   6.973 -0.8219 -1.4859 -0.0419
 6323SOL    HW230603   2.474   0.734   7.112 -0.4285  0.9261  0.3549
 6324SOL     OW30604   1.124   1.886  17.029 -0.1861  0.1098  0.3966
 6324SOL    HW130605   1.202   1.941  17.040  0.3724 -0.3523 -1.2410
 6324SOL    HW230606   1.121   1.894  16.933 -0.7089  0.2697  0.4211
 6325SOL     OW30607   1.166   3.395   4.033  0.8069 -0.1274  0.3321
 6325SOL    HW130608   1.086   3.369   4.078  0.2584  0.7842 -0.1264
 6325SOL    HW230609   1.153   3.394   3.939  1.3467  0.1737  0.2506
 6326SOL     OW30610   1.204   2.998   3.914 -0.3789 -0.4407 -0.4893
 6326SOL    HW130611   1.197   2.962   3.826  2.2477 -1.0948 -0.4384
 6326SOL    HW230612   1.279   3.053   3.892  0.3939 -1.3500 -0.1494
 6327SOL     OW30613   0.153   3.494   9.126  0.1186 -0.3202  0.1944
 6327SOL    HW130614   0.210   3.565   9.094 -0.3645 -0.3675 -0.7545
 6327SOL    HW230615   0.080   3.550   9.153 -0.7161 -1.7845  0.9479
 6328SOL     OW30616   4.638   0.796   4.346 -0.0561 -0.3713 -0.2084
 6328SOL    HW130617   4.565   0.835   4.393 -0.2440 -0.7477 -0.1873
 6328SOL    HW230618   4.703   0.794   4.417  2.0513  1.4693 -2.0913
 6329SOL     OW30619   0.584   1.873  17.297  0.0028 -0.1027 -0.0940
 6329SOL    HW130620   0.634   1.900  17.220 -0.2232  0.6660  0.0343
 6329SOL    HW230621   0.493   1.875  17.267  0.0566  3.1120 -0.0799
 6330SOL     OW30622   4.286   3.475  16.191  0.6772 -0.0610 -0.2444
 6330SOL    HW130623   4.313   3.436  16.108 -2.4637 -3.2444  0.2136
 6330SOL    HW230624   4.230   3.544  16.158  0.9347 -0.1631 -0.8843
 6331SOL     OW30625   1.238   3.988   8.834  0.0272  0.2628  0.0240
 6331SOL    HW130626   1.211   3.972   8.743  0.2377  2.0959 -0.3548
 6331SOL    HW230627   1.194   4.073   8.832 -1.2819 -0.4487 -1.6689
 6332SOL     OW30628   1.364   4.144   4.288  0.1744 -0.1162 -0.2828
 6332SOL    HW130629   1.340   4.087   4.361 -0.6606  1.8600  0.9810
 6332SOL    HW230630   1.435   4.089   4.255  0.5843 -0.1662  0.6754
 6333SOL     OW30631   3.746   1.870   8.794 -0.6353  0.0415 -0.4270
 6333SOL    HW130632   3.715   1.947   8.747  2.3632  1.4449 -0.0815
 6333SOL    HW230633   3.662   1.829   8.817 -1.0526 -0.2825 -2.5122
 6334SOL     OW30634   0.057   4.056   3.177 -0.6345  0.1872 -0.3962
 6334SOL    HW130635   0.059   3.978   3.121  0.0954 -0.9644  1.2581
 6334SOL    HW230636   0.143   4.091   3.152  0.4128 -0.4365  2.3573
 6335SOL     OW30637   0.650   4.413  17.151  0.1114  0.1186 -0.2102
 6335SOL    HW130638   0.605   4.374  17.076 -0.9894 -0.4115  0.7215
 6335SOL    HW230639   0.702   4.340  17.186 -1.4431 -0.2102  1.4357
 6336SOL     OW30640   3.253   2.591   3.502  0.0606  0.1957  0.5423
 6336SOL    HW130641   3.214   2.549   3.425 -1.4885  2.1715  0.2392
 6336SOL    HW230642   3.181   2.651   3.523  0.4770  0.2508  1.8160
 6337SOL     OW30643   3.813   0.814  11.383 -0.2989 -0.1239  0.1451
 6337SOL    HW130644   3.900   0.789  11.415  0.1536 -0.7349 -1.5369
 6337SOL    HW230645   3.836   0.851  11.298 -0.5417 -1.8705 -0.6981
 6338SOL     OW30646   4.566   3.769   7.873 -0.6481  0.2241  0.1093
 6338SOL    HW130647   4.533   3.831   7.808 -1.5011  0.5096  0.8149
 6338SOL    HW230648   4.600   3.823   7.944  2.1922 -0.2751 -0.8977
 6339SOL     OW30649   4.647   2.946   8.390 -0.0010 -0.3943 -0.3432
 6339SOL    HW130650   4.604   2.925   8.307  0.0044  0.9029 -0.6807
 6339SOL    HW230651   4.628   2.873   8.449 -0.8096 -0.0335 -0.1506
 6340SOL     OW30652   3.979   4.234   6.159  0.4526 -0.5668 -0.2409
 6340SOL    HW130653   4.005   4.142   6.149  0.6266 -0.4859 -0.5386
 6340SOL    HW230654   3.911   4.237   6.092  0.1631 -1.2214  0.0246
 6341SOL     OW30655   1.568   2.299   2.810 -0.6641  0.1506 -0.0109
 6341SOL    HW130656   1.615   2.367   2.858  1.0740 -0.9173 -0.2042
 6341SOL    HW230657   1.641   2.261   2.761 -1.2173  0.0257 -0.7288
 6342SOL     OW30658   3.124   1.607   4.814 -0.2001 -0.3315  0.3863
 6342SOL    HW130659   3.131   1.527   4.762 -1.1480 -0.3276  0.2664
 6342SOL    HW230660   3.121   1.673   4.745  1.9735  0.2247  0.8194
 6343SOL     OW30661   2.038   0.337  13.344  0.1507  0.5908  0.1310
 6343SOL    HW130662   2.126   0.362  13.318  0.0026  0.1826 -0.7571
 6343SOL    HW230663   2.000   0.424  13.341 -1.7116 -0.2013  0.3951
 6344SOL     OW30664   0.715   1.456  15.289 -0.1155 -0.2538  0.2829
 6344SOL    HW130665   0.714   1.366  15.257 -1.8164  0.6450 -2.1705
 6344SOL    HW230666   0.807   1.474  15.270 -0.4449 -1.4739 -2.4499
 6345SOL     OW30667   2.214   1.135   5.440 -0.2639  0.0681  0.7877
 6345SOL    HW130668   2.274   1.081   5.388  1.3181  4.1456 -1.5837
 6345SOL    HW230669   2.140   1.076   5.454  1.4425 -1.2923  4.1623
 6346SOL     OW30670   4.200   0.524  10.639  0.2654  0.1692 -0.3551
 6346SOL    HW130671   4.281   0.489  10.677 -0.1732 -1.5304 -0.9683
 6346SOL    HW230672   4.147   0.446  10.622  2.6666 -1.3030 -1.1531
 6347SOL     OW30673   1.569   2.434  15.413  0.2137  0.5969 -0.3708
 6347SOL    HW130674   1.655   2.468  15.390  0.8258 -1.3511 -0.9566
 6347SOL    HW230675   1.511   2.510  15.412  1.4862  1.5004 -3.3354
 6348SOL     OW30676   1.526   0.228  11.207 -0.2298  0.2357 -0.6157
 6348SOL    HW130677   1.500   0.306  11.256  1.5247  0.1427  0.4730
 6348SOL    HW230678   1.621   0.241  11.198  0.0286  0.1190  2.1208
 6349SOL     OW30679   4.446   3.693   0.978  0.1694 -0.1123  0.1685
 6349SOL    HW130680   4.449   3.767   1.040  1.0766  0.3732 -0.4550
 6349SOL    HW230681   4.379   3.725   0.918  1.3925  1.5123 -0.3266
 6350SOL     OW30682   4.226   3.102   7.552 -0.0174 -0.0947 -0.9288
 6350SOL    HW130683   4.297   3.101   7.617 -0.5884 -0.8443 -0.3157
 6350SOL    HW230684   4.160   3.048   7.595  1.5304 -0.6169  0.8244
 6351SOL     OW30685   1.218   0.337  15.170  0.2931 -1.1658 -0.1125
 6351SOL    HW130686   1.195   0.412  15.225  1.9801 -1.7044  1.3522
 6351SOL    HW230687   1.160   0.346  15.095  2.2775  0.8279 -1.4037
 6352SOL     OW30688   2.059   1.081  12.373 -0.0621 -0.0227 -0.2086
 6352SOL    HW130689   2.005   1.005  12.351 -0.6475 -0.1503  1.7045
 6352SOL    HW230690   2.064   1.135  12.294 -1.3347  1.3941  0.6759
 6353SOL     OW30691   2.322   0.998  15.406  0.1906  0.0934  0.0274
 6353SOL    HW130692   2.253   1.055  15.439 -2.5556 -4.1513  1.5310
 6353SOL    HW230693   2.268   0.928  15.369 -0.6163  1.1563 -0.8316
 6354SOL     OW30694   1.887   2.396   7.005 -0.1429 -0.1128  0.0342
 6354SOL    HW130695   1.880   2.492   7.001 -0.1110 -0.0931  0.4036
 6354SOL    HW230696   1.806   2.372   6.961  0.5982  1.4592 -2.2039
 6355SOL     OW30697   1.620   2.922  17.351  0.5302 -0.0491  0.1221
 6355SOL    HW130698   1.535   2.964  17.341 -1.4979 -4.0072  0.5108
 6355SOL    HW230699   1.626   2.893  17.260 -2.8318 -1.8494  0.4941
 6356SOL     OW30700   3.233   2.847   4.425  0.4949 -0.5207  0.4939
 6356SOL    HW130701   3.171   2.901   4.377 -1.9238 -3.2926  0.5003
 6356SOL    HW230702   3.275   2.790   4.360 -0.3318 -1.4748  0.7914
 6357SOL     OW30703   3.273   1.908   2.955 -0.1075 -0.3966  0.4173
 6357SOL    HW130704   3.333   1.912   3.031  0.0599 -2.6942  0.4166
 6357SOL    HW230705   3.229   1.992   2.965  1.4193  0.5221 -0.5592
 6358SOL     OW30706   3.391   1.499   5.321 -0.1901 -0.7493 -0.2187
 6358SOL    HW130707   3.434   1.574   5.362  1.7339 -1.3048 -1.2340
 6358SOL    HW230708   3.377   1.444   5.398  3.4097 -0.4631  0.6578
 6359SOL     OW30709   1.578   2.469   8.286  0.0799 -0.5514  0.6480
 6359SOL    HW130710   1.523   2.395   8.310 -1.1376 -0.0961 -0.7580
 6359SOL    HW230711   1.536   2.550   8.316  0.2052 -0.4917  0.6614
 6360SOL     OW30712   0.684   2.962   6.672  0.0833  0.4029 -0.1284
 6360SOL    HW130713   0.644   2.913   6.600  3.4741 -1.9296 -0.4334
 6360SOL    HW230714   0.622   3.033   6.689  0.4338  0.1760  1.9918
 6361SOL     OW30715   0.248   2.824   6.296  0.1700  0.3717 -0.5637
 6361SOL    HW130716   0.191   2.889   6.253 -0.2016 -0.6639 -1.6287
 6361SOL    HW230717   0.323   2.832   6.237  0.8159  0.9836  0.3326
 6362SOL     OW30718   3.088   1.960  16.245 -0.6323  0.3174  0.2610
 6362SOL    HW130719   3.132   1.967  16.330 -1.5793  0.3801  0.7458
 6362SOL    HW230720   3.165   1.927  16.199  0.2666  1.6620  0.7904
 6363SOL     OW30721   2.644   4.515   6.737  0.9021  0.5695 -0.0588
 6363SOL    HW130722   2.552   4.528   6.759  1.1064  0.1899  1.0045
 6363SOL    HW230723   2.671   4.606   6.732  0.9146  0.5804  0.2444
 6364SOL     OW30724   1.110   0.703   2.153 -0.3384  0.3035 -0.2664
 6364SOL    HW130725   1.155   0.627   2.192  1.9200  1.1210 -1.2602
 6364SOL    HW230726   1.183   0.764   2.147  0.3495 -0.2226  2.6729
 6365SOL     OW30727   1.680   2.736   2.569 -0.2312  0.2836  0.4400
 6365SOL    HW130728   1.585   2.730   2.569 -0.1148 -1.6872 -1.2018
 6365SOL    HW230729   1.694   2.808   2.630 -0.2194 -0.0004  0.7738
 6366SOL     OW30730   2.852   3.280   2.712 -0.6848 -0.2888  0.3140
 6366SOL    HW130731   2.806   3.363   2.728 -1.0939 -0.5532  0.5174
 6366SOL    HW230732   2.843   3.273   2.617 -0.9046 -0.4943  0.3510
 6367SOL     OW30733   2.387   2.235  14.449 -0.7331  0.2805  0.1086
 6367SOL    HW130734   2.338   2.153  14.453  2.2802 -1.4376  2.0811
 6367SOL    HW230735   2.333   2.275  14.381 -0.3989 -0.8083 -0.7920
 6368SOL     OW30736   3.661   2.998   2.856  0.0169  0.4096  0.5839
 6368SOL    HW130737   3.627   3.077   2.895  0.2940  1.3201 -1.0044
 6368SOL    HW230738   3.589   2.937   2.869 -0.3126  0.7522  0.3478
 6369SOL     OW30739   4.170   3.732  14.843  0.1953 -0.9395 -0.1088
 6369SOL    HW130740   4.081   3.710  14.817 -0.1493 -0.6627  0.8448
 6369SOL    HW230741   4.211   3.712  14.759  2.7942 -0.0516  0.9490
 6370SOL     OW30742   4.081   2.575   8.600 -0.3344 -0.4169 -0.4850
 6370SOL    HW130743   4.147   2.588   8.531  1.3564 -2.2047  0.7921
 6370SOL    HW230744   4.096   2.483   8.623  0.4064  0.1229  1.1829
 6371SOL     OW30745   1.282   3.442   5.725  0.1605 -0.5970 -0.0602
 6371SOL    HW130746   1.206   3.433   5.782  0.8156 -1.6151  0.6424
 6371SOL    HW230747   1.268   3.387   5.648 -1.3401 -1.8532  1.1135
 6372SOL     OW30748   2.411   0.228   4.944 -0.8236  0.0844  0.5228
 6372SOL    HW130749   2.417   0.163   5.015 -0.1578  0.4102  0.7637
 6372SOL    HW230750   2.504   0.243   4.926 -1.6197  2.0694 -1.8637
 6373SOL     OW30751   2.069   4.576  14.492  0.2185  0.0106 -0.6942
 6373SOL    HW130752   2.096   4.656  14.538 -0.8373  1.0089 -1.8224
 6373SOL    HW230753   1.989   4.555  14.541 -0.6450  1.2327 -1.5575
 6374SOL     OW30754   0.268   3.325   3.379  0.2453 -0.6825 -0.3215
 6374SOL    HW130755   0.337   3.317   3.445  0.3828 -1.3093 -0.5415
 6374SOL    HW230756   0.238   3.234   3.376 -1.6329 -0.0483 -0.1621
 6375SOL     OW30757   4.300   1.143   0.856  0.0217 -0.3595  0.0243
 6375SOL    HW130758   4.240   1.073   0.882 -1.7242  1.3265  0.4940
 6375SOL    HW230759   4.290   1.163   0.763  0.3204 -0.6194 -0.0661
 6376SOL     OW30760   3.780   1.506   0.868 -0.4828  0.6814  0.0444
 6376SOL    HW130761   3.789   1.593   0.829  1.5933  0.5104  0.1392
 6376SOL    HW230762   3.685   1.498   0.864 -0.8809  5.3970  0.6370
 6377SOL     OW30763   1.645   3.678   3.697  0.2810  0.6042 -0.4575
 6377SOL    HW130764   1.586   3.666   3.622  1.4158 -2.8828 -0.8147
 6377SOL    HW230765   1.656   3.773   3.702  0.8384  0.5429 -0.5572
 6378SOL     OW30766   1.553   1.016   5.154 -0.6623 -0.1647 -0.2825
 6378SOL    HW130767   1.485   1.018   5.087 -0.0691 -0.7152 -0.9047
 6378SOL    HW230768   1.595   1.101   5.143 -2.3602  0.7462  0.1579
 6379SOL     OW30769   1.200   2.688   0.895  0.2874 -0.1615  0.5808
 6379SOL    HW130770   1.152   2.645   0.824  1.2602  1.4791 -1.0851
 6379SOL    HW230771   1.182   2.626   0.966  0.4426  0.3754  1.0892
 6380SOL     OW30772   0.370   2.657   2.642 -0.6108  0.4366  0.0169
 6380SOL    HW130773   0.385   2.591   2.708 -1.0773  0.3640  0.0518
 6380SOL    HW230774   0.379   2.613   2.557 -2.0634 -0.0040  0.0923
 6381SOL     OW30775   0.926   0.668   7.783  0.3126 -0.0651  0.3021
 6381SOL    HW130776   0.966   0.755   7.785  0.1477 -0.0555  2.5742
 6381SOL    HW230777   0.994   0.621   7.830  0.4509 -1.7079 -1.5125
 6382SOL     OW30778   3.844   4.406   3.951  0.2914 -0.0538 -0.5152
 6382SOL    HW130779   3.750   4.424   3.948  0.1398 -0.8086 -0.2666
 6382SOL    HW230780   3.850   4.325   3.899  0.2121 -0.4238  0.0561
 6383SOL     OW30781   2.638   0.365   0.185  0.0410  0.1840 -0.1834
 6383SOL    HW130782   2.555   0.408   0.162 -0.5100 -0.6179  0.2864
 6383SOL    HW230783   2.700   0.426   0.147  2.4355 -2.6474 -0.8365
 6384SOL     OW30784   1.926   2.118  15.427  0.4039 -0.0394 -0.3497
 6384SOL    HW130785   1.865   2.123  15.501 -0.1247  0.9847 -0.8595
 6384SOL    HW230786   1.876   2.157  15.356  2.6418  0.0844 -1.8653
 6385SOL     OW30787   2.084   1.712   2.769 -0.4170 -0.0125 -0.3709
 6385SOL    HW130788   2.136   1.634   2.789  1.5506  2.0634  2.7316
 6385SOL    HW230789   2.144   1.785   2.783 -1.4238  0.9765 -1.2727
 6386SOL     OW30790   4.493   3.254   2.361  0.0276  0.2597 -0.4797
 6386SOL    HW130791   4.569   3.196   2.353 -3.4325 -4.3361  0.0890
 6386SOL    HW230792   4.474   3.248   2.455 -0.2829 -1.0237 -0.6149
 6387SOL     OW30793   3.848   4.684  14.650 -0.2443  0.3595  0.4030
 6387SOL    HW130794   3.788   4.644  14.587 -0.2112 -1.9542  1.8701
 6387SOL    HW230795   3.916   4.619  14.665 -1.8880 -1.3751  0.3939
 6388SOL     OW30796   3.363   1.296   5.803 -0.1972  0.1138  0.0987
 6388SOL    HW130797   3.303   1.232   5.842 -1.5421 -0.1526 -2.4729
 6388SOL    HW230798   3.373   1.356   5.877  1.0106  0.9849 -0.7759
 6389SOL     OW30799   0.499   4.704   7.607 -0.0168  0.7495 -1.1655
 6389SOL    HW130800   0.443   0.049   7.609  0.4558  1.0468  0.1255
 6389SOL    HW230801   0.429   4.639   7.599  2.3111 -1.9851  0.9276
 6390SOL     OW30802   4.254   4.172   4.024 -0.0311 -0.3144  0.0675
 6390SOL    HW130803   4.216   4.220   4.097 -0.6630 -2.7925  1.3748
 6390SOL    HW230804   4.197   4.097   4.009 -1.7311  1.6907 -3.5599
 6391SOL     OW30805   1.154   0.905   3.432  0.9963 -0.3561  0.8176
 6391SOL    HW130806   1.091   0.878   3.498  0.1984  0.0730  0.2421
 6391SOL    HW230807   1.208   0.969   3.478  2.0073 -1.2024  0.8246
 6392SOL     OW30808   4.472   1.239  17.226 -0.1933  0.1715  0.0623
 6392SOL    HW130809   4.392   1.281  17.193 -0.9638 -1.4586 -0.1425
 6392SOL    HW230810   4.476   1.258  17.320 -0.7316  0.7304 -0.0266
 6393SOL     OW30811   3.905   1.032   6.656  0.3412  0.6203 -0.2925
 6393SOL    HW130812   3.946   0.986   6.729 -1.3360 -0.1688  0.1729
 6393SOL    HW230813   3.945   0.988   6.581  0.2706  0.1735 -0.0703
 6394SOL     OW30814   0.073   0.232  15.405 -0.0620  0.0992  0.8732
 6394SOL    HW130815   0.097   0.187  15.486 -0.1986 -0.7379  0.4543
 6394SOL    HW230816   0.013   0.293  15.447 -1.5932 -0.5495 -0.3666
 6395SOL     OW30817   2.202   1.030  11.728 -0.6480  0.3523 -0.0669
 6395SOL    HW130818   2.175   1.031  11.636  0.9525 -0.9962 -0.5538
 6395SOL    HW230819   2.127   1.075  11.766 -1.6834 -0.5609 -1.0415
 6396SOL     OW30820   4.538   1.182  11.612 -0.2903  0.2223 -0.3552
 6396SOL    HW130821   4.479   1.138  11.674 -0.9762  0.0814 -1.1078
 6396SOL    HW230822   4.620   1.167  11.660 -1.1736  1.3200  1.4880
 6397SOL     OW30823   0.680   3.020  12.060 -0.0693 -0.1962 -0.5892
 6397SOL    HW130824   0.589   3.038  12.083  0.8231  1.8725  1.3419
 6397SOL    HW230825   0.712   2.996  12.147 -0.1046 -0.1282 -0.5572
 6398SOL     OW30826   4.187   1.591   4.984  0.1445 -0.5473  0.1406
 6398SOL    HW130827   4.221   1.559   4.901 -1.7000 -1.4292 -0.2628
 6398SOL    HW230828   4.205   1.685   4.981 -1.8396 -0.1365  1.3269
 6399SOL     OW30829   4.059   1.402   5.120 -0.9641  0.8517 -0.0650
 6399SOL    HW130830   4.084   1.477   5.065  0.5579 -0.9818 -1.8688
 6399SOL    HW230831   4.144   1.364   5.142 -0.4632  1.2635 -1.2594
 6400SOL     OW30832   0.933   3.741   9.336 -0.1545  0.3421 -0.4562
 6400SOL    HW130833   0.857   3.789   9.369 -0.3598 -1.5947  1.8724
 6400SOL    HW230834   0.972   3.731   9.423 -1.6299  0.5282  0.2325
 6401SOL     OW30835   1.116   3.009   8.078  0.2083 -0.1836 -0.0736
 6401SOL    HW130836   1.141   3.085   8.025  0.2361  0.2400  0.5487
 6401SOL    HW230837   1.098   2.944   8.010 -2.1193  0.9441 -0.5325
 6402SOL     OW30838   2.051   2.447   5.753 -0.1126  0.2456 -0.6079
 6402SOL    HW130839   2.023   2.477   5.839 -1.3234 -1.2530 -0.4682
 6402SOL    HW230840   2.052   2.352   5.768 -2.4563  0.4811  1.1526
 6403SOL     OW30841   1.281   4.082   8.408 -0.2138  0.4023 -0.2339
 6403SOL    HW130842   1.339   4.019   8.365 -1.4088 -0.2446 -0.8782
 6403SOL    HW230843   1.230   4.022   8.462 -1.0483  1.0443 -0.3244
 6404SOL     OW30844   3.420   1.078   4.747 -0.1117  0.4012 -0.1346
 6404SOL    HW130845   3.497   1.124   4.714 -0.4960  0.9207 -0.3023
 6404SOL    HW230846   3.399   1.120   4.831 -0.3427 -0.3465  0.1767
 6405SOL     OW30847   2.568   1.311   9.039  0.0913  0.0530 -0.2569
 6405SOL    HW130848   2.566   1.397   9.081  0.7647  0.2356 -0.5984
 6405SOL    HW230849   2.571   1.250   9.113 -1.5038  1.9001  1.3159
 6406SOL     OW30850   1.615   4.409  17.363 -0.0152  0.1609 -0.2195
 6406SOL    HW130851   1.605   4.477  17.296  0.4129  1.0760  0.6364
 6406SOL    HW230852   1.705   4.382  17.346 -0.7016 -1.0700 -1.9062
 6407SOL     OW30853   3.242   1.582   6.939 -0.6284  0.1399 -0.5658
 6407SOL    HW130854   3.263   1.615   7.026 -2.6750 -2.0400  0.7564
 6407SOL    HW230855   3.314   1.618   6.887 -2.2865 -1.8216 -4.2456
 6408SOL     OW30856   4.154   2.494  16.289 -0.0210  0.6773  0.6002
 6408SOL    HW130857   4.187   2.409  16.261 -1.8016 -0.2119  1.1983
 6408SOL    HW230858   4.059   2.481  16.293 -0.1606  1.1994 -1.1346
 6409SOL     OW30859   3.329   3.781  13.893 -0.8188  0.0780 -0.7822
 6409SOL    HW130860   3.365   3.759  13.979 -0.1066  1.3226 -0.7517
 6409SOL    HW230861   3.234   3.774  13.905 -0.5834 -1.2085  0.2994
 6410SOL     OW30862   1.580   2.207   9.415 -0.0417 -0.6525  0.2451
 6410SOL    HW130863   1.608   2.115   9.421 -1.8993 -1.3153 -1.2528
 6410SOL    HW230864   1.614   2.231   9.329 -1.2841  1.7976  0.4667
 6411SOL     OW30865   3.160   2.966   7.468 -0.3137 -0.2435 -0.7029
 6411SOL    HW130866   3.070   2.934   7.478 -1.0089  2.5569  1.8187
 6411SOL    HW230867   3.192   2.899   7.407 -0.2705 -0.8574  0.0013
 6412SOL     OW30868   4.151   3.050   3.122 -0.2953 -0.0430  0.2524
 6412SOL    HW130869   4.061   3.035   3.093 -0.5772  0.4889  0.8500
 6412SOL    HW230870   4.154   2.966   3.169  1.8765 -0.7906 -1.2187
 6413SOL     OW30871   1.956   1.067   8.897  0.2783  0.6875  0.1118
 6413SOL    HW130872   1.943   1.087   8.990  0.2119 -0.6762  0.3867
 6413SOL    HW230873   2.049   1.051   8.882  0.0372 -0.7243  0.1370
 6414SOL     OW30874   3.721   2.257   8.274  0.5865  0.3082 -0.2460
 6414SOL    HW130875   3.763   2.316   8.336 -0.1308  0.2933  0.2587
 6414SOL    HW230876   3.684   2.310   8.204  1.8955  0.5915 -0.7220
 6415SOL     OW30877   1.445   4.692   6.246 -0.2441 -0.2903  0.8253
 6415SOL    HW130878   1.417   0.023   6.180 -0.3119 -0.8007  0.3585
 6415SOL    HW230879   1.534   4.665   6.225 -0.1063  0.6194  0.2372
 6416SOL     OW30880   1.375   0.566   9.658  0.8442 -0.3611 -0.4724
 6416SOL    HW130881   1.463   0.539   9.633 -0.0385 -2.5788 -1.1894
 6416SOL    HW230882   1.330   0.490   9.695 -0.2998  0.8074  0.5478
 6417SOL     OW30883   3.088   0.282   2.638  0.1667  0.0923  0.3863
 6417SOL    HW130884   3.043   0.245   2.713  0.5696  0.9775  1.0772
 6417SOL    HW230885   3.156   0.216   2.625  0.7328  0.2416  2.6497
 6418SOL     OW30886   1.630   1.950  13.955  0.3193  0.0107  0.5530
 6418SOL    HW130887   1.550   1.976  13.909 -0.7088 -0.8274  1.8644
 6418SOL    HW230888   1.637   2.010  14.029  0.5803  0.8929 -0.1963
 6419SOL     OW30889   3.364   2.792   4.668 -1.2443  0.1246  0.8039
 6419SOL    HW130890   3.323   2.843   4.598 -0.0327  0.5079  0.3909
 6419SOL    HW230891   3.333   2.706   4.642  1.2834 -0.4225 -0.3566
 6420SOL     OW30892   0.638   4.601   2.447  0.0679 -0.1431 -0.3032
 6420SOL    HW130893   0.694   4.547   2.504  2.3954  0.8278 -1.6700
 6420SOL    HW230894   0.702   4.669   2.427 -0.5859  0.6872  0.4466
 6421SOL     OW30895   0.872   2.836   4.259  0.5356 -0.3439 -0.2195
 6421SOL    HW130896   0.836   2.750   4.279 -0.7982  0.7898  2.2574
 6421SOL    HW230897   0.933   2.846   4.332  2.4352  0.0192 -1.8595
 6422SOL     OW30898   4.324   4.564   7.677 -0.3326 -0.4312  0.0983
 6422SOL    HW130899   4.407   4.542   7.719 -0.3903 -2.4191 -0.8282
 6422SOL    HW230900   4.276   4.518   7.747 -2.9160  1.9578 -0.1090
 6423SOL     OW30901   3.510   2.684   7.160  0.1525 -0.2282  0.5898
 6423SOL    HW130902   3.516   2.600   7.114 -1.6896 -0.4441  0.7699
 6423SOL    HW230903   3.593   2.674   7.207  0.0846  1.6954  1.0871
 6424SOL     OW30904   3.756   2.497  17.421  0.1510 -0.2986 -0.1291
 6424SOL    HW130905   3.675   2.540  17.394  0.2100 -0.7590 -1.0494
 6424SOL    HW230906   3.735   2.445  17.498  1.3507 -1.9505 -0.9034
 6425SOL     OW30907   1.767   2.022   3.887 -0.4183  0.2564  0.7261
 6425SOL    HW130908   1.805   2.075   3.817 -0.9825  0.8970  0.8997
 6425SOL    HW230909   1.780   1.937   3.847  0.1054 -0.6038  2.7012
 6426SOL     OW30910   2.729   1.825   1.746  0.4730 -0.0999  0.2912
 6426SOL    HW130911   2.817   1.840   1.713  0.3800  0.6175  0.3724
 6426SOL    HW230912   2.740   1.765   1.820  0.5765 -0.1627  0.2253
 6427SOL     OW30913   3.558   3.877   9.683  0.5409 -0.3379 -0.4853
 6427SOL    HW130914   3.633   3.818   9.692  2.1751  1.3987 -2.5456
 6427SOL    HW230915   3.599   3.963   9.682 -3.0798  1.3879  4.0985
 6428SOL     OW30916   1.400   1.656   5.698  0.4394  0.0966  0.2918
 6428SOL    HW130917   1.401   1.562   5.680  1.1416 -0.0059  0.8267
 6428SOL    HW230918   1.491   1.684   5.690 -0.2781  2.2362 -0.3729
 6429SOL     OW30919   3.430   3.786  16.754 -0.0695 -0.2859 -0.1963
 6429SOL    HW130920   3.462   3.839  16.680  0.4066  0.9664  0.9160
 6429SOL    HW230921   3.370   3.725  16.710 -2.0187  0.5133  1.3751
 6430SOL     OW30922   0.558   2.256   5.524 -0.0812 -0.7376 -0.0379
 6430SOL    HW130923   0.580   2.310   5.600 -0.8635  2.0897 -1.8363
 6430SOL    HW230924   0.494   2.192   5.556 -1.0035  0.7603  1.0695
 6431SOL     OW30925   0.843   2.891   5.571  0.6509 -0.0244  0.0174
 6431SOL    HW130926   0.913   2.829   5.590  0.0628 -1.2359 -1.8213
 6431SOL    HW230927   0.793   2.891   5.652  4.9533  0.7930  2.6827
 6432SOL     OW30928   0.117   4.269   0.434 -0.6902  0.0280  0.0227
 6432SOL    HW130929   0.153   4.243   0.349 -0.8077 -1.4363  0.4095
 6432SOL    HW230930   0.191   4.242   0.488 -2.3052 -0.6273  1.9494
 6433SOL     OW30931   0.624   3.014   3.417 -0.0421  0.0466  0.3470
 6433SOL    HW130932   0.624   2.930   3.372  0.0238 -0.5504  1.4556
 6433SOL    HW230933   0.533   3.021   3.445 -0.1830  0.6686 -0.2723
 6434SOL     OW30934   2.145   1.768   8.632 -0.0309  0.1833  0.1799
 6434SOL    HW130935   2.182   1.695   8.681 -0.7142 -0.6728 -0.5861
 6434SOL    HW230936   2.193   1.763   8.549  0.8318  0.8111  0.6419
 6435SOL     OW30937   3.784   3.561  12.694  0.0079 -0.6933 -0.1658
 6435SOL    HW130938   3.790   3.541  12.788  0.4843 -0.8411 -0.2277
 6435SOL    HW230939   3.807   3.654  12.697 -1.2185 -0.3640 -0.9898
 6436SOL     OW30940   1.775   0.086   7.822  0.2913 -0.3021 -0.0699
 6436SOL    HW130941   1.728   0.102   7.740 -1.3409 -0.1181  0.8952
 6436SOL    HW230942   1.862   0.059   7.791  0.4065  2.4216 -2.1206
 6437SOL     OW30943   4.440   1.499   6.679 -0.0399 -0.7708  0.0002
 6437SOL    HW130944   4.465   1.415   6.719  0.7024 -0.2587  0.6066
 6437SOL    HW230945   4.447   1.556   6.756 -0.6482 -0.6963  0.0010
 6438SOL     OW30946   3.000   3.222   7.393  0.3732 -0.6121 -0.2369
 6438SOL    HW130947   2.947   3.159   7.442  0.8139 -1.0176 -0.2913
 6438SOL    HW230948   3.086   3.191   7.420 -0.4002 -1.2631  1.4762
 6439SOL     OW30949   3.496   0.558   7.799 -0.0124  0.2733 -0.0162
 6439SOL    HW130950   3.452   0.524   7.876  1.9944 -0.8340  0.6282
 6439SOL    HW230951   3.465   0.498   7.731  0.5775  1.2553 -1.1521
 6440SOL     OW30952   2.090   0.646   4.155  0.2677 -0.6107  0.2318
 6440SOL    HW130953   2.077   0.718   4.094  2.4678  0.0499  0.5551
 6440SOL    HW230954   2.112   0.685   4.240  0.0443 -0.5616  0.2671
 6441SOL     OW30955   2.307   4.665   2.140  0.1732  0.0152  0.2903
 6441SOL    HW130956   2.399   4.642   2.150  0.0490 -1.5613 -2.2541
 6441SOL    HW230957   2.267   4.598   2.196  1.3374  0.5931  1.8044
 6442SOL     OW30958   2.894   1.467   1.423  0.1027 -0.1200 -0.0283
 6442SOL    HW130959   2.842   1.496   1.348 -0.3039 -0.0202  0.2893
 6442SOL    HW230960   2.981   1.500   1.402  0.0147  1.6930  2.4180
 6443SOL     OW30961   1.528   3.666  17.322 -0.0031  0.7088 -0.3233
 6443SOL    HW130962   1.433   3.653  17.319  0.1984 -0.3660 -2.1586
 6443SOL    HW230963   1.549   3.733  17.256  1.8721 -2.2300 -2.7342
 6444SOL     OW30964   1.652   2.402  16.970  0.1618 -0.0871 -0.6258
 6444SOL    HW130965   1.597   2.477  16.995  0.9171  0.7379 -1.4440
 6444SOL    HW230966   1.728   2.447  17.007  1.1962 -1.6721 -0.8700
 6445SOL     OW30967   2.001   1.091   5.036 -0.1125  0.5483 -0.0933
 6445SOL    HW130968   2.029   1.123   4.950 -1.2279 -0.1193 -0.7004
 6445SOL    HW230969   1.984   0.999   5.018 -1.2159  0.7937 -0.3185
 6446SOL     OW30970   3.294   2.854   5.125 -0.4363  0.1433  0.1170
 6446SOL    HW130971   3.288   2.907   5.045  0.2822  1.0880  0.6987
 6446SOL    HW230972   3.203   2.824   5.130  0.1724 -1.5809  0.6151
 6447SOL     OW30973   0.787   2.190   8.303 -0.3811  0.3956  0.5883
 6447SOL    HW130974   0.710   2.153   8.346 -1.7138 -1.6429 -3.6065
 6447SOL    HW230975   0.823   2.118   8.252 -1.6440 -0.3968  0.8211
 6448SOL     OW30976   3.590   1.980   4.167 -0.7228 -0.0564 -0.2579
 6448SOL    HW130977   3.577   1.996   4.261  1.5966 -0.0641  0.0476
 6448SOL    HW230978   3.672   1.932   4.161 -0.7349  0.1159 -1.7794
 6449SOL     OW30979   3.950   0.152   2.189 -0.3378 -0.6033  0.4044
 6449SOL    HW130980   3.857   0.146   2.166 -0.0358 -1.8158 -0.5552
 6449SOL    HW230981   3.954   0.144   2.284 -0.2684 -1.8929  0.2935
 6450SOL     OW30982   3.822   3.063   5.084 -0.4334  0.4254 -0.9120
 6450SOL    HW130983   3.818   2.994   5.018 -1.0194 -1.2678  0.8892
 6450SOL    HW230984   3.750   3.038   5.143  1.0198  0.8608  1.0564
 6451SOL     OW30985   2.119   3.182   3.465  0.1118  1.0883  0.1292
 6451SOL    HW130986   2.075   3.258   3.504  0.9839  2.2828 -1.2289
 6451SOL    HW230987   2.101   3.185   3.371 -1.3133  0.4250  0.3770
 6452SOL     OW30988   2.617   1.588   9.142  0.2211 -0.0759  0.1546
 6452SOL    HW130989   2.678   1.592   9.216 -0.4322  0.3672  0.6749
 6452SOL    HW230990   2.649   1.646   9.073 -2.0907  1.1276  0.0628
 6453SOL     OW30991   2.032   0.435   3.424 -0.0311  0.5266 -0.0335
 6453SOL    HW130992   2.023   0.528   3.401 -1.0393  0.0165 -1.7098
 6453SOL    HW230993   1.988   0.408   3.343  0.4055  0.3062 -0.1933
 6454SOL     OW30994   2.322   2.662   6.227  0.1243  0.0239 -0.6986
 6454SOL    HW130995   2.255   2.730   6.225  1.8453  1.8371  2.8698
 6454SOL    HW230996   2.282   2.599   6.288 -0.4864 -1.0493 -2.2055
 6455SOL     OW30997   3.525   2.391   9.901  0.1610  0.2153  0.1950
 6455SOL    HW130998   3.489   2.418   9.985 -4.2358 -3.7199 -0.4130
 6455SOL    HW230999   3.540   2.297   9.913 -1.2645  0.0051  0.2898
 6456SOL     OW31000   2.984   0.134   7.152  0.3096  0.2981  0.0803
 6456SOL    HW131001   2.977   0.043   7.181  1.8042  0.4668  0.9912
 6456SOL    HW231002   3.064   0.142   7.101  1.3165 -1.9546  1.2919
 6457SOL     OW31003   3.074   0.565   6.116 -0.1131 -0.7199  0.1179
 6457SOL    HW131004   2.994   0.604   6.150  0.8829 -0.3414  2.0018
 6457SOL    HW231005   3.078   0.646   6.064  1.1525 -0.6607  0.3201
 6458SOL     OW31006   3.033   4.266   4.954  0.0794 -0.3419 -0.7857
 6458SOL    HW131007   3.040   4.214   4.873  1.2997 -2.5045  0.7029
 6458SOL    HW231008   2.940   4.287   4.957  0.0388 -0.3387 -1.9482
 6459SOL     OW31009   4.689   1.443   6.274 -0.0479  0.6062 -0.6264
 6459SOL    HW131010   0.036   1.409   6.314  1.0849  0.1581 -3.2642
 6459SOL    HW231011   0.001   1.490   6.203 -1.3144  1.6634 -0.7257
 6460SOL     OW31012   0.271   4.536   1.729  0.6946  0.1324 -0.0680
 6460SOL    HW131013   0.324   4.459   1.749  1.8206  0.7051 -0.7745
 6460SOL    HW231014   0.206   4.503   1.667 -1.6602  0.8375  2.0327
 6461SOL     OW31015   2.861   3.522  11.552 -0.0141 -0.1732  0.1934
 6461SOL    HW131016   2.798   3.451  11.537  1.1463 -0.6940 -2.3508
 6461SOL    HW231017   2.862   3.539  11.646  1.8518 -0.6445  0.2701
 6462SOL     OW31018   1.266   2.048   5.267 -0.2789  0.6237 -0.0918
 6462SOL    HW131019   1.223   1.981   5.215 -2.8677  0.8556  1.7238
 6462SOL    HW231020   1.354   2.014   5.277 -0.1694  0.6898 -0.8024
 6463SOL     OW31021   2.083   1.107  14.759 -0.1324  0.7230  0.0528
 6463SOL    HW131022   2.024   1.033  14.749 -0.8625  1.5057 -1.3898
 6463SOL    HW231023   2.153   1.081  14.819  0.0791 -0.6848 -0.7943
 6464SOL     OW31024   4.493   1.421   7.201  0.3045  0.2142  0.1350
 6464SOL    HW131025   4.532   1.418   7.113  0.5509  3.1625  0.1448
 6464SOL    HW231026   4.503   1.328   7.222  1.3839  0.2264 -0.3119
 6465SOL     OW31027   2.387   3.604   4.032 -0.1083 -0.1882  0.3396
 6465SOL    HW131028   2.377   3.646   3.947 -1.4531  1.4186  1.3052
 6465SOL    HW231029   2.294   3.589   4.049 -0.1148 -2.3937 -1.5454
 6466SOL     OW31030   3.217   2.466   0.274  0.5250 -0.3440  0.0162
 6466SOL    HW131031   3.285   2.480   0.340 -1.1779  1.9183  1.3021
 6466SOL    HW231032   3.135   2.476   0.321 -0.3312 -0.1900 -1.4992
 6467SOL     OW31033   1.983   4.623   8.046  0.3397 -0.0656 -0.1279
 6467SOL    HW131034   1.961   4.536   8.011  2.7263 -0.9730  0.6204
 6467SOL    HW231035   2.072   4.641   8.016  0.4760 -1.0443 -0.3039
 6468SOL     OW31036   4.644   2.790   4.859  0.9208  0.7251  0.5237
 6468SOL    HW131037   4.549   2.785   4.874  0.9327 -2.2412 -0.4591
 6468SOL    HW231038   4.677   2.729   4.925 -1.2385 -0.6032  0.3774
 6469SOL     OW31039   0.167   1.527   1.304 -0.6884  0.1433 -0.2877
 6469SOL    HW131040   0.234   1.562   1.246 -0.8662  2.9394  1.1565
 6469SOL    HW231041   0.216   1.456   1.347 -0.3085  0.6684  0.1578
 6470SOL     OW31042   0.324   2.724   3.140  0.4910 -0.7833  0.1117
 6470SOL    HW131043   0.343   2.817   3.149  0.9917 -1.1462  2.7234
 6470SOL    HW231044   0.381   2.692   3.209 -1.7241 -1.3800  1.6922
 6471SOL     OW31045   2.577   3.733  12.690  0.0260  0.2539 -0.0252
 6471SOL    HW131046   2.651   3.776  12.734 -1.1534  0.2469  1.9645
 6471SOL    HW231047   2.512   3.752  12.758  2.8625  0.9377  2.4670
 6472SOL     OW31048   4.127   2.233   5.396 -0.4348  0.2680 -0.2320
 6472SOL    HW131049   4.109   2.290   5.321  1.6006  2.1651  0.7500
 6472SOL    HW231050   4.200   2.181   5.364 -0.4608 -0.5887  1.1103
 6473SOL     OW31051   0.530   0.354   4.167 -0.8883 -0.5899 -0.2285
 6473SOL    HW131052   0.552   0.313   4.083 -1.3056 -1.3387  0.0308
 6473SOL    HW231053   0.445   0.324   4.198 -1.6860  0.8609 -1.0003
 6474SOL     OW31054   2.301   2.636   1.828  0.6137 -0.8849 -0.3972
 6474SOL    HW131055   2.217   2.624   1.784  0.4317 -0.3191 -0.2046
 6474SOL    HW231056   2.308   2.548   1.866  3.7502 -1.1243 -1.5777
 6475SOL     OW31057   0.725   2.248   2.305 -0.3125  0.2318 -0.1974
 6475SOL    HW131058   0.819   2.239   2.316 -0.3458  1.3394  1.1109
 6475SOL    HW231059   0.706   2.166   2.261 -0.6912 -0.4367  1.2062
 6476SOL     OW31060   3.519   1.123  16.011 -0.1484 -0.2239  0.4863
 6476SOL    HW131061   3.484   1.137  15.923  0.7262  0.1933  0.2113
 6476SOL    HW231062   3.455   1.060  16.045  1.5959 -2.2405  0.0164
 6477SOL     OW31063   3.942   1.520   8.353  0.0155  0.2384 -0.2174
 6477SOL    HW131064   3.863   1.524   8.407  0.0985  0.4186 -0.1106
 6477SOL    HW231065   3.943   1.614   8.335 -0.7260 -0.0356 -1.6991
 6478SOL     OW31066   3.680   1.702   1.069 -0.0592 -0.0261 -0.5538
 6478SOL    HW131067   3.640   1.788   1.058  0.5920  0.1947 -1.1968
 6478SOL    HW231068   3.642   1.665   0.990 -2.7077  2.6454 -0.5573
 6479SOL     OW31069   0.484   2.032   4.338 -0.3793 -0.3377  0.3325
 6479SOL    HW131070   0.561   2.083   4.314  0.8659 -2.4071 -0.1368
 6479SOL    HW231071   0.421   2.077   4.283 -0.7443 -1.0045  0.2018
 6480SOL     OW31072   4.611   2.607   7.346 -0.1364 -0.3463  1.2163
 6480SOL    HW131073   4.572   2.520   7.352 -0.0293 -0.2541  3.3228
 6480SOL    HW231074   4.529   2.648   7.318 -0.4975 -2.1938 -0.4321
 6481SOL     OW31075   0.768   0.370   6.756  0.4066 -0.2209  0.3900
 6481SOL    HW131076   0.706   0.310   6.797 -0.0744  0.3892  0.5687
 6481SOL    HW231077   0.841   0.314   6.730 -0.6229  0.3848 -3.8008
 6482SOL     OW31078   2.167   0.472   9.779 -0.2476 -0.0952 -0.4535
 6482SOL    HW131079   2.188   0.379   9.770 -0.5727  0.0470 -2.7329
 6482SOL    HW231080   2.224   0.505   9.710  0.7990  2.9627  1.8843
 6483SOL     OW31081   1.853   1.600   5.446  0.0201 -0.2445 -0.2932
 6483SOL    HW131082   1.947   1.604   5.427  0.6657 -3.0333  2.4051
 6483SOL    HW231083   1.817   1.630   5.362  0.4935  2.0745  0.3188
 6484SOL     OW31084   0.803   0.922   4.405 -0.4242  0.3106 -0.1026
 6484SOL    HW131085   0.862   0.862   4.359 -0.9361 -0.2977  0.0385
 6484SOL    HW231086   0.748   0.952   4.332  0.3354  2.8514  0.3843
 6485SOL     OW31087   3.658   2.501   5.389 -0.1539 -0.1113 -0.2393
 6485SOL    HW131088   3.602   2.565   5.433  0.3898 -0.5069  1.0113
 6485SOL    HW231089   3.652   2.429   5.452  0.6031 -0.3605 -0.4473
 6486SOL     OW31090   1.447   1.710  10.696 -0.9661  0.0129  0.4469
 6486SOL    HW131091   1.473   1.758  10.617 -0.6369  0.4609  0.8254
 6486SOL    HW231092   1.454   1.621  10.663 -1.6036 -0.2254  0.9362
 6487SOL     OW31093   2.338   3.842   4.720 -0.1829 -0.6448  0.6495
 6487SOL    HW131094   2.281   3.794   4.780 -0.1209  0.1971  1.3881
 6487SOL    HW231095   2.412   3.785   4.703 -0.1424 -1.5932  4.0915
 6488SOL     OW31096   4.527   2.240   8.041  0.7793 -0.4265 -0.3420
 6488SOL    HW131097   4.576   2.227   8.123 -0.7578  2.0414  0.9758
 6488SOL    HW231098   4.451   2.187   8.066  1.0491  0.2326  1.9637
 6489SOL     OW31099   2.665   3.344   2.984 -0.9199 -0.5765  0.0504
 6489SOL    HW131100   2.744   3.361   3.036 -0.6554 -1.7759  0.0236
 6489SOL    HW231101   2.692   3.358   2.893 -1.9789 -1.8892 -0.4612
 6490SOL     OW31102   0.846   3.118   5.129  0.3369 -0.1236  0.0946
 6490SOL    HW131103   0.941   3.117   5.117  0.2567 -0.0778 -0.5186
 6490SOL    HW231104   0.829   3.090   5.219  0.5798 -1.5358 -0.3012
 6491SOL     OW31105   1.166   0.068  12.450 -0.2755 -0.0607 -0.3256
 6491SOL    HW131106   1.107   4.730  12.472 -0.1158 -0.3521 -0.8497
 6491SOL    HW231107   1.246   0.036  12.492 -0.0999  0.3082 -0.3835
 6492SOL     OW31108   3.417   2.574   9.481  0.0046  0.5051 -0.1247
 6492SOL    HW131109   3.440   2.610   9.567 -1.8604 -3.7245  2.1904
 6492SOL    HW231110   3.453   2.485   9.486  0.3058  0.6070 -0.5093
 6493SOL     OW31111   2.982   4.144   5.233 -0.1665 -0.5490 -0.4235
 6493SOL    HW131112   3.037   4.172   5.160 -1.1159  1.4318 -0.3759
 6493SOL    HW231113   3.010   4.205   5.301 -2.1328  0.6152 -0.6532
 6494SOL     OW31114   1.611   2.276   3.219  0.0246  0.6283 -0.8780
 6494SOL    HW131115   1.666   2.329   3.276  0.7068 -1.0719  0.0343
 6494SOL    HW231116   1.643   2.316   3.138  2.8296 -0.1049 -0.1147
 6495SOL     OW31117   1.847   3.644   6.707 -0.2427 -0.1239  0.2202
 6495SOL    HW131118   1.854   3.678   6.618 -0.2594  1.9297  1.0143
 6495SOL    HW231119   1.935   3.657   6.743 -1.7432  0.2811  3.7864
 6496SOL     OW31120   1.790   0.362  15.525 -0.0703  0.2091  0.1429
 6496SOL    HW131121   1.806   0.363  15.431  2.2374  1.8680  0.5474
 6496SOL    HW231122   1.729   0.434  15.535 -0.1397  0.2752 -0.7423
 6497SOL     OW31123   4.143   3.997   6.510 -0.3029 -0.6223 -0.5085
 6497SOL    HW131124   4.218   3.942   6.533 -0.6774 -1.3839 -1.1122
 6497SOL    HW231125   4.074   3.939   6.541 -0.2839  0.2264  1.1362
 6498SOL     OW31126   4.148   1.020   8.354 -0.3063 -0.0752 -0.0125
 6498SOL    HW131127   4.101   1.102   8.366 -1.2310 -0.6127  0.0574
 6498SOL    HW231128   4.086   0.969   8.303  0.8238  0.7235 -2.1645
 6499SOL     OW31129   0.479   2.447   1.087  0.4191  0.4906 -0.5190
 6499SOL    HW131130   0.483   2.359   1.049  2.2472  0.5678 -0.4648
 6499SOL    HW231131   0.527   2.430   1.168 -0.6614 -0.8457 -0.1576
 6500SOL     OW31132   4.065   0.675  15.321 -0.0005 -0.4177  0.2068
 6500SOL    HW131133   4.059   0.651  15.229 -2.4471 -1.7863  0.7121
 6500SOL    HW231134   4.062   0.587  15.359  2.1885 -0.5275  0.0998
 6501SOL     OW31135   2.950   3.461   8.353  0.1709  0.2911 -0.2366
 6501SOL    HW131136   2.864   3.418   8.356  0.0802  0.5788  1.1872
 6501SOL    HW231137   3.020   3.396   8.358 -0.3288 -0.1418  0.9375
 6502SOL     OW31138   0.020   2.957  15.387 -0.1013  0.2550 -0.4057
 6502SOL    HW131139   0.075   2.974  15.311 -0.2579 -1.8790 -1.0029
 6502SOL    HW231140   0.074   2.888  15.428 -1.8370 -1.4581 -1.0231
 6503SOL     OW31141   1.011   3.605   2.643  0.1255 -0.1187  0.2492
 6503SOL    HW131142   0.979   3.676   2.586  3.1538  2.0696  1.2661
 6503SOL    HW231143   0.929   3.596   2.690 -0.9890  0.2188 -1.6175
 6504SOL     OW31144   3.482   1.348   7.558 -0.1457 -0.1540 -0.3062
 6504SOL    HW131145   3.488   1.253   7.572  0.5952 -0.4004 -2.1884
 6504SOL    HW231146   3.574   1.373   7.550 -0.2433  0.8131  1.9543
 6505SOL     OW31147   1.096   0.906   4.843  0.3627 -0.0263  0.5155
 6505SOL    HW131148   1.175   0.852   4.842  1.2704  1.3226  0.1990
 6505SOL    HW231149   1.135   0.993   4.838 -0.7325  0.5827  2.6322
 6506SOL     OW31150   2.449   2.072   4.103  0.3659 -0.0693 -0.1240
 6506SOL    HW131151   2.438   2.167   4.102 -2.0273 -0.3632 -0.8399
 6506SOL    HW231152   2.397   2.039   4.030  1.6815 -2.8448  0.1997
 6507SOL     OW31153   0.839   0.097   8.419  0.5327 -0.4553 -0.2757
 6507SOL    HW131154   0.820   0.070   8.329  0.4607  1.3389 -0.8201
 6507SOL    HW231155   0.764   0.153   8.441 -0.0243 -2.0649  1.8887
 6508SOL     OW31156   1.931   0.076   7.320 -0.3004  0.5680  0.6519
 6508SOL    HW131157   1.839   0.051   7.313  0.1907 -0.6492 -1.3602
 6508SOL    HW231158   1.920   0.166   7.351  0.0292  0.5789  0.7438
 6509SOL     OW31159   4.172   2.687   8.057  0.4197  0.1622  0.2645
 6509SOL    HW131160   4.198   2.606   8.013  1.8880  0.8079 -0.0631
 6509SOL    HW231161   4.132   2.647   8.134 -0.9501  1.3158  0.1550
 6510SOL     OW31162   0.992   2.823   4.503  0.6251 -0.3845 -0.2205
 6510SOL    HW131163   0.938   2.810   4.581 -0.2407  0.4783 -0.6804
 6510SOL    HW231164   1.076   2.805   4.545  0.0104 -1.7133  0.4411
 6511SOL     OW31165   0.419   1.890   1.093  0.2807 -0.5673 -0.2204
 6511SOL    HW131166   0.371   1.875   1.173 -0.8151  0.9165 -0.6008
 6511SOL    HW231167   0.504   1.915   1.129  0.9052  1.8787 -3.3024
 6512SOL     OW31168   2.558   3.412   7.868  0.9006  0.5094  0.4404
 6512SOL    HW131169   2.649   3.438   7.881  1.0824 -0.0534  0.3035
 6512SOL    HW231170   2.537   3.397   7.961 -1.7846 -1.4433 -0.4816
 6513SOL     OW31171   1.026   3.285   3.176  0.2712  0.3352 -0.1876
 6513SOL    HW131172   0.969   3.253   3.247 -0.1759  1.1039 -0.2077
 6513SOL    HW231173   1.043   3.203   3.130 -1.3892  1.1587 -2.2198
 6514SOL     OW31174   4.485   1.135   3.399  0.2247 -0.8855  0.0168
 6514SOL    HW131175   4.447   1.202   3.455 -2.0588 -0.2393 -2.3223
 6514SOL    HW231176   4.497   1.179   3.315 -0.4122 -0.9360 -0.1045
 6515SOL     OW31177   4.216   4.087  10.092  0.5118 -0.1810 -0.3872
 6515SOL    HW131178   4.287   4.026  10.074  2.6098  1.8883  0.8456
 6515SOL    HW231179   4.161   4.031  10.146 -1.7951  1.4857 -1.0085
 6516SOL     OW31180   1.108   2.153   7.978 -0.3900  0.3791 -0.2633
 6516SOL    HW131181   1.125   2.184   7.889  2.4856 -0.1577  0.1187
 6516SOL    HW231182   1.058   2.075   7.955 -1.7146  1.0819  0.2116
 6517SOL     OW31183   2.446   1.697   7.045  0.2376  0.0337 -0.1102
 6517SOL    HW131184   2.401   1.635   6.987  1.0775  0.1499 -0.8904
 6517SOL    HW231185   2.446   1.769   6.981  0.7434  0.1105 -0.0214
 6518SOL     OW31186   3.318   1.597   9.361 -0.5004 -0.1069  0.0000
 6518SOL    HW131187   3.404   1.632   9.337 -1.4951  1.6422 -0.9565
 6518SOL    HW231188   3.276   1.672   9.401 -1.1671 -0.4847  0.0150
 6519SOL     OW31189   0.605   2.150   2.564  0.4629  0.6606 -0.3404
 6519SOL    HW131190   0.593   2.062   2.529 -0.8372 -0.1624  2.1857
 6519SOL    HW231191   0.653   2.198   2.497  0.5648  0.2378 -0.5652
 6520SOL     OW31192   3.325   1.613  10.323  0.1308 -0.1670  0.6399
 6520SOL    HW131193   3.321   1.613  10.419 -1.7015 -0.6862  0.5616
 6520SOL    HW231194   3.344   1.521  10.305  0.2069 -0.1014  0.3857
 6521SOL     OW31195   3.989   3.393   8.093 -0.2863 -0.4554 -0.9429
 6521SOL    HW131196   3.960   3.335   8.023 -1.9026  1.7449 -2.1012
 6521SOL    HW231197   4.082   3.375   8.107 -0.8395 -0.2896  2.8651
 6522SOL     OW31198   1.826   0.571   8.478 -0.6034 -0.0254 -0.4214
 6522SOL    HW131199   1.830   0.584   8.573  1.9618 -1.4248 -0.3409
 6522SOL    HW231200   1.913   0.599   8.452  1.6283 -3.8021  2.9436
 6523SOL     OW31201   0.256   3.490   7.750  0.1222 -0.2853 -0.1145
 6523SOL    HW131202   0.274   3.396   7.743 -0.7308 -0.4665  0.0610
 6523SOL    HW231203   0.161   3.502   7.760  0.3403  2.2922 -1.2472
 6524SOL     OW31204   3.656   0.961  12.514  0.7278 -0.3562  0.2440
 6524SOL    HW131205   3.648   1.012  12.433  1.3967  3.3852  2.5706
 6524SOL    HW231206   3.749   0.942  12.507  1.0084  1.4884 -0.7889
 6525SOL     OW31207   4.003   3.479   3.728  0.4388 -0.2026 -0.1423
 6525SOL    HW131208   4.064   3.547   3.699 -0.3107  0.8001  0.6566
 6525SOL    HW231209   3.932   3.541   3.743 -0.2452 -1.1788  0.6407
 6526SOL     OW31210   0.672   1.314  12.247  0.1474 -0.0814  0.3803
 6526SOL    HW131211   0.669   1.399  12.290  0.2644  0.5589 -0.8679
 6526SOL    HW231212   0.765   1.295  12.260  0.1870 -1.0936 -1.2909
 6527SOL     OW31213   1.408   4.018   7.917 -0.0354 -0.6530 -0.4336
 6527SOL    HW131214   1.347   4.087   7.894 -1.5242 -1.1127  2.1820
 6527SOL    HW231215   1.494   4.061   7.922 -0.0151 -0.6675 -0.6392
 6528SOL     OW31216   0.327   3.344   5.838 -0.2658  0.5591  0.3801
 6528SOL    HW131217   0.277   3.363   5.759  1.5174 -0.9536 -1.0960
 6528SOL    HW231218   0.397   3.294   5.796 -1.1189  0.9057 -1.4540
 6529SOL     OW31219   4.281   2.370   2.268  0.4155  0.1541 -0.5735
 6529SOL    HW131220   4.252   2.279   2.271 -2.3047  0.9583 -2.0314
 6529SOL    HW231221   4.216   2.402   2.205 -0.3323 -1.3945 -0.5855
 6530SOL     OW31222   2.137   4.052  13.335  0.2700  0.2858  0.1389
 6530SOL    HW131223   2.116   4.122  13.272 -0.3746 -0.0007  0.0362
 6530SOL    HW231224   2.048   4.023  13.355  0.3460 -0.0195  0.0390
 6531SOL     OW31225   3.005   2.870   7.818  0.0266  0.3541  0.0441
 6531SOL    HW131226   2.985   2.832   7.732 -0.2712 -1.4080  0.8848
 6531SOL    HW231227   2.970   2.958   7.805  0.0203  0.3598  0.1028
 6532SOL     OW31228   0.531   3.379   8.855  0.0532 -0.3649 -0.7314
 6532SOL    HW131229   0.576   3.405   8.935 -0.5031 -0.1812 -0.4737
 6532SOL    HW231230   0.572   3.449   8.805  0.6249 -0.3612 -0.2581
 6533SOL     OW31231   1.572   2.595  12.422 -0.2316 -0.0014  0.1699
 6533SOL    HW131232   1.569   2.662  12.353  1.1483  0.6885  0.7701
 6533SOL    HW231233   1.533   2.646  12.493 -1.2697 -0.8488  0.2144
 6534SOL     OW31234   1.460   3.879   2.690 -0.2706  0.1076  0.0755
 6534SOL    HW131235   1.402   3.926   2.630  1.2551  1.4547 -0.3199
 6534SOL    HW231236   1.407   3.806   2.723 -0.0714 -0.2524 -0.3850
 6535SOL     OW31237   4.285   3.180  17.054  0.3191  0.3749 -0.0811
 6535SOL    HW131238   4.319   3.164  16.966 -2.2209  1.0166 -1.1655
 6535SOL    HW231239   4.202   3.134  17.049  1.4728 -2.0012  2.5095
 6536SOL     OW31240   2.330   0.250   1.166  1.0337 -0.9659 -0.1605
 6536SOL    HW131241   2.356   0.167   1.207  1.3557 -0.7083  0.1546
 6536SOL    HW231242   2.236   0.232   1.161  0.5891  0.6280  2.5688
 6537SOL     OW31243   3.479   4.211   7.783  0.3908 -0.2430 -0.1554
 6537SOL    HW131244   3.416   4.154   7.826 -2.5156  1.5032 -2.0859
 6537SOL    HW231245   3.533   4.236   7.858 -0.3085 -1.1441  0.6367
 6538SOL     OW31246   1.282   4.089  15.443  0.1279 -0.5703 -0.1043
 6538SOL    HW131247   1.272   4.014  15.385  0.0551  1.5699 -2.8980
 6538SOL    HW231248   1.216   4.149  15.408 -0.0655 -0.6621  0.1036
 6539SOL     OW31249   0.966   4.448   8.076  0.6537  0.9023  0.5308
 6539SOL    HW131250   0.878   4.473   8.105  1.8462  3.5740  1.7798
 6539SOL    HW231251   0.962   4.450   7.980 -2.5897  0.3718  0.6282
 6540SOL     OW31252   4.556   2.549   2.346  0.1326  0.1069 -0.0665
 6540SOL    HW131253   4.555   2.454   2.336  0.4627 -0.1501  2.4242
 6540SOL    HW231254   4.492   2.575   2.279  1.4255  2.6832 -0.3111
 6541SOL     OW31255   3.945   1.973  13.034  0.5609  0.1351  0.5772
 6541SOL    HW131256   3.959   1.903  12.971  0.0906  0.2505  0.3481
 6541SOL    HW231257   3.933   2.049  12.978 -2.8698  0.2851  1.5204
 6542SOL     OW31258   1.185   2.356   4.455 -0.3029 -0.1795  0.3453
 6542SOL    HW131259   1.148   2.271   4.480 -0.0627 -0.4154 -0.1045
 6542SOL    HW231260   1.254   2.323   4.398 -0.5458 -0.5395  0.2591
 6543SOL     OW31261   1.736   1.354   5.041  0.9129  0.7356 -0.2514
 6543SOL    HW131262   1.781   1.320   5.119 -1.8139 -0.3255  0.8681
 6543SOL    HW231263   1.791   1.427   5.014  1.2877  0.3020 -0.6646
 6544SOL     OW31264   3.996   1.160   2.635 -0.0446  0.4872  0.0554
 6544SOL    HW131265   4.055   1.086   2.620  1.0442  0.8785  2.4769
 6544SOL    HW231266   3.987   1.151   2.730 -1.5062 -1.1047 -0.2223
 6545SOL     OW31267   4.639   3.951   5.954  0.5335  0.3785 -0.1530
 6545SOL    HW131268   4.559   3.984   5.915  0.7309  2.6673  1.3758
 6545SOL    HW231269   4.622   3.858   5.936 -0.1510  0.4617  0.0763
 6546SOL     OW31270   3.669   3.590   3.996  0.4316 -0.4962 -0.2133
 6546SOL    HW131271   3.714   3.558   4.074  0.4165  0.4377  0.1880
 6546SOL    HW231272   3.616   3.660   4.035 -0.2146 -1.0267 -0.1307
 6547SOL     OW31273   1.253   1.139   2.568 -0.7266 -1.0004 -0.1061
 6547SOL    HW131274   1.235   1.163   2.659  0.7451  1.8023 -0.5596
 6547SOL    HW231275   1.254   1.044   2.582  0.6986 -0.8415  0.8979
 6548SOL     OW31276   2.806   1.976   1.448 -0.2490 -0.6058  0.0787
 6548SOL    HW131277   2.838   1.994   1.537  0.6094  0.3953 -0.4411
 6548SOL    HW231278   2.724   1.929   1.469 -0.5987 -0.1133 -0.1929
 6549SOL     OW31279   2.135   0.665   4.422  0.2229  0.3805 -0.2424
 6549SOL    HW131280   2.220   0.662   4.467  0.1534 -1.1377 -0.2362
 6549SOL    HW231281   2.085   0.594   4.462 -1.3565  1.2935 -0.6132
 6550SOL     OW31282   1.636   3.892   5.059  0.0843 -0.4023 -0.1318
 6550SOL    HW131283   1.650   3.987   5.066 -0.5963 -0.3620  0.7691
 6550SOL    HW231284   1.600   3.875   5.147 -0.7176  0.1051 -0.3605
 6551SOL     OW31285   3.667   1.871  14.779 -1.2405  0.1038  0.1935
 6551SOL    HW131286   3.646   1.827  14.861  1.4926 -1.0945  0.2458
 6551SOL    HW231287   3.680   1.960  14.813 -1.4154  0.3112 -0.2809
 6552SOL     OW31288   4.579   1.819   7.467 -0.4281  0.0742 -0.6129
 6552SOL    HW131289   4.495   1.849   7.501 -0.3517  0.0868 -0.4351
 6552SOL    HW231290   4.558   1.729   7.440  1.0905 -0.6653  0.6921
 6553SOL     OW31291   1.304   2.634   7.573  0.5338  0.2390  0.6552
 6553SOL    HW131292   1.298   2.594   7.660 -1.2949  1.0463  0.8957
 6553SOL    HW231293   1.366   2.580   7.524  0.5455 -0.0674  1.0146
 6554SOL     OW31294   0.621   0.107   6.822 -0.1689 -0.4471  0.0449
 6554SOL    HW131295   0.588   0.131   6.908 -2.3640 -0.9973 -0.6567
 6554SOL    HW231296   0.630   0.013   6.837 -0.8249  0.0149  3.2630
 6555SOL     OW31297   0.702   4.078   1.369  0.1917 -0.1177  0.4558
 6555SOL    HW131298   0.633   4.080   1.303  0.0809 -0.5113  0.5627
 6555SOL    HW231299   0.651   4.072   1.449  0.6739  0.3485  0.7980
 6556SOL     OW31300   0.640   1.122   8.162 -0.2063  0.5500  0.3028
 6556SOL    HW131301   0.591   1.070   8.225  3.5512 -1.2629  1.7062
 6556SOL    HW231302   0.590   1.112   8.080  0.4382  1.0637 -0.1509
 6557SOL     OW31303   4.144   2.484   1.103  0.3349  0.1636  0.1877
 6557SOL    HW131304   4.091   2.550   1.059 -0.6197  1.6754  3.5820
 6557SOL    HW231305   4.075   2.436   1.149  1.4499 -0.2947  1.3851
 6558SOL     OW31306   2.959   1.431   7.909  0.1764  0.0915 -0.1588
 6558SOL    HW131307   2.890   1.384   7.863  0.0572  0.2781 -0.1680
 6558SOL    HW231308   2.902   1.487   7.961  1.0057  0.0036  0.8505
 6559SOL     OW31309   4.448   3.863   7.639  0.3021 -0.3018  0.3208
 6559SOL    HW131310   4.370   3.888   7.690  0.0550  1.5719 -0.9573
 6559SOL    HW231311   4.455   3.942   7.585 -2.7735  0.1877  0.6117
 6560SOL     OW31312   0.688   1.667  10.087  0.0646 -0.0269 -0.0481
 6560SOL    HW131313   0.705   1.759  10.105  0.4326 -0.1655  0.3161
 6560SOL    HW231314   0.647   1.637  10.168  1.6117 -0.3683  0.6154
 6561SOL     OW31315   4.156   1.666   2.440  0.0104  0.5336 -0.0559
 6561SOL    HW131316   4.104   1.709   2.372 -2.2083  1.1904  2.0579
 6561SOL    HW231317   4.090   1.641   2.504 -0.1105  4.6310  1.3853
 6562SOL     OW31318   4.373   3.158  11.977 -0.3829  1.0629 -0.3089
 6562SOL    HW131319   4.417   3.177  12.060 -0.6077  1.2617 -0.2364
 6562SOL    HW231320   4.441   3.175  11.913  0.0208 -0.5390 -0.3190
 6563SOL     OW31321   3.045   1.327   3.281  0.7472 -0.1087  0.0526
 6563SOL    HW131322   2.985   1.262   3.245 -0.3137  2.3251 -2.5959
 6563SOL    HW231323   3.025   1.324   3.374  0.8590 -0.0825  0.0774
 6564SOL     OW31324   2.394   1.911   9.232  0.6077  0.0469  0.3505
 6564SOL    HW131325   2.363   1.981   9.175  0.7442  0.1438  0.3950
 6564SOL    HW231326   2.477   1.945   9.265 -0.3061  3.2955 -0.7168
 6565SOL     OW31327   2.773   1.324   7.758  0.1735  0.3087 -0.0593
 6565SOL    HW131328   2.781   1.257   7.690 -2.4299  0.1483 -0.2144
 6565SOL    HW231329   2.687   1.306   7.797 -0.5724  2.0360 -0.8926
 6566SOL     OW31330   0.173   0.067  16.316  0.0984  0.4679  0.5317
 6566SOL    HW131331   0.188   0.060  16.221  0.3434  0.6953  0.5554
 6566SOL    HW231332   0.080   0.044  16.310  0.1155  0.0368  2.0276
 6567SOL     OW31333   2.193   0.155  13.153 -0.4847 -0.2689 -0.7208
 6567SOL    HW131334   2.286   0.153  13.131 -0.6959  2.2723 -1.7785
 6567SOL    HW231335   2.175   0.249  13.144  0.1013 -0.1951 -1.1593
 6568SOL     OW31336   0.414   2.291  16.652  0.4284 -0.1983  0.1285
 6568SOL    HW131337   0.335   2.237  16.657 -0.3209  0.9642  0.8897
 6568SOL    HW231338   0.481   2.230  16.622  1.1856 -0.7960  3.1022
 6569SOL     OW31339   4.689   1.411   8.571 -0.1045  0.1014  0.5999
 6569SOL    HW131340   4.716   1.441   8.484 -3.1442 -0.4515 -0.5359
 6569SOL    HW231341   4.600   1.379   8.555 -0.1123  0.8223 -0.8259
 6570SOL     OW31342   2.652   1.316  15.994  0.1716 -0.2249 -0.0957
 6570SOL    HW131343   2.729   1.312  15.936 -1.0578 -1.9304 -1.6140
 6570SOL    HW231344   2.688   1.258  16.062 -0.7358  0.5492  1.0412
 6571SOL     OW31345   4.073   2.195   1.565  0.3988  0.0941 -0.5951
 6571SOL    HW131346   4.099   2.271   1.514 -0.1320  0.5508 -0.1830
 6571SOL    HW231347   4.004   2.157   1.510 -0.5049  0.5728  0.2171
 6572SOL     OW31348   0.172   3.606  16.430  0.5645 -0.0994 -0.6798
 6572SOL    HW131349   0.145   3.649  16.512  0.2835  1.1629 -1.4490
 6572SOL    HW231350   0.108   3.634  16.365 -1.9926 -1.0553  1.3505
 6573SOL     OW31351   2.193   4.058   5.861  0.5096  0.1824  0.2633
 6573SOL    HW131352   2.269   4.050   5.804 -0.3274 -0.8777 -0.7146
 6573SOL    HW231353   2.175   3.964   5.855  1.6893 -0.0641  0.5885
 6574SOL     OW31354   4.388   2.199   9.680 -0.3279 -0.0744 -0.0085
 6574SOL    HW131355   4.376   2.190   9.774  0.7751  0.1068  0.1535
 6574SOL    HW231356   4.482   2.184   9.666 -0.5793 -0.8608 -0.8592
 6575SOL     OW31357   4.045   4.589   2.389 -0.0111 -0.3226  0.1653
 6575SOL    HW131358   4.000   4.559   2.468 -1.0147  1.6705  0.3641
 6575SOL    HW231359   4.135   4.561   2.400  0.1207  0.1540  0.2856
 6576SOL     OW31360   2.469   4.034   6.745  0.2655  0.4981 -0.0800
 6576SOL    HW131361   2.391   3.983   6.727  1.0896  0.0110 -2.3257
 6576SOL    HW231362   2.517   3.978   6.807 -1.4986 -0.4357  0.4466
 6577SOL     OW31363   0.501   3.811   8.682 -0.0529 -0.1770  0.2621
 6577SOL    HW131364   0.594   3.809   8.657  0.5122 -0.7015  2.4417
 6577SOL    HW231365   0.510   3.849   8.769 -0.2976 -0.7647  0.5409
 6578SOL     OW31366   2.388   3.800   6.848  0.3897 -1.0766  0.0869
 6578SOL    HW131367   2.417   3.715   6.814  1.5063 -1.0908  1.0847
 6578SOL    HW231368   2.422   3.800   6.938 -1.5730  1.2591  0.8284
 6579SOL     OW31369   3.494   3.183  10.112 -0.3077 -0.1388  0.2640
 6579SOL    HW131370   3.466   3.242  10.042  0.3266 -0.7713 -0.5393
 6579SOL    HW231371   3.412   3.141  10.137 -0.3110 -0.6469 -0.5747
 6580SOL     OW31372   0.339   4.325   7.369  0.8861  0.4907 -0.1534
 6580SOL    HW131373   0.434   4.332   7.358  0.5742  1.9218 -2.0778
 6580SOL    HW231374   0.322   4.262   7.299  0.8778 -0.4589  0.7007
 6581SOL     OW31375   3.399   2.150  13.445  0.1008 -0.3962  0.1999
 6581SOL    HW131376   3.396   2.080  13.380  0.5862 -0.1267 -0.1167
 6581SOL    HW231377   3.443   2.215  13.390 -1.2954 -0.8918 -1.4890
 6582SOL     OW31378   1.765   3.703   6.170 -0.0515 -0.1257 -0.1815
 6582SOL    HW131379   1.746   3.641   6.098 -1.2546 -0.1373  0.1463
 6582SOL    HW231380   1.678   3.735   6.191  0.2803  0.5271  0.1916
 6583SOL     OW31381   2.046   4.449  10.239  0.3980 -0.2945 -0.3606
 6583SOL    HW131382   1.983   4.398  10.187  0.1437  0.2842 -0.6186
 6583SOL    HW231383   2.016   4.452  10.329  0.2083  0.8922 -0.4624
 6584SOL     OW31384   4.173   4.017   5.265  0.3275  0.3982  0.5367
 6584SOL    HW131385   4.191   4.090   5.325 -0.8432  1.1720 -0.0558
 6584SOL    HW231386   4.236   3.952   5.296 -0.0591  0.4761  1.4805
 6585SOL     OW31387   3.976   2.091   8.405  0.0888  0.0109 -0.4302
 6585SOL    HW131388   3.973   2.007   8.451 -1.0880 -0.5543 -1.5240
 6585SOL    HW231389   3.901   2.081   8.347  2.3698  0.6928 -3.5246
 6586SOL     OW31390   4.265   2.734   3.523  0.2878 -0.6371 -0.8711
 6586SOL    HW131391   4.347   2.715   3.477  0.5740 -1.5766  0.0334
 6586SOL    HW231392   4.251   2.656   3.577  2.1533 -1.1036 -1.0577
 6587SOL     OW31393   4.682   4.556   3.311  0.2863 -0.8098  0.1014
 6587SOL    HW131394   0.029   4.606   3.292  1.1531 -1.4747  1.9987
 6587SOL    HW231395   4.718   4.471   3.285  1.2783 -0.1863 -0.6099
 6588SOL     OW31396   3.861   3.303   4.061  0.3743 -0.6000  0.5052
 6588SOL    HW131397   3.953   3.331   4.064 -0.0942  0.9016  0.8088
 6588SOL    HW231398   3.821   3.327   4.144 -2.1410 -0.9141 -0.6293
 6589SOL     OW31399   3.200   1.913   3.348  0.2218 -0.3679 -0.1161
 6589SOL    HW131400   3.223   1.987   3.405 -1.8519 -0.2436  0.5566
 6589SOL    HW231401   3.139   1.959   3.290 -0.7969  0.5082  1.6619
 6590SOL     OW31402   0.956   1.177   1.612  0.0936  0.0622 -0.1600
 6590SOL    HW131403   0.995   1.222   1.687  0.3769  2.8833 -2.0132
 6590SOL    HW231404   0.868   1.213   1.608 -0.3745 -1.1556 -0.7772
 6591SOL     OW31405   4.023   1.305   7.390 -0.4084 -0.4451 -0.4055
 6591SOL    HW131406   4.063   1.383   7.430  0.1885 -1.1326  0.3571
 6591SOL    HW231407   4.024   1.247   7.466  1.5281  1.5221  1.0762
 6592SOL     OW31408   3.179   4.523  16.485  0.5158  0.6000 -0.0673
 6592SOL    HW131409   3.229   4.537  16.404  2.3550 -0.6844  0.8319
 6592SOL    HW231410   3.246   4.493  16.547  0.2959  1.6422  0.6863
 6593SOL     OW31411   2.491   2.015   5.418 -0.0424 -0.0441  0.0758
 6593SOL    HW131412   2.509   2.041   5.508  1.1634 -0.8213  0.0642
 6593SOL    HW231413   2.465   2.095   5.373  2.1744  0.1281 -0.9160
 6594SOL     OW31414   1.736   1.452  16.879 -0.1089  0.0523 -0.5004
 6594SOL    HW131415   1.775   1.365  16.870 -0.3109  0.0962 -1.8082
 6594SOL    HW231416   1.813   1.505  16.856 -1.4295  0.7743 -3.2802
 6595SOL     OW31417   2.819   0.545  13.233 -0.4193 -0.0566 -0.5640
 6595SOL    HW131418   2.786   0.628  13.197  1.9189 -0.0061 -2.6536
 6595SOL    HW231419   2.907   0.573  13.259 -0.3601 -1.2886  0.5683
 6596SOL     OW31420   2.145   0.627  11.858 -0.2807 -0.1040 -0.4687
 6596SOL    HW131421   2.080   0.596  11.922 -0.5839 -0.4105 -0.9265
 6596SOL    HW231422   2.091   0.658  11.785 -1.3774 -0.2924  0.2615
 6597SOL     OW31423   2.477   2.353   5.965  0.0779  0.4068 -0.3383
 6597SOL    HW131424   2.545   2.386   6.024  0.6894  0.5025 -1.0983
 6597SOL    HW231425   2.476   2.260   5.985 -0.6640  0.4081 -0.3629
 6598SOL     OW31426   3.863   4.402   4.237  0.2225  0.0784  0.3185
 6598SOL    HW131427   3.772   4.411   4.267 -0.6279 -0.8712 -2.0046
 6598SOL    HW231428   3.853   4.434   4.148 -1.6462 -4.0769 -0.9757
 6599SOL     OW31429   0.164   1.814  12.126 -0.0237  0.5891  0.0535
 6599SOL    HW131430   0.108   1.869  12.071  0.1320  0.3089 -0.3924
 6599SOL    HW231431   0.131   1.825  12.215  1.8767 -1.2230  0.9864
 6600SOL     OW31432   3.232   0.844   8.715 -0.3020  0.5869 -0.0625
 6600SOL    HW131433   3.236   0.856   8.620  0.6665 -1.6586 -0.3031
 6600SOL    HW231434   3.316   0.799   8.723 -0.8004 -0.0351  1.6200
 6601SOL     OW31435   2.578   2.386   8.049  0.1994 -0.8357  0.3594
 6601SOL    HW131436   2.589   2.480   8.059  1.6591 -0.9970  0.3347
 6601SOL    HW231437   2.486   2.372   8.027 -0.0903 -1.3818  1.9475
 6602SOL     OW31438   1.931   3.594  11.755  0.2552 -0.0167  0.0517
 6602SOL    HW131439   1.944   3.587  11.661 -0.4161 -0.3621 -0.0079
 6602SOL    HW231440   2.025   3.594  11.775 -0.1512  0.7735  1.9860
 6603SOL     OW31441   4.199   1.522   7.111 -0.7508 -0.0674 -0.2497
 6603SOL    HW131442   4.252   1.601   7.119  1.9555 -1.9952  1.0276
 6603SOL    HW231443   4.263   1.458   7.143  1.2845  0.3704 -3.3509
 6604SOL     OW31444   2.415   1.382   4.459  0.7795  0.1615  0.0704
 6604SOL    HW131445   2.351   1.314   4.480  0.3367  0.0834 -1.5306
 6604SOL    HW231446   2.383   1.448   4.521  1.8708 -1.3532  2.2455
 6605SOL     OW31447   0.907   2.170   1.823 -0.1279 -0.5579 -0.3894
 6605SOL    HW131448   0.899   2.079   1.848 -2.5900 -0.4251 -0.6634
 6605SOL    HW231449   0.972   2.206   1.883  0.7066  1.2188 -2.3247
 6606SOL     OW31450   2.613   0.801   5.636  0.1493 -0.3081 -0.7729
 6606SOL    HW131451   2.608   0.775   5.545 -0.5125 -0.6537 -0.6388
 6606SOL    HW231452   2.557   0.734   5.676  1.1603 -0.3726  0.5313
 6607SOL     OW31453   0.412   1.351   9.341 -0.1715 -0.0698 -0.5504
 6607SOL    HW131454   0.449   1.348   9.252 -1.4783 -1.3935 -1.0587
 6607SOL    HW231455   0.335   1.300   9.314  0.4407  0.0843 -2.6120
 6608SOL     OW31456   3.267   2.380   4.111 -1.0424  0.0457 -0.3614
 6608SOL    HW131457   3.354   2.340   4.116 -0.2471  1.8106 -0.1782
 6608SOL    HW231458   3.215   2.323   4.167  0.4894  0.1948  1.1892
 6609SOL     OW31459   0.495   3.747   6.645 -0.3638 -0.3108  0.2603
 6609SOL    HW131460   0.477   3.787   6.730 -2.1661 -0.4803 -0.0413
 6609SOL    HW231461   0.525   3.661   6.670 -0.6245 -0.1352  1.1637
 6610SOL     OW31462   4.176   0.102   4.820  0.0002  0.1764 -0.0096
 6610SOL    HW131463   4.183   0.195   4.841 -2.3985  0.3558 -0.0491
 6610SOL    HW231464   4.188   0.096   4.725  1.5504  2.3024  0.0512
 6611SOL     OW31465   2.758   1.698   2.003 -0.2657 -0.4622  0.0196
 6611SOL    HW131466   2.809   1.619   2.020  1.5810  0.3411 -1.6776
 6611SOL    HW231467   2.675   1.692   2.050 -1.0112 -2.3386 -1.5583
 6612SOL     OW31468   3.868   1.447   2.236 -0.2546 -0.4642  0.0502
 6612SOL    HW131469   3.949   1.426   2.189 -0.0872 -0.5553  0.3839
 6612SOL    HW231470   3.901   1.417   2.320  1.3577 -0.2977 -0.5217
 6613SOL     OW31471   2.152   0.835   2.362  0.2299 -0.1737  0.2736
 6613SOL    HW131472   2.230   0.786   2.386 -1.1755 -1.4342  2.2530
 6613SOL    HW231473   2.156   0.811   2.269  1.0281  0.1619  0.2234
 6614SOL     OW31474   0.321   0.163   3.078 -0.3055  0.1323  0.1041
 6614SOL    HW131475   0.399   0.218   3.088  0.2140 -0.5052 -0.4979
 6614SOL    HW231476   0.301   0.194   2.989 -0.1790 -1.7971 -0.5943
 6615SOL     OW31477   0.480   0.408  10.433 -0.8140 -0.1937 -0.5921
 6615SOL    HW131478   0.397   0.410  10.385 -0.3973 -1.6515 -1.3555
 6615SOL    HW231479   0.462   0.425  10.526 -0.1545 -0.4235 -0.4220
 6616SOL     OW31480   1.940   1.513  15.810  0.0852  0.2811  0.1226
 6616SOL    HW131481   1.851   1.546  15.796 -0.0259  0.3270  0.9767
 6616SOL    HW231482   1.925   1.419  15.820 -1.5378  0.4401 -0.7912
 6617SOL     OW31483   2.508   3.402   0.979 -0.1195 -0.1694 -0.2028
 6617SOL    HW131484   2.575   3.453   1.024  1.4678 -1.3657 -1.2245
 6617SOL    HW231485   2.544   3.316   0.999 -0.4287 -0.1829  0.2946
 6618SOL     OW31486   2.538   4.176   9.566  0.1564 -0.1397  0.1589
 6618SOL    HW131487   2.576   4.186   9.479  0.1104 -2.7598 -0.1676
 6618SOL    HW231488   2.593   4.105   9.601 -0.7461 -0.6011  0.6521
 6619SOL     OW31489   2.084   2.138   5.761  0.1054  0.1499  0.1780
 6619SOL    HW131490   2.102   2.130   5.667 -1.2615 -0.8436  0.0051
 6619SOL    HW231491   2.077   2.048   5.791 -2.6123  0.7126  1.2130
 6620SOL     OW31492   1.055   1.395  16.574  0.4576 -0.3115 -0.2005
 6620SOL    HW131493   1.053   1.367  16.665 -1.6457 -0.4514 -0.2889
 6620SOL    HW231494   1.148   1.382  16.559  0.8938  0.2436  2.0472
 6621SOL     OW31495   3.800   1.695  14.004 -0.0383 -0.1957  0.4593
 6621SOL    HW131496   3.705   1.704  13.998 -0.1900 -1.9108  0.2500
 6621SOL    HW231497   3.804   1.618  14.062 -0.8721 -0.4948  0.1083
 6622SOL     OW31498   3.057   2.731   5.947 -0.5188  0.0028  0.0586
 6622SOL    HW131499   3.018   2.777   6.022 -0.1860  1.4590 -0.6559
 6622SOL    HW231500   3.060   2.803   5.884  0.3371  0.7051  0.9058
 6623SOL     OW31501   0.806   2.187   6.395  0.2532  0.5916  0.2059
 6623SOL    HW131502   0.883   2.130   6.402  0.4955  0.7584 -1.0494
 6623SOL    HW231503   0.783   2.185   6.488  1.5022  0.1046  0.5109
 6624SOL     OW31504   4.116   1.443  14.788 -0.4669  0.1132  0.6460
 6624SOL    HW131505   4.167   1.364  14.769 -0.6530 -0.3268  1.9511
 6624SOL    HW231506   4.185   1.505  14.813  1.6789 -2.1762  0.3577
 6625SOL     OW31507   0.321   0.070   6.127  0.1542 -0.0453 -0.2146
 6625SOL    HW131508   0.230   0.055   6.102  0.2419 -1.0566  0.0584
 6625SOL    HW231509   0.319   0.163   6.147 -1.1461 -0.3981  1.2841
 6626SOL     OW31510   3.226   3.118   9.721 -0.4104  0.1124  0.0074
 6626SOL    HW131511   3.226   3.149   9.630 -0.2368  1.8301  0.5828
 6626SOL    HW231512   3.131   3.111   9.732 -0.1035 -0.0251  2.5910
 6627SOL     OW31513   1.808   3.346  14.888 -0.1204  0.0148 -0.1879
 6627SOL    HW131514   1.859   3.427  14.878 -0.3098  0.0305 -1.0208
 6627SOL    HW231515   1.869   3.295  14.941  1.1293  0.4924 -1.1796
 6628SOL     OW31516   2.829   1.680   4.703  0.2490 -0.7976  0.1762
 6628SOL    HW131517   2.889   1.629   4.648 -0.3253 -0.6341 -0.6012
 6628SOL    HW231518   2.764   1.705   4.637  1.5898  2.4727  0.0849
 6629SOL     OW31519   4.176   1.096   6.150 -0.5666 -0.1282 -0.3672
 6629SOL    HW131520   4.152   1.037   6.222  2.6594 -0.4381  0.4713
 6629SOL    HW231521   4.261   1.058   6.128 -0.3650 -0.8461  1.5995
 6630SOL     OW31522   3.319   0.554  12.798 -0.1449  0.4171  0.0825
 6630SOL    HW131523   3.339   0.637  12.756  1.8999 -0.5535 -0.8762
 6630SOL    HW231524   3.310   0.504  12.717  2.8030  1.1854 -0.7029
 6631SOL     OW31525   1.876   3.410   8.695 -0.5009 -0.2476 -0.1364
 6631SOL    HW131526   1.932   3.336   8.719  1.9462  0.6119 -3.2944
 6631SOL    HW231527   1.805   3.399   8.758 -1.7209  0.6454 -1.3651
 6632SOL     OW31528   1.771   0.733   4.263  0.6149  0.1695 -0.1502
 6632SOL    HW131529   1.837   0.668   4.285 -0.2276 -0.9335 -0.9384
 6632SOL    HW231530   1.695   0.683   4.292 -0.6874  2.5404  0.5260
 6633SOL     OW31531   0.085   3.919   7.805 -0.0079  0.2533 -0.1564
 6633SOL    HW131532   0.040   3.839   7.774  0.7621 -0.4670  0.6073
 6633SOL    HW231533   0.176   3.892   7.808 -0.1370 -0.2978 -0.9964
 6634SOL     OW31534   2.949   4.030   9.901  0.5983 -0.1224 -0.2959
 6634SOL    HW131535   2.975   4.035   9.809 -0.2405  0.3874 -0.5037
 6634SOL    HW231536   2.879   3.964   9.906  1.2867 -0.9181 -1.0618
 6635SOL     OW31537   2.433   4.118   5.168 -0.0295 -0.3238 -0.4995
 6635SOL    HW131538   2.429   4.033   5.212  0.5559 -1.2556 -2.2563
 6635SOL    HW231539   2.508   4.109   5.110 -1.4486 -1.0150 -2.2565
 6636SOL     OW31540   0.443   4.303   6.635  0.3992 -0.3306  0.2588
 6636SOL    HW131541   0.355   4.307   6.672 -0.6450  0.0284 -2.2722
 6636SOL    HW231542   0.468   4.212   6.652 -0.3474 -0.5042  0.4211
 6637SOL     OW31543   3.220   4.643   5.897  0.2780 -0.4843 -0.8859
 6637SOL    HW131544   3.260   4.577   5.953  1.7991  0.7749 -0.5072
 6637SOL    HW231545   3.145   4.597   5.858  1.1941  0.7945 -4.1497
 6638SOL     OW31546   2.615   2.137   8.925  0.4471  0.0273 -0.3807
 6638SOL    HW131547   2.599   2.180   9.009 -2.5802 -0.9908 -0.4417
 6638SOL    HW231548   2.601   2.043   8.941 -1.4401  0.3598 -0.1517
 6639SOL     OW31549   1.215   3.661   5.271 -0.1424 -0.2029  0.3865
 6639SOL    HW131550   1.154   3.675   5.344 -1.4121  1.3462 -0.9758
 6639SOL    HW231551   1.227   3.566   5.281 -1.1832 -0.4408 -0.6498
 6640SOL     OW31552   4.630   4.245  12.282 -0.2390 -0.1671  0.6194
 6640SOL    HW131553   4.561   4.242  12.215  1.3869  0.6559 -1.0719
 6640SOL    HW231554   4.596   4.306  12.347 -0.8898  1.6268 -1.4215
 6641SOL     OW31555   4.117   0.947   0.929 -0.1506 -0.2443  0.0272
 6641SOL    HW131556   4.024   0.938   0.907  0.0409  2.1392 -1.7722
 6641SOL    HW231557   4.097   0.978   1.017 -0.2305 -1.0385  0.2903
 6642SOL     OW31558   1.039   2.600   0.714  0.6849  0.7512  0.1891
 6642SOL    HW131559   0.945   2.620   0.713  0.1459 -2.0399 -2.9221
 6642SOL    HW231560   1.055   2.642   0.630  0.5814 -2.6247 -1.4865
 6643SOL     OW31561   3.911   1.118   0.761  0.1810  0.2069  0.1181
 6643SOL    HW131562   3.938   1.110   0.669  0.6934  0.3278  0.2598
 6643SOL    HW231563   3.957   1.196   0.792  0.6004  0.2207 -0.5388
 6644SOL     OW31564   1.718   1.633   4.759  0.0119  0.4900 -0.4965
 6644SOL    HW131565   1.642   1.594   4.714 -1.0920 -0.9343  2.6112
 6644SOL    HW231566   1.780   1.646   4.688 -0.3457 -0.6113 -1.0159
 6645SOL     OW31567   3.285   1.626   0.760  0.1647  0.1514  0.5670
 6645SOL    HW131568   3.294   1.721   0.753  1.4793 -0.0469 -0.3452
 6645SOL    HW231569   3.209   1.625   0.818 -0.5878  0.4503 -0.4088
 6646SOL     OW31570   3.444   1.052   3.611  0.3128  0.0885  0.0440
 6646SOL    HW131571   3.367   1.060   3.555 -0.0431 -0.4097  0.4563
 6646SOL    HW231572   3.482   0.971   3.576  0.7678  0.6393 -0.7403
 6647SOL     OW31573   3.131   4.511   7.456  0.0151 -0.2325  0.4025
 6647SOL    HW131574   3.222   4.485   7.474  0.3787  0.5007 -0.3722
 6647SOL    HW231575   3.125   4.602   7.487 -0.4737  0.2777 -1.1786
 6648SOL     OW31576   1.660   0.150   6.542 -0.4381 -0.1919 -0.0541
 6648SOL    HW131577   1.739   0.153   6.488 -0.2322  3.2645  0.4286
 6648SOL    HW231578   1.649   0.057   6.563  1.4554 -0.4230 -0.0882
 6649SOL     OW31579   1.393   0.398  11.389 -0.1907  0.2524 -0.0678
 6649SOL    HW131580   1.357   0.451  11.318  0.3038  1.1493  0.3460
 6649SOL    HW231581   1.312   0.350  11.407  0.7166 -1.3030 -0.1544
 6650SOL     OW31582   3.712   2.849   3.500 -0.4461 -0.1893  0.8485
 6650SOL    HW131583   3.640   2.905   3.529 -1.4885 -0.5696 -1.0250
 6650SOL    HW231584   3.720   2.790   3.575 -0.0446 -0.6580  0.4395
 6651SOL     OW31585   3.571   1.001   1.332 -0.1046  0.4024  0.5472
 6651SOL    HW131586   3.610   1.086   1.310  0.2955  0.1439  0.2611
 6651SOL    HW231587   3.574   0.961   1.246  3.2385 -1.7817  1.6646
 6652SOL     OW31588   1.501   1.855  14.197 -0.4838 -0.2877 -0.1208
 6652SOL    HW131589   1.474   1.796  14.127  1.0866 -1.3637  0.1681
 6652SOL    HW231590   1.461   1.935  14.164  0.3248  0.5977  1.0336
 6653SOL     OW31591   0.350   4.171  12.952  0.6705  0.1126 -0.2296
 6653SOL    HW131592   0.413   4.117  12.998  1.0310  1.0144  0.3348
 6653SOL    HW231593   0.270   4.144  12.998  0.3482  1.5481  0.0765
 6654SOL     OW31594   0.196   3.005   4.886  0.7341  0.0250 -0.2035
 6654SOL    HW131595   0.152   3.081   4.848  0.7845  0.9627  1.5869
 6654SOL    HW231596   0.162   2.926   4.844  0.4820  0.1765 -0.2823
 6655SOL     OW31597   3.275   4.457   5.217 -0.4187 -0.4646 -0.1768
 6655SOL    HW131598   3.357   4.429   5.259 -0.7869 -1.2993 -0.0204
 6655SOL    HW231599   3.277   4.413   5.133 -0.1007  1.2813 -1.0826
 6656SOL     OW31600   1.380   3.580   3.966 -0.0426 -0.0664 -0.1269
 6656SOL    HW131601   1.316   3.525   4.011  0.5935 -0.4805  0.2832
 6656SOL    HW231602   1.346   3.667   3.989  1.8359  0.3945  0.9013
 6657SOL     OW31603   4.133   1.994   1.734 -0.3821  0.1138  0.1143
 6657SOL    HW131604   4.212   1.951   1.700 -0.3812 -0.8006  1.2590
 6657SOL    HW231605   4.128   2.077   1.687  1.4846  0.1824  0.0263
 6658SOL     OW31606   2.922   0.069   5.008  0.2144  0.2047 -0.1864
 6658SOL    HW131607   2.955   4.717   5.036  0.1922  0.2698  0.0392
 6658SOL    HW231608   2.863   0.077   5.083  1.0662 -0.0887  0.5186
 6659SOL     OW31609   1.010   0.652   2.521  0.5870 -0.1346  0.1122
 6659SOL    HW131610   0.998   0.561   2.548 -0.6658 -0.4198 -1.4349
 6659SOL    HW231611   0.946   0.658   2.451 -2.2119 -1.9366  2.5201
 6660SOL     OW31612   1.829   3.636   8.296 -0.3125 -0.3918  0.0532
 6660SOL    HW131613   1.755   3.660   8.352 -0.9448 -0.7535 -0.6174
 6660SOL    HW231614   1.778   3.648   8.216 -1.3871  0.4523  0.8603
 6661SOL     OW31615   0.996   2.379   6.733 -0.1687 -0.6433 -0.0402
 6661SOL    HW131616   1.031   2.449   6.678 -3.2460  1.9550  1.2806
 6661SOL    HW231617   1.030   2.401   6.820  1.0779  2.1565 -1.2656
 6662SOL     OW31618   0.987   1.089  17.007  0.1708  0.5121  0.4016
 6662SOL    HW131619   0.994   1.056  17.097  0.5366 -1.2016 -0.2621
 6662SOL    HW231620   0.902   1.051  16.984  0.5576  0.5091 -0.9881
 6663SOL     OW31621   3.542   3.727   5.210 -0.0037  0.9153 -0.1189
 6663SOL    HW131622   3.504   3.813   5.227  0.2960  1.4278 -2.0338
 6663SOL    HW231623   3.478   3.704   5.143  0.4289  0.2117 -0.2932
 6664SOL     OW31624   1.410   1.251   8.803 -0.8328  0.5270  0.0828
 6664SOL    HW131625   1.329   1.242   8.753 -0.2326 -1.0214 -0.5928
 6664SOL    HW231626   1.397   1.175   8.859  2.8603 -1.5100 -1.8837
 6665SOL     OW31627   4.031   4.456   2.145 -0.1550 -0.3861  0.2247
 6665SOL    HW131628   4.027   4.362   2.164  0.1942 -0.2762  0.8175
 6665SOL    HW231629   4.004   4.489   2.231 -1.9986  2.5978 -1.4992
 6666SOL     OW31630   4.071   2.760   7.506 -0.0530 -0.1847 -0.6549
 6666SOL    HW131631   4.062   2.820   7.432 -1.4102  0.5812  0.1392
 6666SOL    HW231632   4.044   2.827   7.568  2.7396  1.0875 -0.7992
 6667SOL     OW31633   2.071   3.227   6.468 -0.7211 -0.2131  0.0989
 6667SOL    HW131634   1.990   3.276   6.479 -0.0714  0.2008  3.0184
 6667SOL    HW231635   2.056   3.161   6.536 -0.9211 -0.0300  0.2320
 6668SOL     OW31636   3.361   3.319   9.858  0.0998  0.0313 -0.0070
 6668SOL    HW131637   3.292   3.266   9.818  0.0728 -0.2817  0.4434
 6668SOL    HW231638   3.426   3.336   9.789 -1.3217  1.5148 -0.9582
 6669SOL     OW31639   1.939   3.903   8.459  0.1622 -0.3741 -0.0690
 6669SOL    HW131640   1.860   3.935   8.503  1.0877  4.3690 -1.7987
 6669SOL    HW231641   1.912   3.813   8.445 -0.7599 -0.2117  0.6358
 6670SOL     OW31642   1.464   0.265  15.318 -0.0977 -0.2458  0.5709
 6670SOL    HW131643   1.418   0.233  15.395 -1.1295 -0.2827 -0.0658
 6670SOL    HW231644   1.385   0.280  15.267  1.2628  1.6050 -1.0165
 6671SOL     OW31645   0.527   2.756   4.250 -0.3452  0.6673  0.0059
 6671SOL    HW131646   0.560   2.839   4.286  0.4731  0.5574 -0.4997
 6671SOL    HW231647   0.596   2.693   4.270 -1.0377  0.8584  2.9126
 6672SOL     OW31648   0.698   4.041   4.582 -0.8330 -0.0363  0.2572
 6672SOL    HW131649   0.642   4.089   4.520  0.8880  1.1116 -0.3887
 6672SOL    HW231650   0.653   4.048   4.666 -1.5709 -0.3168 -0.1115
 6673SOL     OW31651   4.695   0.966   5.328  0.8173 -0.0889 -0.2476
 6673SOL    HW131652   4.669   0.992   5.417 -0.4108  0.3117 -0.7241
 6673SOL    HW231653   0.020   1.035   5.298  0.7885 -0.5126 -1.2849
 6674SOL     OW31654   2.564   1.660   4.626 -0.1882  0.1099  0.4801
 6674SOL    HW131655   2.541   1.749   4.653 -1.4183  0.4228 -1.5762
 6674SOL    HW231656   2.496   1.650   4.560  1.2468 -0.0482 -0.9695
 6675SOL     OW31657   0.065   0.471  10.782 -0.1793  0.3000 -0.1713
 6675SOL    HW131658   0.093   0.479  10.690 -0.7050  3.5651 -0.0388
 6675SOL    HW231659   0.001   0.541  10.793 -0.2721  0.0424  0.9457
 6676SOL     OW31660   2.681   4.247   5.831  0.1821  0.6731  0.3885
 6676SOL    HW131661   2.709   4.163   5.794 -2.6295 -1.2958  2.6362
 6676SOL    HW231662   2.649   4.217   5.916 -0.6308  0.5036  0.0328
 6677SOL     OW31663   0.032   0.947  12.835  0.1131  1.0708  0.6091
 6677SOL    HW131664   0.049   0.987  12.749 -1.6930  2.1329  0.7563
 6677SOL    HW231665   0.123   0.926  12.855 -0.2076  1.1606  2.1413
 6678SOL     OW31666   1.982   0.939  10.021  0.7013  0.4760  0.1645
 6678SOL    HW131667   2.015   0.885  10.094  0.9546  1.9321  1.1238
 6678SOL    HW231668   1.910   0.884   9.992 -0.4764  0.8649  2.3417
 6679SOL     OW31669   1.798   0.110  11.368 -0.5553  0.4087  0.5161
 6679SOL    HW131670   1.721   0.096  11.423  0.9155  0.3094  2.5427
 6679SOL    HW231671   1.857   0.135  11.439  0.6112 -1.3631  0.1517
 6680SOL     OW31672   0.566   1.771   4.306  0.8833  0.5813 -0.6767
 6680SOL    HW131673   0.525   1.849   4.344 -2.2333 -0.8888 -0.9696
 6680SOL    HW231674   0.659   1.792   4.315  1.2528 -2.0955  1.8478
 6681SOL     OW31675   4.571   3.017   7.459 -0.1723  0.2357  0.2267
 6681SOL    HW131676   4.581   3.096   7.512 -3.3252  1.0997 -0.4744
 6681SOL    HW231677   4.640   2.960   7.494  0.7300  0.9068 -0.4751
 6682SOL     OW31678   1.032   0.789   3.220 -0.2052  0.1231  0.0260
 6682SOL    HW131679   1.109   0.733   3.205 -0.8231 -0.2411 -1.8655
 6682SOL    HW231680   1.082   0.841   3.282 -1.9094 -0.9298  2.2810
 6683SOL     OW31681   3.024   0.115   6.288 -0.5755  0.3826 -0.1673
 6683SOL    HW131682   3.072   0.174   6.346 -0.6235  1.3480 -1.1040
 6683SOL    HW231683   3.071   0.133   6.206 -1.4702  1.5186 -0.4406
 6684SOL     OW31684   0.886   3.880   5.172  0.3704 -0.0441  0.4802
 6684SOL    HW131685   0.849   3.901   5.258 -0.4555  0.0405  0.1005
 6684SOL    HW231686   0.957   3.945   5.162 -0.5481  0.8008 -0.4901
 6685SOL     OW31687   1.501   0.569   6.875 -0.2787  0.2632  0.0815
 6685SOL    HW131688   1.430   0.588   6.935  0.0928 -0.6546  0.8089
 6685SOL    HW231689   1.495   0.473   6.870 -0.3816  0.2055  1.4898
 6686SOL     OW31690   0.449   3.095  10.315 -0.1409  0.5283  0.3897
 6686SOL    HW131691   0.403   3.142  10.385  0.0803 -1.4664  1.8736
 6686SOL    HW231692   0.494   3.029  10.369  0.7485  0.6182 -0.2365
 6687SOL     OW31693   4.482   0.258   0.349 -0.1400 -0.7828  0.4579
 6687SOL    HW131694   4.550   0.212   0.300  0.0997 -0.0950  0.1501
 6687SOL    HW231695   4.451   0.327   0.290 -4.6841 -0.9980  2.5705
 6688SOL     OW31696   4.054   0.364   1.913  0.4777 -0.4700  0.2569
 6688SOL    HW131697   4.041   0.271   1.930 -0.8876 -0.2868  0.2390
 6688SOL    HW231698   4.098   0.369   1.829 -1.0354  0.5581 -0.4621
 6689SOL     OW31699   1.073   2.144  15.829  0.2920  0.1636  0.2918
 6689SOL    HW131700   1.106   2.054  15.824  1.4326  0.6178 -0.1018
 6689SOL    HW231701   1.142   2.197  15.869  0.2971 -0.4485  1.1003
 6690SOL     OW31702   2.331   2.210   5.259  0.2579  0.0873 -0.1661
 6690SOL    HW131703   2.302   2.281   5.316 -0.5030  0.1882 -0.6769
 6690SOL    HW231704   2.311   2.242   5.171  2.4510 -3.2020 -1.8841
 6691SOL     OW31705   0.201   3.765   3.751  0.1036 -0.1243  0.3279
 6691SOL    HW131706   0.189   3.675   3.720 -0.7167  0.2179 -0.3813
 6691SOL    HW231707   0.171   3.765   3.842 -0.4668  1.2568  0.1410
 6692SOL     OW31708   0.386   0.172   3.517  0.1990 -0.2215 -0.1693
 6692SOL    HW131709   0.293   0.155   3.500 -0.1038  0.2959  0.9480
 6692SOL    HW231710   0.424   0.093   3.480 -2.2710 -0.2050 -2.7087
 6693SOL     OW31711   3.954   2.145  13.812  0.9877 -0.3221 -0.1288
 6693SOL    HW131712   3.958   2.076  13.878 -2.2263  2.3023  2.8687
 6693SOL    HW231713   3.861   2.140  13.791  0.7383  1.7976  0.4000
 6694SOL     OW31714   1.685   0.023  17.532 -0.0542 -0.5330  0.0987
 6694SOL    HW131715   1.772   0.002  17.497 -0.1316 -0.8843  0.1168
 6694SOL    HW231716   1.644   4.671  17.542  0.1647 -0.4622  1.6006
 6695SOL     OW31717   0.699   2.052   7.741 -0.2580  0.7400 -0.0199
 6695SOL    HW131718   0.762   2.111   7.701 -0.1406  0.8529  0.3332
 6695SOL    HW231719   0.655   2.012   7.666 -0.2395  1.1450 -0.2435
 6696SOL     OW31720   3.916   1.780   5.989  0.3768  0.0106 -0.4533
 6696SOL    HW131721   3.887   1.740   5.907  1.6114  0.1444 -0.9568
 6696SOL    HW231722   3.881   1.721   6.056 -0.5421 -1.3788 -2.1523
 6697SOL     OW31723   3.314   2.294  14.706  0.1979  0.3343 -0.1351
 6697SOL    HW131724   3.402   2.307  14.670  0.5554  1.1006  0.9961
 6697SOL    HW231725   3.326   2.243  14.786  0.7161  0.4190 -0.1575
 6698SOL     OW31726   1.663   0.988   6.026 -0.2144  0.2861 -0.0795
 6698SOL    HW131727   1.704   1.022   6.106 -2.4705  1.3860  0.6131
 6698SOL    HW231728   1.590   0.934   6.057 -2.4201  3.4121  0.0797
 6699SOL     OW31729   2.786   4.541   6.008 -0.0247 -0.6073  0.1849
 6699SOL    HW131730   2.831   4.552   5.924 -0.4231  1.0956  0.1912
 6699SOL    HW231731   2.816   4.458   6.044  1.1721 -0.9758 -1.6407
 6700SOL     OW31732   2.979   3.683  13.054 -0.3445  0.0912  0.0092
 6700SOL    HW131733   3.045   3.736  13.098 -0.2545 -0.5635  0.6521
 6700SOL    HW231734   2.899   3.730  13.076 -1.1580 -1.2510 -0.0843
 6701SOL     OW31735   3.322   3.958   3.490  0.0338 -0.0550  0.3122
 6701SOL    HW131736   3.275   3.985   3.569 -1.4774  0.9278 -0.9153
 6701SOL    HW231737   3.382   3.895   3.530 -0.3705  0.1770  1.2899
 6702SOL     OW31738   3.234   2.473  11.827 -0.2949 -0.5443 -0.6414
 6702SOL    HW131739   3.279   2.558  11.827 -1.2445 -0.0300  1.2627
 6702SOL    HW231740   3.207   2.473  11.919  0.3305  0.2521 -0.4460
 6703SOL     OW31741   4.431   2.688  15.990  0.1801 -0.9396  0.2131
 6703SOL    HW131742   4.419   2.739  15.910  1.6829 -0.2801  0.4133
 6703SOL    HW231743   4.345   2.698  16.031  0.1357 -2.5648  0.5210
 6704SOL     OW31744   0.712   0.926   5.797  0.8007  0.6211  0.5327
 6704SOL    HW131745   0.793   0.875   5.798  1.5894  1.8604  0.1979
 6704SOL    HW231746   0.751   1.010   5.773  0.4113  0.0304 -2.1279
 6705SOL     OW31747   0.223   2.340   0.820 -0.6940  0.0371 -0.1934
 6705SOL    HW131748   0.210   2.258   0.867  0.5570 -0.1896 -0.2427
 6705SOL    HW231749   0.192   2.399   0.888  0.1515 -0.6337  0.7766
 6706SOL     OW31750   1.549   3.793   7.733 -0.2510 -0.0346  0.3081
 6706SOL    HW131751   1.482   3.741   7.688 -0.2285  0.2703 -0.0828
 6706SOL    HW231752   1.505   3.875   7.755 -0.0380  0.3278 -0.6102
 6707SOL     OW31753   1.260   1.362   8.020  0.7245 -0.3900  0.2770
 6707SOL    HW131754   1.227   1.415   7.948  2.1617 -1.7319 -1.3585
 6707SOL    HW231755   1.321   1.297   7.985  0.0849  0.4821 -2.4361
 6708SOL     OW31756   2.121   0.283   8.226  0.2909 -0.9581 -0.0125
 6708SOL    HW131757   2.111   0.189   8.237 -1.6517 -0.4072  3.0756
 6708SOL    HW231758   2.064   0.298   8.151 -0.6994 -2.1521  0.4954
 6709SOL     OW31759   3.788   0.830   2.880 -0.2626 -0.3588 -0.2936
 6709SOL    HW131760   3.758   0.917   2.853 -3.4195 -1.1237  0.7285
 6709SOL    HW231761   3.719   0.777   2.839  0.6487 -1.0346 -0.9367
 6710SOL     OW31762   2.154   2.087   3.880  0.1572  0.4978  0.0610
 6710SOL    HW131763   2.074   2.134   3.855  2.2115  4.3718  0.7394
 6710SOL    HW231764   2.223   2.143   3.845 -0.0852  0.4012 -0.5774
 6711SOL     OW31765   3.163   4.086   7.443 -0.1157 -0.3011 -0.2578
 6711SOL    HW131766   3.140   4.150   7.510 -0.8818 -0.4185 -0.4072
 6711SOL    HW231767   3.166   4.141   7.364 -0.8475  1.6343  1.0646
 6712SOL     OW31768   2.207   2.078   1.747  0.7629 -0.4461 -0.3092
 6712SOL    HW131769   2.270   2.054   1.678 -0.4493 -1.3031 -1.1162
 6712SOL    HW231770   2.236   2.020   1.818 -0.5539 -0.2415  0.3900
 6713SOL     OW31771   4.586   2.694   6.137  0.2288 -0.4498  0.7648
 6713SOL    HW131772   4.530   2.619   6.116  0.4746 -0.1133 -1.0859
 6713SOL    HW231773   4.561   2.760   6.073 -0.0169 -1.1827  0.1100
 6714SOL     OW31774   1.026   3.703  17.504  0.0237 -0.3389  0.1289
 6714SOL    HW131775   1.037   3.774  17.567  2.3296 -0.2902 -0.3461
 6714SOL    HW231776   1.088   3.728  17.436 -1.0284 -0.3758 -0.8503
 6715SOL     OW31777   1.069   4.027   7.053 -0.3311  0.4837 -0.0211
 6715SOL    HW131778   1.135   4.088   7.021 -1.6730  3.2243  2.4549
 6715SOL    HW231779   1.017   4.015   6.974 -0.5311  0.1594  0.1581
 6716SOL     OW31780   3.125   3.749   9.504  0.1503  0.1779 -0.0700
 6716SOL    HW131781   3.178   3.821   9.470 -1.1511  0.7261 -0.9020
 6716SOL    HW231782   3.194   3.697   9.547 -0.8916 -1.5712 -0.5262
 6717SOL     OW31783   3.830   4.360   3.120 -0.4213  0.2370  0.3303
 6717SOL    HW131784   3.806   4.271   3.095 -0.3563  0.1687  0.5184
 6717SOL    HW231785   3.802   4.410   3.043 -0.2582  1.0012  0.7699
 6718SOL     OW31786   2.801   1.440  13.330  0.2657  0.3850  0.4094
 6718SOL    HW131787   2.733   1.485  13.380 -0.0920 -0.0564  0.3163
 6718SOL    HW231788   2.847   1.520  13.304  1.1777  0.6507  2.7710
 6719SOL     OW31789   0.780   1.686   0.950 -0.6691  0.1752 -0.3232
 6719SOL    HW131790   0.852   1.666   1.008 -1.8355  0.5711  1.2610
 6719SOL    HW231791   0.819   1.735   0.878 -0.3427 -0.0460 -0.2929
 6720SOL     OW31792   2.055   3.812   5.123  0.1804 -0.1134  0.8377
 6720SOL    HW131793   2.100   3.887   5.162 -0.9109  0.3039  1.2916
 6720SOL    HW231794   2.036   3.759   5.201 -0.3669  0.2453  0.9455
 6721SOL     OW31795   4.205   2.028   9.233 -0.2495 -0.2569  0.6418
 6721SOL    HW131796   4.134   1.965   9.242 -0.8151  0.2942  0.1067
 6721SOL    HW231797   4.212   2.066   9.321  0.3830 -0.6971  0.7800
 6722SOL     OW31798   1.785   0.883   9.525  0.2861 -0.3536  0.3757
 6722SOL    HW131799   1.811   0.834   9.603 -1.5004 -0.1092  1.1348
 6722SOL    HW231800   1.868   0.925   9.507  1.5918 -2.7956  0.6659
 6723SOL     OW31801   3.995   2.985  11.588 -0.0550  0.1595 -0.2090
 6723SOL    HW131802   4.035   3.012  11.671 -2.6100  0.5776  0.8870
 6723SOL    HW231803   3.908   2.967  11.623  0.2163 -1.2926 -0.2584
 6724SOL     OW31804   1.307   1.823   9.362 -0.0411  0.2781 -0.4673
 6724SOL    HW131805   1.328   1.822   9.456 -2.9454  1.1273  0.1869
 6724SOL    HW231806   1.327   1.732   9.339 -1.4079 -0.2970  0.5822
 6725SOL     OW31807   4.412   2.297   4.941  0.1123 -0.4722  0.0296
 6725SOL    HW131808   4.328   2.337   4.964  0.6130 -1.0107  2.8119
 6725SOL    HW231809   4.423   2.251   5.025 -3.2292 -0.0123  0.7284
 6726SOL     OW31810   2.475   3.743   7.840  0.1460  0.6195  0.2607
 6726SOL    HW131811   2.492   3.653   7.815  0.7289  2.0375 -4.5234
 6726SOL    HW231812   2.522   3.795   7.775  1.4139  1.5996  1.9599
 6727SOL     OW31813   1.103   2.948   2.773  0.1403  0.0295  0.0748
 6727SOL    HW131814   1.157   3.017   2.736  3.0611 -1.2535  1.9368
 6727SOL    HW231815   1.054   2.919   2.696 -0.4553 -2.5670  1.4436
 6728SOL     OW31816   4.521   1.614  12.307  0.2059  0.6771  0.0593
 6728SOL    HW131817   4.562   1.527  12.313  0.2330  0.5947 -1.4756
 6728SOL    HW231818   4.584   1.661  12.362  1.7470 -1.4766  0.1260
 6729SOL     OW31819   2.157   3.085   9.158  0.1541  0.0093 -0.5395
 6729SOL    HW131820   2.082   3.024   9.158  0.4926 -0.4040  1.4224
 6729SOL    HW231821   2.185   3.073   9.249 -0.5424  2.2973 -0.0277
 6730SOL     OW31822   0.007   1.284   3.060  0.6796 -0.2947 -0.0610
 6730SOL    HW131823   4.675   1.221   3.029  0.0601  0.3118 -0.0072
 6730SOL    HW231824   4.705   1.310   3.146 -2.8021  0.5360 -1.7338
 6731SOL     OW31825   4.192   0.547   9.865  0.4352  0.4438  0.1228
 6731SOL    HW131826   4.115   0.526   9.918  0.2590 -0.0070 -0.3053
 6731SOL    HW231827   4.197   0.465   9.815  1.5968  0.0608  0.8852
 6732SOL     OW31828   2.216   0.902   8.114  0.2874 -0.7284  0.1055
 6732SOL    HW131829   2.274   0.868   8.183 -0.0379  2.3937  1.9375
 6732SOL    HW231830   2.133   0.857   8.128  0.2265 -0.1989  1.3880
 6733SOL     OW31831   2.258   4.206   7.986  0.2852  0.2233 -0.3030
 6733SOL    HW131832   2.346   4.242   7.982 -0.0014  0.8981 -0.4859
 6733SOL    HW231833   2.269   4.120   7.946  1.7205 -0.3052  1.2378
 6734SOL     OW31834   1.822   0.081   4.097  0.5895 -0.2755  0.1607
 6734SOL    HW131835   1.908   0.047   4.121  0.6116  0.1428  0.6721
 6734SOL    HW231836   1.838   0.150   4.032 -2.8264  0.9078  0.5740
 6735SOL     OW31837   1.853   3.756   4.132  0.2719  0.0630  0.2961
 6735SOL    HW131838   1.802   3.681   4.161 -0.9276  0.2275 -1.3871
 6735SOL    HW231839   1.837   3.757   4.037  2.8253  0.2708 -0.1415
 6736SOL     OW31840   0.167   3.652   1.634 -0.7056 -0.0536  0.3526
 6736SOL    HW131841   0.252   3.658   1.677 -0.0176  0.2378 -1.0542
 6736SOL    HW231842   0.149   3.746   1.633 -1.8378 -0.2987 -1.1200
 6737SOL     OW31843   2.076   1.868   7.651 -0.2498  0.0861  0.5046
 6737SOL    HW131844   2.079   1.963   7.637  0.9200  0.2667  1.9032
 6737SOL    HW231845   2.141   1.836   7.589  0.6733 -0.1522  1.5847
 6738SOL     OW31846   2.020   3.225  14.983  0.4993 -0.2435 -0.1585
 6738SOL    HW131847   2.055   3.177  14.908  1.2256 -1.3422  0.8777
 6738SOL    HW231848   2.077   3.201  15.057  1.2018  1.9083 -0.0184
 6739SOL     OW31849   0.732   2.105   1.404  0.2952 -0.2574 -0.1783
 6739SOL    HW131850   0.792   2.155   1.459  0.5733 -1.5380  0.6889
 6739SOL    HW231851   0.701   2.048   1.474  0.1220 -1.4824 -1.2578
 6740SOL     OW31852   3.116   3.213   4.073  0.2020  0.4318  0.5633
 6740SOL    HW131853   3.057   3.176   4.007  1.3494 -2.3427  1.0902
 6740SOL    HW231854   3.168   3.135   4.094  0.5164  0.2119 -0.9703
 6741SOL     OW31855   1.907   3.139   4.329 -0.1931 -0.2694  0.7273
 6741SOL    HW131856   1.815   3.143   4.305  0.0571 -1.4315 -0.4009
 6741SOL    HW231857   1.929   3.214   4.274  1.6808 -0.6977  0.8829
 6742SOL     OW31858   1.570   0.093   2.232  0.4187  0.0843  0.5707
 6742SOL    HW131859   1.519   0.174   2.227 -2.0265 -1.3673  2.2818
 6742SOL    HW231860   1.590   0.091   2.138  0.0131  1.4598  0.4480
 6743SOL     OW31861   0.910   2.215   5.524 -0.5762 -0.0160  0.5239
 6743SOL    HW131862   0.998   2.242   5.499  0.1736 -2.4891  0.4877
 6743SOL    HW231863   0.849   2.234   5.451 -1.5635 -0.2205  1.2941
 6744SOL     OW31864   2.593   2.345   5.461  0.0421 -0.5791  0.1018
 6744SOL    HW131865   2.545   2.419   5.497  1.7126  0.0564  1.0101
 6744SOL    HW231866   2.558   2.357   5.372  0.6016 -2.1089 -0.3217
 6745SOL     OW31867   2.425   3.015   9.909  0.0822 -0.4653 -0.3184
 6745SOL    HW131868   2.418   3.096   9.961  1.2588  0.7134 -2.0093
 6745SOL    HW231869   2.368   2.950   9.951  1.2376 -1.5371 -0.4273
 6746SOL     OW31870   0.208   1.519   2.713 -0.8151 -0.0100 -0.5181
 6746SOL    HW131871   0.158   1.496   2.635  0.8117 -0.4441 -1.4122
 6746SOL    HW231872   0.149   1.496   2.785  2.4458  0.1844  2.2404
 6747SOL     OW31873   0.567   3.935  12.313  0.1802  0.5627  0.4107
 6747SOL    HW131874   0.572   3.939  12.218  0.1109  0.4215  0.4023
 6747SOL    HW231875   0.512   4.011  12.335 -1.2650 -0.5572  0.6463
 6748SOL     OW31876   3.907   1.973   7.984 -0.4411 -0.2158 -0.0194
 6748SOL    HW131877   3.854   2.029   8.040  0.3521  0.5692 -0.0602
 6748SOL    HW231878   3.842   1.930   7.928 -0.8260  1.3103 -0.7423
 6749SOL     OW31879   4.304   1.023   4.087 -0.1216  0.0211 -0.0091
 6749SOL    HW131880   4.262   1.058   4.165 -1.2587 -0.8585 -0.2349
 6749SOL    HW231881   4.392   1.034   4.122 -0.0809  0.4988 -0.2580
 6750SOL     OW31882   3.310   3.976  10.156  0.6106  0.2486  0.1926
 6750SOL    HW131883   3.380   4.033  10.126  0.2629  0.3998 -0.3269
 6750SOL    HW231884   3.228   4.022  10.137  0.0043 -1.2567 -0.8445
 6751SOL     OW31885   2.026   2.281   4.220 -0.3398  0.5232 -0.0713
 6751SOL    HW131886   2.015   2.221   4.147  3.2846 -1.5136  1.0006
 6751SOL    HW231887   2.105   2.252   4.266 -0.3151 -0.4217 -0.6997
 6752SOL     OW31888   0.333   4.614   8.900 -0.0333 -0.1963 -0.0100
 6752SOL    HW131889   0.427   4.633   8.908 -0.1330  0.2573  0.1023
 6752SOL    HW231890   0.320   4.631   8.807 -0.6910 -2.0891 -0.2492
 6753SOL     OW31891   2.844   3.560  16.036  0.4832  0.0405 -0.1041
 6753SOL    HW131892   2.759   3.570  15.995  0.1081  1.0803  0.9173
 6753SOL    HW231893   2.881   3.647  16.025  3.0973 -0.8542  1.3977
 6754SOL     OW31894   2.870   2.961   7.468  0.4493  0.0391  0.0799
 6754SOL    HW131895   2.827   2.978   7.552  1.1670 -0.5807  0.5789
 6754SOL    HW231896   2.797   2.918   7.424 -1.0548  0.9111  1.7252
 6755SOL     OW31897   3.965   1.673   3.443 -0.8927  0.3675  0.0861
 6755SOL    HW131898   4.049   1.718   3.427 -0.6788  0.3906  1.3067
 6755SOL    HW231899   3.994   1.582   3.448 -0.6429  0.3590 -1.5829
 6756SOL     OW31900   3.550   2.536  15.704 -0.5955 -0.9602 -0.4097
 6756SOL    HW131901   3.633   2.507  15.666 -0.0551  1.5544 -1.1931
 6756SOL    HW231902   3.539   2.616  15.651  0.2058 -0.8201 -0.3694
 6757SOL     OW31903   3.620   2.931   6.058  0.4005 -0.5748 -0.3751
 6757SOL    HW131904   3.640   2.958   5.968 -0.6208 -0.5092 -0.5791
 6757SOL    HW231905   3.527   2.952   6.069  0.5816 -0.4291  0.9526
 6758SOL     OW31906   0.127   4.254   2.424  0.1398  0.4112 -0.7505
 6758SOL    HW131907   0.072   4.200   2.367  0.9297 -1.4642  0.2939
 6758SOL    HW231908   0.212   4.216   2.401  0.3747  1.2057 -1.2311
 6759SOL     OW31909   1.752   3.551   4.480  0.2671 -0.3612  0.5026
 6759SOL    HW131910   1.763   3.554   4.575  1.2710  1.1040  0.3383
 6759SOL    HW231911   1.684   3.618   4.481  0.7653  0.0559  4.7308
 6760SOL     OW31912   3.424   2.991   8.109 -0.6848  0.0530 -0.5452
 6760SOL    HW131913   3.474   2.984   8.028  1.0671 -2.4533  0.7426
 6760SOL    HW231914   3.444   3.082   8.127  0.1824 -0.5498  1.6176
 6761SOL     OW31915   2.658   3.074  10.378  0.2636  0.0382 -0.7885
 6761SOL    HW131916   2.673   3.169  10.377  0.9375 -0.0702 -1.0126
 6761SOL    HW231917   2.584   3.066  10.318 -0.5865  0.2558  0.2331
 6762SOL     OW31918   0.899   4.010   4.394 -0.0065  0.2573  0.5967
 6762SOL    HW131919   0.839   4.018   4.468 -0.8980  0.7400 -0.1661
 6762SOL    HW231920   0.983   4.005   4.439  1.4425  1.2064 -2.0243
 6763SOL     OW31921   0.142   0.227   5.469  1.0303  0.2048  0.2748
 6763SOL    HW131922   0.162   0.133   5.468 -0.5317 -0.1164 -0.2462
 6763SOL    HW231923   0.133   0.236   5.564  0.7307 -2.0349  0.4558
 6764SOL     OW31924   0.000   2.393   6.466 -1.0091 -0.5847  0.4338
 6764SOL    HW131925   0.011   2.475   6.417 -0.6936 -0.0158  1.4609
 6764SOL    HW231926   4.671   2.345   6.412 -0.3615 -0.9026 -0.0306
 6765SOL     OW31927   1.108   3.448  14.172  0.7724  0.2079  1.0426
 6765SOL    HW131928   1.108   3.538  14.205 -1.4436  0.4482  0.4000
 6765SOL    HW231929   1.197   3.413  14.179  0.0822 -1.8666 -0.6386
 6766SOL     OW31930   2.829   1.316   8.974  0.2642  0.7879 -0.7075
 6766SOL    HW131931   2.736   1.313   8.994  0.4133  0.6606 -0.0133
 6766SOL    HW231932   2.831   1.404   8.936 -2.2532  0.6381 -1.1718
 6767SOL     OW31933   3.597   3.679   7.539 -0.3167 -0.8070 -0.0258
 6767SOL    HW131934   3.677   3.636   7.509 -2.0081 -3.8841 -0.2499
 6767SOL    HW231935   3.622   3.713   7.624 -3.4114 -0.6197  0.8293
 6768SOL     OW31936   3.194   1.505   3.724  0.2366  0.1847 -0.5399
 6768SOL    HW131937   3.146   1.587   3.726 -2.1072 -1.2655  1.3320
 6768SOL    HW231938   3.125   1.456   3.768 -0.2055 -0.8657 -2.3699
 6769SOL     OW31939   1.553   0.136  10.247  0.1087  0.5049  0.4645
 6769SOL    HW131940   1.543   0.231  10.254 -0.0114  0.5155  0.1665
 6769SOL    HW231941   1.643   0.124  10.277 -0.2405  1.1992  1.7678
 6770SOL     OW31942   0.788   1.044   9.700 -0.0231 -0.1718  0.2599
 6770SOL    HW131943   0.858   1.101   9.732 -0.2383  1.1735 -1.6771
 6770SOL    HW231944   0.782   0.974   9.765  0.8371 -0.3637  0.1295
 6771SOL     OW31945   3.501   0.113   9.421 -0.0490 -0.4995 -0.6496
 6771SOL    HW131946   3.567   0.044   9.412  1.6760  1.1885 -0.9413
 6771SOL    HW231947   3.462   0.081   9.503 -0.5214 -0.3791 -0.8242
 6772SOL     OW31948   2.540   0.713   6.598  0.5653 -0.4395  0.0788
 6772SOL    HW131949   2.510   0.627   6.630 -0.5612  0.5809  1.7492
 6772SOL    HW231950   2.478   0.769   6.645  0.4158 -1.3050  0.9206
 6773SOL     OW31951   3.605   3.058  11.379 -0.2233  0.5182 -0.0537
 6773SOL    HW131952   3.597   3.050  11.284 -0.7177  0.5547 -0.0141
 6773SOL    HW231953   3.670   3.128  11.378  0.2572  0.1087  2.9117
 6774SOL     OW31954   0.876   1.291   9.914  0.4275 -0.1850  0.1207
 6774SOL    HW131955   0.886   1.377   9.874 -0.4096 -0.8557 -1.5295
 6774SOL    HW231956   0.944   1.287   9.980  0.8053  0.1826 -0.2477
 6775SOL     OW31957   3.019   0.985   6.074  0.6039  0.2170  0.1570
 6775SOL    HW131958   3.042   0.917   6.011 -2.0889  0.6648 -1.3385
 6775SOL    HW231959   2.928   0.964   6.093  0.6567  1.2429  1.4980
 6776SOL     OW31960   3.482   2.999   8.717  0.0779  0.1942  0.1815
 6776SOL    HW131961   3.464   3.029   8.629 -1.2128 -0.5426  0.1971
 6776SOL    HW231962   3.394   3.002   8.755  0.0678 -3.5116  0.4706
 6777SOL     OW31963   1.991   1.083   7.353 -1.2304  0.0134 -0.2563
 6777SOL    HW131964   2.076   1.123   7.372 -1.1444  0.0437 -0.7001
 6777SOL    HW231965   2.003   0.994   7.386  1.0833  0.5617  0.3955
 6778SOL     OW31966   1.355   1.083  15.117  0.1644 -0.0009  0.1681
 6778SOL    HW131967   1.372   1.158  15.061 -3.5468  1.1722  0.6273
 6778SOL    HW231968   1.396   1.015  15.064 -1.2704  0.6952 -1.8223
 6779SOL     OW31969   3.227   4.503   2.372  0.3302  0.7696 -0.5151
 6779SOL    HW131970   3.239   4.409   2.390 -0.2173  0.4602 -1.7185
 6779SOL    HW231971   3.235   4.499   2.276 -2.2098 -1.2814 -0.6574
 6780SOL     OW31972   3.929   2.609   9.985  0.5244  0.4998  0.4612
 6780SOL    HW131973   3.955   2.660  10.062 -0.7758  0.4486  0.9437
 6780SOL    HW231974   3.872   2.671   9.940  1.0893  0.0130 -0.9073
 6781SOL     OW31975   4.053   2.526   8.240  0.6259 -0.1366 -0.1021
 6781SOL    HW131976   3.966   2.518   8.201  0.3310  1.8055  0.1701
 6781SOL    HW231977   4.072   2.432   8.233 -1.8321 -0.6212 -0.3557
 6782SOL     OW31978   3.767   4.352  11.425 -0.0804 -0.2286 -0.0496
 6782SOL    HW131979   3.769   4.384  11.515  1.1875 -0.5691  0.0493
 6782SOL    HW231980   3.826   4.419  11.389 -0.8843  0.5980  0.1871
 6783SOL     OW31981   1.063   1.341   8.529 -0.1778 -0.2506  0.5719
 6783SOL    HW131982   1.080   1.335   8.435  1.1337 -0.1341  0.8023
 6783SOL    HW231983   1.136   1.400   8.550  1.8866 -1.5728 -2.9036
 6784SOL     OW31984   2.689   1.568   9.425  0.3537  0.2813 -0.1312
 6784SOL    HW131985   2.654   1.644   9.472 -0.6348  0.1346 -0.6244
 6784SOL    HW231986   2.711   1.515   9.502 -0.7644 -1.8148 -1.2428
 6785SOL     OW31987   4.254   0.287  12.021 -0.4492 -0.5638  0.0032
 6785SOL    HW131988   4.342   0.311  11.989 -0.6647  0.2302 -0.0001
 6785SOL    HW231989   4.216   0.374  12.032 -0.7420 -0.2673 -3.1419
 6786SOL     OW31990   3.869   3.798   2.335 -0.0489  0.0979 -0.0045
 6786SOL    HW131991   3.910   3.874   2.376 -1.2827  1.1097 -0.6415
 6786SOL    HW231992   3.825   3.764   2.414 -1.3253 -2.9999 -2.0408
 6787SOL     OW31993   4.159   3.269  15.331 -0.0088 -0.2511 -0.1115
 6787SOL    HW131994   4.216   3.229  15.397 -2.2907 -1.5385  1.0877
 6787SOL    HW231995   4.225   3.321  15.286 -1.7791  0.0631 -2.3382
 6788SOL     OW31996   4.288   2.526   3.695 -0.5675  0.1464  0.6971
 6788SOL    HW131997   4.355   2.459   3.708 -0.3265 -0.0702 -1.6179
 6788SOL    HW231998   4.251   2.526   3.783  0.2954 -0.8116  1.0552
 6789SOL     OW31999   4.185   2.977   1.321  0.0140 -0.1180  0.1618
 6789SOL    HW132000   4.271   2.940   1.341  1.0930  3.4523  2.1475
 6789SOL    HW232001   4.185   3.050   1.383 -0.2554 -0.4449  0.5470
 6790SOL     OW32002   2.024   4.470   2.248 -0.0223  0.1766 -0.3860
 6790SOL    HW132003   1.991   4.380   2.247 -1.3056  0.6516 -0.6915
 6790SOL    HW232004   1.941   4.517   2.250  0.4052  0.8517  1.7578
 6791SOL     OW32005   0.691   3.974  10.114  0.0854  0.3135 -0.0684
 6791SOL    HW132006   0.733   4.047  10.159  0.6429  0.6385 -1.0956
 6791SOL    HW232007   0.660   3.917  10.183  2.2170  0.7947  1.2998
 6792SOL     OW32008   2.321   4.485   2.582 -0.1545  0.4311  0.2256
 6792SOL    HW132009   2.412   4.513   2.571  0.0532 -0.7501 -0.9687
 6792SOL    HW232010   2.300   4.471   2.490  3.7978  1.6169 -0.8893
 6793SOL     OW32011   0.370   4.219   2.285  0.1655  0.5825  0.3932
 6793SOL    HW132012   0.436   4.286   2.266  0.1707  0.2169 -0.8918
 6793SOL    HW232013   0.374   4.159   2.210  0.7871  0.6908  0.3378
 6794SOL     OW32014   0.315   2.475  16.350 -0.2301  0.1742  0.0612
 6794SOL    HW132015   0.353   2.502  16.266 -1.2168 -2.2688 -1.1634
 6794SOL    HW232016   0.243   2.537  16.364 -0.1594 -0.3623  2.6924
 6795SOL     OW32017   3.577   1.310   4.333 -0.0452  0.0922  0.2936
 6795SOL    HW132018   3.496   1.357   4.313 -0.0912  0.2836  0.9049
 6795SOL    HW232019   3.617   1.341   4.415 -0.8040  0.7535  0.4131
 6796SOL     OW32020   2.272   4.395   3.071  0.5468 -0.2766 -0.1861
 6796SOL    HW132021   2.250   4.471   3.124  0.4141  0.3351 -1.1159
 6796SOL    HW232022   2.244   4.432   2.987  3.3050  1.3661 -0.3557
 6797SOL     OW32023   1.932   3.025   9.621  0.3376 -0.3848 -0.0506
 6797SOL    HW132024   1.883   3.107   9.627  1.8378  0.4963  0.0685
 6797SOL    HW232025   1.956   2.998   9.710  2.5985  0.4674 -0.4085
 6798SOL     OW32026   2.425   2.970   7.302  0.6726 -0.0827 -0.1753
 6798SOL    HW132027   2.403   3.034   7.235  0.0939 -1.5357 -1.3586
 6798SOL    HW232028   2.368   2.896   7.280  3.0144 -1.6674 -0.9288
 6799SOL     OW32029   1.890   0.566   9.774  0.4146  0.2335 -0.8084
 6799SOL    HW132030   1.978   0.572   9.738 -0.1139  0.9569 -1.9706
 6799SOL    HW232031   1.879   0.471   9.773  1.4194  0.1407 -3.1438
 6800SOL     OW32032   3.260   1.549   1.702 -0.2341 -0.0252 -0.4899
 6800SOL    HW132033   3.201   1.482   1.737  0.4483 -0.0028  0.7160
 6800SOL    HW232034   3.194   1.610   1.670 -0.4550  0.4573  0.9080
 6801SOL     OW32035   2.816   1.411   2.927 -0.4453 -0.0225 -0.1781
 6801SOL    HW132036   2.747   1.445   2.871 -1.4897  0.8658  1.6548
 6801SOL    HW232037   2.762   1.366   2.992 -1.7220 -2.3898 -2.8962
 6802SOL     OW32038   2.369   3.069  14.055  0.2889 -1.2034  0.5665
 6802SOL    HW132039   2.331   3.131  13.992  0.8900  0.0263  1.4170
 6802SOL    HW232040   2.306   3.064  14.127 -1.1897  3.2356 -0.3596
 6803SOL     OW32041   3.521   2.537  14.062 -0.1939 -0.3240  0.6223
 6803SOL    HW132042   3.591   2.472  14.056  0.9024  0.9618 -0.5862
 6803SOL    HW232043   3.564   2.611  14.104 -0.7956 -0.1889  1.0023
 6804SOL     OW32044   2.777   3.992  11.729  0.6544  0.0699 -0.0270
 6804SOL    HW132045   2.761   3.917  11.787 -1.0533  0.3559 -0.1099
 6804SOL    HW232046   2.871   3.982  11.718  0.7397  0.2239  0.5650
 6805SOL     OW32047   3.668   4.312   2.689  0.0297 -0.1365 -0.1443
 6805SOL    HW132048   3.691   4.340   2.600  0.4789  3.7527  1.1752
 6805SOL    HW232049   3.591   4.260   2.664 -0.7028  0.9053 -0.0944
 6806SOL     OW32050   0.101   2.121   2.499  0.2717 -0.2718 -0.5191
 6806SOL    HW132051   0.039   2.186   2.532  0.9398  0.6361 -1.0345
 6806SOL    HW232052   0.044   2.090   2.429 -1.8976  1.9099  0.2824
 6807SOL     OW32053   0.076   3.247   9.044  0.1700 -0.0822  0.2798
 6807SOL    HW132054   0.148   3.200   9.002  0.2853 -0.3402  0.7728
 6807SOL    HW232055   0.126   3.319   9.081  2.5333 -0.5277 -1.9919
 6808SOL     OW32056   0.662   0.413  17.525 -0.1550 -0.0615  0.5357
 6808SOL    HW132057   0.746   0.458  17.528  0.8411 -1.8294 -0.9320
 6808SOL    HW232058   0.616   0.438  17.605 -0.4336 -1.1440  0.7113
 6809SOL     OW32059   4.574   2.117   5.749 -0.0266 -0.1106 -0.0691
 6809SOL    HW132060   4.593   2.194   5.803  1.3108 -0.5956  0.1331
 6809SOL    HW232061   4.601   2.043   5.804  1.1195 -1.9747 -3.1769
 6810SOL     OW32062   0.528   4.605   6.979 -0.4397  0.1118 -0.7891
 6810SOL    HW132063   0.483   4.541   7.033 -1.1229  0.8604 -0.4734
 6810SOL    HW232064   0.578   4.558   6.912 -2.6907 -1.3048 -1.4434
 6811SOL     OW32065   3.279   4.096  15.266 -0.2045  0.2644  0.2007
 6811SOL    HW132066   3.313   4.037  15.199  1.0816  0.3387  0.7857
 6811SOL    HW232067   3.359   4.147  15.283  0.1057  0.2243 -1.1345
 6812SOL     OW32068   0.171   3.195   2.235  0.2110  0.2019 -0.2626
 6812SOL    HW132069   0.098   3.164   2.289 -0.8571 -0.2500 -1.9639
 6812SOL    HW232070   0.125   3.201   2.151  1.0719  1.1387 -0.6687
 6813SOL     OW32071   1.294   2.616   5.189 -0.2376 -0.2962  0.2501
 6813SOL    HW132072   1.281   2.654   5.102  1.4573 -1.1571 -0.3722
 6813SOL    HW232073   1.225   2.551   5.184 -1.4290  0.9497  0.4936
 6814SOL     OW32074   2.770   4.540  17.141  0.2083  0.2116 -0.2723
 6814SOL    HW132075   2.766   4.462  17.086 -0.0532 -0.5872  0.8885
 6814SOL    HW232076   2.680   4.573  17.136 -0.0699 -0.5011  0.1637
 6815SOL     OW32077   0.213   0.924   6.113 -0.2608 -0.6086  0.1812
 6815SOL    HW132078   0.217   0.834   6.082 -0.7770 -0.5661 -0.0107
 6815SOL    HW232079   0.120   0.943   6.097 -0.1494 -2.4648 -2.4992
 6816SOL     OW32080   4.188   0.365   4.910  0.3826 -0.2069 -0.0078
 6816SOL    HW132081   4.099   0.392   4.888  1.4469  0.0656 -3.8815
 6816SOL    HW232082   4.203   0.407   4.995 -2.6648 -0.0229  0.4177
 6817SOL     OW32083   0.636   1.298   7.433  0.0289  0.2127  0.1465
 6817SOL    HW132084   0.633   1.393   7.425  2.4570  0.0994 -2.1909
 6817SOL    HW232085   0.729   1.274   7.426 -0.0614 -0.5529  1.8394
 6818SOL     OW32086   1.518   4.603   7.496 -0.2570  0.0834 -0.6293
 6818SOL    HW132087   1.594   4.550   7.520 -0.3498  0.3813  0.2991
 6818SOL    HW232088   1.483   4.621   7.583 -1.3806  1.3949 -1.3519
 6819SOL     OW32089   0.830   1.616   6.830  0.0981  0.7190 -0.2032
 6819SOL    HW132090   0.916   1.574   6.833 -0.3860 -0.4841 -3.0866
 6819SOL    HW232091   0.825   1.671   6.751 -0.3904  0.2237 -0.5151
 6820SOL     OW32092   0.700   3.363   0.847 -0.0386 -0.9968 -0.1330
 6820SOL    HW132093   0.607   3.384   0.845  0.3317  0.5999 -0.1902
 6820SOL    HW232094   0.707   3.270   0.871  0.7285 -0.5422  1.4170
 6821SOL     OW32095   1.416   3.138   3.807 -0.3183  0.2311  0.4026
 6821SOL    HW132096   1.460   3.084   3.741  0.1702  1.5825 -0.3664
 6821SOL    HW232097   1.484   3.154   3.871  0.9735 -2.4748 -0.2713
 6822SOL     OW32098   0.675   2.203  14.901 -0.4153  0.6307 -0.6389
 6822SOL    HW132099   0.733   2.279  14.905 -0.1021  0.3510  0.0258
 6822SOL    HW232100   0.740   2.150  14.855  2.5808  3.9003 -0.1493
 6823SOL     OW32101   4.658   3.786  15.427  0.2384  0.9648 -0.5881
 6823SOL    HW132102   4.678   3.749  15.513  0.7911 -0.6667 -1.4115
 6823SOL    HW232103   0.002   3.840  15.410  0.9521  0.4217  0.9231
 6824SOL     OW32104   4.289   0.693   2.992 -0.0586 -0.2905 -0.1813
 6824SOL    HW132105   4.204   0.650   2.979  0.0419 -0.2484 -0.9995
 6824SOL    HW232106   4.293   0.753   2.917 -1.4008 -0.0075 -0.0178
 6825SOL     OW32107   2.594   2.869   6.947  0.2495 -0.2087 -0.1392
 6825SOL    HW132108   2.517   2.876   6.891 -0.9865  0.1769  1.5973
 6825SOL    HW232109   2.580   2.943   7.006 -0.9341 -2.0942  1.9939
 6826SOL     OW32110   4.586   1.420   4.474  0.4276 -0.1495  0.3180
 6826SOL    HW132111   4.581   1.383   4.386 -0.1460  0.7181 -0.0152
 6826SOL    HW232112   4.528   1.359   4.521 -0.7138 -1.3919 -2.7324
 6827SOL     OW32113   1.414   2.080   3.203 -0.6344  0.2997  0.1196
 6827SOL    HW132114   1.485   2.143   3.194  0.7090 -0.5956  4.6780
 6827SOL    HW232115   1.390   2.095   3.294 -1.1292  1.6231 -0.2138
 6828SOL     OW32116   1.929   0.687  12.539  0.3786 -0.2922 -0.5034
 6828SOL    HW132117   1.871   0.631  12.591  0.0821 -0.9777 -1.5833
 6828SOL    HW232118   1.860   0.751  12.525  0.3899 -0.3856 -0.9876
 6829SOL     OW32119   2.692   0.079   4.176  0.4056 -0.2135 -0.0854
 6829SOL    HW132120   2.668   0.170   4.162  1.4882  0.0760 -0.0861
 6829SOL    HW232121   2.728   0.099   4.263  1.7671  1.2002 -0.9741
 6830SOL     OW32122   2.195   4.196  13.819 -0.0266 -0.1267 -0.0165
 6830SOL    HW132123   2.236   4.274  13.783  1.9609 -2.2141 -2.3136
 6830SOL    HW232124   2.187   4.227  13.909 -0.3834 -2.0036  0.6038
 6831SOL     OW32125   4.676   3.694  15.991  0.5260 -0.6057  0.5129
 6831SOL    HW132126   4.691   3.769  15.933 -0.2850  1.8341  3.4935
 6831SOL    HW232127   0.019   3.699  16.049 -0.6235  0.0312  1.9689
 6832SOL     OW32128   0.093   2.562  14.804  0.5401  0.6210  0.1089
 6832SOL    HW132129   0.144   2.552  14.884 -1.5117 -0.0445  1.3158
 6832SOL    HW232130   0.139   2.638  14.768 -1.3795  0.8402 -1.9134
 6833SOL     OW32131   1.211   0.832   2.536  0.2559  0.7268  0.1502
 6833SOL    HW132132   1.230   0.808   2.627 -1.7463  0.4415  0.4843
 6833SOL    HW232133   1.142   0.770   2.515 -1.0977  1.9015  1.1827
 6834SOL     OW32134   3.197   4.189   7.189  0.0729 -0.1249  0.2318
 6834SOL    HW132135   3.269   4.244   7.220  1.0496 -0.1541 -2.0181
 6834SOL    HW232136   3.236   4.169   7.105  0.1572 -0.4302  0.3430
 6835SOL     OW32137   2.033   1.368   1.390 -0.3292  0.4829 -0.2284
 6835SOL    HW132138   1.956   1.310   1.386 -1.0810  1.4425  0.4107
 6835SOL    HW232139   2.018   1.410   1.475 -0.0945  0.1615 -0.0282
 6836SOL     OW32140   0.627   4.680   4.330  0.6787  0.0526 -0.5593
 6836SOL    HW132141   0.614   4.588   4.354 -0.7147 -0.1594 -2.1585
 6836SOL    HW232142   0.537   4.704   4.311  0.6425 -1.6426 -2.5208
 6837SOL     OW32143   0.618   3.554   5.693 -0.3595 -0.1434 -0.5932
 6837SOL    HW132144   0.556   3.502   5.642 -0.6110 -2.2271  1.8542
 6837SOL    HW232145   0.570   3.637   5.701 -1.6354 -0.9118 -0.2810
 6838SOL     OW32146   4.564   3.419  11.966 -0.0991  0.0585 -0.0556
 6838SOL    HW132147   4.554   3.367  12.045  2.7875 -1.3726 -0.6120
 6838SOL    HW232148   4.649   3.392  11.932  1.6501  3.6834  1.3571
 6839SOL     OW32149   3.718   0.764   9.413 -0.3206 -0.0029  0.0798
 6839SOL    HW132150   3.635   0.723   9.436 -0.5807  0.6015  0.2138
 6839SOL    HW232151   3.769   0.747   9.492 -0.1287  0.1933  0.0006
 6840SOL     OW32152   3.359   3.151   6.275  0.1582  0.3445 -0.2378
 6840SOL    HW132153   3.351   3.116   6.364  1.6426  0.3619 -0.0933
 6840SOL    HW232154   3.326   3.238   6.295 -2.3890 -0.5493 -0.5512
 6841SOL     OW32155   2.344   1.067   7.530  0.1220 -0.7803  0.0561
 6841SOL    HW132156   2.269   1.061   7.590 -0.4510  3.1429 -0.3308
 6841SOL    HW232157   2.343   0.979   7.492  0.0951 -0.6749 -0.1868
 6842SOL     OW32158   2.142   4.533  12.980  0.1486 -0.7329 -0.1211
 6842SOL    HW132159   2.208   4.508  12.915 -0.8379  0.8817 -1.7479
 6842SOL    HW232160   2.186   4.533  13.065 -3.2441 -0.6421  1.6519
 6843SOL     OW32161   2.465   1.662   2.075  0.3666 -0.3578  0.7100
 6843SOL    HW132162   2.482   1.633   2.164 -1.0295  0.4407  1.2470
 6843SOL    HW232163   2.375   1.628   2.071  0.1428  0.6370 -2.6984
 6844SOL     OW32164   3.399   0.273   5.929  0.1506  0.2202 -0.2607
 6844SOL    HW132165   3.444   0.215   5.990  0.6340  1.1126  0.2319
 6844SOL    HW232166   3.402   0.227   5.845  0.2336  1.2185 -0.8145
 6845SOL     OW32167   4.031   3.788  11.657 -0.0682 -0.8551  0.7283
 6845SOL    HW132168   4.036   3.701  11.698  1.1567 -0.2414  1.8711
 6845SOL    HW232169   4.072   3.768  11.573 -0.5369  1.1846  0.0152
 6846SOL     OW32170   3.846   1.477   9.670  0.5191 -0.6171 -0.1037
 6846SOL    HW132171   3.908   1.495   9.599  0.1213  2.0904  0.2376
 6846SOL    HW232172   3.775   1.441   9.617  0.5845  2.5176 -2.3253
 6847SOL     OW32173   2.301   4.447   4.197 -0.6613  0.3491 -0.5227
 6847SOL    HW132174   2.274   4.515   4.135  2.6421  2.8652  0.7757
 6847SOL    HW232175   2.316   4.509   4.268  2.7064  0.2521 -1.1300
 6848SOL     OW32176   4.608   1.518   1.333  0.3210  0.0502  0.4777
 6848SOL    HW132177   4.693   1.498   1.373 -0.6147 -0.0768  2.4045
 6848SOL    HW232178   4.637   1.531   1.243 -4.7064 -0.7027 -1.2512
 6849SOL     OW32179   0.341   3.207  14.969  0.0753  0.1053 -0.4150
 6849SOL    HW132180   0.435   3.223  14.957  0.3015 -0.7850  0.2075
 6849SOL    HW232181   0.338   3.190  15.063 -1.9920 -0.5459 -0.6161
 6850SOL     OW32182   0.516   0.891   1.098  0.5142 -0.2578 -0.2974
 6850SOL    HW132183   0.603   0.919   1.069  1.0332 -2.4284 -0.8157
 6850SOL    HW232184   0.462   0.963   1.066  1.1177  0.7121  0.8570
 6851SOL     OW32185   3.886   0.117   0.412 -0.1962 -0.1486 -0.1638
 6851SOL    HW132186   3.818   0.158   0.359  1.0564 -0.8214 -2.3018
 6851SOL    HW232187   3.961   0.165   0.376 -1.1916  2.1727  0.8249
 6852SOL     OW32188   2.391   1.281   8.781  0.0732 -0.5745 -0.1095
 6852SOL    HW132189   2.340   1.359   8.761  0.6752 -0.9709 -3.1772
 6852SOL    HW232190   2.451   1.305   8.852  0.5880 -0.2442 -0.6611
 6853SOL     OW32191   3.518   1.501   0.838  0.6739  0.3107  0.4160
 6853SOL    HW132192   3.440   1.553   0.819  1.5709  1.0797 -1.2237
 6853SOL    HW232193   3.491   1.465   0.922 -1.4055 -1.2139 -0.8961
 6854SOL     OW32194   4.473   3.422   3.570 -0.7535  0.1056 -0.1329
 6854SOL    HW132195   4.418   3.350   3.540  1.6660 -0.8111 -2.2764
 6854SOL    HW232196   4.551   3.413   3.516  0.5259 -0.5280  1.8187
 6855SOL     OW32197   1.231   2.828  15.170 -0.6224  0.0760 -0.8567
 6855SOL    HW132198   1.249   2.894  15.237 -0.0549 -2.0746  1.1381
 6855SOL    HW232199   1.213   2.751  15.225 -0.8204 -0.1161 -1.1855
 6856SOL     OW32200   0.346   1.571   1.931  0.8303 -0.0701 -0.4765
 6856SOL    HW132201   0.299   1.522   1.863  2.7640 -2.4626 -0.0746
 6856SOL    HW232202   0.335   1.504   1.998  0.7773 -0.3797 -0.7923
 6857SOL     OW32203   0.973   2.726   8.331  0.2106 -0.6983  0.2711
 6857SOL    HW132204   0.901   2.739   8.269 -0.9039 -0.6278  1.5505
 6857SOL    HW232205   0.942   2.795   8.389 -1.2884 -0.8601 -0.3384
 6858SOL     OW32206   0.678   4.327  14.852  0.0813 -0.4533  0.5269
 6858SOL    HW132207   0.669   4.243  14.898 -0.7991 -0.2237  0.7756
 6858SOL    HW232208   0.603   4.325  14.791  1.7170  1.5113 -1.5519
 6859SOL     OW32209   3.389   4.062   8.163  0.0212  0.3742 -0.6320
 6859SOL    HW132210   3.478   4.096   8.172  0.3667 -0.7582  0.2770
 6859SOL    HW232211   3.382   4.060   8.068  0.2179  1.6478 -0.6652
 6860SOL     OW32212   4.538   4.488   9.339 -0.1138 -0.3489 -0.5819
 6860SOL    HW132213   4.480   4.502   9.414 -0.2949 -1.8372 -0.4534
 6860SOL    HW232214   4.568   4.397   9.346  0.7656 -0.0580 -0.5656
 6861SOL     OW32215   0.724   4.283   1.119  0.6766  0.2518  0.3593
 6861SOL    HW132216   0.636   4.269   1.153  0.2371  1.3622 -0.2968
 6861SOL    HW232217   0.742   4.191   1.099  0.6307  0.1958  0.5776
 6862SOL     OW32218   1.945   1.956   8.671 -0.1183 -0.0545 -0.0905
 6862SOL    HW132219   2.024   1.905   8.654 -0.8718 -1.8119  1.6241
 6862SOL    HW232220   1.989   2.031   8.711  2.3435 -2.0758  0.9841
 6863SOL     OW32221   1.238   3.856   7.386  0.1889 -0.6411  0.3224
 6863SOL    HW132222   1.158   3.900   7.359  0.3962  0.2434  1.1887
 6863SOL    HW232223   1.256   3.903   7.467  3.6495 -3.0173  0.9506
 6864SOL     OW32224   4.025   4.139   8.744 -0.0641  0.6678 -0.1848
 6864SOL    HW132225   4.021   4.045   8.729  1.1955  1.0653 -3.1306
 6864SOL    HW232226   4.118   4.154   8.729 -0.2781  0.9538 -1.2440
 6865SOL     OW32227   3.184   1.020   8.394 -0.3645  0.1435  0.2549
 6865SOL    HW132228   3.192   1.114   8.414  0.2291  0.6264 -2.2344
 6865SOL    HW232229   3.090   1.011   8.385 -0.3506  0.5269 -0.2666
 6866SOL     OW32230   1.454   3.466   5.387 -0.2622  0.2033  0.0209
 6866SOL    HW132231   1.381   3.413   5.420 -1.4028 -0.6738 -3.8472
 6866SOL    HW232232   1.439   3.454   5.293  2.0374 -3.1780  0.0931
 6867SOL     OW32233   4.402   3.790  16.043 -0.1527 -0.0854 -0.1764
 6867SOL    HW132234   4.496   3.774  16.051 -0.3951 -1.5258 -0.1131
 6867SOL    HW232235   4.387   3.855  16.111  1.8415 -1.3740  1.4759
 6868SOL     OW32236   2.304   3.553   8.476 -0.5026 -0.2462  0.4724
 6868SOL    HW132237   2.274   3.644   8.485 -1.7556 -0.6908  0.7837
 6868SOL    HW232238   2.285   3.537   8.383 -0.7830 -0.1456  0.5115
 6869SOL     OW32239   4.182   1.500   7.498 -0.4647 -0.3825  0.1856
 6869SOL    HW132240   4.119   1.571   7.489  0.1760  0.0536 -0.8846
 6869SOL    HW232241   4.203   1.513   7.591 -1.9813  0.1932  0.4447
 6870SOL     OW32242   4.164   2.010   6.652 -0.0265  0.0152  0.1165
 6870SOL    HW132243   4.099   2.068   6.613  0.3482  0.3428 -0.0212
 6870SOL    HW232244   4.189   2.051   6.735 -1.2710 -2.1836  1.5949
 6871SOL     OW32245   1.814   2.136   1.895 -0.0541  0.2320 -0.0132
 6871SOL    HW132246   1.769   2.219   1.909  2.3862  1.5501 -0.0859
 6871SOL    HW232247   1.738   2.078   1.892 -0.2872  0.6488 -2.0432
 6872SOL     OW32248   0.520   0.757   4.435 -0.2510  0.2932  0.2850
 6872SOL    HW132249   0.569   0.689   4.480  0.0617  0.0425 -0.4385
 6872SOL    HW232250   0.521   0.728   4.344 -0.8815 -0.2182  0.4372
 6873SOL     OW32251   2.368   1.002   3.335  0.8935  0.4941 -0.0601
 6873SOL    HW132252   2.311   1.022   3.261  1.1816  2.3010  0.1978
 6873SOL    HW232253   2.364   0.907   3.328 -2.2096  0.6895 -0.7428
 6874SOL     OW32254   3.493   0.629   9.523  0.2942  0.1771  0.2594
 6874SOL    HW132255   3.499   0.534   9.539  0.2260 -0.1086 -1.4111
 6874SOL    HW232256   3.415   0.632   9.467 -1.9645 -0.9725  3.2958
 6875SOL     OW32257   0.304   1.829  17.532  0.3474  0.1483  0.0720
 6875SOL    HW132258   0.251   1.906  17.554 -0.3866  0.0028 -1.2075
 6875SOL    HW232259   0.394   1.860  17.541 -0.2713  1.2805  2.3186
 6876SOL     OW32260   3.705   1.587   8.476 -0.1798 -0.4043  0.2669
 6876SOL    HW132261   3.649   1.513   8.454  0.2016  0.0849 -2.3377
 6876SOL    HW232262   3.643   1.656   8.499 -0.6017 -0.9425  0.7382
 6877SOL     OW32263   2.585   2.928   1.979 -0.2047  0.6096 -0.4940
 6877SOL    HW132264   2.573   2.885   1.895 -1.0588  0.9652 -0.5574
 6877SOL    HW232265   2.541   2.863   2.034  0.2423 -0.6466 -1.6599
 6878SOL     OW32266   3.484   2.032   8.108  0.0821 -0.2017  0.2244
 6878SOL    HW132267   3.449   2.101   8.163 -1.1714 -0.5979 -0.0682
 6878SOL    HW232268   3.500   2.074   8.023  2.6124 -0.0797  0.7662
 6879SOL     OW32269   4.038   1.150   1.387 -0.4303 -0.0213 -0.2557
 6879SOL    HW132270   4.121   1.136   1.434 -0.4638  2.3219  0.4670
 6879SOL    HW232271   3.981   1.085   1.428  2.4668 -0.6375  2.8555
 6880SOL     OW32272   3.775   2.643   8.471  0.3131 -0.4503 -0.4236
 6880SOL    HW132273   3.745   2.641   8.561  1.6491 -0.6901  0.0135
 6880SOL    HW232274   3.855   2.694   8.479 -0.2941  0.7738 -1.9222
 6881SOL     OW32275   2.222   2.997   8.132 -0.5253 -0.5152 -0.3484
 6881SOL    HW132276   2.142   2.968   8.176 -0.7404  1.6536  0.6975
 6881SOL    HW232277   2.238   3.087   8.159  3.9849 -1.1597 -0.9401
 6882SOL     OW32278   0.382   3.428   7.058  0.1875  0.3613 -0.8790
 6882SOL    HW132279   0.295   3.421   7.019 -1.1412  2.7244  1.7081
 6882SOL    HW232280   0.431   3.396   6.983  2.7321 -0.4844  1.1267
 6883SOL     OW32281   2.334   4.479   6.176 -0.7708 -0.1133  0.2077
 6883SOL    HW132282   2.370   4.567   6.190  1.0581 -0.4900 -2.1191
 6883SOL    HW232283   2.390   4.433   6.237 -1.0288 -0.5179  0.1388
 6884SOL     OW32284   0.711   1.911  14.435  0.8723 -0.2568 -0.4276
 6884SOL    HW132285   0.616   1.921  14.438  1.1688  2.2886  0.4356
 6884SOL    HW232286   0.713   1.936  14.342  1.0050 -0.4850 -0.4839
 6885SOL     OW32287   2.341   3.175   7.718 -0.6849 -0.1918 -0.5029
 6885SOL    HW132288   2.249   3.177   7.747 -0.8042 -1.1387 -0.8011
 6885SOL    HW232289   2.374   3.174   7.807 -1.2642  2.4099 -0.2456
 6886SOL     OW32290   2.796   0.335   4.697  0.0879  0.5977  0.1849
 6886SOL    HW132291   2.755   0.298   4.776 -0.5184 -1.6631 -1.1768
 6886SOL    HW232292   2.713   0.356   4.653  1.0923 -0.7358 -2.3645
 6887SOL     OW32293   0.232   3.980   2.704 -0.3770 -0.2514  0.2531
 6887SOL    HW132294   0.205   3.984   2.613 -1.5331  2.6475  0.7125
 6887SOL    HW232295   0.218   3.886   2.716 -0.1856 -0.4638 -1.2090
 6888SOL     OW32296   0.530   0.942   8.329  0.6431 -0.1937 -0.3464
 6888SOL    HW132297   0.514   0.982   8.415 -0.4400 -0.1934 -0.5460
 6888SOL    HW232298   0.503   0.852   8.347 -3.0591  0.8269 -0.8451
 6889SOL     OW32299   0.179   2.603   1.999 -0.5402 -0.0739  0.0800
 6889SOL    HW132300   0.092   2.629   2.028 -0.5083  0.0485  0.0697
 6889SOL    HW232301   0.187   2.617   1.905 -1.4888  0.8483  0.1421
 6890SOL     OW32302   0.614   4.016   3.501  0.8739 -0.1833  0.4933
 6890SOL    HW132303   0.610   3.978   3.589  0.3964  0.4921  0.7709
 6890SOL    HW232304   0.594   3.941   3.446 -2.3723  0.7417  0.3996
 6891SOL     OW32305   4.640   4.304   5.332  0.5598  1.0001  0.0502
 6891SOL    HW132306   4.609   4.293   5.242  1.5545 -0.5239 -0.1168
 6891SOL    HW232307   4.682   4.218   5.343  0.9517  1.2184  0.2320
 6892SOL     OW32308   1.938   4.012   6.932 -0.7413 -0.4140  0.3398
 6892SOL    HW132309   2.003   3.943   6.921 -0.9789 -0.5516 -0.2096
 6892SOL    HW232310   1.934   4.054   6.846  0.9409 -0.2176  0.3687
 6893SOL     OW32311   3.563   2.908   8.386  1.1177 -0.4643 -0.2893
 6893SOL    HW132312   3.480   2.952   8.367  1.2870 -0.0255 -0.0061
 6893SOL    HW232313   3.562   2.822   8.343 -2.5215 -0.2494 -0.6671
 6894SOL     OW32314   3.470   1.065   7.817  0.2027  0.2406 -0.2560
 6894SOL    HW132315   3.517   0.998   7.768 -0.4533 -1.1200  0.9563
 6894SOL    HW232316   3.543   1.120   7.844 -0.3898  0.6054  0.6091
 6895SOL     OW32317   3.523   4.089  14.931  0.5014 -0.1580  0.0280
 6895SOL    HW132318   3.607   4.043  14.929 -0.3548 -1.5566 -2.7332
 6895SOL    HW232319   3.507   4.076  14.838 -1.3615 -1.5104  0.5446
 6896SOL     OW32320   4.416   0.391  13.055  0.0899  0.2222  0.2315
 6896SOL    HW132321   4.435   0.308  13.011  0.2862 -0.6879  2.0363
 6896SOL    HW232322   4.427   0.369  13.147 -1.6062  1.5054  0.7430
 6897SOL     OW32323   2.776   0.613   8.765  0.1767 -0.0917 -0.6298
 6897SOL    HW132324   2.847   0.629   8.827  0.4171  1.0124 -1.1860
 6897SOL    HW232325   2.736   0.698   8.749 -0.6664 -0.2115  0.8023
 6898SOL     OW32326   4.586   4.200   6.459  0.1205 -0.1925  0.2652
 6898SOL    HW132327   4.664   4.246   6.489  0.1513  0.0290 -0.1502
 6898SOL    HW232328   4.604   4.110   6.484  0.7284  0.4631  2.1568
 6899SOL     OW32329   2.702   4.004   8.606  0.3046 -1.0990 -0.3292
 6899SOL    HW132330   2.658   3.932   8.651  0.4745 -0.7697  0.3502
 6899SOL    HW232331   2.647   4.009   8.528  1.5498 -0.8969 -1.1984
 6900SOL     OW32332   1.398   2.150   7.964  0.1395  0.3444 -0.0811
 6900SOL    HW132333   1.428   2.239   7.985 -1.0003  1.0401 -1.3667
 6900SOL    HW232334   1.307   2.165   7.989  0.7988  0.5118  2.1920
 6901SOL     OW32335   4.627   4.017   9.546 -0.0655  0.3195 -0.5820
 6901SOL    HW132336   4.615   4.081   9.616  1.6412 -1.5164  1.3756
 6901SOL    HW232337   4.538   3.997   9.516 -0.7508  0.7641  1.2072
 6902SOL     OW32338   1.707   3.037   4.719 -0.1842  0.0859 -0.7019
 6902SOL    HW132339   1.649   3.108   4.690 -1.0372 -0.1179  0.4925
 6902SOL    HW232340   1.711   2.980   4.642 -1.6357 -0.4302 -0.3880
 6903SOL     OW32341   4.206   4.427   8.540 -0.3236 -0.2399  0.6306
 6903SOL    HW132342   4.196   4.496   8.474  1.1246  0.1763  0.8479
 6903SOL    HW232343   4.235   4.353   8.487  0.5399  1.7147 -1.6192
 6904SOL     OW32344   2.162   1.242   9.311  0.3148  0.1903  0.2651
 6904SOL    HW132345   2.250   1.213   9.337  0.5782  0.3816 -0.4148
 6904SOL    HW232346   2.162   1.333   9.340  0.2096 -0.1110  1.1968
 6905SOL     OW32347   1.443   3.451   9.028  1.5347 -0.0556 -0.0387
 6905SOL    HW132348   1.414   3.542   9.031 -2.3870 -1.2149 -1.3465
 6905SOL    HW232349   1.414   3.410   9.110  0.3609  0.4891 -0.1737
 6906SOL     OW32350   2.812   1.571  13.685 -0.3723  0.1653 -0.6113
 6906SOL    HW132351   2.786   1.643  13.742 -1.8460  0.2090 -1.3259
 6906SOL    HW232352   2.908   1.574  13.682 -0.3030 -1.0405  0.6484
 6907SOL     OW32353   2.895   3.909  13.213  1.0501  0.0620 -0.1664
 6907SOL    HW132354   2.863   3.853  13.285 -2.5481  2.2693 -0.0312
 6907SOL    HW232355   2.819   3.903  13.154 -0.8686  1.7708  2.1197
 6908SOL     OW32356   3.498   3.026  12.267  0.2649 -0.3733  0.1504
 6908SOL    HW132357   3.528   3.094  12.327 -1.3108  0.7048 -0.2637
 6908SOL    HW232358   3.562   2.955  12.275  0.1272 -0.7833 -2.2378
 6909SOL     OW32359   3.231   1.195   7.875 -0.8676  0.4586 -0.0977
 6909SOL    HW132360   3.318   1.158   7.865 -0.9383  0.0952  0.6436
 6909SOL    HW232361   3.212   1.236   7.790 -0.4036  1.9274  0.5218
 6910SOL     OW32362   0.715   0.952   6.860  0.8474 -1.0312  0.1545
 6910SOL    HW132363   0.750   0.898   6.930  1.6950  2.4805  2.4533
 6910SOL    HW232364   0.786   1.015   6.849 -1.3006  1.6129  1.3472
 6911SOL     OW32365   0.979   2.957   0.110  0.2857 -0.2342  0.1278
 6911SOL    HW132366   1.065   2.977   0.075 -0.2285 -0.3628 -1.2286
 6911SOL    HW232367   0.939   2.913   0.034 -0.1747 -0.9302  0.7661
 6912SOL     OW32368   4.245   2.529   3.968 -0.2627  0.5337  0.2045
 6912SOL    HW132369   4.172   2.519   4.029 -0.2513 -0.1497  0.0975
 6912SOL    HW232370   4.315   2.491   4.021  0.3699  0.9417 -0.3421
 6913SOL     OW32371   3.750   3.226  10.211 -0.4906  0.4521  0.2253
 6913SOL    HW132372   3.752   3.239  10.305 -2.3813  0.8370  0.2240
 6913SOL    HW232373   3.655   3.222  10.195 -0.3193 -2.2056 -0.2458
 6914SOL     OW32374   3.598   1.239   2.100 -0.1145  0.3921 -1.1815
 6914SOL    HW132375   3.615   1.204   2.188 -1.3236  3.7287  0.3690
 6914SOL    HW232376   3.684   1.256   2.063 -0.9583  2.9516 -1.9251
 6915SOL     OW32377   2.559   2.479   3.895  0.2237  0.5519  0.2989
 6915SOL    HW132378   2.511   2.535   3.834  0.5745  2.0871  1.4264
 6915SOL    HW232379   2.583   2.544   3.961 -0.2022 -1.3296  2.3290
 6916SOL     OW32380   1.020   3.906   5.620  0.2919 -0.1702  0.2534
 6916SOL    HW132381   1.107   3.866   5.617  0.8656  1.0980 -0.2915
 6916SOL    HW232382   0.981   3.859   5.693 -1.9148 -0.2893 -1.0088
 6917SOL     OW32383   2.901   4.456  14.204 -0.2322  0.0515  0.0178
 6917SOL    HW132384   2.918   4.363  14.192 -0.2396 -0.1022  1.1673
 6917SOL    HW232385   2.953   4.504  14.140  2.1198  1.3111  2.8635
 6918SOL     OW32386   3.067   1.814   3.799  0.1966 -0.3275  0.0827
 6918SOL    HW132387   3.011   1.852   3.867  0.7032  0.4857  0.0485
 6918SOL    HW232388   3.141   1.874   3.792 -0.0809 -0.0811 -0.7207
 6919SOL     OW32389   3.094   1.957  12.320 -0.2860  0.0386 -0.6004
 6919SOL    HW132390   3.126   1.934  12.233  0.3339  1.2680 -0.6870
 6919SOL    HW232391   3.176   1.979  12.363 -1.4826 -0.1437  1.7601
 6920SOL     OW32392   1.313   4.171  11.619  0.1705 -0.4155 -0.1341
 6920SOL    HW132393   1.331   4.083  11.654  0.5031  0.1027  1.0029
 6920SOL    HW232394   1.335   4.149  11.529 -1.1102  1.5520 -0.9259
 6921SOL     OW32395   3.663   3.963   9.222  0.0398 -0.4914  0.1491
 6921SOL    HW132396   3.718   4.017   9.278 -0.4117 -0.0163  0.1306
 6921SOL    HW232397   3.723   3.946   9.149 -1.3180 -2.8417 -0.4198
 6922SOL     OW32398   3.482   0.307  17.386  0.7199  0.4049 -0.6344
 6922SOL    HW132399   3.451   0.361  17.459  1.2976 -0.0335 -0.0603
 6922SOL    HW232400   3.444   0.345  17.306 -0.8789  0.5987  0.2078
 6923SOL     OW32401   1.150   4.615   4.298 -0.1959 -0.2398  0.5621
 6923SOL    HW132402   1.206   4.657   4.233 -1.5079  0.0186 -0.4098
 6923SOL    HW232403   1.061   4.622   4.262 -0.1884  0.7907  0.7416
 6924SOL     OW32404   2.902   4.559   4.317  0.3023 -0.0719 -0.1645
 6924SOL    HW132405   2.926   4.467   4.324  1.2129  0.4213  2.9165
 6924SOL    HW232406   2.964   4.605   4.372 -2.1835  0.3374  2.2950
 6925SOL     OW32407   2.625   0.496  14.779 -0.1558 -0.6691 -0.3785
 6925SOL    HW132408   2.654   0.556  14.710  1.2552 -0.5830  0.2859
 6925SOL    HW232409   2.636   0.415  14.728 -0.6782 -1.7650  1.2576
 6926SOL     OW32410   2.821   3.646   4.956 -0.6456 -0.0685 -0.3563
 6926SOL    HW132411   2.797   3.739   4.964 -0.8893 -0.1005 -0.7404
 6926SOL    HW232412   2.890   3.644   5.023  0.6779  1.8868 -1.6374
 6927SOL     OW32413   0.998   4.214   2.264  0.5393  0.3948  0.0999
 6927SOL    HW132414   0.945   4.158   2.207  2.9126 -1.4621 -0.2794
 6927SOL    HW232415   1.023   4.147   2.328 -4.2385 -0.5917  0.9378
 6928SOL     OW32416   4.532   2.309  15.810 -0.2997  0.4298 -0.4626
 6928SOL    HW132417   4.589   2.317  15.886  0.6084 -0.7500 -1.0119
 6928SOL    HW232418   4.585   2.250  15.756 -1.1463  0.8713 -1.7790
 6929SOL     OW32419   1.138   3.641   1.126 -0.1584  0.4314 -0.0311
 6929SOL    HW132420   1.229   3.619   1.107  0.5032  2.9590  0.1642
 6929SOL    HW232421   1.099   3.563   1.087  5.2458 -2.4129  0.2968
 6930SOL     OW32422   1.458   4.118  17.199  0.0055 -0.2356 -0.1248
 6930SOL    HW132423   1.453   4.160  17.285 -1.3639  0.1419 -0.3790
 6930SOL    HW232424   1.508   4.188  17.157  0.5555 -0.8915 -0.5709
 6931SOL     OW32425   4.375   3.812   8.778  0.3537  0.5504 -0.4041
 6931SOL    HW132426   4.447   3.753   8.758  0.6470  0.5177  0.7436
 6931SOL    HW232427   4.325   3.810   8.696  1.1234 -0.0358 -0.8562
 6932SOL     OW32428   0.646   0.417   0.426  0.0966 -0.1137  0.8790
 6932SOL    HW132429   0.740   0.416   0.446  0.3076  3.4230  0.0893
 6932SOL    HW232430   0.643   0.354   0.354  0.8874 -0.0877  0.8166
 6933SOL     OW32431   4.693   4.720   2.302 -0.1994 -0.2931 -0.5100
 6933SOL    HW132432   4.606   4.715   2.342 -0.9564  3.8458 -1.5912
 6933SOL    HW232433   0.008   4.655   2.353 -0.1360 -1.0140 -1.5004
 6934SOL     OW32434   0.885   1.002   5.471  0.5278 -0.1111 -0.2921
 6934SOL    HW132435   0.808   0.953   5.444  0.0643 -0.2202  1.2222
 6934SOL    HW232436   0.897   1.049   5.388 -0.2106 -0.4634 -0.5983
 6935SOL     OW32437   0.185   1.446   2.270 -0.4455 -0.1164  0.0925
 6935SOL    HW132438   0.260   1.420   2.218 -0.2633 -0.9700  0.7756
 6935SOL    HW232439   0.187   1.368   2.326  0.5227  0.0342  0.2580
 6936SOL     OW32440   2.912   3.967   8.285 -0.5613 -0.6122  0.1129
 6936SOL    HW132441   2.881   4.054   8.310  0.2700  0.4511 -2.5203
 6936SOL    HW232442   3.005   3.988   8.302 -0.8684 -0.2652  1.3888
 6937SOL     OW32443   2.005   2.694   9.520  0.0706  0.2631 -0.0227
 6937SOL    HW132444   2.034   2.731   9.603  1.9909  0.6828 -0.8899
 6937SOL    HW232445   2.066   2.623   9.501  1.5989  1.6061 -0.1789
 6938SOL     OW32446   1.555   4.460   7.203  0.1197 -0.6914 -0.5611
 6938SOL    HW132447   1.556   4.365   7.206 -2.2709 -0.7219 -0.7796
 6938SOL    HW232448   1.638   4.472   7.157 -0.7003 -0.3268 -1.9688
 6939SOL     OW32449   0.693   2.722  17.166  0.2097 -0.3683  0.4022
 6939SOL    HW132450   0.667   2.814  17.177  1.6841  0.1465 -0.4137
 6939SOL    HW232451   0.605   2.692  17.146  0.2527 -1.5890  2.0907
 6940SOL     OW32452   4.074   0.888   4.064  0.0993 -0.0072  0.0403
 6940SOL    HW132453   4.064   0.833   4.142  0.0205 -0.9401 -0.6160
 6940SOL    HW232454   4.143   0.946   4.094 -0.1342  0.0267  0.5082
 6941SOL     OW32455   2.115   4.239   4.201  0.4169 -0.2108  0.1795
 6941SOL    HW132456   2.121   4.225   4.295 -1.1441 -0.2557  0.2821
 6941SOL    HW232457   2.164   4.321   4.198 -1.3053  0.8646  0.8648
 6942SOL     OW32458   2.007   1.023  17.595 -0.1264 -0.2784  0.2507
 6942SOL    HW132459   1.948   1.078  17.544 -0.7206  0.1989  1.4901
 6942SOL    HW232460   2.034   0.958  17.529  1.4759 -0.2386  0.8735
 6943SOL     OW32461   4.250   4.230  14.460 -0.1187 -0.7082  0.2785
 6943SOL    HW132462   4.190   4.302  14.480  2.5846  2.1684 -1.8729
 6943SOL    HW232463   4.257   4.239  14.365 -0.1674  0.1161  0.3567
 6944SOL     OW32464   4.664   4.121  15.378 -0.3297  0.0893 -0.2635
 6944SOL    HW132465   4.695   4.115  15.287  0.0344  0.0395 -0.1359
 6944SOL    HW232466   4.650   4.216  15.380 -1.6879 -0.1132 -0.6666
 6945SOL     OW32467   1.511   1.993   0.670  0.3714 -0.5642 -0.3642
 6945SOL    HW132468   1.479   2.070   0.623  0.1779 -2.1388 -2.8346
 6945SOL    HW232469   1.436   1.937   0.649  0.0367 -0.4182  0.4150
 6946SOL     OW32470   0.099   1.809   9.109 -0.5937 -0.2728 -0.4847
 6946SOL    HW132471   0.117   1.746   9.178 -4.2178 -0.4945  0.2455
 6946SOL    HW232472   0.011   1.786   9.081 -1.7337  3.6812 -0.1515
 6947SOL     OW32473   3.906   2.557  11.970  0.3468 -0.1081  0.2728
 6947SOL    HW132474   3.910   2.554  11.874  0.4027  0.1600  0.2670
 6947SOL    HW232475   3.819   2.594  11.985 -0.1648 -1.1446 -0.1221
 6948SOL     OW32476   3.899   1.399   3.085  0.1280 -0.5335  0.4361
 6948SOL    HW132477   3.831   1.385   3.151  0.7159  0.0341  1.1427
 6948SOL    HW232478   3.972   1.343   3.110  0.8359  0.5800  0.8188
 6949SOL     OW32479   3.914   4.221   3.763  0.3586  0.0048  0.1984
 6949SOL    HW132480   4.007   4.230   3.742 -0.1857 -1.9560 -3.1909
 6949SOL    HW232481   3.886   4.226   3.671  0.7179 -0.4808  0.0621
 6950SOL     OW32482   0.616   0.943   7.322  0.4935 -0.2535  0.3137
 6950SOL    HW132483   0.557   1.012   7.294 -0.8568 -1.5821 -0.1159
 6950SOL    HW232484   0.592   0.938   7.415  1.2064  0.9437  0.5666
 6951SOL     OW32485   4.286   2.377   3.449 -0.1519 -0.3431 -0.2350
 6951SOL    HW132486   4.262   2.450   3.506 -1.1946 -1.0826  0.2825
 6951SOL    HW232487   4.222   2.308   3.468 -2.1034  1.0496 -1.7792
 6952SOL     OW32488   1.099   3.683  15.827  0.1048  0.1957 -0.7203
 6952SOL    HW132489   1.171   3.638  15.871  0.4499  0.5469 -0.9302
 6952SOL    HW232490   1.044   3.711  15.901 -1.5782  0.4944 -2.0798
 6953SOL     OW32491   4.095   3.529  11.726 -0.2138 -0.1392  0.2403
 6953SOL    HW132492   4.145   3.456  11.689 -0.3705  0.3006 -0.8485
 6953SOL    HW232493   4.110   3.523  11.820  0.2229 -1.4277  0.0928
 6954SOL     OW32494   2.879   3.396  15.214  0.4828 -0.2409  0.6066
 6954SOL    HW132495   2.840   3.436  15.137 -1.7415 -2.7307  0.4326
 6954SOL    HW232496   2.867   3.302  15.195 -2.4545  0.5014 -1.2453
 6955SOL     OW32497   3.640   2.076   2.968 -0.1366  0.6688  0.3214
 6955SOL    HW132498   3.626   2.008   2.902 -0.1841  0.7618  0.2351
 6955SOL    HW232499   3.597   2.156   2.938  0.5000  0.6620 -0.6011
 6956SOL     OW32500   1.122   2.163   1.279  0.4976 -0.0560  0.0766
 6956SOL    HW132501   1.099   2.123   1.195  1.1047  1.2647 -0.7015
 6956SOL    HW232502   1.050   2.224   1.292 -0.0345 -1.0695  2.0094
 6957SOL     OW32503   3.036   4.494   4.720  0.3387  0.0170 -0.3843
 6957SOL    HW132504   3.050   4.435   4.646  1.3762 -0.0221 -0.1508
 6957SOL    HW232505   2.941   4.485   4.730  0.5798 -3.5958 -1.3299
 6958SOL     OW32506   2.077   1.326   7.865 -0.1598  0.1019  0.2202
 6958SOL    HW132507   2.016   1.267   7.820 -0.6018  0.4691  0.3479
 6958SOL    HW232508   2.156   1.272   7.871  2.5051  3.7500 -2.4075
 6959SOL     OW32509   3.895   3.371   9.753 -0.1450 -0.2072 -0.4662
 6959SOL    HW132510   3.927   3.289   9.717  1.2297 -0.8084  2.1022
 6959SOL    HW232511   3.935   3.439   9.698  1.6692 -2.5275 -1.9722
 6960SOL     OW32512   2.654   4.693   7.904 -0.1125  0.1808 -0.0180
 6960SOL    HW132513   2.745   4.672   7.881 -1.1281 -2.1848 -1.9703
 6960SOL    HW232514   2.598   4.622   7.874  2.4488 -2.0846  0.5531
 6961SOL     OW32515   3.682   3.137   7.711  0.5394  0.5913 -0.2568
 6961SOL    HW132516   3.705   3.118   7.620  0.2599 -2.8178  0.3924
 6961SOL    HW232517   3.589   3.158   7.703  0.4940  0.7413  0.6035
 6962SOL     OW32518   0.243   4.555   6.398 -0.4439 -0.3814  0.0183
 6962SOL    HW132519   0.328   4.572   6.357  1.3876 -2.1878  3.1149
 6962SOL    HW232520   0.182   4.586   6.331 -1.8853  0.5588  1.7541
 6963SOL     OW32521   4.076   0.293  12.651 -0.3344  0.0746 -0.0474
 6963SOL    HW132522   4.029   0.258  12.727  0.7835 -1.4982 -0.0962
 6963SOL    HW232523   4.002   0.319  12.596 -0.3356 -0.5831 -0.3559
 6964SOL     OW32524   4.179   0.028   9.055 -0.1065  0.2781 -0.2293
 6964SOL    HW132525   4.091   4.733   9.078  0.3031 -0.5865  0.2777
 6964SOL    HW232526   4.231   4.687   9.086  1.5181  1.7735  0.6346
 6965SOL     OW32527   3.837   0.978   1.473  0.3907  0.4185  0.1653
 6965SOL    HW132528   3.780   0.975   1.396  1.1335  0.6333 -0.3857
 6965SOL    HW232529   3.788   0.933   1.542 -2.5439  3.1236 -0.1347
 6966SOL     OW32530   2.994   0.199   9.030  0.2824 -0.8115 -0.5689
 6966SOL    HW132531   2.909   0.215   8.987  0.7577 -0.3795 -1.3534
 6966SOL    HW232532   3.019   0.291   9.040 -4.2531  0.5993 -2.0007
 6967SOL     OW32533   0.825   1.952   6.748 -0.3034 -0.1687  0.0880
 6967SOL    HW132534   0.811   2.038   6.708 -1.6522 -1.2953 -1.8711
 6967SOL    HW232535   0.921   1.954   6.751 -0.2175  0.6150 -2.8316
 6968SOL     OW32536   4.330   1.913   7.535 -0.4944 -0.1611  0.5140
 6968SOL    HW132537   4.328   1.960   7.452 -1.7479  0.5442  0.9566
 6968SOL    HW232538   4.242   1.931   7.566 -0.9860  0.2803 -1.1416
 6969SOL     OW32539   4.120   4.256   6.614  0.2603  0.1334 -0.5872
 6969SOL    HW132540   4.185   4.240   6.683 -0.9835 -1.5150  0.2080
 6969SOL    HW232541   4.117   4.172   6.566 -3.6189  0.8831 -1.6306
 6970SOL     OW32542   0.763   2.042   4.104  0.0673 -0.0666 -0.3026
 6970SOL    HW132543   0.789   1.971   4.163  1.0426  0.5768  0.0245
 6970SOL    HW232544   0.830   2.028   4.037  0.3122 -3.2325  0.5769
 6971SOL     OW32545   3.765   0.915   2.135  0.1514  0.1167  0.2312
 6971SOL    HW132546   3.796   1.005   2.127  1.5900 -0.1649  3.0110
 6971SOL    HW232547   3.845   0.862   2.140 -0.8381 -1.2042  2.1680
 6972SOL     OW32548   0.305   2.407   4.224 -0.3681  0.4583  0.0557
 6972SOL    HW132549   0.259   2.474   4.173 -1.1934 -0.7834 -0.8181
 6972SOL    HW232550   0.325   2.342   4.157  1.3465 -1.1079  2.0856
 6973SOL     OW32551   3.690   1.834   1.779  0.2394  0.2555 -0.0087
 6973SOL    HW132552   3.659   1.828   1.870 -3.0467  0.7684 -1.1050
 6973SOL    HW232553   3.721   1.749   1.748  1.7942  0.7416  0.2262
 6974SOL     OW32554   2.945   0.091   2.362 -0.9646  0.2978  0.6770
 6974SOL    HW132555   2.909   0.174   2.332  1.0678  1.3930  1.2645
 6974SOL    HW232556   2.961   0.063   2.272 -1.0247  2.5803 -0.0374
 6975SOL     OW32557   1.680   0.988   9.198  0.0344 -0.3112  0.2545
 6975SOL    HW132558   1.772   1.013   9.213 -0.5765  1.2235  1.4766
 6975SOL    HW232559   1.677   0.918   9.263  0.6374 -1.6029 -1.1005
 6976SOL     OW32560   3.895   0.155   8.786  0.0656  0.3655  0.1488
 6976SOL    HW132561   3.811   0.171   8.829 -0.8140 -0.3737 -1.2956
 6976SOL    HW232562   3.960   0.195   8.843 -0.1771  0.0599  0.6364
 6977SOL     OW32563   4.450   1.359  12.173  0.5573  0.3378  0.1498
 6977SOL    HW132564   4.539   1.380  12.200  0.5117  1.6402 -0.6904
 6977SOL    HW232565   4.423   1.295  12.239 -0.9056  0.0409 -0.7266
 6978SOL     OW32566   3.746   4.450  11.680  0.5191  0.0458  0.4716
 6978SOL    HW132567   3.794   4.495  11.750  1.9347 -0.8985  0.0821
 6978SOL    HW232568   3.665   4.501  11.683  0.5632  0.1434  0.0289
 6979SOL     OW32569   1.501   4.542   5.387  0.7015  0.6999 -0.2358
 6979SOL    HW132570   1.492   4.526   5.481  0.6115  0.0158 -0.3606
 6979SOL    HW232571   1.419   4.510   5.350  0.8283 -1.0831  1.0460
 6980SOL     OW32572   0.329   0.490   2.945 -0.3314  0.8257  0.3739
 6980SOL    HW132573   0.262   0.434   2.905 -0.0828  1.0917 -0.4129
 6980SOL    HW232574   0.409   0.449   2.913 -0.8662 -1.8477  2.4851
 6981SOL     OW32575   1.579   2.063   5.826 -0.1278  1.5405  0.3061
 6981SOL    HW132576   1.628   1.991   5.865 -1.3308  2.1335  2.8832
 6981SOL    HW232577   1.638   2.074   5.751 -0.5121 -2.3040 -0.5761
 6982SOL     OW32578   3.087   4.266   7.637 -0.1175  0.7471  0.4230
 6982SOL    HW132579   3.112   4.258   7.729 -1.7491 -0.9494  0.7138
 6982SOL    HW232580   3.105   4.358   7.620  2.2790  0.2038 -0.0067
 6983SOL     OW32581   3.799   4.237   6.708  0.0391  0.3505 -0.1359
 6983SOL    HW132582   3.753   4.304   6.657 -0.8659  1.2631  1.9011
 6983SOL    HW232583   3.862   4.291   6.755  0.0837 -1.4386  1.8834
 6984SOL     OW32584   1.743   1.854   8.080 -0.0466 -0.3316 -0.6459
 6984SOL    HW132585   1.736   1.821   8.170  0.0012  1.3109 -0.0372
 6984SOL    HW232586   1.824   1.809   8.059 -0.0054  0.0449 -1.2917
 6985SOL     OW32587   0.193   2.212   5.091  0.7620  0.2379  0.5882
 6985SOL    HW132588   0.221   2.135   5.041  0.5866  1.0077 -0.6823
 6985SOL    HW232589   0.193   2.176   5.180  1.3746  1.6937  1.1828
 6986SOL     OW32590   2.514   3.864  13.740  0.5971  0.1134  0.2575
 6986SOL    HW132591   2.419   3.853  13.736  0.7728 -0.5641 -2.2718
 6986SOL    HW232592   2.534   3.911  13.659 -1.6385  3.7517  1.8452
 6987SOL     OW32593   1.271   2.106   1.669 -0.5590 -0.5309 -0.8223
 6987SOL    HW132594   1.287   2.071   1.756 -0.5168  2.7716  0.5007
 6987SOL    HW232595   1.363   2.104   1.642 -0.5092 -0.5073 -0.6551
 6988SOL     OW32596   1.456   1.613   2.923  0.4572 -0.3001  0.8911
 6988SOL    HW132597   1.478   1.669   2.999 -1.7343  1.6000  0.1107
 6988SOL    HW232598   1.364   1.639   2.918  1.0594  1.7476  0.4109
 6989SOL     OW32599   1.238   1.895   2.399 -0.1230 -0.2650 -0.1593
 6989SOL    HW132600   1.320   1.885   2.350  0.2180  1.5833  0.0397
 6989SOL    HW232601   1.200   1.808   2.407  1.6108 -0.9419  0.7383
 6990SOL     OW32602   4.686   4.096   2.284 -0.4644  0.5038  0.0391
 6990SOL    HW132603   4.618   4.031   2.267  0.5391 -0.6597  0.5022
 6990SOL    HW232604   4.667   4.160   2.215 -0.4551  0.0374 -0.3955
 6991SOL     OW32605   0.971   3.231  13.984 -0.4164  0.2193  0.0964
 6991SOL    HW132606   0.962   3.297  14.054 -0.6558  1.2763 -0.9333
 6991SOL    HW232607   0.884   3.191  13.987  0.7183 -2.1834  0.6089
 6992SOL     OW32608   2.084   0.301   0.986 -0.0403 -0.0891  0.7491
 6992SOL    HW132609   2.042   0.374   0.939  0.4773  1.1658  2.2542
 6992SOL    HW232610   2.126   0.247   0.919  0.2023 -2.3078  2.6933
 6993SOL     OW32611   0.320   3.241  10.670  0.6526  0.0877 -0.0405
 6993SOL    HW132612   0.363   3.156  10.663 -1.2693 -0.6296 -2.8764
 6993SOL    HW232613   0.288   3.272  10.586 -0.1104  0.2158  0.2951
 6994SOL     OW32614   0.548   2.958   2.396  0.2193 -0.4685  0.0287
 6994SOL    HW132615   0.529   2.899   2.323  0.9574  0.3441 -0.8194
 6994SOL    HW232616   0.634   2.923   2.421  0.0781 -1.3215 -0.7056
 6995SOL     OW32617   3.443   0.307  17.031  0.1601  0.6941 -0.1623
 6995SOL    HW132618   3.454   0.211  17.028 -0.0420  0.6489  0.5939
 6995SOL    HW232619   3.537   0.327  17.026  0.2346  0.7593  1.3355
 6996SOL     OW32620   1.613   2.353  14.507 -0.4428  0.8145  0.3763
 6996SOL    HW132621   1.579   2.383  14.592  1.2647 -0.6183  1.5779
 6996SOL    HW232622   1.532   2.350  14.457  0.2327 -1.5215 -0.5399
 6997SOL     OW32623   2.681   0.480   3.228 -0.1182  0.2069  0.3276
 6997SOL    HW132624   2.641   0.406   3.183 -0.1369  1.3806 -1.5924
 6997SOL    HW232625   2.733   0.443   3.299 -0.4833 -1.5402 -0.3265
 6998SOL     OW32626   0.422   4.666  10.340 -0.3941  0.1073  0.3762
 6998SOL    HW132627   0.492   4.720  10.304  0.6878 -2.1049 -0.8442
 6998SOL    HW232628   0.464   4.632  10.420 -0.8152  1.7647  1.2971
 6999SOL     OW32629   1.401   1.908  11.050  0.5270 -0.4663 -0.5759
 6999SOL    HW132630   1.375   1.816  11.047 -0.3668 -0.2764  1.3429
 6999SOL    HW232631   1.421   1.911  11.143 -0.5925  2.2846 -0.4133
 7000SOL     OW32632   3.341   1.424   3.507  0.4918 -0.0893 -0.4538
 7000SOL    HW132633   3.286   1.450   3.580 -0.1817  0.7670 -1.2649
 7000SOL    HW232634   3.360   1.510   3.469 -0.3432  0.1174 -0.4092
 7001SOL     OW32635   1.198   0.758   6.664 -0.1131 -0.0074 -0.5426
 7001SOL    HW132636   1.183   0.663   6.667  0.5185 -0.0874  0.1101
 7001SOL    HW232637   1.121   0.788   6.617  0.4895  0.8319 -0.9867
 7002SOL     OW32638   3.249   4.368  14.279  0.7888 -0.0498  0.3014
 7002SOL    HW132639   3.187   4.376  14.207  2.1882  2.1317 -0.6443
 7002SOL    HW232640   3.279   4.459  14.284 -1.0418  0.5981 -0.4356
 7003SOL     OW32641   4.054   4.471   1.755  0.3049 -0.5586  0.0154
 7003SOL    HW132642   4.144   4.438   1.752  0.9095  1.0211  0.6910
 7003SOL    HW232643   4.068   4.530   1.829 -0.3563  1.6262 -1.6115
 7004SOL     OW32644   3.255   1.964   6.896  0.4416 -0.3560 -0.9238
 7004SOL    HW132645   3.259   1.939   6.803  0.6525  1.5869 -1.4276
 7004SOL    HW232646   3.185   1.905   6.923  2.5194 -2.2874  0.2481
 7005SOL     OW32647   3.319   4.547   1.185 -0.3758 -0.2399  0.1340
 7005SOL    HW132648   3.375   4.524   1.260  0.4728  0.6216 -0.2327
 7005SOL    HW232649   3.240   4.521   1.233 -0.0368 -1.2578  0.1522
 7006SOL     OW32650   0.137   2.642  11.088  0.2251 -0.6984  0.2962
 7006SOL    HW132651   0.212   2.587  11.063  0.2082 -0.7454  0.3499
 7006SOL    HW232652   0.182   2.697  11.153  0.5866 -0.1783 -0.3885
 7007SOL     OW32653   4.105   0.147   4.098 -0.1942  1.0534  0.0250
 7007SOL    HW132654   4.103   0.174   4.006 -1.1537 -0.2305 -0.3174
 7007SOL    HW232655   4.063   0.061   4.095  2.2417 -0.0761 -0.9829
 7008SOL     OW32656   2.745   4.194   4.416 -0.1001 -0.7371 -0.5099
 7008SOL    HW132657   2.654   4.224   4.422  0.1850  0.0642 -0.2062
 7008SOL    HW232658   2.733   4.137   4.341  0.4032 -2.0537  0.4038
 7009SOL     OW32659   2.292   2.381   7.986  0.2408  0.1902  0.0331
 7009SOL    HW132660   2.228   2.376   8.057  2.1594  1.0532  1.8310
 7009SOL    HW232661   2.256   2.457   7.941  0.1383 -0.4123 -0.9282
 7010SOL     OW32662   2.300   1.297   5.841 -0.5243  0.1885  0.3932
 7010SOL    HW132663   2.395   1.293   5.831 -0.8460 -1.8971 -1.9186
 7010SOL    HW232664   2.282   1.242   5.765 -2.4428 -0.3435  1.2287
 7011SOL     OW32665   4.297   2.403  10.147  0.0304 -0.0955  0.3793
 7011SOL    HW132666   4.311   2.458  10.070 -3.0747  1.7794  1.1546
 7011SOL    HW232667   4.234   2.463  10.187 -1.2286 -1.3427  0.2431
 7012SOL     OW32668   2.372   4.217  11.612 -0.0455 -0.3652 -0.1324
 7012SOL    HW132669   2.459   4.233  11.648 -0.6515  2.9714 -0.2041
 7012SOL    HW232670   2.393   4.139  11.560 -0.1196 -0.5704  0.1412
 7013SOL     OW32671   0.792   0.926   4.681 -0.1611 -0.7880 -0.6258
 7013SOL    HW132672   0.869   0.983   4.678 -0.7281 -0.1751 -3.6377
 7013SOL    HW232673   0.781   0.906   4.588 -2.8504 -1.2686 -0.2158
 7014SOL     OW32674   0.384   1.727   2.304  0.1367  0.2056 -0.7332
 7014SOL    HW132675   0.321   1.759   2.368  0.8542 -1.2010  0.6730
 7014SOL    HW232676   0.323   1.729   2.230 -1.0615 -2.5886  0.2099
 7015SOL     OW32677   4.652   2.371   4.218 -0.2803 -0.2663  0.0050
 7015SOL    HW132678   4.692   2.297   4.173  2.2460  1.8817 -1.2910
 7015SOL    HW232679   4.630   2.421   4.139 -1.7063 -0.3444  0.3555
 7016SOL     OW32680   4.397   3.389  16.892 -0.5590 -0.2279 -0.0867
 7016SOL    HW132681   4.395   3.347  16.978 -0.3200  0.2471  0.1515
 7016SOL    HW232682   4.355   3.471  16.915 -0.1050 -0.2874  0.9405
 7017SOL     OW32683   1.880   3.280  11.665  0.0589 -0.2700 -0.3141
 7017SOL    HW132684   1.897   3.367  11.628  2.8670 -1.1712 -1.1593
 7017SOL    HW232685   1.967   3.243  11.681  1.2053  1.9679 -1.2629
 7018SOL     OW32686   2.975   2.237   3.501 -0.5395 -0.4041  0.3746
 7018SOL    HW132687   2.956   2.157   3.451 -1.7701 -0.2087  0.5296
 7018SOL    HW232688   2.940   2.305   3.444  0.6327  0.8029  1.1040
 7019SOL     OW32689   3.192   2.515   7.610  0.1954 -0.2110 -0.1154
 7019SOL    HW132690   3.130   2.442   7.612  0.6360 -0.5647  0.4562
 7019SOL    HW232691   3.270   2.484   7.564 -0.7414 -1.2065 -1.0546
 7020SOL     OW32692   1.598   1.970   5.130 -0.2608  0.2301 -0.0187
 7020SOL    HW132693   1.508   1.996   5.109  0.4391  1.4056 -1.5475
 7020SOL    HW232694   1.645   2.040   5.086  0.5739 -0.6923 -0.6114
 7021SOL     OW32695   4.408   4.439   5.397  0.4857 -0.5379 -0.1670
 7021SOL    HW132696   4.444   4.519   5.436  4.1181 -1.8238 -0.8583
 7021SOL    HW232697   4.490   4.395   5.372 -0.5746 -3.5567  1.7498
 7022SOL     OW32698   4.031   4.216   7.999 -0.0916  0.0151 -0.2804
 7022SOL    HW132699   3.965   4.284   8.016 -0.6160  0.1056 -2.6140
 7022SOL    HW232700   4.105   4.244   8.053  0.5734 -0.9221 -0.7178
 7023SOL     OW32701   0.666   3.266  14.487  0.2846  0.7148 -0.6993
 7023SOL    HW132702   0.738   3.325  14.510 -0.8804  1.1539  1.7427
 7023SOL    HW232703   0.703   3.231  14.406  0.3081  0.7172 -0.6895
 7024SOL     OW32704   4.034   2.128  11.642  0.3495 -0.5488  0.3174
 7024SOL    HW132705   4.107   2.067  11.634 -2.3864 -3.4591 -2.1895
 7024SOL    HW232706   4.054   2.196  11.706  0.4686 -0.8586  0.6041
 7025SOL     OW32707   3.122   4.447   1.360  0.1004  0.2550 -0.2867
 7025SOL    HW132708   3.028   4.463   1.358  0.0853  0.2876  0.4746
 7025SOL    HW232709   3.120   4.387   1.434  1.1286 -3.4681 -3.2746
 7026SOL     OW32710   0.499   4.130   1.187 -0.5745  0.3463  0.6125
 7026SOL    HW132711   0.430   4.194   1.174 -0.7605 -0.0546 -0.3486
 7026SOL    HW232712   0.461   4.051   1.148  2.4961  0.4097 -2.5884
 7027SOL     OW32713   3.563   4.497   6.853  0.0478 -0.3995 -0.0804
 7027SOL    HW132714   3.509   4.421   6.831  1.3514 -1.2342 -0.3855
 7027SOL    HW232715   3.608   4.512   6.770 -1.3023 -0.4880 -0.8349
 7028SOL     OW32716   2.033   4.544   7.347  0.1224 -0.2655  0.6834
 7028SOL    HW132717   2.036   4.529   7.441  2.6326  3.0970  1.1496
 7028SOL    HW232718   2.010   4.637   7.341 -1.0426 -0.5495  0.6513
 7029SOL     OW32719   1.542   2.812   5.749 -0.3737 -0.0648 -0.0252
 7029SOL    HW132720   1.620   2.758   5.763 -0.3371 -0.4625 -1.6837
 7029SOL    HW232721   1.561   2.848   5.662 -3.7861  2.3080  0.2194
 7030SOL     OW32722   2.739   3.528  16.790 -0.1093 -0.4296  0.6438
 7030SOL    HW132723   2.808   3.594  16.791 -1.0415  0.5215  2.3406
 7030SOL    HW232724   2.758   3.485  16.873  1.4733 -1.1639 -0.1049
 7031SOL     OW32725   0.353   0.075  13.098  0.1995 -0.1629  0.2788
 7031SOL    HW132726   0.419   0.006  13.097 -0.5504 -0.8864  0.9196
 7031SOL    HW232727   0.283   0.026  13.055 -0.5915  1.5637 -0.4269
 7032SOL     OW32728   3.150   0.877   9.245  0.3481  0.0756 -0.7132
 7032SOL    HW132729   3.066   0.907   9.211 -0.8991 -0.2898  2.0217
 7032SOL    HW232730   3.173   0.942   9.312 -2.6065 -0.0843  0.4556
 7033SOL     OW32731   3.578   0.187   9.804 -0.0599  0.5584  0.1689
 7033SOL    HW132732   3.511   0.185   9.736 -0.8468  0.4102  0.9388
 7033SOL    HW232733   3.521   0.166   9.879 -1.8436  0.7175 -1.1393
 7034SOL     OW32734   0.487   0.618   2.628  0.0995 -0.2317  0.2035
 7034SOL    HW132735   0.471   0.569   2.548 -0.4510 -0.3703  0.4005
 7034SOL    HW232736   0.441   0.701   2.616 -0.6053 -0.8831 -1.4912
 7035SOL     OW32737   3.902   2.978   3.065  0.3721 -0.4332 -0.2715
 7035SOL    HW132738   3.816   2.986   3.022  0.6849 -1.7837 -1.1729
 7035SOL    HW232739   3.869   2.995   3.153 -0.9592  1.2535 -1.0953
 7036SOL     OW32740   0.010   3.912   7.153  0.0996  0.5047  0.4450
 7036SOL    HW132741   0.018   3.867   7.237  1.2195 -2.1294 -1.0998
 7036SOL    HW232742   0.033   4.002   7.175  1.5987  0.1729  0.2158
 7037SOL     OW32743   1.614   1.817  16.836  0.5041  0.1184  0.4301
 7037SOL    HW132744   1.648   1.825  16.747  0.6726 -0.1622  0.4675
 7037SOL    HW232745   1.548   1.748  16.821  0.6874  0.3710 -1.4629
 7038SOL     OW32746   3.603   0.739   2.449  0.4228 -0.0834  0.0569
 7038SOL    HW132747   3.651   0.766   2.371  0.8189  0.5364  0.5180
 7038SOL    HW232748   3.513   0.719   2.425  0.4813 -0.0680 -0.1780
 7039SOL     OW32749   0.176   1.356  15.575  0.5294 -0.4675 -0.0410
 7039SOL    HW132750   0.109   1.303  15.618 -0.8744 -0.6411 -2.4085
 7039SOL    HW232751   0.160   1.345  15.481 -1.6401 -0.9232  0.3806
 7040SOL     OW32752   1.593   2.472   5.989 -0.3763  0.2331 -0.3852
 7040SOL    HW132753   1.560   2.384   6.009 -0.0235 -0.0188 -0.8966
 7040SOL    HW232754   1.627   2.501   6.074  0.8529  0.0192 -0.7938
 7041SOL     OW32755   2.732   3.122   2.079  0.2949  0.3932 -0.4219
 7041SOL    HW132756   2.669   3.070   2.029  1.0274  1.2460 -2.2408
 7041SOL    HW232757   2.753   3.064   2.152 -0.9111  1.3747  0.6953
 7042SOL     OW32758   4.681   0.944   9.454  0.3969  0.1667  0.4174
 7042SOL    HW132759   0.028   0.959   9.405 -0.4070  0.4966 -0.7887
 7042SOL    HW232760   4.722   0.882   9.514 -1.3853 -2.1468 -0.7346
 7043SOL     OW32761   1.579   0.420   7.533  0.0173 -0.0892  0.2714
 7043SOL    HW132762   1.565   0.506   7.494 -0.7786 -0.8015 -1.0393
 7043SOL    HW232763   1.532   0.364   7.471 -0.0408  3.1396 -2.6418
 7044SOL     OW32764   2.510   4.254  15.689 -0.6236 -0.1851  0.1185
 7044SOL    HW132765   2.554   4.280  15.608  1.0370 -1.1635  0.7174
 7044SOL    HW232766   2.565   4.281  15.762  1.4732  1.0361 -1.9142
 7045SOL     OW32767   0.461   0.988   6.967  0.4816  0.6874 -0.4902
 7045SOL    HW132768   0.456   1.078   6.935  0.9850  0.4171 -1.3260
 7045SOL    HW232769   0.552   0.970   6.946  0.0624 -1.0980 -0.8154
 7046SOL     OW32770   2.821   3.252   8.669  0.0281 -0.0718  0.4119
 7046SOL    HW132771   2.749   3.195   8.643  0.4753 -0.3679 -0.1854
 7046SOL    HW232772   2.784   3.322   8.723 -0.9744 -2.6699  3.0922
 7047SOL     OW32773   4.000   3.401   5.218 -0.6299 -0.0418 -0.3719
 7047SOL    HW132774   3.958   3.375   5.300  1.4238 -3.4373 -0.3975
 7047SOL    HW232775   3.928   3.455   5.184 -0.5783 -0.2515 -0.8143
 7048SOL     OW32776   1.548   3.098   6.256 -0.1650 -0.1631 -0.6285
 7048SOL    HW132777   1.562   3.013   6.215 -4.5688 -1.3624  0.2680
 7048SOL    HW232778   1.453   3.093   6.269 -0.4253  0.2460 -2.3933
 7049SOL     OW32779   3.700   2.915   2.124 -0.1385 -0.1941  0.1650
 7049SOL    HW132780   3.735   2.968   2.195  1.3161 -1.7950  0.6371
 7049SOL    HW232781   3.707   2.977   2.051  2.1370  0.3943  0.8820
 7050SOL     OW32782   0.922   4.261   4.259  0.6781 -0.0785 -0.6162
 7050SOL    HW132783   0.924   4.186   4.319 -0.8278  2.2137  2.3529
 7050SOL    HW232784   0.901   4.216   4.178 -3.3157  0.9163 -0.1606
 7051SOL     OW32785   2.063   1.874   4.833 -0.1361 -0.2643 -0.0137
 7051SOL    HW132786   2.118   1.796   4.844 -0.3054 -0.4132 -0.2248
 7051SOL    HW232787   2.110   1.940   4.885 -0.2341  0.5369 -0.9384
 7052SOL     OW32788   2.561   3.101  17.298 -0.0934  0.1167  0.1228
 7052SOL    HW132789   2.578   3.015  17.258  1.6322  0.6783 -0.3383
 7052SOL    HW232790   2.548   3.058  17.382 -0.3720 -0.4724 -0.2187
 7053SOL     OW32791   1.918   3.997   2.108 -0.2624 -0.1065  0.0014
 7053SOL    HW132792   1.954   3.929   2.165 -0.3947  0.0464  0.2704
 7053SOL    HW232793   1.936   3.955   2.024  0.8873  0.2626  0.0691
 7054SOL     OW32794   2.971   1.618   2.687  1.1145 -0.4624  0.0585
 7054SOL    HW132795   3.005   1.551   2.747 -0.6650 -1.4206  0.0009
 7054SOL    HW232796   3.030   1.616   2.611  0.6443 -0.5576 -0.3074
 7055SOL     OW32797   1.814   4.358   3.461  0.1600  0.0907 -0.2271
 7055SOL    HW132798   1.798   4.346   3.367  0.8026 -1.0520 -0.1811
 7055SOL    HW232799   1.791   4.451   3.466  0.6697  0.2513 -0.8024
 7056SOL     OW32800   2.566   4.684   7.543 -0.4607 -0.4385 -0.5878
 7056SOL    HW132801   2.516   0.010   7.600 -0.7894  0.0449 -1.3853
 7056SOL    HW232802   2.655   4.717   7.551 -1.1370  1.0960  0.5300
 7057SOL     OW32803   4.556   3.594   5.558  0.4418  0.1396 -0.2636
 7057SOL    HW132804   4.601   3.677   5.552 -1.3077  1.0485 -0.9230
 7057SOL    HW232805   4.602   3.544   5.625 -1.1131 -2.9926 -1.5153
 7058SOL     OW32806   2.950   3.237   5.880 -0.4141 -0.2531  0.0311
 7058SOL    HW132807   3.015   3.257   5.948  1.0426  1.6544 -1.9204
 7058SOL    HW232808   2.894   3.189   5.941 -0.0523 -0.4629  0.1978
 7059SOL     OW32809   1.987   2.136   9.041 -0.6245 -0.1649  0.2898
 7059SOL    HW132810   2.027   2.221   9.060 -0.8163 -0.4482  1.9465
 7059SOL    HW232811   1.989   2.101   9.129 -0.4974  1.2903  0.8653
 7060SOL     OW32812   4.023   0.799   4.603 -0.7979 -0.5667 -0.3896
 7060SOL    HW132813   4.102   0.778   4.653 -1.5714 -1.8739  0.2708
 7060SOL    HW232814   3.970   0.843   4.671  0.5129 -1.7379  1.3874
 7061SOL     OW32815   1.537   0.257   6.196 -0.2356 -0.3511  0.0198
 7061SOL    HW132816   1.489   0.339   6.185 -0.8530 -0.4851  1.6932
 7061SOL    HW232817   1.466   0.209   6.239  1.4789 -1.1745  1.9632
 7062SOL     OW32818   2.618   3.990   3.042  0.1703 -0.6705 -0.0737
 7062SOL    HW132819   2.585   4.074   3.009  1.0055 -0.5237 -0.5542
 7062SOL    HW232820   2.632   4.020   3.131  0.2277  0.5318 -0.4833
 7063SOL     OW32821   4.313   4.247   2.273  0.2267 -0.1423 -0.5724
 7063SOL    HW132822   4.384   4.255   2.209  1.3754 -0.2432  0.6746
 7063SOL    HW232823   4.245   4.203   2.222 -2.4246  2.4649  0.6659
 7064SOL     OW32824   4.422   1.481   1.885  0.1187  0.1502  0.1068
 7064SOL    HW132825   4.370   1.554   1.851 -0.4302 -0.5555 -0.5675
 7064SOL    HW232826   4.427   1.505   1.978  1.1361 -0.0541  0.1054
 7065SOL     OW32827   1.887   4.220   4.526  0.6018 -0.1916 -0.1867
 7065SOL    HW132828   1.896   4.151   4.592 -0.9318 -1.0401 -0.8524
 7065SOL    HW232829   1.894   4.176   4.442  0.0303 -3.9435  1.7070
 7066SOL     OW32830   1.647   2.089  14.381 -0.1427 -0.2589  0.0832
 7066SOL    HW132831   1.632   2.182  14.397 -1.7854 -0.3780 -0.7660
 7066SOL    HW232832   1.654   2.099  14.286 -0.3413 -1.5845 -0.0656
 7067SOL     OW32833   1.218   1.063  11.587 -0.1745  0.0129 -0.3820
 7067SOL    HW132834   1.273   1.129  11.544  0.4435 -2.2678 -3.0664
 7067SOL    HW232835   1.187   1.105  11.667  2.0161  1.7079 -0.4243
 7068SOL     OW32836   4.031   2.881   6.342  0.0056 -0.5480 -0.0287
 7068SOL    HW132837   4.086   2.837   6.278  1.9420  0.3215  1.0180
 7068SOL    HW232838   4.030   2.832   6.424  0.7054  1.4983  1.2100
 7069SOL     OW32839   1.615   2.213   6.045  0.0090 -0.5325 -0.4887
 7069SOL    HW132840   1.670   2.144   6.082  0.1884  0.4995  1.1654
 7069SOL    HW232841   1.599   2.161   5.967  0.3857 -2.2776  0.6047
 7070SOL     OW32842   1.613   3.736  14.395 -0.4064 -0.5561  0.0321
 7070SOL    HW132843   1.668   3.681  14.451  0.4213 -0.8657 -1.1087
 7070SOL    HW232844   1.534   3.687  14.415  0.3386 -1.6844  0.1837
 7071SOL     OW32845   2.993   1.076   4.869 -0.1325  0.4478  0.3344
 7071SOL    HW132846   3.005   1.093   4.963  3.5930 -0.8574  0.1174
 7071SOL    HW232847   2.900   1.097   4.862 -0.3191 -0.5865 -0.3181
 7072SOL     OW32848   0.547   3.939   6.488 -0.2422  0.3812 -0.5634
 7072SOL    HW132849   0.533   3.879   6.561  0.1376  0.4579 -0.4276
 7072SOL    HW232850   0.634   3.914   6.456 -0.9263 -3.7331  0.7757
 7073SOL     OW32851   3.751   4.640   9.853  0.1302  0.6194 -0.4912
 7073SOL    HW132852   3.710   4.724   9.877 -1.3825 -0.1925 -0.2346
 7073SOL    HW232853   3.799   4.609   9.930 -1.5185  1.2726  0.7998
 7074SOL     OW32854   2.432   1.345   6.945  0.4414  0.0630 -0.2510
 7074SOL    HW132855   2.527   1.359   6.940  0.7032 -1.0345  1.7233
 7074SOL    HW232856   2.410   1.425   6.897  1.9683 -0.3155 -1.5859
 7075SOL     OW32857   4.601   1.264   5.184 -0.6608  0.0863  0.1643
 7075SOL    HW132858   4.674   1.326   5.188  0.2459 -1.0581  1.0804
 7075SOL    HW232859   4.628   1.194   5.124 -1.2690  0.4995 -0.6022
 7076SOL     OW32860   1.461   2.965   7.043 -0.1040  0.5920 -0.4086
 7076SOL    HW132861   1.392   2.942   7.105 -1.8508  1.6433 -1.9882
 7076SOL    HW232862   1.497   2.878   7.026 -0.3882  0.6130 -1.0923
 7077SOL     OW32863   2.124   1.541  12.694 -0.6703  0.2689  0.0131
 7077SOL    HW132864   2.173   1.459  12.692 -2.7787 -1.0077  0.6315
 7077SOL    HW232865   2.186   1.610  12.718  0.6538 -1.3561  1.2837
 7078SOL     OW32866   4.122   3.545   7.336  0.3604  0.4250  0.1396
 7078SOL    HW132867   4.075   3.533   7.418 -2.3945  2.0641 -1.2063
 7078SOL    HW232868   4.087   3.627   7.302 -0.7450  0.4644  1.3875
 7079SOL     OW32869   4.339   2.364   9.131 -0.3882  0.3118 -0.0617
 7079SOL    HW132870   4.363   2.409   9.213  1.9462 -0.3156 -0.4029
 7079SOL    HW232871   4.311   2.437   9.076  0.1004  0.2344 -0.4115
 7080SOL     OW32872   0.158   2.685   5.347 -0.4964 -0.2409 -0.0013
 7080SOL    HW132873   0.069   2.653   5.339  0.2164 -2.4797  1.0018
 7080SOL    HW232874   0.157   2.772   5.308 -1.0474 -0.1658  0.1873
 7081SOL     OW32875   2.282   0.430  13.206 -0.0014 -0.1096  0.1304
 7081SOL    HW132876   2.313   0.471  13.125 -1.3920 -0.4698 -0.5774
 7081SOL    HW232877   2.350   0.437  13.273  1.3753 -1.5867 -1.1350
 7082SOL     OW32878   3.974   4.646  10.420 -0.0064 -0.1173  0.0231
 7082SOL    HW132879   3.972   0.007  10.433 -1.9513 -0.3562  1.5642
 7082SOL    HW232880   4.063   4.631  10.389  0.8351  1.3493  1.7652
 7083SOL     OW32881   3.570   3.946   3.621  0.0871 -0.1859  0.0983
 7083SOL    HW132882   3.551   4.034   3.586  0.4547  0.1092  0.6457
 7083SOL    HW232883   3.518   3.940   3.701  0.4333 -0.9353  0.2662
 7084SOL     OW32884   3.979   3.574  16.921 -0.0711 -0.1038 -0.1429
 7084SOL    HW132885   4.035   3.600  16.994  0.7166 -1.0604 -0.3997
 7084SOL    HW232886   4.022   3.499  16.879 -0.2354  1.8906 -3.7742
 7085SOL     OW32887   3.639   2.692   3.710 -0.2116 -0.2765  0.0671
 7085SOL    HW132888   3.611   2.637   3.636 -0.3672 -0.3343  0.1684
 7085SOL    HW232889   3.549   2.715   3.736  0.1116  2.1976 -1.0278
 7086SOL     OW32890   1.726   0.854  12.562  0.0857 -0.3068  0.1372
 7086SOL    HW132891   1.723   0.932  12.507 -0.9741  0.0514  0.6885
 7086SOL    HW232892   1.699   0.796  12.491 -0.2924 -1.2266  1.0312
 7087SOL     OW32893   0.389   1.402   3.533 -0.0334  0.0009 -0.0742
 7087SOL    HW132894   0.353   1.446   3.611 -0.3680  0.1074 -0.2875
 7087SOL    HW232895   0.309   1.387   3.482 -0.7009 -1.9815  1.5031
 7088SOL     OW32896   4.389   4.512   9.573  0.3854 -0.1159  0.8011
 7088SOL    HW132897   4.411   4.426   9.608  2.5329 -0.5782 -1.7100
 7088SOL    HW232898   4.415   4.561   9.652  0.1724  1.1594  0.0759
 7089SOL     OW32899   2.712   4.073   3.279 -0.4971 -0.0557  0.1684
 7089SOL    HW132900   2.642   4.033   3.331 -0.7931  1.2520  0.7712
 7089SOL    HW232901   2.784   4.067   3.342  0.7745  2.7602 -1.0301
 7090SOL     OW32902   1.832   3.046   0.139  0.5992 -0.3106 -0.0721
 7090SOL    HW132903   1.803   3.034   0.048  1.6037  0.3484 -0.4812
 7090SOL    HW232904   1.895   2.975   0.152 -0.6056 -1.7219 -1.8705
 7091SOL     OW32905   1.588   0.308   3.196  0.1530  0.3259 -0.0766
 7091SOL    HW132906   1.633   0.392   3.197 -1.6518  1.3039 -0.0773
 7091SOL    HW232907   1.550   0.316   3.109  1.1916  1.0406 -0.4580
 7092SOL     OW32908   3.796   0.333   3.527  0.4461 -0.1730  0.1589
 7092SOL    HW132909   3.889   0.315   3.542  0.5133 -0.2539 -0.3682
 7092SOL    HW232910   3.782   0.309   3.436 -0.1322  1.3751 -0.1598
 7093SOL     OW32911   0.790   3.830   8.621 -0.4230  0.2244 -0.4589
 7093SOL    HW132912   0.846   3.839   8.698  1.4055  0.1445 -1.7518
 7093SOL    HW232913   0.818   3.907   8.572  0.1271  0.0284 -0.4528
 7094SOL     OW32914   0.580   4.240   2.738 -0.4711 -0.3125 -0.1907
 7094SOL    HW132915   0.588   4.157   2.690  0.5442 -0.6623  0.5785
 7094SOL    HW232916   0.497   4.260   2.695 -0.0920 -0.6342 -1.0856
 7095SOL     OW32917   4.388   3.517   7.915  0.5889 -0.6393  0.3276
 7095SOL    HW132918   4.325   3.506   7.986  1.0400 -2.7510  0.3990
 7095SOL    HW232919   4.420   3.605   7.937 -2.0286  0.2034  0.7251
 7096SOL     OW32920   0.395   4.571   2.540  0.6647  0.1064  0.3814
 7096SOL    HW132921   0.482   4.585   2.501  0.7853 -4.3206 -0.9229
 7096SOL    HW232922   0.389   4.476   2.552  1.0299  0.1597  1.0076
 7097SOL     OW32923   1.667   3.314   8.881 -0.1264 -0.1595  0.5354
 7097SOL    HW132924   1.589   3.347   8.927  0.3752 -1.5826  2.4223
 7097SOL    HW232925   1.720   3.319   8.960 -0.1391 -0.6729  0.5735
 7098SOL     OW32926   3.574   1.187   2.619  0.1159 -0.0751 -0.6962
 7098SOL    HW132927   3.586   1.124   2.689  3.1556  1.0515 -0.2110
 7098SOL    HW232928   3.626   1.264   2.644 -0.9883  1.4235 -2.9533
 7099SOL     OW32929   3.606   4.116   1.574 -0.0744  0.2252 -0.4448
 7099SOL    HW132930   3.541   4.053   1.605 -0.1617  1.8180  2.6725
 7099SOL    HW232931   3.599   4.182   1.644 -0.7620  0.3610 -0.6392
 7100SOL     OW32932   2.915   2.967   3.043 -0.4659 -0.3357 -0.2340
 7100SOL    HW132933   2.848   3.019   3.089 -0.7495 -2.7405  2.1085
 7100SOL    HW232934   2.902   3.001   2.955 -2.1406 -0.6562 -0.1165
 7101SOL     OW32935   3.430   0.668   4.947 -0.0585  0.5647  0.1425
 7101SOL    HW132936   3.383   0.617   4.880 -1.0614  0.4686  0.9201
 7101SOL    HW232937   3.505   0.609   4.951  0.6007  1.3117 -1.1546
 7102SOL     OW32938   2.528   4.266   2.168 -0.4719 -0.4549 -0.0140
 7102SOL    HW132939   2.528   4.354   2.205  1.5144 -0.0705 -0.9299
 7102SOL    HW232940   2.439   4.265   2.131 -0.7986  1.7830  0.7281
 7103SOL     OW32941   0.812   4.180   3.456  0.1631  0.3317 -0.6089
 7103SOL    HW132942   0.755   4.256   3.441 -0.6941  0.0872  1.3882
 7103SOL    HW232943   0.742   4.117   3.472 -0.9709  1.4282 -1.2292
 7104SOL     OW32944   4.262   1.176   4.951  0.0444 -0.3137 -0.5054
 7104SOL    HW132945   4.286   1.241   5.017  0.9141 -1.0169 -0.1224
 7104SOL    HW232946   4.245   1.100   5.006 -1.6584  2.1664  2.3594
 7105SOL     OW32947   1.116   0.183   8.451  0.2451 -0.0879  0.1886
 7105SOL    HW132948   1.155   0.141   8.528  0.7600  0.1322  0.0502
 7105SOL    HW232949   1.026   0.150   8.453  0.4322 -0.6033  0.3361
 7106SOL     OW32950   3.386   4.454  11.233  0.5155 -0.5526  0.2059
 7106SOL    HW132951   3.355   4.505  11.307  2.3011  0.8887 -0.0579
 7106SOL    HW232952   3.320   4.387  11.211 -1.8835  2.4155 -1.7010
 7107SOL     OW32953   2.219   2.332  11.201 -0.2296  0.2727  0.1494
 7107SOL    HW132954   2.192   2.419  11.174 -1.9193  0.1455  1.4372
 7107SOL    HW232955   2.223   2.286  11.118  0.6044 -1.7343  1.2829
 7108SOL     OW32956   2.922   1.047   3.659 -0.2301 -0.4151 -0.0848
 7108SOL    HW132957   3.002   1.032   3.709 -0.4579 -0.8337  0.1582
 7108SOL    HW232958   2.868   0.971   3.680 -1.5801 -0.0320 -2.1499
 7109SOL     OW32959   0.873   4.434  16.670 -0.4295 -0.3143  0.5973
 7109SOL    HW132960   0.941   4.478  16.721 -0.9195 -1.5145  2.2757
 7109SOL    HW232961   0.800   4.459  16.727 -1.5797 -1.2091 -0.4713
 7110SOL     OW32962   3.829   0.782   9.651 -0.0241  0.4636 -0.4078
 7110SOL    HW132963   3.832   0.877   9.641 -2.4752  0.2348 -3.3335
 7110SOL    HW232964   3.903   0.782   9.712  0.5156  2.5724 -1.0700
 7111SOL     OW32965   0.711   1.825  12.401 -0.3297  0.1904 -0.4233
 7111SOL    HW132966   0.688   1.917  12.416  0.3020  0.3222 -0.2901
 7111SOL    HW232967   0.805   1.837  12.393  0.0329 -1.3745  1.2683
 7112SOL     OW32968   2.188   0.428   1.490 -0.0826  0.4234 -0.2030
 7112SOL    HW132969   2.156   0.408   1.402  0.0833 -0.8387  0.0331
 7112SOL    HW232970   2.115   0.387   1.537 -0.7403  1.5299 -0.2552
 7113SOL     OW32971   3.221   3.808  16.106  0.4984 -0.0934  0.5104
 7113SOL    HW132972   3.178   3.873  16.049  1.5307 -0.5805 -0.8408
 7113SOL    HW232973   3.278   3.760  16.045 -1.3990 -1.0418 -0.5270
 7114SOL     OW32974   4.602   1.435   9.733 -0.1009  0.0680  0.1465
 7114SOL    HW132975   4.634   1.359   9.781 -0.1135  1.6117  2.6102
 7114SOL    HW232976   4.643   1.512   9.773 -2.4252  1.1358  0.4689
 7115SOL     OW32977   0.526   0.593   8.089 -0.4125  0.4336 -0.1708
 7115SOL    HW132978   0.466   0.644   8.034 -0.0497 -1.1545 -2.0679
 7115SOL    HW232979   0.601   0.572   8.033  0.1264 -1.0935  1.1364
 7116SOL     OW32980   1.813   1.449   5.995 -0.3799 -0.0249 -0.2702
 7116SOL    HW132981   1.721   1.467   5.978 -0.2397 -0.2023 -1.2118
 7116SOL    HW232982   1.816   1.363   6.036 -0.4027 -1.1449 -2.6279
 7117SOL     OW32983   4.089   3.846   2.940 -0.3188 -0.4459  0.0886
 7117SOL    HW132984   4.147   3.907   2.894  0.5903 -0.9645  0.5397
 7117SOL    HW232985   4.058   3.897   3.015  1.8609  0.3361  0.4685
 7118SOL     OW32986   1.254   4.722  17.526 -0.3017 -0.6350  0.8662
 7118SOL    HW132987   1.245   0.073  17.481 -0.4317 -0.9782  0.2382
 7118SOL    HW232988   1.314   0.008  17.597  0.9834 -1.7679  0.0834
 7119SOL     OW32989   0.203   4.294   4.872 -1.0720  0.2642 -0.1874
 7119SOL    HW132990   0.130   4.356   4.869 -1.2437  0.1354  1.6964
 7119SOL    HW232991   0.245   4.324   4.952  0.6230  0.2961 -1.0974
 7120SOL     OW32992   3.006   2.295   7.579 -0.2095  0.4901 -0.4696
 7120SOL    HW132993   2.949   2.352   7.527 -1.3700  0.6532  0.9691
 7120SOL    HW232994   2.939   2.233   7.610 -0.0396  0.5485  0.0244
 7121SOL     OW32995   0.674   2.316   9.348 -0.0794  0.1031 -0.0271
 7121SOL    HW132996   0.648   2.231   9.385  1.0884  1.0223  2.8342
 7121SOL    HW232997   0.591   2.355   9.320 -0.0958  2.1520  2.9426
 7122SOL     OW32998   1.042   3.151  13.226 -0.2495 -0.1402 -0.6403
 7122SOL    HW132999   1.133   3.128  13.248  0.4737 -0.0573 -3.5709
 7122SOL    HW233000   1.066   3.216  13.160 -0.0150  1.5147  1.0828
 7123SOL     OW33001   3.172   3.925  12.064  0.3794  0.2200  0.0620
 7123SOL    HW133002   3.095   3.944  12.011  0.3805 -2.3030 -0.8283
 7123SOL    HW233003   3.166   3.990  12.135 -2.8935  0.2713 -0.2581
 7124SOL     OW33004   0.872   0.452  16.758  0.3798 -0.7081 -0.0305
 7124SOL    HW133005   0.867   0.536  16.712  1.2558 -0.1293  0.9214
 7124SOL    HW233006   0.874   0.486  16.847 -4.3473 -0.4535 -0.0392
 7125SOL     OW33007   0.870   0.239  10.233 -0.7485  0.1381  0.5860
 7125SOL    HW133008   0.915   0.266  10.152  0.5314  0.6680  1.4713
 7125SOL    HW233009   0.892   0.312  10.291  3.5842 -1.0301  0.4148
 7126SOL     OW33010   1.375   2.965  16.797  0.3380 -0.4827 -0.2321
 7126SOL    HW133011   1.334   3.032  16.851  0.8620 -0.4605  0.1340
 7126SOL    HW233012   1.451   3.008  16.756 -2.2689  2.6723 -1.8409
 7127SOL     OW33013   4.328   3.935   1.678 -0.0365  0.3524  0.2678
 7127SOL    HW133014   4.268   4.010   1.681 -0.6969 -0.0302 -2.6844
 7127SOL    HW233015   4.306   3.908   1.767  0.6389 -1.0477 -0.0024
 7128SOL     OW33016   1.469   1.712   2.595 -0.0144  0.0057 -0.3338
 7128SOL    HW133017   1.435   1.713   2.685  0.3945 -0.9246 -0.1699
 7128SOL    HW233018   1.513   1.795   2.577  0.2766  0.3573  2.0358
 7129SOL     OW33019   3.074   3.645  11.803  0.2828  0.2809 -0.8552
 7129SOL    HW133020   3.042   3.734  11.786  1.8712  0.9010 -0.5898
 7129SOL    HW233021   3.130   3.623  11.729  2.0363 -0.8140  0.8138
 7130SOL     OW33022   1.055   1.740   4.526 -0.0296 -0.8209  0.4093
 7130SOL    HW133023   1.087   1.695   4.605 -1.1765  1.1452  1.9900
 7130SOL    HW233024   0.964   1.710   4.520  0.1360 -1.6486  1.9974
 7131SOL     OW33025   0.340   3.217   8.940 -0.5958  0.1340  0.3333
 7131SOL    HW133026   0.422   3.167   8.947 -0.1369  0.8237 -0.1018
 7131SOL    HW233027   0.378   3.294   8.897  2.9772 -1.4424  0.6364
 7132SOL     OW33028   3.851   4.263  15.880 -0.5127  0.2037 -0.6685
 7132SOL    HW133029   3.825   4.355  15.877 -0.3878  0.2201 -1.3087
 7132SOL    HW233030   3.852   4.240  15.787 -1.0848 -0.3345 -0.5402
 7133SOL     OW33031   2.950   2.077   6.828  0.2581 -0.3280 -0.3906
 7133SOL    HW133032   3.006   2.102   6.754  1.4223 -1.0019  0.2571
 7133SOL    HW233033   3.001   1.999   6.853  1.4281  0.8261  0.7682
 7134SOL     OW33034   3.803   0.203  14.520  0.5346 -0.2864  0.3460
 7134SOL    HW133035   3.712   0.216  14.545  0.6605  1.7474 -0.2371
 7134SOL    HW233036   3.819   0.115  14.555  0.7252  0.3296  1.7923
 7135SOL     OW33037   0.286   0.365   6.930  0.1139  0.1376  0.1238
 7135SOL    HW133038   0.321   0.297   6.872  0.0152 -2.4510  3.0715
 7135SOL    HW233039   0.263   0.312   7.007 -0.9966 -0.1072 -0.3782
 7136SOL     OW33040   1.565   0.988   1.039 -0.1362 -0.1852 -0.5820
 7136SOL    HW133041   1.488   0.986   0.982  0.4112  1.1949 -1.3825
 7136SOL    HW233042   1.617   1.064   1.013 -0.1522  1.1771  3.2897
 7137SOL     OW33043   2.081   0.674  17.578 -0.1818 -0.3361  0.6186
 7137SOL    HW133044   2.061   0.582  17.594 -1.5783 -0.1947 -0.3002
 7137SOL    HW233045   2.061   0.697  17.669  1.9595  1.0163  0.7384
 7138SOL     OW33046   3.609   3.550   6.176 -0.3299  0.1034  0.6732
 7138SOL    HW133047   3.693   3.594   6.185  0.7446 -2.3613  2.7874
 7138SOL    HW233048   3.634   3.458   6.187  0.0366  0.1812  0.5021
 7139SOL     OW33049   2.755   1.293  11.025 -0.1826 -0.2312  0.4690
 7139SOL    HW133050   2.711   1.228  10.970 -2.3060 -0.2244  2.1284
 7139SOL    HW233051   2.844   1.282  10.993 -0.9138 -1.0577 -1.2396
 7140SOL     OW33052   3.462   0.423  10.137 -0.2692 -0.4965 -0.4278
 7140SOL    HW133053   3.488   0.466  10.219 -2.1945 -0.1627  0.0125
 7140SOL    HW233054   3.475   0.491  10.071 -0.3556  1.5675  1.6882
 7141SOL     OW33055   3.263   1.334   9.417  0.3499 -0.5312  1.2109
 7141SOL    HW133056   3.288   1.425   9.401 -0.6628 -0.6545 -1.1283
 7141SOL    HW233057   3.194   1.352   9.481 -0.7389  0.5447 -0.2455
 7142SOL     OW33058   2.658   3.736   8.406  0.0625  0.3048 -0.1099
 7142SOL    HW133059   2.648   3.672   8.476 -2.0563 -0.8715 -1.5060
 7142SOL    HW233060   2.661   3.672   8.335 -2.0942  0.4608 -0.3440
 7143SOL     OW33061   3.595   0.765  11.075 -0.4251 -0.1254 -0.2805
 7143SOL    HW133062   3.518   0.789  11.022 -1.1328  1.1409  1.3136
 7143SOL    HW233063   3.575   0.799  11.162  0.5371 -0.4432  0.0599
 7144SOL     OW33064   2.723   3.964   4.915 -0.6172  0.0751 -0.1866
 7144SOL    HW133065   2.642   4.011   4.896 -1.2044 -0.9583 -0.2790
 7144SOL    HW233066   2.771   3.958   4.832 -1.6169 -0.1779 -0.7395
 7145SOL     OW33067   2.340   1.442   4.738  0.1367  0.2652  0.1506
 7145SOL    HW133068   2.265   1.441   4.797  0.3898 -2.4836  0.4439
 7145SOL    HW233069   2.398   1.374   4.774 -0.0243 -0.1146 -0.3185
 7146SOL     OW33070   2.604   1.995   0.254  0.1202  0.1519  0.2116
 7146SOL    HW133071   2.553   2.026   0.179 -0.3436 -0.5715  0.2211
 7146SOL    HW233072   2.550   1.938   0.309  1.0033 -0.5311  0.3561
 7147SOL     OW33073   3.066   4.691   3.584  0.1056  0.3162 -0.0895
 7147SOL    HW133074   3.088   0.008   3.505 -1.7015  1.1066 -0.0995
 7147SOL    HW233075   2.999   4.636   3.543  0.2447 -0.9550  1.3975
 7148SOL     OW33076   0.125   3.895   0.853 -0.5799  0.0419  0.0835
 7148SOL    HW133077   0.058   3.939   0.905 -0.7933 -0.8107  0.5318
 7148SOL    HW233078   0.195   3.904   0.918  0.2865 -0.3765 -0.7997
 7149SOL     OW33079   1.736   2.893   4.498 -0.0791  0.0883  0.0967
 7149SOL    HW133080   1.798   2.894   4.425  0.2941 -0.4185  0.4107
 7149SOL    HW233081   1.713   2.801   4.508  1.6291 -0.1035  2.3068
 7150SOL     OW33082   4.439   3.002   2.972 -0.0477  0.3108 -0.2436
 7150SOL    HW133083   4.376   2.931   2.958  0.6419  0.1309 -2.3851
 7150SOL    HW233084   4.460   2.978   3.063 -1.7788  0.7813  0.2812
 7151SOL     OW33085   2.721   2.562   7.826 -0.8297 -0.5465  0.2994
 7151SOL    HW133086   2.659   2.635   7.829  0.7592  0.8473 -0.7033
 7151SOL    HW233087   2.790   2.606   7.776 -0.1762 -0.7449  1.0317
 7152SOL     OW33088   0.004   0.524   6.249  0.0357  0.7095  0.1538
 7152SOL    HW133089   0.052   0.552   6.327 -0.2681 -0.2008  0.6541
 7152SOL    HW233090   0.054   0.444   6.234 -2.8889 -0.8680 -1.1306
 7153SOL     OW33091   3.441   3.885   6.411 -0.3758  0.1915 -0.2834
 7153SOL    HW133092   3.422   3.977   6.397  0.5251  0.4728  0.3042
 7153SOL    HW233093   3.420   3.875   6.504 -1.2764  4.3544 -0.0599
 7154SOL     OW33094   4.600   2.333  13.215  0.4134 -0.1446 -0.1803
 7154SOL    HW133095   4.677   2.356  13.163 -0.5370  1.3404 -0.9248
 7154SOL    HW233096   4.622   2.240  13.217  3.0218  0.4065 -3.1798
 7155SOL     OW33097   4.670   2.370   4.850  0.1689  0.0956 -0.2195
 7155SOL    HW133098   4.594   2.331   4.893 -0.9119  1.4235 -0.9285
 7155SOL    HW233099   4.685   2.453   4.894 -0.4817  0.0197  0.1496
 7156SOL     OW33100   1.606   1.684   3.301 -0.4605  0.3236 -0.0255
 7156SOL    HW133101   1.640   1.736   3.228 -0.5863  0.7639  0.2306
 7156SOL    HW233102   1.570   1.613   3.249 -1.3330 -0.9074  2.2561
 7157SOL     OW33103   4.311   2.510   1.803  0.2984 -0.4066  0.0400
 7157SOL    HW133104   4.219   2.485   1.799 -0.0340  1.1373 -2.0892
 7157SOL    HW233105   4.316   2.601   1.773  0.2220  0.0187  1.3054
 7158SOL     OW33106   1.716   0.492   6.390  0.9945  0.6770 -0.2000
 7158SOL    HW133107   1.736   0.573   6.342 -2.4115 -0.3999 -3.4479
 7158SOL    HW233108   1.738   0.528   6.476  1.9514 -1.6322  0.5199
 7159SOL     OW33109   3.869   3.415   2.795  0.2110  0.3945 -0.0380
 7159SOL    HW133110   3.942   3.353   2.787  0.9425  1.4715 -1.7218
 7159SOL    HW233111   3.915   3.496   2.816  0.5828 -0.2937  1.7576
 7160SOL     OW33112   0.073   1.307  11.965 -0.0091 -0.0652 -0.6125
 7160SOL    HW133113   0.113   1.394  11.966 -0.4196  0.1467 -1.8289
 7160SOL    HW233114   0.042   1.301  12.055 -0.4515 -2.0159 -0.9109
 7161SOL     OW33115   4.072   0.585  12.662 -0.3887 -0.6594 -0.2018
 7161SOL    HW133116   4.089   0.492  12.671  0.8848 -0.2630  1.4056
 7161SOL    HW233117   4.057   0.610  12.753  0.7003 -5.5511  1.2736
 7162SOL     OW33118   0.020   3.830   8.381  0.1555  0.0891  0.0023
 7162SOL    HW133119   0.035   3.774   8.305 -0.9138  0.0289 -0.1672
 7162SOL    HW233120   0.042   3.765   8.449 -0.1825 -0.3630 -0.3199
 7163SOL     OW33121   4.212   1.645   8.628 -0.2768  0.0929 -0.0244
 7163SOL    HW133122   4.154   1.719   8.643 -1.2459 -0.9891  1.6506
 7163SOL    HW233123   4.220   1.616   8.719 -1.9649  0.2596  0.1662
 7164SOL     OW33124   4.057   1.674  13.135  0.0052 -0.0302  0.1026
 7164SOL    HW133125   4.039   1.580  13.131 -0.6207  0.0550  0.8433
 7164SOL    HW233126   3.969   1.705  13.115 -0.0183  0.6395  1.2315
 7165SOL     OW33127   2.823   3.439   2.263 -0.1961  0.0788  0.2260
 7165SOL    HW133128   2.755   3.428   2.196  1.2218 -1.7779 -0.8860
 7165SOL    HW233129   2.896   3.462   2.206  0.0272 -1.4963 -0.1116
 7166SOL     OW33130   3.935   0.863   8.250 -0.0888 -0.0984  0.2831
 7166SOL    HW133131   3.872   0.899   8.312 -2.1446 -1.9858 -0.7254
 7166SOL    HW233132   3.885   0.792   8.209 -0.8190  1.5927 -1.7542
 7167SOL     OW33133   0.824   0.993   3.338  0.0112  0.1572 -0.3640
 7167SOL    HW133134   0.832   0.905   3.375  2.4839 -0.1202 -1.5234
 7167SOL    HW233135   0.730   1.010   3.339  0.1324  0.7900  0.3978
 7168SOL     OW33136   1.708   1.757   7.738  0.0393 -0.6344 -0.3199
 7168SOL    HW133137   1.635   1.814   7.760  0.9245  0.7228 -0.9266
 7168SOL    HW233138   1.667   1.670   7.738 -0.8610 -0.2006  1.2341
 7169SOL     OW33139   0.134   0.298  14.426  0.1467 -0.0354  0.1604
 7169SOL    HW133140   0.043   0.273  14.445 -0.2786  1.7072  0.4212
 7169SOL    HW233141   0.138   0.373  14.486  0.6896 -0.7189  0.9946
 7170SOL     OW33142   4.120   2.521   3.188 -0.3651  0.1105 -0.1281
 7170SOL    HW133143   4.088   2.436   3.160  0.0158 -0.3872  0.9390
 7170SOL    HW233144   4.084   2.516   3.277 -0.1125 -1.3352 -0.1144
 7171SOL     OW33145   0.244   1.579  11.097 -0.7925 -0.1356 -0.4621
 7171SOL    HW133146   0.295   1.530  11.161  0.6851  1.9897 -0.0080
 7171SOL    HW233147   0.165   1.609  11.141  0.7182  0.0399  2.1486
 7172SOL     OW33148   1.075   2.115   2.404 -0.2760  0.7310  0.5058
 7172SOL    HW133149   1.013   2.073   2.344 -0.5405  2.0537 -0.1591
 7172SOL    HW233150   1.146   2.055   2.381  0.2707  0.6346  2.4589
 7173SOL     OW33151   3.599   3.783   4.773  0.6491  0.6463  0.1720
 7173SOL    HW133152   3.694   3.790   4.783  0.6874  0.0278  0.2164
 7173SOL    HW233153   3.573   3.859   4.825 -0.8831 -0.1136  0.5052
 7174SOL     OW33154   0.362   4.203   8.586  0.4738 -0.1274  0.0094
 7174SOL    HW133155   0.311   4.141   8.533  2.0599 -1.4682  0.0590
 7174SOL    HW233156   0.319   4.201   8.672  1.8425 -0.4854  0.6942
 7175SOL     OW33157   0.621   2.965  17.230  0.2410 -0.1653  0.2410
 7175SOL    HW133158   0.559   3.037  17.244 -0.8538 -0.8679 -1.0220
 7175SOL    HW233159   0.705   3.006  17.208 -0.7951  0.8343 -1.7592
 7176SOL     OW33160   3.854   2.125   4.265  0.0550  0.1515 -0.4578
 7176SOL    HW133161   3.837   2.041   4.222 -0.0785 -0.3101  0.5050
 7176SOL    HW233162   3.949   2.126   4.275  0.1674 -1.4886 -1.3779
 7177SOL     OW33163   4.708   4.317   3.174 -0.7718  0.2828  0.3370
 7177SOL    HW133164   4.701   4.225   3.197  0.4350 -0.0397 -0.6091
 7177SOL    HW233165   4.685   4.307   3.082 -0.8900  4.1808 -0.0701
 7178SOL     OW33166   0.596   1.849   7.943 -0.0844  0.0048  0.5686
 7178SOL    HW133167   0.515   1.866   7.992 -1.6036 -3.8608 -0.6027
 7178SOL    HW233168   0.604   1.934   7.900  1.0038  0.3262  1.4032
 7179SOL     OW33169   0.047   2.065   4.400 -0.2625 -0.3333 -0.1560
 7179SOL    HW133170   0.008   2.122   4.466  0.7654  0.0842  0.1074
 7179SOL    HW233171   0.064   1.988   4.455  2.4562  0.5863  0.3293
 7180SOL     OW33172   0.899   3.565   0.738  0.0217  0.3034  0.7669
 7180SOL    HW133173   0.970   3.502   0.723 -0.7669  0.3395 -3.0058
 7180SOL    HW233174   0.847   3.516   0.801 -0.6568 -2.1830 -1.7046
 7181SOL     OW33175   0.076   2.230  16.710 -0.0706  0.1712  0.2918
 7181SOL    HW133176   0.123   2.216  16.628 -0.0852 -0.7114  0.4299
 7181SOL    HW233177   0.009   2.163  16.698  1.2917 -0.7954 -1.8755
 7182SOL     OW33178   3.992   3.343   4.408 -0.4286  0.5698 -0.5515
 7182SOL    HW133179   4.066   3.404   4.409  0.4631 -0.5230 -0.4225
 7182SOL    HW233180   3.926   3.398   4.366  0.6149  1.8654 -0.5182
 7183SOL     OW33181   4.276   3.297   5.274  0.2491 -0.0163  0.4009
 7183SOL    HW133182   4.267   3.292   5.369  1.6097 -2.2075  0.3995
 7183SOL    HW233183   4.222   3.222   5.249  2.1334 -1.4632  0.7119
 7184SOL     OW33184   4.044   1.178   4.742 -0.1894  0.0823 -0.1849
 7184SOL    HW133185   4.127   1.171   4.788  0.5877 -0.8292 -1.7113
 7184SOL    HW233186   3.982   1.214   4.805 -0.1249  0.8168 -0.5409
 7185SOL     OW33187   2.055   0.166   2.496 -0.0171 -0.2925  0.0389
 7185SOL    HW133188   2.079   0.160   2.589  0.0702  1.6751  0.1315
 7185SOL    HW233189   1.992   0.093   2.500 -1.2456  0.7046 -1.0543
 7186SOL     OW33190   0.446   2.435  12.874 -0.2468 -0.2300 -0.1768
 7186SOL    HW133191   0.409   2.509  12.826  1.8945  1.8262  1.3215
 7186SOL    HW233192   0.414   2.364  12.820 -1.5297  1.7764 -2.0569
 7187SOL     OW33193   2.221   2.709   2.211 -0.2478  0.2434  0.5188
 7187SOL    HW133194   2.127   2.709   2.228 -0.1608 -1.4509  0.9783
 7187SOL    HW233195   2.250   2.762   2.285  0.3753  1.9698 -0.9565
 7188SOL     OW33196   2.146   3.546   7.423  0.3522  0.4329 -0.0612
 7188SOL    HW133197   2.226   3.564   7.473  1.8907 -1.0022 -2.0331
 7188SOL    HW233198   2.175   3.576   7.337 -2.3852 -0.2911 -1.2236
 7189SOL     OW33199   0.091   3.290  12.423 -0.2047  0.3601  0.2557
 7189SOL    HW133200   0.089   3.365  12.482  1.7833 -1.0949  2.1958
 7189SOL    HW233201   0.114   3.215  12.478  0.0884  1.4682  1.6691
 7190SOL     OW33202   0.730   0.315   7.221 -0.4186 -0.1315  0.2358
 7190SOL    HW133203   0.788   0.246   7.253 -1.1879 -0.5501  0.7038
 7190SOL    HW233204   0.688   0.353   7.297 -0.4483  0.7025 -0.1908
 7191SOL     OW33205   4.328   0.625   6.364  0.2562 -0.2622  0.1085
 7191SOL    HW133206   4.363   0.557   6.307 -1.4624 -0.7691 -0.3495
 7191SOL    HW233207   4.366   0.603   6.449 -0.1041  0.5787  0.4909
 7192SOL     OW33208   1.342   4.315   3.001 -0.5799 -0.2079  0.0094
 7192SOL    HW133209   1.398   4.255   3.051 -1.3593 -1.6501 -0.8242
 7192SOL    HW233210   1.335   4.273   2.915  2.5610 -1.5647  0.3807
 7193SOL     OW33211   3.469   0.296   8.416  0.8029 -0.2688  0.1390
 7193SOL    HW133212   3.556   0.314   8.452  1.0653 -2.1256  0.4676
 7193SOL    HW233213   3.469   0.202   8.399 -2.7937  0.0095 -1.3476
 7194SOL     OW33214   3.855   0.825   3.503  0.0862  0.6033 -0.4622
 7194SOL    HW133215   3.937   0.784   3.532 -2.2555 -3.8499 -0.0442
 7194SOL    HW233216   3.862   0.907   3.552  0.8332 -1.2177  2.4721
 7195SOL     OW33217   1.159   2.257   5.409 -0.2438  0.1203 -0.0812
 7195SOL    HW133218   1.243   2.300   5.428 -0.4757 -0.3137  1.8415
 7195SOL    HW233219   1.180   2.164   5.397 -0.6467 -0.2901  2.5309
 7196SOL     OW33220   0.992   4.016   2.443 -0.6649  0.0003 -0.1581
 7196SOL    HW133221   0.911   3.997   2.491 -0.2433  0.9062  0.9189
 7196SOL    HW233222   0.998   3.938   2.388  0.7466  0.5500 -0.7853
 7197SOL     OW33223   2.988   0.746   8.842  0.5426  0.6213 -0.0549
 7197SOL    HW133224   3.083   0.739   8.831  0.4079  0.8237 -1.3875
 7197SOL    HW233225   2.975   0.830   8.797 -0.1883  2.1120  2.9131
 7198SOL     OW33226   1.674   3.003  11.773  0.4980  0.5626 -0.7806
 7198SOL    HW133227   1.672   3.098  11.786 -1.2693  0.2419  1.1880
 7198SOL    HW233228   1.739   2.973  11.709  0.3856 -1.5822  0.0947
 7199SOL     OW33229   4.618   2.869   5.459  0.3715  0.1167 -0.3622
 7199SOL    HW133230   4.617   2.803   5.389  2.1357 -1.0113  0.6830
 7199SOL    HW233231   4.535   2.847   5.500  0.2852  2.4021  0.6937
 7200SOL     OW33232   0.169   3.529   4.277 -0.5669 -0.1906 -0.3891
 7200SOL    HW133233   0.201   3.472   4.347  0.4392  0.1280 -0.5908
 7200SOL    HW233234   0.249   3.539   4.225 -1.2770  1.7501 -1.1014
 7201SOL     OW33235   3.647   1.131   0.058  0.0721 -0.5943  0.1075
 7201SOL    HW133236   3.613   1.126  17.701  1.6048 -1.9930 -0.3938
 7201SOL    HW233237   3.736   1.154   0.032  0.3473 -2.5447 -0.6374
 7202SOL     OW33238   3.441   4.199  14.283  0.1681 -1.1047 -0.2686
 7202SOL    HW133239   3.481   4.241  14.359  1.6728  0.8028 -2.1049
 7202SOL    HW233240   3.369   4.261  14.270  0.6278 -0.2586  1.1879
 7203SOL     OW33241   1.321   3.675  14.623 -0.5406 -0.0367  0.2452
 7203SOL    HW133242   1.328   3.606  14.689  0.0215  1.2895  1.5919
 7203SOL    HW233243   1.315   3.760  14.667  1.3549  0.5542 -0.6289
 7204SOL     OW33244   3.197   4.677   3.059 -0.4256  0.4535  0.3901
 7204SOL    HW133245   3.188   4.604   3.120  0.0993 -0.2748 -0.4214
 7204SOL    HW233246   3.256   4.731   3.113  2.0804 -1.5706 -0.3327
 7205SOL     OW33247   1.651   3.413   5.039  0.2446 -0.2723  0.0677
 7205SOL    HW133248   1.744   3.413   5.016 -0.4207 -0.4857 -2.6386
 7205SOL    HW233249   1.671   3.422   5.132  1.0092  2.9880 -0.4118
 7206SOL     OW33250   0.995   4.567  12.436 -0.2516 -0.4021  0.4972
 7206SOL    HW133251   0.916   4.515  12.451 -1.0866  0.7051  0.0417
 7206SOL    HW233252   0.965   4.613  12.357 -0.2185  0.8672  1.2178
 7207SOL     OW33253   4.717   0.336   8.079  0.9547 -0.6071  0.0697
 7207SOL    HW133254   4.689   0.412   8.028  0.6007 -1.1469 -0.5469
 7207SOL    HW233255   0.073   0.364   8.100  0.0206  1.4814  1.1976
 7208SOL     OW33256   2.133   4.054   4.417  0.5166  0.2708 -0.4246
 7208SOL    HW133257   2.040   4.037   4.430  0.5363  0.9316  0.5889
 7208SOL    HW233258   2.165   3.964   4.424 -0.0009  0.0330 -1.0856
 7209SOL     OW33259   0.644   0.807   3.040 -0.9873 -0.3914  0.2545
 7209SOL    HW133260   0.671   0.735   3.097 -0.2907 -0.5212 -0.2370
 7209SOL    HW233261   0.732   0.824   3.006 -0.7127 -1.7644  0.2753
 7210SOL     OW33262   3.211   3.502   4.464 -0.0578 -0.1441 -0.3084
 7210SOL    HW133263   3.181   3.575   4.518 -1.4116 -1.3410  0.5597
 7210SOL    HW233264   3.179   3.429   4.517 -1.7225 -0.5967 -1.9408
 7211SOL     OW33265   2.967   1.962   4.551  0.1120 -0.4948  0.3962
 7211SOL    HW133266   2.877   1.993   4.536  0.9813  2.1167  0.5133
 7211SOL    HW233267   2.980   1.979   4.644  0.4239 -1.3222  0.5022
 7212SOL     OW33268   1.548   0.315   6.871  0.1613 -1.0604  0.1849
 7212SOL    HW133269   1.509   0.237   6.909 -0.4908 -1.3132 -1.0113
 7212SOL    HW233270   1.541   0.304   6.776  2.6140 -0.6567 -0.0516
 7213SOL     OW33271   0.231   2.184  11.439 -0.1269  0.0554 -0.9824
 7213SOL    HW133272   0.197   2.098  11.415 -1.5972  0.1542  0.7606
 7213SOL    HW233273   0.224   2.188  11.534 -1.9655 -0.7310 -1.0937
 7214SOL     OW33274   3.237   4.636   0.933 -0.2431  0.3448  0.1844
 7214SOL    HW133275   3.170   4.704   0.936 -0.4052  0.2666 -1.5523
 7214SOL    HW233276   3.255   4.617   1.025 -0.4394 -1.5005 -0.1524
 7215SOL     OW33277   0.030   1.139  12.316  0.1388  0.3585  0.3315
 7215SOL    HW133278   4.731   1.076  12.380 -1.2746  1.6884  0.9096
 7215SOL    HW233279   0.010   1.091  12.235  0.9736  2.1638 -0.9508
 7216SOL     OW33280   3.935   1.148   1.770 -0.0390 -0.9737  0.8137
 7216SOL    HW133281   4.005   1.195   1.726 -1.9771  2.4553  1.3474
 7216SOL    HW233282   3.880   1.130   1.694  0.6412  1.7138 -0.2841
 7217SOL     OW33283   3.180   2.188   2.897  0.9399 -0.6184 -0.0464
 7217SOL    HW133284   3.266   2.228   2.884  0.6196 -0.2516 -1.0228
 7217SOL    HW233285   3.173   2.151   2.809  0.0971  0.0528 -0.2571
 7218SOL     OW33286   3.473   2.300   5.823 -0.6108  0.1847  0.1295
 7218SOL    HW133287   3.531   2.311   5.898 -1.1204  0.5449  0.4745
 7218SOL    HW233288   3.420   2.377   5.843  0.9465  1.0670  0.8082
 7219SOL     OW33289   2.475   0.792  11.688  0.1468 -0.0191 -0.0252
 7219SOL    HW133290   2.468   0.879  11.648 -0.2682 -0.4453 -0.8861
 7219SOL    HW233291   2.432   0.810  11.771  1.1303 -0.4892  0.5820
 7220SOL     OW33292   0.774   1.201   6.008  0.6151 -0.1930 -0.3134
 7220SOL    HW133293   0.766   1.174   5.916 -1.3764 -1.2463  0.1571
 7220SOL    HW233294   0.814   1.288   6.007  0.5674 -0.1661  0.3240
 7221SOL     OW33295   2.554   4.686   4.699  0.2489 -0.1019 -0.5258
 7221SOL    HW133296   2.535   4.645   4.784 -0.5119 -2.7522 -1.9587
 7221SOL    HW233297   2.633   4.639   4.674 -0.2522 -0.2298 -1.8928
 7222SOL     OW33298   1.796   2.718  11.477 -0.3892 -0.4545 -0.0525
 7222SOL    HW133299   1.868   2.661  11.451 -0.2226 -0.8643  1.2980
 7222SOL    HW233300   1.841   2.782  11.533 -2.2218  1.6249 -0.9609
 7223SOL     OW33301   0.740   3.415   0.503 -0.2683 -0.3300 -0.1340
 7223SOL    HW133302   0.761   3.467   0.580 -0.6676  2.9821 -2.2945
 7223SOL    HW233303   0.792   3.336   0.520 -0.3869 -0.5768 -0.8947
 7224SOL     OW33304   2.365   0.063   2.625  0.0973  0.8232  0.5999
 7224SOL    HW133305   2.401   4.727   2.679  1.5209  1.5952  0.6296
 7224SOL    HW233306   2.270   0.051   2.633  0.3100 -1.8739 -1.1245
 7225SOL     OW33307   2.896   1.837  10.575  0.2607  0.0402  0.2373
 7225SOL    HW133308   2.984   1.861  10.604 -0.7774  1.6349  2.0516
 7225SOL    HW233309   2.913   1.766  10.512  1.2630 -0.5796  1.2081
 7226SOL     OW33310   2.930   3.619   5.607  0.0191  0.3884 -0.0378
 7226SOL    HW133311   2.900   3.629   5.698  2.3325  0.5924  0.6868
 7226SOL    HW233312   2.925   3.525   5.590 -2.3542  1.0794 -3.1518
 7227SOL     OW33313   3.219   3.426   9.580  0.2406 -0.3888 -0.9738
 7227SOL    HW133314   3.279   3.352   9.569 -0.9389 -1.5868  0.6561
 7227SOL    HW233315   3.282   3.494   9.603  0.9296 -1.1817 -0.5220
 7228SOL     OW33316   0.128   1.314   9.489  0.6034  0.1390 -0.3541
 7228SOL    HW133317   0.053   1.360   9.449  1.8403  1.2875 -1.3503
 7228SOL    HW233318   0.185   1.388   9.507  0.3807 -0.0625  1.1495
 7229SOL     OW33319   2.713   3.625   6.233  0.0284  0.7207  0.3651
 7229SOL    HW133320   2.658   3.602   6.159  0.0235 -0.9842  0.8957
 7229SOL    HW233321   2.653   3.610   6.306  1.7711 -1.5060  1.3707
 7230SOL     OW33322   2.322   3.635   5.368 -0.2455 -0.5033  0.2070
 7230SOL    HW133323   2.253   3.691   5.334  0.1440  0.0632  0.3435
 7230SOL    HW233324   2.303   3.543   5.354 -1.3671 -0.3427  0.7261
 7231SOL     OW33325   2.663   0.550   4.001 -0.5601  0.5253 -0.4314
 7231SOL    HW133326   2.607   0.591   4.066  0.2709  0.7621  0.1403
 7231SOL    HW233327   2.733   0.615   3.993  0.9778 -1.2373 -1.1709
 7232SOL     OW33328   1.894   1.060   8.029  0.4887  0.1457 -0.0017
 7232SOL    HW133329   1.935   0.984   8.071 -0.1419  0.0825  0.4975
 7232SOL    HW233330   1.956   1.127   8.058 -1.2443  2.0420 -0.6757
 7233SOL     OW33331   1.099   3.638   3.388  0.7305  0.0096 -0.0363
 7233SOL    HW133332   1.029   3.597   3.439 -1.2408  1.5929 -1.4767
 7233SOL    HW233333   1.097   3.723   3.431  0.6905  0.1046 -0.2272
 7234SOL     OW33334   2.836   1.636   6.098 -0.8905 -0.2594  0.1802
 7234SOL    HW133335   2.832   1.721   6.141 -0.3546 -0.6846  1.0750
 7234SOL    HW233336   2.862   1.583   6.174  0.8401 -0.7645 -0.7610
 7235SOL     OW33337   2.907   3.141   4.576 -0.1673  0.4064  0.3627
 7235SOL    HW133338   2.921   3.140   4.481 -0.0213 -0.9083  0.3894
 7235SOL    HW233339   2.854   3.061   4.582  0.1850  0.1530  0.1088
 7236SOL     OW33340   2.292   4.042  10.677  0.3345 -0.1399  0.0931
 7236SOL    HW133341   2.323   3.986  10.749 -0.0712  0.6516  0.8903
 7236SOL    HW233342   2.203   4.063  10.705  0.8305  0.9071  0.9045
 7237SOL     OW33343   4.623   1.138   6.151 -0.0978 -0.4022 -0.6549
 7237SOL    HW133344   4.642   1.217   6.202  1.4122 -0.0390 -1.7905
 7237SOL    HW233345   4.685   1.156   6.080  0.3683  0.0546 -0.1340
 7238SOL     OW33346   3.343   2.074  15.623  0.1963  0.1445  0.1345
 7238SOL    HW133347   3.358   2.062  15.717 -0.8960  2.8196  0.6734
 7238SOL    HW233348   3.363   2.166  15.609 -1.3130  0.6905  1.4343
 7239SOL     OW33349   3.734   1.996  17.492  0.0738 -0.1847 -0.3621
 7239SOL    HW133350   3.730   1.979  17.586  2.3875 -4.3266 -0.9920
 7239SOL    HW233351   3.640   1.993  17.473  0.1908  3.4374 -1.4434
 7240SOL     OW33352   3.726   2.925   4.262  0.5355 -0.0081  0.2523
 7240SOL    HW133353   3.689   3.013   4.269  2.9488  0.9286  1.0944
 7240SOL    HW233354   3.773   2.919   4.345  0.3445  0.2345  0.3818
 7241SOL     OW33355   3.743   1.102   8.672 -0.2941  0.1798 -0.0852
 7241SOL    HW133356   3.740   1.096   8.767 -0.4624  0.3872 -0.0768
 7241SOL    HW233357   3.788   1.186   8.663  0.9182 -0.6167 -1.4028
 7242SOL     OW33358   0.691   3.557   5.959 -0.2921  0.0766 -0.1448
 7242SOL    HW133359   0.666   3.564   5.866  1.3423 -0.4935 -0.6332
 7242SOL    HW233360   0.761   3.623   5.961 -1.0333  0.7015  3.6739
 7243SOL     OW33361   1.990   2.925   5.570  0.1035  0.1066  0.7682
 7243SOL    HW133362   1.984   2.950   5.663  3.6992  0.8456  0.8177
 7243SOL    HW233363   1.937   2.846   5.564  0.9061 -0.3145 -0.6060
 7244SOL     OW33364   0.910   2.907   6.038  0.3325 -0.0782 -0.3189
 7244SOL    HW133365   0.933   2.982   5.983 -0.7362 -0.2984 -1.0495
 7244SOL    HW233366   0.860   2.949   6.107  1.8537  3.1485 -1.1852
 7245SOL     OW33367   4.262   1.328  13.095  0.0977  0.2723 -0.0075
 7245SOL    HW133368   4.256   1.247  13.045  0.6860  2.3128 -3.3409
 7245SOL    HW233369   4.289   1.398  13.036 -1.6972  1.2967  0.4076
 7246SOL     OW33370   3.550   3.542   9.401  0.3551  0.3508 -0.2070
 7246SOL    HW133371   3.601   3.599   9.460 -2.5141  2.1094  0.5603
 7246SOL    HW233372   3.547   3.588   9.317  3.2147  1.2547  0.1675
 7247SOL     OW33373   1.178   0.813  11.906  0.0985 -0.1805 -0.4125
 7247SOL    HW133374   1.255   0.855  11.868  0.1453  0.5446  0.4917
 7247SOL    HW233375   1.124   0.889  11.928 -0.8674 -1.1398  0.5491
 7248SOL     OW33376   2.389   2.559   5.751  0.5588  0.2002 -0.4786
 7248SOL    HW133377   2.318   2.552   5.815  0.8097  1.3273 -0.0689
 7248SOL    HW233378   2.431   2.473   5.754 -0.2751 -0.2699 -2.0313
 7249SOL     OW33379   0.283   3.510   3.610  0.1236 -0.7192 -0.5517
 7249SOL    HW133380   0.205   3.486   3.560 -0.9568 -0.6508  1.0916
 7249SOL    HW233381   0.346   3.535   3.543  0.6885  0.0002  0.2326
 7250SOL     OW33382   1.733   0.513   6.679  0.6490 -0.4152  0.1055
 7250SOL    HW133383   1.771   0.528   6.766 -1.6093 -4.3270  1.7500
 7250SOL    HW233384   1.639   0.514   6.698  0.7007 -0.6074  0.3752
 7251SOL     OW33385   0.692   3.268   7.052  0.2988 -0.9169 -0.2666
 7251SOL    HW133386   0.613   3.274   6.999  2.9310 -2.5585 -4.3700
 7251SOL    HW233387   0.727   3.354   7.026 -0.9647 -0.5091 -0.5890
 7252SOL     OW33388   0.730   0.156   1.196 -0.4635  0.0211  0.0578
 7252SOL    HW133389   0.792   0.218   1.234  0.3285 -1.5476  1.3179
 7252SOL    HW233390   0.660   0.220   1.186 -1.1863 -1.0695 -1.8977
 7253SOL     OW33391   4.107   0.103   7.388  1.0279 -0.1481 -0.4763
 7253SOL    HW133392   4.143   0.057   7.312  0.6624  0.4878 -1.0315
 7253SOL    HW233393   4.168   0.176   7.401  1.6461 -0.4126 -1.8700
 7254SOL     OW33394   3.666   0.291   1.299  0.3187  0.0355  0.6086
 7254SOL    HW133395   3.699   0.335   1.221  1.7026 -2.3524 -0.1481
 7254SOL    HW233396   3.705   0.203   1.298 -0.4892 -0.3025 -0.4953
 7255SOL     OW33397   3.598   3.074   4.001 -0.1644 -0.2181 -0.3575
 7255SOL    HW133398   3.667   3.007   3.992 -0.8420 -0.9051 -0.4227
 7255SOL    HW233399   3.608   3.124   3.920 -0.2798  1.1732  0.4884
 7256SOL     OW33400   0.155   2.198   8.236  0.0102 -0.5303 -0.3968
 7256SOL    HW133401   0.172   2.214   8.143 -1.0764  1.6006 -0.2273
 7256SOL    HW233402   0.242   2.184   8.274  0.7152 -2.2455 -2.6238
 7257SOL     OW33403   2.709   2.566   6.063  0.0393 -0.6798  0.2078
 7257SOL    HW133404   2.792   2.529   6.034  0.5695  1.6812 -1.2287
 7257SOL    HW233405   2.691   2.619   5.985 -1.4543 -0.1009  0.9324
 7258SOL     OW33406   3.578   0.297   5.483  0.2649  0.3156 -0.1174
 7258SOL    HW133407   3.493   0.338   5.497  0.6176  1.8380 -2.3599
 7258SOL    HW233408   3.634   0.362   5.440  1.6595 -0.1598  1.0126
 7259SOL     OW33409   4.181   3.449   2.198  0.3223  0.2821  0.6489
 7259SOL    HW133410   4.217   3.362   2.215 -0.9441 -0.5547 -1.0106
 7259SOL    HW233411   4.098   3.446   2.244  0.6929 -1.2220  1.2205
 7260SOL     OW33412   2.035   0.941   9.514 -0.2878 -0.1490 -0.2069
 7260SOL    HW133413   2.084   0.904   9.588 -0.4107  0.5412  0.2189
 7260SOL    HW233414   2.091   0.916   9.440 -1.0319 -2.6305  0.0772
 7261SOL     OW33415   1.913   0.054   3.059 -0.1870 -0.2215 -0.3310
 7261SOL    HW133416   1.877   0.055   2.970  0.1184 -2.0320 -0.4815
 7261SOL    HW233417   1.849   0.006   3.111  1.6132 -2.4146 -0.1383
 7262SOL     OW33418   0.122   0.294   7.173  0.2183 -0.1438  0.0721
 7262SOL    HW133419   0.123   0.206   7.211 -4.2689 -0.5134 -0.7268
 7262SOL    HW233420   0.177   0.337   7.239  2.5537 -4.3741  0.9049
 7263SOL     OW33421   1.026   2.717   7.563  0.4474  0.1257  0.0787
 7263SOL    HW133422   0.996   2.648   7.504 -1.2893 -0.1566  1.3091
 7263SOL    HW233423   1.121   2.718   7.547  1.0151 -1.8282  3.1528
 7264SOL     OW33424   2.277   1.505   7.692 -0.1944 -0.4719 -0.2817
 7264SOL    HW133425   2.302   1.468   7.607  0.2596  1.6526 -1.0587
 7264SOL    HW233426   2.185   1.479   7.693 -0.2419 -0.2972 -0.1926
 7265SOL     OW33427   1.482   1.597  16.911 -0.0234  0.7274 -0.6188
 7265SOL    HW133428   1.567   1.555  16.898 -0.6754 -1.4180  2.1640
 7265SOL    HW233429   1.497   1.647  16.991  1.0874 -1.0754  0.3134
 7266SOL     OW33430   1.331   3.964   2.222  0.3974  0.0993  0.0192
 7266SOL    HW133431   1.263   3.913   2.267 -1.2778  0.8056 -1.7439
 7266SOL    HW233432   1.314   3.944   2.130  2.0304 -0.8093 -0.0810
 7267SOL     OW33433   2.085   3.947   3.385 -0.1595  0.1298  0.1409
 7267SOL    HW133434   2.146   3.906   3.324 -0.2031  0.7781 -0.3316
 7267SOL    HW233435   2.084   4.028   3.334 -0.5450 -0.7839 -1.2964
 7268SOL     OW33436   3.085   3.163  15.463  0.2337 -0.5332 -0.0687
 7268SOL    HW133437   3.034   3.102  15.410 -0.2630  0.0340 -0.2364
 7268SOL    HW233438   3.173   3.138  15.436  1.3027  2.7699  0.4318
 7269SOL     OW33439   1.063   2.140   8.494 -0.6183 -0.3400  0.1691
 7269SOL    HW133440   1.126   2.073   8.470  1.1206  0.6473  1.9396
 7269SOL    HW233441   0.983   2.100   8.461 -0.6294 -0.3505  0.2089
 7270SOL     OW33442   1.222   3.677   2.115 -0.0012 -0.2016 -0.8088
 7270SOL    HW133443   1.295   3.705   2.060 -0.4357  2.0905 -0.2204
 7270SOL    HW233444   1.159   3.743   2.088  0.0443  0.0007 -0.4178
 7271SOL     OW33445   0.946   4.460  17.045 -0.0392  0.6224 -0.3722
 7271SOL    HW133446   0.872   4.431  17.098  0.8575  0.5813  0.8739
 7271SOL    HW233447   0.939   4.556  17.041 -0.0809  0.7137  1.8975
 7272SOL     OW33448   3.901   2.814  11.264  0.4841  0.0745 -0.1516
 7272SOL    HW133449   3.814   2.821  11.224  0.1361 -2.2512  0.2217
 7272SOL    HW233450   3.939   2.728  11.246  0.7184  0.3389 -0.9593
 7273SOL     OW33451   0.510   0.791  11.252  0.1386 -0.2630 -0.3124
 7273SOL    HW133452   0.464   0.828  11.327 -0.2697  0.0723 -0.7298
 7273SOL    HW233453   0.518   0.859  11.185 -0.8675 -1.1546 -1.3276
 7274SOL     OW33454   4.618   0.669   1.981  0.6248  0.0227  0.2458
 7274SOL    HW133455   4.599   0.752   1.937  2.0344 -0.7536 -1.8742
 7274SOL    HW233456   4.545   0.610   1.961  0.5357 -0.1781  1.1900
 7275SOL     OW33457   3.256   3.498   0.115 -0.3984 -0.1041  0.5632
 7275SOL    HW133458   3.235   3.428   0.052 -1.8331  0.6570  0.2008
 7275SOL    HW233459   3.352   3.494   0.111 -0.4099  0.7214 -0.2361
 7276SOL     OW33460   2.668   2.328   2.528 -0.3103  0.4299  0.2965
 7276SOL    HW133461   2.651   2.419   2.552 -0.1785  0.3617  0.6350
 7276SOL    HW233462   2.584   2.284   2.540  0.0757 -0.8746 -1.7348
 7277SOL     OW33463   3.011   2.502  16.752  0.1076 -0.1224  0.8433
 7277SOL    HW133464   2.985   2.592  16.771  0.5285  0.7157 -2.6178
 7277SOL    HW233465   3.016   2.460  16.838  1.8411 -2.5025 -0.4359
 7278SOL     OW33466   3.902   2.805   5.989  0.0743  0.3841 -0.6292
 7278SOL    HW133467   3.827   2.761   5.949  0.8102 -1.3261 -0.1389
 7278SOL    HW233468   3.963   2.731   5.991 -0.3089  0.0921  0.3092
 7279SOL     OW33469   2.869   4.344   0.023  0.4090  0.1365  0.2759
 7279SOL    HW133470   2.954   4.375  17.726  0.4818  0.6050  0.9822
 7279SOL    HW233471   2.863   4.372   0.114  1.2633 -0.9927  0.6846
 7280SOL     OW33472   4.195   3.260   5.788  0.4135  0.2093 -0.6820
 7280SOL    HW133473   4.202   3.266   5.883  2.3157 -1.1370 -0.7508
 7280SOL    HW233474   4.272   3.316   5.775  1.7477 -1.2676  0.8523
 7281SOL     OW33475   2.383   1.412  15.103  0.2760 -0.4148  0.4092
 7281SOL    HW133476   2.428   1.435  15.184  2.1129 -0.2195 -0.6718
 7281SOL    HW233477   2.293   1.400  15.132  0.4860 -2.6353  0.1313
 7282SOL     OW33478   0.014   2.822   4.222  0.5426 -0.1149  0.4319
 7282SOL    HW133479   4.724   2.778   4.304  3.2149 -0.4616  0.9848
 7282SOL    HW233480   4.677   2.792   4.164 -1.2005  2.2059  1.3295
 7283SOL     OW33481   2.545   1.064  12.132  0.2296  0.5046  0.1919
 7283SOL    HW133482   2.555   1.046  12.038  0.8907 -0.2602  0.4147
 7283SOL    HW233483   2.517   0.978  12.161  0.2666  0.9907  1.6451
 7284SOL     OW33484   4.189   0.513   5.799 -0.0057 -0.5449  0.0465
 7284SOL    HW133485   4.110   0.478   5.758 -1.2671  0.6938  1.4627
 7284SOL    HW233486   4.238   0.529   5.718 -0.1096  0.3406  0.1623
 7285SOL     OW33487   1.650   0.159   4.614  0.0489 -0.9495  0.0054
 7285SOL    HW133488   1.623   0.193   4.529 -2.7784  0.2282  1.3455
 7285SOL    HW233489   1.628   0.229   4.676 -1.4971 -1.3228 -0.1182
 7286SOL     OW33490   3.425   3.972  14.155 -0.0085 -0.1096  0.2319
 7286SOL    HW133491   3.454   4.049  14.204 -0.4098 -0.9892  1.8317
 7286SOL    HW233492   3.482   3.899  14.178  0.3550 -1.0533 -3.6717
 7287SOL     OW33493   2.654   2.375   8.756 -0.2917 -0.1611  0.2476
 7287SOL    HW133494   2.614   2.319   8.822  1.0245  0.7738  1.8210
 7287SOL    HW233495   2.605   2.354   8.676  1.7407 -0.2976 -0.9613
 7288SOL     OW33496   3.212   2.978   3.087 -0.0158  0.2675 -0.2462
 7288SOL    HW133497   3.186   2.975   2.995 -0.8843 -0.5271  0.0187
 7288SOL    HW233498   3.132   2.948   3.130 -0.1642  1.6868  0.4534
 7289SOL     OW33499   4.393   0.429   1.795  0.0596  0.1440 -0.3656
 7289SOL    HW133500   4.353   0.379   1.724 -0.3474 -0.6152  0.3936
 7289SOL    HW233501   4.460   0.368   1.828  2.4432  1.8608 -2.0444
 7290SOL     OW33502   0.348   1.025  10.299 -0.3831  0.1128  0.0857
 7290SOL    HW133503   0.376   1.057  10.214  0.2218 -0.2242  0.1557
 7290SOL    HW233504   0.419   1.063  10.351 -0.2882 -0.6260  0.5009
 7291SOL     OW33505   3.629   3.834   7.790 -0.2203  0.1442  0.6094
 7291SOL    HW133506   3.582   3.869   7.866 -0.9126 -0.5107  0.4805
 7291SOL    HW233507   3.676   3.757   7.823 -1.1082  0.4466  2.5919
 7292SOL     OW33508   0.988   1.066   1.151 -0.3740 -0.3940 -0.2548
 7292SOL    HW133509   1.074   1.030   1.172 -0.5396 -1.2935 -1.1188
 7292SOL    HW233510   0.950   1.060   1.239 -1.1212  1.8940 -0.4022
 7293SOL     OW33511   1.297   3.259  16.782 -0.2625 -0.0770 -0.0071
 7293SOL    HW133512   1.268   3.244  16.692 -0.8043  2.6240 -0.2864
 7293SOL    HW233513   1.235   3.325  16.813  0.4190 -0.1812  1.5800
 7294SOL     OW33514   1.650   1.842  12.710 -0.0587  0.3051 -0.2739
 7294SOL    HW133515   1.664   1.879  12.623 -2.0171  0.7910 -0.3976
 7294SOL    HW233516   1.733   1.867  12.750 -0.0181  0.5839 -0.5380
 7295SOL     OW33517   2.971   2.020   1.675 -0.1846  0.0305 -0.2081
 7295SOL    HW133518   3.012   2.024   1.762  1.1144  0.8223 -0.8700
 7295SOL    HW233519   2.963   2.111   1.649  2.1999  0.0729 -0.7997
 7296SOL     OW33520   4.400   4.533   4.825  0.5217  0.2957  0.1499
 7296SOL    HW133521   4.390   4.438   4.830  1.5797  0.0916 -1.3958
 7296SOL    HW233522   4.424   4.546   4.733 -2.0526 -2.4802 -0.9130
 7297SOL     OW33523   3.792   1.133  10.668  0.4679 -0.2041  0.3618
 7297SOL    HW133524   3.725   1.194  10.635  1.3138  0.6632  0.2661
 7297SOL    HW233525   3.761   1.116  10.757 -1.7709 -2.8437 -0.9101
 7298SOL     OW33526   2.832   0.337   2.287  0.3775  0.3047 -0.1840
 7298SOL    HW133527   2.761   0.401   2.281 -0.7855 -1.0333 -0.7928
 7298SOL    HW233528   2.900   0.371   2.229  2.4062 -1.5383  1.1304
 7299SOL     OW33529   0.455   4.088  13.344 -0.1043 -0.1066  0.3851
 7299SOL    HW133530   0.366   4.058  13.362 -0.0839 -0.8880 -0.8100
 7299SOL    HW233531   0.496   4.025  13.284  1.2317  0.3180  0.8734
 7300SOL     OW33532   0.338   1.469  15.089  0.0494 -0.4366  0.0817
 7300SOL    HW133533   0.326   1.378  15.117  0.0789 -0.7680 -1.0150
 7300SOL    HW233534   0.266   1.470  15.026  0.7493 -1.7429 -0.7311
 7301SOL     OW33535   1.624   0.061   5.407  0.0120  0.1857  0.0002
 7301SOL    HW133536   1.587   4.706   5.404 -1.7264  0.9773 -2.2610
 7301SOL    HW233537   1.607   0.097   5.494 -0.6769 -0.1114 -0.0059
 7302SOL     OW33538   2.873   4.476  13.860 -0.4277  0.0615 -0.0488
 7302SOL    HW133539   2.899   4.504  13.948 -0.8866  0.3055  0.0077
 7302SOL    HW233540   2.854   4.384  13.878  0.3962 -0.2725 -0.9153
 7303SOL     OW33541   3.131   1.132   5.864  0.0008  0.4894  0.2173
 7303SOL    HW133542   3.052   1.150   5.814  0.1241  2.6151  0.8066
 7303SOL    HW233543   3.096   1.085   5.939 -1.2441 -0.0773 -0.7234
 7304SOL     OW33544   3.452   4.158   6.211  0.0624  0.2961 -0.0270
 7304SOL    HW133545   3.402   4.222   6.161  0.4434  1.9753  1.7274
 7304SOL    HW233546   3.411   4.161   6.297 -1.5577 -1.1507 -0.7417
 7305SOL     OW33547   0.762   1.345   1.649 -0.0405  0.4156  0.4796
 7305SOL    HW133548   0.748   1.348   1.744  1.6343  0.1408  0.7367
 7305SOL    HW233549   0.776   1.437   1.629  0.8949  0.6462  2.2475
 7306SOL     OW33550   1.070   0.223   3.928  0.0007 -0.7246  0.3272
 7306SOL    HW133551   1.151   0.193   3.969  0.8551  0.4884 -0.4723
 7306SOL    HW233552   1.063   0.150   3.866  0.5343  0.3837 -1.0652
 7307SOL     OW33553   2.934   1.615  10.391  0.1045 -0.0285 -0.1437
 7307SOL    HW133554   2.966   1.527  10.374 -0.1026  0.0625 -1.0223
 7307SOL    HW233555   2.841   1.590  10.385  0.2235 -0.3371 -0.7258
 7308SOL     OW33556   2.603   2.827  17.216 -0.4235  0.4806  0.0058
 7308SOL    HW133557   2.566   2.739  17.207  2.8770 -0.8097 -0.9824
 7308SOL    HW233558   2.683   2.813  17.268 -0.8270 -1.5002  0.1092
 7309SOL     OW33559   0.041   2.769   3.127  0.0604  0.3141  0.2754
 7309SOL    HW133560   0.047   2.851   3.077  0.4141 -0.1244 -0.4002
 7309SOL    HW233561   0.133   2.744   3.118 -0.2782 -1.1529  1.0273
 7310SOL     OW33562   3.724   1.851   7.810 -0.6099 -0.1681  0.2919
 7310SOL    HW133563   3.630   1.838   7.816 -0.3980 -1.8516 -0.1924
 7310SOL    HW233564   3.762   1.765   7.793  0.3358  0.4255 -0.6198
 7311SOL     OW33565   1.089   4.306   3.800  0.6206 -0.0669  0.3650
 7311SOL    HW133566   1.011   4.250   3.793  0.6231 -0.0800  0.4416
 7311SOL    HW233567   1.130   4.268   3.878  0.8529  0.5734  0.5580
 7312SOL     OW33568   3.733   2.002   7.230 -0.1875 -0.1939  0.0911
 7312SOL    HW133569   3.728   2.093   7.202  2.1118  0.0373  0.4575
 7312SOL    HW233570   3.644   1.977   7.204 -1.4960  4.1186  0.5123
 7313SOL     OW33571   2.517   0.638  17.118  0.1787 -0.8834 -0.1693
 7313SOL    HW133572   2.536   0.547  17.141  0.7369 -0.8244 -0.3884
 7313SOL    HW233573   2.532   0.640  17.023 -0.9198  1.7650 -0.2780
 7314SOL     OW33574   3.943   3.323   3.068 -0.1347  0.0936  0.0512
 7314SOL    HW133575   3.914   3.412   3.047 -1.0471 -0.4248 -0.9282
 7314SOL    HW233576   4.002   3.333   3.143 -1.0649 -4.3565  1.4097
 7315SOL     OW33577   3.661   1.398  15.292  0.4024  0.4239 -0.1260
 7315SOL    HW133578   3.654   1.490  15.318 -1.1137  0.5705 -1.0308
 7315SOL    HW233579   3.594   1.408  15.224 -0.1592 -0.8665  0.2488
 7316SOL     OW33580   1.057   0.418  11.636 -0.1569 -0.2926 -0.1345
 7316SOL    HW133581   1.139   0.369  11.638 -0.7738 -1.2328  2.3975
 7316SOL    HW233582   1.052   0.475  11.712 -2.6064 -1.1479  0.3358
 7317SOL     OW33583   4.722   3.112   1.383  0.2852  0.0331 -0.4095
 7317SOL    HW133584   4.669   3.159   1.318 -1.0081 -0.9597 -0.0571
 7317SOL    HW233585   4.654   3.106   1.450  1.6100 -1.2513  0.8151
 7318SOL     OW33586   0.416   1.414   7.640  0.6691 -0.2488  0.5374
 7318SOL    HW133587   0.490   1.377   7.592 -0.4366 -0.9653 -0.6292
 7318SOL    HW233588   0.442   1.502   7.664  2.4253 -1.0379  1.5164
 7319SOL     OW33589   1.447   4.336   8.126  0.3176 -0.5972 -0.1172
 7319SOL    HW133590   1.465   4.377   8.041 -0.1088 -0.7338 -0.2741
 7319SOL    HW233591   1.370   4.281   8.114 -0.1667  0.4886 -1.9776
 7320SOL     OW33592   1.649   2.891  12.667  0.0639  0.2338 -0.5374
 7320SOL    HW133593   1.647   2.921  12.758 -2.0206 -1.0783 -0.1709
 7320SOL    HW233594   1.594   2.813  12.668  0.0134  0.2606 -1.2401
 7321SOL     OW33595   1.998   0.128  15.192  0.7247  0.3401 -0.4150
 7321SOL    HW133596   1.905   0.145  15.202  0.4530 -0.9977 -0.6499
 7321SOL    HW233597   2.004   0.070  15.117  0.5199 -0.4209  0.1578
 7322SOL     OW33598   1.216   3.879  12.587  0.3729  0.0664  0.2503
 7322SOL    HW133599   1.166   3.921  12.517 -1.1149 -0.3194  1.0733
 7322SOL    HW233600   1.268   3.815  12.537  0.1535 -2.2363  2.9300
 7323SOL     OW33601   1.368   2.400   3.473  0.2383  0.0999 -0.5746
 7323SOL    HW133602   1.371   2.326   3.534 -1.7831  1.1921  0.8299
 7323SOL    HW233603   1.434   2.455   3.515  0.6560  0.8661 -2.2427
 7324SOL     OW33604   2.568   2.660   8.126  0.1792  0.2929 -0.1630
 7324SOL    HW133605   2.590   2.753   8.132  1.1355  0.0458  0.2078
 7324SOL    HW233606   2.551   2.635   8.217  1.6107  1.6931  0.4782
 7325SOL     OW33607   1.240   1.415   2.002 -0.2732 -0.3596  0.7113
 7325SOL    HW133608   1.189   1.425   2.082  2.1666 -0.7959  2.3265
 7325SOL    HW233609   1.175   1.375   1.943 -0.1562  0.2361  0.1821
 7326SOL     OW33610   2.939   3.863   9.658  0.4541  0.1230  0.1018
 7326SOL    HW133611   2.975   3.803   9.724  0.0870 -0.2537 -0.0381
 7326SOL    HW233612   2.995   3.833   9.586 -0.2771 -2.0314  0.4121
 7327SOL     OW33613   4.668   1.200  11.188  0.4116 -0.4361 -0.1531
 7327SOL    HW133614   4.639   1.251  11.264 -0.3204 -1.1218  0.0262
 7327SOL    HW233615   0.026   1.221  11.168  0.3886 -0.7129 -0.5382
 7328SOL     OW33616   3.498   3.472  17.711 -0.5484 -0.3552  0.5540
 7328SOL    HW133617   3.432   3.456  17.644  0.0682  0.6558 -0.3008
 7328SOL    HW233618   3.556   3.400  17.683 -0.3760  0.3922 -1.0378
 7329SOL     OW33619   3.867   1.796   6.886  0.1508 -0.2825 -1.0764
 7329SOL    HW133620   3.851   1.725   6.824 -1.1574  0.2560 -1.3482
 7329SOL    HW233621   3.961   1.811   6.882  0.0046  0.6323 -1.0591
 7330SOL     OW33622   0.968   4.499  10.481  0.2969 -0.2336  0.5258
 7330SOL    HW133623   0.999   4.468  10.565 -2.1704  0.4285  1.6774
 7330SOL    HW233624   0.962   4.593  10.502 -1.1723 -0.3835  0.7896
 7331SOL     OW33625   2.907   2.952   9.098  0.2986  0.4165 -0.8757
 7331SOL    HW133626   2.942   2.889   9.160 -1.5864 -2.5688 -2.8249
 7331SOL    HW233627   2.881   3.025   9.153 -0.8078  0.4126 -1.3954
 7332SOL     OW33628   0.274   3.373  16.492  0.5049  0.3187 -0.0651
 7332SOL    HW133629   0.323   3.375  16.410  1.2826  0.8361  0.4055
 7332SOL    HW233630   0.224   3.454  16.480 -0.6220 -0.4014 -0.2485
 7333SOL     OW33631   3.293   4.595   3.815 -0.1893  0.1312  0.0991
 7333SOL    HW133632   3.215   4.613   3.762  0.0071  0.9333  0.0838
 7333SOL    HW233633   3.278   4.656   3.887 -1.8113  1.3710 -1.2871
 7334SOL     OW33634   1.738   2.929   9.321 -0.0161 -0.2311 -0.1314
 7334SOL    HW133635   1.672   2.860   9.311  0.3538 -0.4613 -0.9644
 7334SOL    HW233636   1.682   2.978   9.381  0.0340 -4.7507  3.6046
 7335SOL     OW33637   2.272   2.619   6.905 -0.1329  0.0389 -0.1718
 7335SOL    HW133638   2.322   2.677   6.848  0.8766  0.3373  1.0141
 7335SOL    HW233639   2.210   2.681   6.942 -1.2856 -1.2661  0.1016
 7336SOL     OW33640   2.105   3.788   6.879 -0.2159 -0.0868  0.2864
 7336SOL    HW133641   2.197   3.800   6.858 -0.6112  0.3696 -1.2692
 7336SOL    HW233642   2.112   3.695   6.899 -0.9223  0.0909  1.3801
 7337SOL     OW33643   4.415   2.185   6.014  0.0531 -0.5880  0.0224
 7337SOL    HW133644   4.497   2.152   6.051 -1.1956 -2.5405  1.0218
 7337SOL    HW233645   4.354   2.133   6.066  0.4849 -1.4632 -0.3457
 7338SOL     OW33646   4.539   0.704  15.746  0.2518 -0.3599 -0.1630
 7338SOL    HW133647   4.530   0.627  15.802  0.0807 -1.9845 -2.4606
 7338SOL    HW233648   4.632   0.717  15.764  0.9105 -0.8447 -3.3102
 7339SOL     OW33649   2.066   4.412   6.248 -0.2136 -0.5851 -0.1120
 7339SOL    HW133650   2.146   4.443   6.205 -0.0952 -0.2107  0.3758
 7339SOL    HW233651   2.033   4.498   6.276 -2.1564 -1.4377  0.2301
 7340SOL     OW33652   0.123   1.975   6.774  0.1879  0.1686  0.0293
 7340SOL    HW133653   0.066   1.928   6.836  2.3170 -5.1461 -2.0373
 7340SOL    HW233654   0.067   2.040   6.733  0.3961 -1.1409 -2.2996
 7341SOL     OW33655   0.559   2.321  14.628  0.1245 -0.4961 -0.4190
 7341SOL    HW133656   0.573   2.297  14.719 -0.1331 -1.1791 -0.5612
 7341SOL    HW233657   0.641   2.292  14.589 -0.0997 -0.6415 -0.7856
 7342SOL     OW33658   3.447   4.648   8.047 -0.3280 -0.5113  0.4572
 7342SOL    HW133659   3.436   4.650   8.142  2.0335  0.9172  0.6983
 7342SOL    HW233660   3.526   4.595   8.045  1.1593  1.7370 -0.7976
 7343SOL     OW33661   1.264   2.248  17.539 -0.0848  0.0244 -0.0740
 7343SOL    HW133662   1.318   2.230  17.462  0.9765  2.1416  0.1770
 7343SOL    HW233663   1.318   2.298  17.600 -1.9965  0.3523  1.3617
 7344SOL     OW33664   3.736   0.764   7.885  0.4407 -0.1678 -0.1214
 7344SOL    HW133665   3.735   0.832   7.818  1.0468  1.3437  1.4263
 7344SOL    HW233666   3.706   0.696   7.824 -0.7699 -0.0788  0.3789
 7345SOL     OW33667   1.331   1.238   1.412 -0.6081 -0.0371  0.1546
 7345SOL    HW133668   1.334   1.222   1.318 -0.9154  1.4683 -0.1063
 7345SOL    HW233669   1.250   1.288   1.416 -0.5737  0.1163 -1.3390
 7346SOL     OW33670   1.267   1.193   5.254 -0.1731 -0.1705 -0.3975
 7346SOL    HW133671   1.341   1.240   5.213  0.1989 -0.8323 -0.4873
 7346SOL    HW233672   1.321   1.126   5.296  0.5194  0.4960 -0.2246
 7347SOL     OW33673   2.866   1.525   3.226  0.1483  0.6225  0.6776
 7347SOL    HW133674   2.788   1.516   3.281  0.6876  1.0840  1.5120
 7347SOL    HW233675   2.908   1.439   3.229  0.6035  0.8200  0.1281
 7348SOL     OW33676   2.229   2.495   5.986 -0.5762 -0.9490  0.2984
 7348SOL    HW133677   2.211   2.482   6.079  0.3170 -2.6824  0.2252
 7348SOL    HW233678   2.301   2.432   5.979 -0.1419 -0.6502  2.2065
 7349SOL     OW33679   3.301   1.879   4.382 -0.1652  0.5356 -0.1167
 7349SOL    HW133680   3.252   1.840   4.454  1.4021 -2.8281 -0.8929
 7349SOL    HW233681   3.248   1.869   4.303 -0.9246  0.3589  0.4096
 7350SOL     OW33682   1.615   1.195   8.276  0.4544  0.0397  0.3288
 7350SOL    HW133683   1.694   1.150   8.308 -0.2038 -2.5784 -1.7241
 7350SOL    HW233684   1.645   1.273   8.230 -2.0090  0.3648 -0.7018
 7351SOL     OW33685   0.681   2.120  16.600  0.3266  0.5779  0.4875
 7351SOL    HW133686   0.680   2.050  16.535 -0.0627 -2.2816  3.5911
 7351SOL    HW233687   0.703   2.071  16.679  1.9741  2.2733  1.1011
 7352SOL     OW33688   1.812   0.423   4.093 -0.0876  0.8095  0.6057
 7352SOL    HW133689   1.892   0.398   4.048 -1.4741 -0.8026 -0.9892
 7352SOL    HW233690   1.831   0.393   4.182 -1.2183 -2.1271 -0.1118
 7353SOL     OW33691   3.268   4.301   4.727 -0.3380 -0.6906 -0.1185
 7353SOL    HW133692   3.336   4.293   4.659 -0.4700  0.0285 -0.3365
 7353SOL    HW233693   3.216   4.372   4.689 -0.7018 -0.4649  0.8087
 7354SOL     OW33694   1.676   4.106   7.930  0.2520  0.3731  0.3502
 7354SOL    HW133695   1.702   4.177   7.871  0.6623 -0.1660 -0.1283
 7354SOL    HW233696   1.759   4.096   7.976  0.2238  1.0838  0.5433
 7355SOL     OW33697   0.268   1.104   3.251 -0.7703 -0.2780 -0.1518
 7355SOL    HW133698   0.338   1.109   3.185  0.1277  0.5231  0.8550
 7355SOL    HW233699   0.223   1.030   3.210 -0.1286 -0.7658  0.0193
 7356SOL     OW33700   2.245   3.260   4.287  0.5545 -0.4157 -0.2002
 7356SOL    HW133701   2.337   3.274   4.311  1.0973 -0.0778 -2.4127
 7356SOL    HW233702   2.252   3.192   4.221  0.6533 -0.4515 -0.1530
 7357SOL     OW33703   4.486   1.127   1.185  0.3504  0.1240 -0.3651
 7357SOL    HW133704   4.407   1.148   1.235  0.8350  0.6278  0.1883
 7357SOL    HW233705   4.460   1.040   1.154 -0.3856 -0.4966  2.0176
 7358SOL     OW33706   2.949   1.543  14.722  0.2083 -0.7350 -0.3138
 7358SOL    HW133707   3.020   1.482  14.742  1.2401 -0.0282 -1.8700
 7358SOL    HW233708   2.933   1.523  14.630 -0.4395  0.4207 -0.4514
 7359SOL     OW33709   2.094   2.901   1.960 -0.5447 -0.1747  0.2445
 7359SOL    HW133710   2.127   2.814   1.981  1.9547  0.9041  0.8060
 7359SOL    HW233711   2.055   2.929   2.042  2.5080  0.5733  1.4231
 7360SOL     OW33712   2.363   0.752   7.828 -0.3658  0.5188  0.1896
 7360SOL    HW133713   2.403   0.748   7.915 -1.4484  2.4301  0.7876
 7360SOL    HW233714   2.305   0.827   7.842  0.1366  0.9658 -0.1347
 7361SOL     OW33715   0.514   2.152  10.066  0.1090  0.0523  0.1247
 7361SOL    HW133716   0.546   2.236  10.033  0.8994  0.3077  1.5423
 7361SOL    HW233717   0.435   2.133  10.016 -1.3644  2.6380  1.4077
 7362SOL     OW33718   0.741   3.330  14.202  0.1627  0.3074  0.3159
 7362SOL    HW133719   0.654   3.367  14.217 -0.1781  0.1865 -1.4445
 7362SOL    HW233720   0.724   3.271  14.129  1.2607  1.4576 -0.8606
 7363SOL     OW33721   1.207   3.408   2.664  0.0460 -0.0649 -0.0670
 7363SOL    HW133722   1.130   3.457   2.634  1.5099  0.6002 -2.7729
 7363SOL    HW233723   1.192   3.406   2.758  0.4191 -2.4958 -0.0730
 7364SOL     OW33724   4.346   3.245   3.436 -0.1681 -0.5553  0.1401
 7364SOL    HW133725   4.275   3.279   3.381  1.4800  2.3719 -0.1768
 7364SOL    HW233726   4.331   3.151   3.431  1.5897 -0.8833  1.2662
 7365SOL     OW33727   0.222   2.802   1.183 -0.1652 -0.2666  0.4078
 7365SOL    HW133728   0.274   2.776   1.259  2.1737 -0.1109 -1.1061
 7365SOL    HW233729   0.147   2.835   1.232  0.7838  2.4569  0.0688
 7366SOL     OW33730   0.224   2.957   1.824  0.2191 -0.1875  0.3534
 7366SOL    HW133731   0.219   3.052   1.821 -1.8675 -0.2722  0.9798
 7366SOL    HW233732   0.308   2.946   1.868  0.3900 -1.3637 -0.2476
 7367SOL     OW33733   2.109   2.826   4.816 -0.4307  0.1644 -0.2672
 7367SOL    HW133734   2.165   2.872   4.754 -1.3133  0.6401 -0.7091
 7367SOL    HW233735   2.079   2.749   4.767 -0.0426 -0.2562  0.1620
 7368SOL     OW33736   3.102   4.237   2.358  0.1842 -0.0510 -0.5713
 7368SOL    HW133737   3.054   4.156   2.377 -0.7718  0.0445 -2.5030
 7368SOL    HW233738   3.042   4.288   2.303  2.1033  1.3000 -1.4206
 7369SOL     OW33739   1.584   4.290  17.610  0.0373  0.0300 -0.1415
 7369SOL    HW133740   1.550   4.214  17.563 -0.7666  0.3655 -0.0930
 7369SOL    HW233741   1.591   4.351  17.536  3.1186 -1.0278 -0.7588
 7370SOL     OW33742   0.417   2.349   1.839 -0.1640  0.5657 -0.0443
 7370SOL    HW133743   0.512   2.360   1.848 -0.2216  0.6833  0.4593
 7370SOL    HW233744   0.406   2.266   1.793  0.0128  0.9837 -0.8388
 7371SOL     OW33745   3.134   4.101  16.774  0.2989 -0.2464 -0.1674
 7371SOL    HW133746   3.171   4.074  16.689 -0.1816 -0.1539 -0.4053
 7371SOL    HW233747   3.205   4.096  16.838  0.0124  1.5688  0.2956
 7372SOL     OW33748   0.911   0.898   1.828 -0.1868  0.4024  0.4077
 7372SOL    HW133749   0.937   0.989   1.846  1.3343 -0.0736  0.5817
 7372SOL    HW233750   0.884   0.863   1.913  5.2603 -0.4308  1.7860
 7373SOL     OW33751   2.387   0.098   7.679 -0.3721  0.0982  0.6401
 7373SOL    HW133752   2.307   0.087   7.628 -0.0827  0.3448  0.1330
 7373SOL    HW233753   2.342   0.130   7.757 -0.5503  0.6580  0.3114
 7374SOL     OW33754   0.882   3.509   4.602 -0.1440  0.2848  0.1712
 7374SOL    HW133755   0.892   3.543   4.513  0.1995  0.4096  0.2599
 7374SOL    HW233756   0.826   3.572   4.648  1.9743  0.8745  1.9430
 7375SOL     OW33757   4.507   2.781   1.893  0.0102  0.2285 -0.0301
 7375SOL    HW133758   4.528   2.711   1.956 -2.5388  0.5570  1.2133
 7375SOL    HW233759   4.576   2.844   1.910 -0.1528  0.8362 -1.6949
 7376SOL     OW33760   2.711   1.228   2.568 -1.0067  0.3220 -0.6608
 7376SOL    HW133761   2.767   1.273   2.505 -0.8662  1.6254  0.4074
 7376SOL    HW233762   2.629   1.274   2.549 -1.6937 -0.5284  0.2207
 7377SOL     OW33763   1.771   4.333   5.474 -0.3309 -0.2316  0.1181
 7377SOL    HW133764   1.776   4.316   5.568  0.0623 -2.6582 -0.3556
 7377SOL    HW233765   1.771   4.429   5.481 -0.9218 -0.2420  0.2765
 7378SOL     OW33766   1.271   1.501   8.595 -0.1096  0.4236 -0.3604
 7378SOL    HW133767   1.360   1.508   8.631 -1.0089 -0.2065  1.9863
 7378SOL    HW233768   1.261   1.561   8.522  0.1018  1.7047  0.6698
 7379SOL     OW33769   2.349   0.023   8.888 -0.9019  0.2642  0.0014
 7379SOL    HW133770   2.270   0.073   8.864 -0.5907  0.1640 -1.2487
 7379SOL    HW233771   2.370   4.714   8.805  1.5147  0.8630  0.3158
 7380SOL     OW33772   2.537   0.775   9.537 -0.3949 -0.5660  0.8732
 7380SOL    HW133773   2.613   0.809   9.584 -0.4457  1.1133 -0.2643
 7380SOL    HW233774   2.528   0.843   9.470  1.1797  0.1942  1.4433
 7381SOL     OW33775   2.591   3.132   7.073 -0.3802  0.0335 -0.1865
 7381SOL    HW133776   2.498   3.143   7.051 -0.1793 -1.7354 -1.9089
 7381SOL    HW233777   2.639   3.158   6.994  0.2257  0.3423  0.2800
 7382SOL     OW33778   3.805   0.689  13.091  0.2892  0.1708  0.4610
 7382SOL    HW133779   3.871   0.725  13.033  0.6253  1.3121  1.5507
 7382SOL    HW233780   3.837   0.702  13.180  0.6874  0.8199  0.2193
 7383SOL     OW33781   0.947   1.793   9.760  0.0121 -0.3723 -0.0947
 7383SOL    HW133782   0.936   1.797   9.855 -1.5888 -0.1212 -0.2881
 7383SOL    HW233783   0.947   1.699   9.744 -1.6217 -0.4174  0.1377
 7384SOL     OW33784   0.700   3.538   8.655 -0.1912 -0.4804 -0.4292
 7384SOL    HW133785   0.645   3.613   8.677 -0.1993 -0.1343 -1.6164
 7384SOL    HW233786   0.781   3.579   8.687 -0.8517  0.2130  0.3485
 7385SOL     OW33787   4.182   4.196   3.744  0.6492  0.2174 -0.1826
 7385SOL    HW133788   4.211   4.211   3.834 -1.7983  1.0676  0.4761
 7385SOL    HW233789   4.223   4.273   3.705  0.2634  1.0586  1.0781
 7386SOL     OW33790   1.256   2.926   5.521  0.5806  0.5937 -0.1592
 7386SOL    HW133791   1.227   3.014   5.496  0.2147  0.1224 -1.4426
 7386SOL    HW233792   1.224   2.875   5.446  4.1595 -0.9807 -0.6056
 7387SOL     OW33793   1.120   2.130   3.813  0.5035  0.2161 -0.2105
 7387SOL    HW133794   1.110   2.181   3.732  1.6464 -1.0313 -1.1364
 7387SOL    HW233795   1.211   2.148   3.838 -0.0822  0.0766  1.9965
 7388SOL     OW33796   3.850   4.344   9.593 -0.9314  0.0133  0.1721
 7388SOL    HW133797   3.887   4.415   9.540 -0.9616 -0.2975 -0.2687
 7388SOL    HW233798   3.879   4.370   9.680 -0.0757  1.9045 -0.6780
 7389SOL     OW33799   2.959   1.213   1.503  0.3301  0.1227 -0.2793
 7389SOL    HW133800   3.020   1.252   1.565  2.0924 -0.5180 -1.6022
 7389SOL    HW233801   2.921   1.294   1.470 -0.3596  0.4305  1.3085
 7390SOL     OW33802   3.960   4.644   4.016 -0.1688  0.2121 -0.0560
 7390SOL    HW133803   3.932   4.577   3.953  0.1152  2.1573 -2.2385
 7390SOL    HW233804   4.038   4.593   4.038  0.8361  1.1872 -1.3815
 7391SOL     OW33805   3.319   1.102   5.502 -0.8573  0.1422  0.1905
 7391SOL    HW133806   3.262   1.041   5.455 -0.9404  1.3691 -1.3195
 7391SOL    HW233807   3.324   1.053   5.584  1.2036  0.8159  0.4767
 7392SOL     OW33808   3.304   3.153   9.463 -0.0118 -0.1931 -0.3811
 7392SOL    HW133809   3.225   3.131   9.414  0.2583  1.2887 -1.5152
 7392SOL    HW233810   3.370   3.129   9.398  0.7339 -3.9695  1.8066
 7393SOL     OW33811   0.590   2.072   8.969 -0.1488  0.2491  0.3727
 7393SOL    HW133812   0.593   1.981   8.996 -0.2753  0.2154  0.2764
 7393SOL    HW233813   0.495   2.084   8.977 -0.2842 -1.1632  0.8846
 7394SOL     OW33814   4.425   0.091   3.022  0.0628 -0.0114 -0.2135
 7394SOL    HW133815   4.466   0.006   3.011 -1.9807 -1.3271  2.2901
 7394SOL    HW233816   4.359   0.078   2.954  0.5524 -0.5328 -0.5897
 7395SOL     OW33817   3.374   1.258   6.644  0.4002 -0.6938 -0.1742
 7395SOL    HW133818   3.363   1.174   6.688 -0.6200 -0.6318 -0.3151
 7395SOL    HW233819   3.447   1.245   6.582  0.1187  0.1277 -0.6761
 7396SOL     OW33820   2.693   3.472   3.710  0.4330  0.1786 -0.3948
 7396SOL    HW133821   2.681   3.385   3.749 -0.1977  0.6661  0.4837
 7396SOL    HW233822   2.755   3.506   3.774 -1.1485 -0.4568  1.4616
 7397SOL     OW33823   4.329   2.124   9.016 -0.1853  0.0931  0.1881
 7397SOL    HW133824   4.276   2.087   9.087 -0.5094 -1.5453 -0.9104
 7397SOL    HW233825   4.353   2.208   9.054  0.4542  0.3438 -0.7682
 7398SOL     OW33826   3.689   3.818  17.106 -0.1285 -0.2455 -0.1420
 7398SOL    HW133827   3.735   3.828  17.022 -0.6210  2.4207 -0.0968
 7398SOL    HW233828   3.604   3.855  17.083  0.5022  1.8938  0.9436
 7399SOL     OW33829   2.622   0.991   3.746  0.8070  0.2890 -0.5567
 7399SOL    HW133830   2.575   0.916   3.712  1.4506  0.1753 -1.2129
 7399SOL    HW233831   2.568   1.067   3.723  0.3265  0.2579  0.4857
 7400SOL     OW33832   1.843   2.385   6.461  0.3210  0.2820 -0.0968
 7400SOL    HW133833   1.905   2.318   6.433 -2.2393 -1.6613 -1.1794
 7400SOL    HW233834   1.901   2.452   6.497  2.2104 -0.5118 -1.7281
 7401SOL     OW33835   0.430   0.435   2.136 -0.5046  0.0206 -0.0772
 7401SOL    HW133836   0.497   0.481   2.188 -0.9524  1.8446 -1.0969
 7401SOL    HW233837   0.449   0.346   2.165  1.5808  0.2046 -0.8739
 7402SOL     OW33838   1.711   1.531   6.347 -0.5195 -0.0753  0.1838
 7402SOL    HW133839   1.652   1.535   6.422 -2.5281 -0.0079 -1.3876
 7402SOL    HW233840   1.768   1.464   6.385 -2.2886 -0.2129  2.5847
 7403SOL     OW33841   2.236   2.168   8.206 -0.4986 -0.1071 -0.2399
 7403SOL    HW133842   2.181   2.244   8.188 -0.3271 -0.0122 -0.3690
 7403SOL    HW233843   2.188   2.134   8.281 -1.9252  0.8922 -0.6919
 7404SOL     OW33844   3.344   2.435   7.374 -0.1471 -0.5131 -0.3556
 7404SOL    HW133845   3.380   2.430   7.286 -0.5606 -1.4588 -0.4798
 7404SOL    HW233846   3.307   2.347   7.385  1.8861 -1.1195  1.6628
 7405SOL     OW33847   3.376   1.190   8.537  0.4976 -0.4325  0.4418
 7405SOL    HW133848   3.398   1.116   8.481 -0.6532 -2.2245  2.3657
 7405SOL    HW233849   3.406   1.167   8.625  0.1959  2.5698  1.3337
 7406SOL     OW33850   0.432   0.211  16.411  0.5256 -0.2154  0.5145
 7406SOL    HW133851   0.375   0.151  16.362 -0.7071 -1.0053  2.9062
 7406SOL    HW233852   0.430   0.287  16.352  2.7052 -0.4389  0.1461
 7407SOL     OW33853   4.042   2.461   1.801  0.0182  0.0058  0.0073
 7407SOL    HW133854   3.989   2.381   1.790  1.6077 -1.3034  1.9741
 7407SOL    HW233855   3.966   2.518   1.812 -0.1013  0.0684 -1.1284
 7408SOL     OW33856   2.018   2.736  11.811  0.3224 -0.3730 -0.6722
 7408SOL    HW133857   2.080   2.668  11.783 -0.0428 -0.4112 -1.3779
 7408SOL    HW233858   1.966   2.691  11.878 -0.2114  0.5658 -0.4639
 7409SOL     OW33859   1.488   1.895  15.928 -0.2393  0.4450  0.5897
 7409SOL    HW133860   1.404   1.896  15.972 -1.1333 -2.5582 -0.9934
 7409SOL    HW233861   1.458   1.874  15.839  1.2365 -0.8543  0.3811
 7410SOL     OW33862   0.730   0.471  16.127  0.1389 -0.5889  0.3422
 7410SOL    HW133863   0.745   0.547  16.071 -0.0759  0.3708  1.5796
 7410SOL    HW233864   0.786   0.400  16.095  0.8250  0.3133 -0.4780
 7411SOL     OW33865   1.536   1.134   6.277 -0.5251 -0.4341 -0.1975
 7411SOL    HW133866   1.478   1.099   6.210 -2.5436  4.1054 -0.8300
 7411SOL    HW233867   1.480   1.208   6.300  2.9323  2.7628 -2.1895
 7412SOL     OW33868   0.525   0.593   6.778 -0.0283  0.2550  0.3711
 7412SOL    HW133869   0.604   0.540   6.771 -0.1877  0.1204 -0.3851
 7412SOL    HW233870   0.498   0.579   6.869 -1.2070  1.1111  0.1621
 7413SOL     OW33871   2.822   2.519   8.161 -0.7790  0.1961  0.2122
 7413SOL    HW133872   2.738   2.561   8.142  0.5157  2.1848 -1.2601
 7413SOL    HW233873   2.876   2.586   8.116 -0.5174 -0.7104 -0.8247
 7414SOL     OW33874   3.274   2.689   1.357 -0.0662 -0.4955  0.2823
 7414SOL    HW133875   3.368   2.676   1.346  0.3999  2.3622  0.8467
 7414SOL    HW233876   3.250   2.638   1.280 -0.3238  0.6980 -0.4310
 7415SOL     OW33877   3.025   2.049   3.162 -0.5103 -0.0382  0.1861
 7415SOL    HW133878   2.965   2.020   3.230  1.7083 -0.8744  1.7736
 7415SOL    HW233879   2.975   2.029   3.083  0.3556  2.9276 -1.1184
 7416SOL     OW33880   3.437   1.774  15.536 -0.1318  0.0987  0.1369
 7416SOL    HW133881   3.416   1.712  15.606  0.0395 -1.4872 -1.2159
 7416SOL    HW233882   3.417   1.856  15.581 -0.9630 -0.6663  1.1645
 7417SOL     OW33883   3.050   4.276  17.345  1.0272 -0.3356  0.3100
 7417SOL    HW133884   3.138   4.302  17.372  1.4931 -0.8948 -0.6709
 7417SOL    HW233885   3.053   4.180  17.340  0.1622 -0.5068  2.8573
 7418SOL     OW33886   0.071   4.506   2.747 -0.2514 -0.0481 -0.1769
 7418SOL    HW133887   0.005   4.451   2.791 -1.0231  2.1219  1.4272
 7418SOL    HW233888   0.043   4.498   2.656 -0.3915 -0.2812 -0.1123
 7419SOL     OW33889   4.364   0.258  10.523  0.3641 -0.2276  0.2002
 7419SOL    HW133890   4.431   0.323  10.505  1.0478 -0.8369  0.5580
 7419SOL    HW233891   4.404   0.175  10.495  0.0673 -0.0239 -0.8282
 7420SOL     OW33892   0.915   0.800   6.647  0.2366  0.3373  0.2189
 7420SOL    HW133893   0.952   0.852   6.718 -0.1350  1.6149 -0.5123
 7420SOL    HW233894   0.917   0.711   6.681 -1.7289  1.5311  3.4464
 7421SOL     OW33895   4.332   4.674   8.441 -0.4026 -0.2544  0.3696
 7421SOL    HW133896   4.419   4.713   8.440 -0.2672 -0.5970 -1.2874
 7421SOL    HW233897   4.336   4.600   8.501  2.4871 -0.9979 -0.7365
 7422SOL     OW33898   2.342   0.495   6.303 -0.3679  0.3126 -0.3772
 7422SOL    HW133899   2.381   0.480   6.216 -1.7059 -2.5972 -0.4837
 7422SOL    HW233900   2.285   0.565   6.273 -0.4033  0.3817 -0.1454
 7423SOL     OW33901   0.139   0.095   3.290  0.5605  0.0573  0.2083
 7423SOL    HW133902   0.162   0.169   3.234 -0.8465  1.1639  1.1126
 7423SOL    HW233903   0.173   0.021   3.239  0.7163  1.0531 -1.1221
 7424SOL     OW33904   1.850   4.028   4.292  0.3978 -0.1704  0.4580
 7424SOL    HW133905   1.854   3.934   4.274 -0.3809 -0.1681  0.2472
 7424SOL    HW233906   1.757   4.039   4.269  0.2147 -2.3029  0.1647
 7425SOL     OW33907   2.465   0.430   1.895 -0.0227 -0.0773  0.0898
 7425SOL    HW133908   2.451   0.373   1.820 -2.4286  0.0954  0.4064
 7425SOL    HW233909   2.559   0.422   1.910 -0.1941 -0.4221  0.9990
 7426SOL     OW33910   2.800   0.274   2.593 -0.0588 -0.5803 -0.1994
 7426SOL    HW133911   2.882   0.269   2.544 -0.2811 -0.4608 -0.5820
 7426SOL    HW233912   2.820   0.350   2.647 -1.9174 -0.1451 -0.1076
 7427SOL     OW33913   2.911   0.348   5.547  0.0161  0.2201 -0.3623
 7427SOL    HW133914   2.956   0.370   5.628 -2.0111  0.4224  0.7124
 7427SOL    HW233915   2.901   0.253   5.551  2.3589 -0.0886 -1.6721
 7428SOL     OW33916   1.689   1.651   6.947 -0.3960 -0.3573  0.2333
 7428SOL    HW133917   1.634   1.605   7.011 -1.9492 -1.6188 -1.9944
 7428SOL    HW233918   1.631   1.696   6.886 -0.3021 -0.3177  0.1741
 7429SOL     OW33919   0.305   2.383   3.497 -0.1017  0.6750  0.1462
 7429SOL    HW133920   0.329   2.320   3.564 -0.9629  0.0603 -0.1263
 7429SOL    HW233921   0.218   2.347   3.481  0.2665  0.4384 -1.3469
 7430SOL     OW33922   0.913   0.799   2.983 -0.4004  0.0788  0.5670
 7430SOL    HW133923   0.904   0.705   2.997  1.3385 -0.0905  0.5065
 7430SOL    HW233924   0.955   0.820   3.066 -0.3685  0.1393  0.5353
 7431SOL     OW33925   1.964   2.693   8.113 -0.1342 -0.1981 -0.2381
 7431SOL    HW133926   1.973   2.741   8.195  0.1732 -2.2942  0.9601
 7431SOL    HW233927   2.056   2.676   8.092  0.6413  0.7087  2.4134
 7432SOL     OW33928   1.319   2.263   2.774 -0.0214  0.2144  0.0730
 7432SOL    HW133929   1.319   2.175   2.738 -1.3006 -0.2830  1.2955
 7432SOL    HW233930   1.413   2.273   2.783 -0.4519  1.4805  3.0295
 7433SOL     OW33931   2.751   1.114  10.824  0.4817 -0.6030 -0.2548
 7433SOL    HW133932   2.779   1.024  10.809  1.4871 -0.2922 -0.2327
 7433SOL    HW233933   2.664   1.112  10.784  0.0331  0.4786  0.6717
 7434SOL     OW33934   1.944   0.885   2.000 -0.1081  0.5108 -0.0218
 7434SOL    HW133935   1.882   0.945   2.041 -1.7860 -1.6719  0.6010
 7434SOL    HW233936   2.014   0.946   1.979  0.5291 -0.6057 -1.1395
 7435SOL     OW33937   3.330   3.380  11.788  0.2265 -0.3569 -0.2481
 7435SOL    HW133938   3.388   3.454  11.809 -0.5834 -0.1707  1.3347
 7435SOL    HW233939   3.309   3.412  11.701  1.1453  1.0585  0.0507
 7436SOL     OW33940   1.764   3.657   1.842 -0.1172 -0.1049  0.4430
 7436SOL    HW133941   1.800   3.598   1.776 -0.8462  1.6563 -1.5176
 7436SOL    HW233942   1.671   3.640   1.829  0.5398 -2.9020 -0.6837
 7437SOL     OW33943   1.851   2.672   3.489  0.6492  0.3434 -0.1875
 7437SOL    HW133944   1.886   2.730   3.557  0.1274  0.4920 -0.0453
 7437SOL    HW233945   1.906   2.698   3.415  1.8940 -0.4273  0.4548
 7438SOL     OW33946   0.973   4.051  17.053  0.0855 -0.1491  0.4008
 7438SOL    HW133947   0.970   4.093  16.967 -0.9421  0.3696  0.6903
 7438SOL    HW233948   1.067   4.055  17.070  0.2582  3.0882 -1.3529
 7439SOL     OW33949   1.110   0.113   2.300  0.3480 -0.4250 -0.2790
 7439SOL    HW133950   1.050   0.181   2.267  0.5131 -1.0287 -1.8041
 7439SOL    HW233951   1.051   0.039   2.313 -0.1085  0.3364  2.0175
 7440SOL     OW33952   2.045   1.853   1.338 -0.5889  0.2659 -0.1938
 7440SOL    HW133953   1.950   1.851   1.327 -0.7565 -0.2921  1.3459
 7440SOL    HW233954   2.073   1.771   1.298  2.4267  0.1092  2.2750
 7441SOL     OW33955   1.127   3.720  11.341  0.0899 -0.1735 -0.0592
 7441SOL    HW133956   1.084   3.803  11.360  0.0393  0.4691 -3.0762
 7441SOL    HW233957   1.115   3.674  11.425 -0.4679 -1.9956 -1.1315
 7442SOL     OW33958   2.113   4.723   6.068  0.5769  0.1609 -0.4589
 7442SOL    HW133959   2.106   0.082   6.041  0.1706 -0.2219 -1.6389
 7442SOL    HW233960   2.113   0.004   6.163  0.6888  0.8653 -0.5633
 7443SOL     OW33961   3.874   3.710   8.835  0.2263  0.2220  0.0417
 7443SOL    HW133962   3.861   3.646   8.905 -0.1881 -1.0494 -1.1890
 7443SOL    HW233963   3.915   3.655   8.768 -0.9146 -1.6391  0.8848
 7444SOL     OW33964   2.770   2.439  15.411  0.3343  0.7693 -0.1115
 7444SOL    HW133965   2.724   2.518  15.437 -2.0407 -0.2364 -1.2618
 7444SOL    HW233966   2.740   2.433  15.321  0.4220 -1.1654 -0.0270
 7445SOL     OW33967   4.113   4.480   5.590  0.0033 -0.1172 -0.0739
 7445SOL    HW133968   4.062   4.401   5.606 -0.7132  0.0344 -1.5288
 7445SOL    HW233969   4.153   4.481   5.677 -1.2543  0.2286  0.5010
 7446SOL     OW33970   2.643   1.335  13.792 -0.0782 -0.2538 -0.1168
 7446SOL    HW133971   2.566   1.372  13.835  0.0751 -1.1124  0.8965
 7446SOL    HW233972   2.702   1.409  13.782  0.1109 -0.1297  1.8329
 7447SOL     OW33973   0.431   2.781   1.976  0.4505 -0.7604  0.4949
 7447SOL    HW133974   0.470   2.757   1.892  0.8729  0.7762  0.2448
 7447SOL    HW233975   0.342   2.747   1.978  0.6647 -1.2523  2.1175
 7448SOL     OW33976   0.097   3.505  12.590  0.0179 -0.1828 -0.0520
 7448SOL    HW133977   0.159   3.509  12.663  1.2534 -1.9810 -1.0185
 7448SOL    HW233978   0.022   3.556  12.622 -0.0435 -0.9590  1.0346
 7449SOL     OW33979   0.235   3.408   5.603  0.0999 -0.7833 -0.3488
 7449SOL    HW133980   0.316   3.396   5.554  0.5679 -1.8680  0.6970
 7449SOL    HW233981   0.185   3.467   5.546  0.2650  0.7470  1.0930
 7450SOL     OW33982   4.212   1.863   8.300  0.0372 -0.1515  0.2508
 7450SOL    HW133983   4.122   1.868   8.333 -0.4961 -2.2059 -0.9067
 7450SOL    HW233984   4.199   1.808   8.223  1.4029  0.9152 -0.7240
 7451SOL     OW33985   2.279   3.203   3.721  0.2070 -0.3349 -0.5325
 7451SOL    HW133986   2.305   3.122   3.676 -0.9383 -0.2478 -1.3399
 7451SOL    HW233987   2.323   3.266   3.664  2.1202  0.0829  1.3779
 7452SOL     OW33988   1.220   1.634   8.362 -0.1116 -0.0844 -0.0077
 7452SOL    HW133989   1.290   1.603   8.306 -1.6037 -1.5806 -1.0447
 7452SOL    HW233990   1.143   1.625   8.306 -0.7831  1.2842  0.6876
 7453SOL     OW33991   1.977   1.860   8.956 -0.1244 -0.1751 -0.3991
 7453SOL    HW133992   1.923   1.857   8.877 -0.1739 -2.2244 -0.2851
 7453SOL    HW233993   1.964   1.955   8.963  2.9066  0.2041 -0.1429
 7454SOL     OW33994   0.600   0.008  11.190 -0.2107  0.1070 -0.5155
 7454SOL    HW133995   0.516   4.698  11.175 -0.3326 -0.3148  1.4122
 7454SOL    HW233996   0.581   0.101  11.176  2.0980  0.9811  2.2886
 7455SOL     OW33997   0.013   3.368   6.359 -0.1610 -0.2906  0.7040
 7455SOL    HW133998   0.106   3.355   6.340 -0.5241 -1.2806 -0.4340
 7455SOL    HW233999   0.010   3.440   6.422  0.3746  0.3887 -0.0483
 7456SOL     OW34000   1.407   3.370   7.424 -0.5388  0.5262 -0.3063
 7456SOL    HW134001   1.484   3.313   7.430 -1.7933 -1.2534 -1.0918
 7456SOL    HW234002   1.381   3.353   7.333  0.1873  0.0061 -0.4180
 7457SOL     OW34003   2.947   4.368   0.328 -0.6708  0.4874  0.4001
 7457SOL    HW134004   2.888   4.414   0.387  0.0096  0.2165  1.2968
 7457SOL    HW234005   2.962   4.434   0.261 -0.2326 -0.6727 -0.6418
 7458SOL     OW34006   4.059   0.790   5.934 -0.5014 -0.2927 -0.1886
 7458SOL    HW134007   4.009   0.722   5.978 -0.0607  1.2862  2.7231
 7458SOL    HW234008   4.150   0.767   5.952  0.5443  4.8069  0.9997
 7459SOL     OW34009   1.963   2.896   9.185 -0.2479 -0.0507 -0.0932
 7459SOL    HW134010   1.878   2.914   9.225 -0.2458 -0.3287  0.0383
 7459SOL    HW234011   1.986   2.808   9.215 -0.0542 -1.0787 -3.2654
 7460SOL     OW34012   4.246   4.470  15.317  0.0539  0.1435 -0.2477
 7460SOL    HW134013   4.267   4.418  15.239  1.2954 -0.5517  0.5547
 7460SOL    HW234014   4.153   4.452  15.328  0.1173  0.5625  0.9819
 7461SOL     OW34015   0.447   3.842   6.903  0.1917  0.0944 -0.4105
 7461SOL    HW134016   0.426   3.933   6.927 -1.6529 -0.4392  0.0319
 7461SOL    HW234017   0.459   3.800   6.988 -0.9254  0.6643  0.0317
 7462SOL     OW34018   3.818   4.112   7.137 -0.3629 -0.1487  0.6089
 7462SOL    HW134019   3.786   4.202   7.123  2.8350  0.4595 -2.8276
 7462SOL    HW234020   3.836   4.119   7.230 -2.8873  3.7412  0.8472
 7463SOL     OW34021   1.681   1.686   7.283  0.0378  0.1868 -0.1790
 7463SOL    HW134022   1.759   1.741   7.281  0.3988 -0.3177 -0.1643
 7463SOL    HW234023   1.702   1.621   7.216 -0.3764  0.1238 -0.2468
 7464SOL     OW34024   2.621   1.273   5.772  0.2517 -0.7704 -0.6333
 7464SOL    HW134025   2.654   1.362   5.785  0.2451 -0.5514 -2.1766
 7464SOL    HW234026   2.607   1.271   5.677  1.1437  0.2374 -0.7892
 7465SOL     OW34027   2.284   2.075   9.046  0.2032  0.3257 -0.0040
 7465SOL    HW134028   2.193   2.102   9.033  0.6237  1.7836  0.1797
 7465SOL    HW234029   2.276   1.989   9.004 -0.2108  0.8545 -1.0082
 7466SOL     OW34030   4.345   4.497   6.155  0.5216 -0.1677 -0.3950
 7466SOL    HW134031   4.331   4.508   6.249 -3.1008 -1.9236 -0.7068
 7466SOL    HW234032   4.426   4.446   6.160  2.1246  2.5053  0.8454
 7467SOL     OW34033   3.275   2.095   1.657 -0.5782  0.4026  0.0125
 7467SOL    HW134034   3.334   2.020   1.660 -0.3644  0.6324  1.3856
 7467SOL    HW234035   3.204   2.071   1.597 -1.2095 -0.2250  1.0117
 7468SOL     OW34036   4.542   0.982  14.385 -0.2835  0.6116 -0.1515
 7468SOL    HW134037   4.583   1.035  14.317 -0.4391 -2.2735 -2.4792
 7468SOL    HW234038   4.568   0.892  14.367 -1.2298  0.8063 -2.4016
 7469SOL     OW34039   4.087   1.304  12.199  0.3935  0.3023 -0.4381
 7469SOL    HW134040   4.150   1.341  12.138 -1.2990  3.8584 -0.0452
 7469SOL    HW234041   4.152   1.274  12.262  0.1067  0.5395 -0.0210
 7470SOL     OW34042   0.557   1.304   4.933 -0.3023 -0.0780  0.4428
 7470SOL    HW134043   0.590   1.215   4.936 -0.0769 -0.0446 -1.0983
 7470SOL    HW234044   0.630   1.346   4.886 -0.5833 -1.7651 -1.4983
 7471SOL     OW34045   1.134   1.854   6.283  0.2780 -0.0930 -0.3255
 7471SOL    HW134046   1.226   1.844   6.256  1.2526  2.9876  1.7375
 7471SOL    HW234047   1.108   1.764   6.303  0.1204 -0.0416 -0.3036
 7472SOL     OW34048   2.499   1.200  14.993  0.7225  0.2995  0.0417
 7472SOL    HW134049   2.446   1.276  15.017 -2.5516 -1.4384 -1.8256
 7472SOL    HW234050   2.585   1.209  15.035  0.2867  0.7945  0.8246
 7473SOL     OW34051   2.168   3.093  14.284  0.4772  0.0407  0.2952
 7473SOL    HW134052   2.187   3.041  14.362  2.0640 -1.0289 -0.7981
 7473SOL    HW234053   2.108   3.158  14.322 -0.4245  0.6494 -2.2170
 7474SOL     OW34054   0.134   0.820   8.800 -0.5716 -0.0999  0.6410
 7474SOL    HW134055   0.205   0.858   8.748 -0.1438 -1.6702  0.0806
 7474SOL    HW234056   0.098   0.901   8.835  2.9041  0.3564  3.2115
 7475SOL     OW34057   2.747   1.394  10.718 -0.1194 -0.4761 -0.5099
 7475SOL    HW134058   2.765   1.309  10.758  0.5176  0.1671  0.5572
 7475SOL    HW234059   2.832   1.426  10.689  0.9192  0.8320  3.9842
 7476SOL     OW34060   2.212   2.927  14.990 -0.1579 -0.0263  0.2384
 7476SOL    HW134061   2.127   2.893  14.962 -0.3393  1.7482 -1.3492
 7476SOL    HW234062   2.259   2.845  15.008  0.4018  0.2054 -0.1773
 7477SOL     OW34063   2.896   4.086   2.963 -0.1734  0.7595  0.3119
 7477SOL    HW134064   2.830   4.020   2.984 -1.5411  1.8139 -0.6842
 7477SOL    HW234065   2.887   4.094   2.868  1.0650 -2.0066 -0.0269
 7478SOL     OW34066   3.609   3.981   2.364  0.0432  0.1320 -0.0103
 7478SOL    HW134067   3.598   3.887   2.352  0.7502  0.0956 -0.3249
 7478SOL    HW234068   3.520   4.008   2.339 -0.1394 -2.1615 -1.7843
 7479SOL     OW34069   4.544   0.949   1.972 -0.2387 -0.2056  0.0625
 7479SOL    HW134070   4.491   0.928   1.895  0.2746  1.1979 -0.6859
 7479SOL    HW234071   4.485   0.909   2.036  0.5696 -0.8223  0.4178
 7480SOL     OW34072   0.915   3.672   7.437 -0.3718  0.5898  0.1386
 7480SOL    HW134073   0.970   3.697   7.511 -0.5900  0.5774  0.3042
 7480SOL    HW234074   0.962   3.598   7.397 -0.0774  0.3720  0.8969
 7481SOL     OW34075   3.732   3.217   3.778 -0.1245  0.8270 -0.1119
 7481SOL    HW134076   3.760   3.296   3.731  1.4409  2.4752  3.5883
 7481SOL    HW234077   3.793   3.227   3.851 -2.8039  0.5844  2.1686
 7482SOL     OW34078   1.330   2.847   5.916  0.3565 -0.3300  0.1463
 7482SOL    HW134079   1.265   2.798   5.864 -0.7467 -0.1085  1.3033
 7482SOL    HW234080   1.409   2.843   5.863  0.4577 -0.7815  0.3277
 7483SOL     OW34081   3.194   0.467   4.277 -0.2189  0.0379 -0.0990
 7483SOL    HW134082   3.220   0.555   4.305 -1.7804  1.1503 -2.1573
 7483SOL    HW234083   3.275   0.418   4.268 -0.1996  0.1052 -0.3091
 7484SOL     OW34084   1.177   4.441   1.093 -0.6526  0.3519  0.3819
 7484SOL    HW134085   1.208   4.411   1.179 -1.7934  2.3528  1.4847
 7484SOL    HW234086   1.082   4.432   1.101 -0.9538  4.0096  0.8153
 7485SOL     OW34087   2.916   0.590  14.142  0.5597  0.4798 -0.2212
 7485SOL    HW134088   2.981   0.580  14.212  1.4271  1.7009 -0.8561
 7485SOL    HW234089   2.938   0.675  14.104  1.5297  0.9462  1.3605
 7486SOL     OW34090   1.023   3.894   6.080  0.1075 -0.2627  0.3790
 7486SOL    HW134091   1.001   3.987   6.069 -0.7362 -0.4517  0.4853
 7486SOL    HW234092   1.049   3.897   6.172  1.2245  1.6001  0.0142
 7487SOL     OW34093   1.693   2.976   2.387 -0.4499  0.4006  0.4133
 7487SOL    HW134094   1.674   2.971   2.480 -1.0945  0.3829  0.2815
 7487SOL    HW234095   1.603   2.982   2.354 -0.3116  0.3263  0.0234
 7488SOL     OW34096   3.948   0.476   5.648  0.0078  0.4359  0.1466
 7488SOL    HW134097   3.945   0.543   5.580 -0.5641 -0.5249 -0.7839
 7488SOL    HW234098   3.893   0.518   5.713  0.5427 -2.3513  2.3870
 7489SOL     OW34099   0.605   0.457   2.829 -0.3014 -0.3364 -0.9468
 7489SOL    HW134100   0.581   0.522   2.762  0.4796  2.1712  1.2392
 7489SOL    HW234101   0.566   0.383   2.783  0.2167 -0.8227 -0.5918
 7490SOL     OW34102   2.412   4.033   5.691  0.4677  0.0767 -0.5750
 7490SOL    HW134103   2.500   4.046   5.727  0.2877 -0.5917  0.1021
 7490SOL    HW234104   2.418   3.944   5.656  0.1433 -0.6037  1.0982
 7491SOL     OW34105   3.535   0.756  13.002  0.2966 -0.4442  0.2086
 7491SOL    HW134106   3.622   0.738  13.038  0.7642  1.1997 -0.1007
 7491SOL    HW234107   3.560   0.806  12.924  1.0287  0.5925  1.0965
 7492SOL     OW34108   3.997   4.278   9.214 -0.1723 -0.1055 -0.0209
 7492SOL    HW134109   4.074   4.227   9.238 -0.1127  0.7352  1.5598
 7492SOL    HW234110   4.033   4.367   9.213 -0.9938  0.2420  0.4883
 7493SOL     OW34111   4.229   3.599   5.634 -0.0098  0.0104 -0.3037
 7493SOL    HW134112   4.236   3.654   5.712 -1.2529  1.5541 -1.2727
 7493SOL    HW234113   4.317   3.564   5.623  0.2919  0.8037 -0.4703
 7494SOL     OW34114   4.241   0.082   0.729  0.6234 -0.0479  0.1518
 7494SOL    HW134115   4.291   0.111   0.653  0.9579 -1.2537 -0.0768
 7494SOL    HW234116   4.288   0.000   0.744  0.2698 -0.2745  0.0174
 7495SOL     OW34117   1.551   2.850  15.554  0.2834 -0.1388 -0.1152
 7495SOL    HW134118   1.517   2.939  15.567  0.4654  0.1606 -1.6946
 7495SOL    HW234119   1.568   2.820  15.643  3.2873  4.5343  0.8620
 7496SOL     OW34120   1.739   3.533   4.212  0.8090  0.1009  0.2231
 7496SOL    HW134121   1.785   3.455   4.178  0.3206 -0.1930  0.2324
 7496SOL    HW234122   1.750   3.530   4.307 -0.8576 -1.0614  0.3819
 7497SOL     OW34123   0.990   3.104   5.867  0.5696  0.0457 -0.3292
 7497SOL    HW134124   0.995   3.161   5.790  0.9909  0.2673 -0.1393
 7497SOL    HW234125   1.082   3.081   5.884 -0.5140 -3.7280  0.5628
 7498SOL     OW34126   0.601   0.521   7.477 -0.3128 -0.2422 -0.2398
 7498SOL    HW134127   0.606   0.586   7.547 -0.7866 -1.8059  1.2298
 7498SOL    HW234128   0.639   0.567   7.402 -0.8608 -0.0552 -0.4045
 7499SOL     OW34129   2.737   0.513   2.751  0.1961 -0.0226  0.3050
 7499SOL    HW134130   2.660   0.475   2.795 -1.0103  3.7336  1.4154
 7499SOL    HW234131   2.696   0.590   2.713  0.8015 -0.4053 -1.0992
 7500SOL     OW34132   0.303   1.907   7.368 -0.3976 -0.5454  0.6063
 7500SOL    HW134133   0.323   1.986   7.417 -0.5085  0.0136 -0.2440
 7500SOL    HW234134   0.348   1.921   7.285 -1.1499 -1.3629  0.0588
 7501SOL     OW34135   1.530   1.278  15.220  0.3421 -0.3718 -0.1328
 7501SOL    HW134136   1.615   1.250  15.188  2.2878  2.5177  2.5328
 7501SOL    HW234137   1.479   1.197  15.228 -1.3794  0.5520 -1.6945
 7502SOL     OW34138   3.785   2.287   7.476  0.2022 -0.0199  0.2441
 7502SOL    HW134139   3.809   2.227   7.547  2.3382 -0.2941 -0.7030
 7502SOL    HW234140   3.692   2.301   7.493  0.7630  2.6616  1.1238
 7503SOL     OW34141   0.971   1.255  11.453 -0.8634  0.2013  0.1301
 7503SOL    HW134142   0.991   1.222  11.540 -1.3809 -0.8689 -0.1607
 7503SOL    HW234143   0.926   1.338  11.471  0.5309  0.3673  2.9273
 7504SOL     OW34144   1.467   2.250   5.465 -0.4194 -0.5442 -0.0921
 7504SOL    HW134145   1.535   2.278   5.404 -1.6652 -0.7965 -1.6035
 7504SOL    HW234146   1.499   2.165   5.494 -0.1404 -0.2730  0.3820
 7505SOL     OW34147   3.068   1.897  16.697 -0.1388 -0.0878  0.4718
 7505SOL    HW134148   3.030   1.885  16.784  0.2650  0.2956  0.6992
 7505SOL    HW234149   3.082   1.991  16.698 -1.4771  0.1378 -1.0005
 7506SOL     OW34150   3.206   0.784   5.082  0.1003 -0.3718  0.2559
 7506SOL    HW134151   3.153   0.757   5.007 -0.3286 -0.8796  0.7443
 7506SOL    HW234152   3.298   0.784   5.055  0.2695  0.7902  0.8118
 7507SOL     OW34153   0.344   2.995   6.878  0.0048 -0.0731  0.0147
 7507SOL    HW134154   0.408   2.945   6.929 -1.2233  0.3404  1.9609
 7507SOL    HW234155   0.273   3.014   6.939  0.1683 -2.6141  0.9876
 7508SOL     OW34156   0.068   4.659   7.508  0.4812 -0.0092 -0.1071
 7508SOL    HW134157   4.732   4.595   7.490 -0.2079  0.4893  0.7666
 7508SOL    HW234158   0.133   4.592   7.528  2.1841  1.8698  0.6149
 7509SOL     OW34159   3.262   3.414   6.306 -0.0173  0.0387  0.0341
 7509SOL    HW134160   3.265   3.413   6.401  0.6663  2.1943  0.0177
 7509SOL    HW234161   3.318   3.491   6.304  0.4079 -0.2525  1.2468
 7510SOL     OW34162   1.867   3.320   5.689  0.3201 -0.1353  0.0174
 7510SOL    HW134163   1.951   3.334   5.644  0.9906  0.8866  1.5739
 7510SOL    HW234164   1.812   3.288   5.618  0.2910 -1.4701  0.6391
 7511SOL     OW34165   1.246   1.795  16.109  0.3944  0.1334  0.5105
 7511SOL    HW134166   1.313   1.728  16.095 -0.5799 -1.0043  1.2938
 7511SOL    HW234167   1.237   1.806  16.204 -1.0889 -1.9831  0.6032
 7512SOL     OW34168   3.844   3.937   3.852 -0.0813  0.1159 -0.1295
 7512SOL    HW134169   3.761   3.938   3.899 -0.7474 -1.6309 -1.2502
 7512SOL    HW234170   3.845   4.026   3.816 -1.6057 -0.2605 -1.0675
 7513SOL     OW34171   1.788   2.571   2.066 -0.8131 -0.1728  0.1570
 7513SOL    HW134172   1.761   2.645   2.012  2.4957  1.5905  0.8945
 7513SOL    HW234173   1.766   2.602   2.154  1.8121  1.0243  0.3903
 7514SOL     OW34174   1.141   3.857  15.538 -0.0227  0.2937  0.1456
 7514SOL    HW134175   1.179   3.855  15.450 -1.0666 -1.2387 -0.2534
 7514SOL    HW234176   1.175   3.936  15.580 -0.0517  0.9361 -1.0298
 7515SOL     OW34177   1.697   2.574   1.466  0.3376 -0.1188  0.0842
 7515SOL    HW134178   1.747   2.634   1.522  2.1379 -0.0634 -1.5578
 7515SOL    HW234179   1.635   2.633   1.425  0.0205  0.1701  0.9834
 7516SOL     OW34180   3.258   3.395  16.729  0.5633  0.0810 -0.2061
 7516SOL    HW134181   3.334   3.341  16.752  2.1152  2.3186 -0.0427
 7516SOL    HW234182   3.185   3.340  16.757  2.0976 -1.2063  1.2885
 7517SOL     OW34183   0.940   2.206   1.569 -0.1133 -0.9496  0.2925
 7517SOL    HW134184   0.927   2.194   1.663  3.6927  1.0852  1.0568
 7517SOL    HW234185   0.994   2.130   1.548  0.4398 -0.2695 -0.7193
 7518SOL     OW34186   1.203   2.858  10.937  0.0532  0.0515 -0.1807
 7518SOL    HW134187   1.178   2.921  11.004  1.5778 -0.9274  1.2992
 7518SOL    HW234188   1.215   2.789  11.002 -0.6552  0.2208  0.1282
 7519SOL     OW34189   4.554   2.359   3.431  0.1169 -0.3006  0.0741
 7519SOL    HW134190   4.570   2.328   3.342 -2.0027  3.8491 -1.7613
 7519SOL    HW234191   4.460   2.343   3.431  0.1229 -0.3523  0.6394
 7520SOL     OW34192   1.407   1.055   0.417 -0.4906  0.4275  0.0294
 7520SOL    HW134193   1.362   1.109   0.482 -1.3075  2.5919 -2.3548
 7520SOL    HW234194   1.331   1.017   0.374  0.7204 -0.2464 -1.5178
 7521SOL     OW34195   2.751   3.152   7.963  0.0766 -0.4556  0.1315
 7521SOL    HW134196   2.658   3.133   7.956 -0.0809  0.7896 -1.1539
 7521SOL    HW234197   2.769   3.068   8.004  1.0292 -0.2402  0.1558
 7522SOL     OW34198   1.002   1.292   2.978  0.1231 -0.1192 -0.4835
 7522SOL    HW134199   0.967   1.380   2.965  1.0133  0.2604 -0.2834
 7522SOL    HW234200   1.027   1.298   3.070 -0.3155 -1.0526 -0.2940
 7523SOL     OW34201   2.394   2.505   2.305 -0.4649 -0.3428  0.4893
 7523SOL    HW134202   2.324   2.568   2.323  0.6549  0.6975  1.2034
 7523SOL    HW234203   2.426   2.481   2.392  1.2089  1.0762  0.2743
 7524SOL     OW34204   3.927   2.353  14.863 -0.0327  0.0674 -0.3957
 7524SOL    HW134205   3.908   2.351  14.769  0.5197 -2.5134 -0.4336
 7524SOL    HW234206   4.018   2.383  14.864 -0.4072  1.1918  0.1557
 7525SOL     OW34207   1.023   2.557   1.089 -0.2999  0.2117 -0.2605
 7525SOL    HW134208   1.014   2.562   1.184 -2.0052  1.7846 -0.5121
 7525SOL    HW234209   0.942   2.591   1.051  0.0795  0.4081 -0.9046
 7526SOL     OW34210   3.426   3.830   3.289 -0.0003  0.0970 -0.0605
 7526SOL    HW134211   3.393   3.878   3.213  1.6314  0.9954 -0.2045
 7526SOL    HW234212   3.385   3.888   3.354 -3.5362 -2.7620  0.2735
 7527SOL     OW34213   1.971   3.830   3.605  0.0199  0.2711 -0.2132
 7527SOL    HW134214   1.881   3.863   3.596  0.4258  1.5942  0.5664
 7527SOL    HW234215   2.016   3.865   3.528 -2.8453  3.3552 -0.5131
 7528SOL     OW34216   4.684   3.835   3.379 -0.2662 -0.2936 -0.0638
 7528SOL    HW134217   4.617   3.794   3.323 -1.8909  0.5103  1.2858
 7528SOL    HW234218   0.024   3.823   3.319 -0.0662  2.1116 -0.3111
 7529SOL     OW34219   3.427   1.859   1.611 -0.1146  0.2265  0.1324
 7529SOL    HW134220   3.422   1.765   1.593  1.9688  0.7254 -3.0081
 7529SOL    HW234221   3.512   1.860   1.654  0.8499  0.2167 -1.7881
 7530SOL     OW34222   1.844   1.373   3.291 -0.3182  0.0814 -0.0355
 7530SOL    HW134223   1.908   1.385   3.361 -0.8454  0.9809  0.2968
 7530SOL    HW234224   1.876   1.435   3.226  1.0995 -0.0073  0.5774
 7531SOL     OW34225   3.233   2.131   2.636  0.0659  0.3781  0.2119
 7531SOL    HW134226   3.241   2.066   2.566  0.0375 -0.3913  0.9163
 7531SOL    HW234227   3.229   2.214   2.589  1.6301  0.7948  0.8137
 7532SOL     OW34228   0.622   3.931   5.954  1.4258 -0.0013 -0.1255
 7532SOL    HW134229   0.530   3.936   5.980  0.9837 -0.0923 -1.6944
 7532SOL    HW234230   0.669   3.981   6.021 -2.4169  1.6527  1.3302
 7533SOL     OW34231   4.227   1.265   3.746 -0.0210  0.1773  0.1927
 7533SOL    HW134232   4.236   1.189   3.803  2.9513  0.5013  0.1428
 7533SOL    HW234233   4.135   1.283   3.766 -0.1138  1.2032 -1.1262
 7534SOL     OW34234   1.613   1.225   7.936  0.2520 -0.1112 -0.6333
 7534SOL    HW134235   1.620   1.151   7.875 -0.1440 -1.1315  0.5565
 7534SOL    HW234236   1.683   1.204   7.999 -0.3645  0.1182  0.1206
 7535SOL     OW34237   3.339   3.149   5.335 -0.5252 -0.0449  0.0444
 7535SOL    HW134238   3.382   3.235   5.338 -0.1424 -0.2751  1.1309
 7535SOL    HW234239   3.264   3.153   5.276  1.3599 -0.6190 -2.3910
 7536SOL     OW34240   2.233   1.120   8.946  0.1320  0.4711  0.5054
 7536SOL    HW134241   2.255   1.172   8.869 -1.3402  2.4025  1.3527
 7536SOL    HW234242   2.282   1.039   8.937 -1.6176 -0.7509  1.9248
 7537SOL     OW34243   0.833   4.511   3.202 -0.4517  0.3646  0.0539
 7537SOL    HW134244   0.896   4.512   3.130 -0.3106 -0.7898  0.1748
 7537SOL    HW234245   0.763   4.561   3.160 -0.0660  0.6584 -0.2530
 7538SOL     OW34246   3.154   1.781   1.951  0.5360  0.0903 -0.1549
 7538SOL    HW134247   3.119   1.693   1.939 -2.4183  0.7436  3.7764
 7538SOL    HW234248   3.073   1.812   1.992  1.3306  3.3111 -0.9776
 7539SOL     OW34249   4.140   0.065   6.933 -0.0459 -0.2648  0.2063
 7539SOL    HW134250   4.182   0.129   6.991 -1.4869  1.8179 -1.0385
 7539SOL    HW234251   4.215   0.028   6.886 -0.5532  0.1128 -0.8956
 7540SOL     OW34252   0.170   1.164   4.859 -0.2706  0.4556  0.3645
 7540SOL    HW134253   0.159   1.259   4.852  1.2133  0.5910 -0.2887
 7540SOL    HW234254   0.096   1.135   4.911  0.1483 -1.0645  0.0992
 7541SOL     OW34255   2.596   3.625   9.025 -0.8315 -0.4025 -0.2799
 7541SOL    HW134256   2.544   3.572   9.086  0.4976 -1.2757  0.0957
 7541SOL    HW234257   2.561   3.598   8.940  0.4446 -0.9238 -0.6333
 7542SOL     OW34258   3.701   1.667   3.345  0.6021  0.6161  0.5675
 7542SOL    HW134259   3.654   1.716   3.413  1.7044  0.4321  1.4750
 7542SOL    HW234260   3.791   1.687   3.373  1.1506  1.6173 -1.9405
 7543SOL     OW34261   1.715   2.513   3.328 -0.5263  0.1290  0.5003
 7543SOL    HW134262   1.651   2.571   3.287 -0.0724 -0.7395 -1.4092
 7543SOL    HW234263   1.762   2.569   3.390 -0.7077  1.1022 -0.2446
 7544SOL     OW34264   4.119   1.572   2.994  0.4354 -0.2721 -0.2490
 7544SOL    HW134265   4.044   1.513   3.002 -1.1713  1.5263 -1.9579
 7544SOL    HW234266   4.178   1.541   3.063  1.0952 -0.7235 -1.0085
 7545SOL     OW34267   0.991   0.372   2.603 -0.2445 -0.3374  0.2044
 7545SOL    HW134268   1.009   0.369   2.697 -0.4020  3.4041  0.3261
 7545SOL    HW234269   0.938   0.296   2.579 -1.9145 -0.1381  3.1990
 7546SOL     OW34270   2.227   2.096   2.071  0.1453 -0.3162  0.0826
 7546SOL    HW134271   2.276   2.033   2.018 -0.0713 -1.4332  1.2134
 7546SOL    HW234272   2.273   2.101   2.154  0.6860  1.4807 -0.3317
 7547SOL     OW34273   4.592   1.338  11.412 -0.4685 -0.4490 -0.2529
 7547SOL    HW134274   4.560   1.261  11.458  2.3295 -0.3600  1.7960
 7547SOL    HW234275   4.626   1.375  11.494 -0.0300 -0.6827 -0.3336
 7548SOL     OW34276   1.820   3.981   5.503  0.1270  0.1590 -0.3189
 7548SOL    HW134277   1.822   4.063   5.453 -1.1708  0.1109 -0.4622
 7548SOL    HW234278   1.771   4.021   5.575 -1.7578 -2.4515 -0.1255
 7549SOL     OW34279   3.126   2.403  17.013 -0.1387 -0.5424  0.0685
 7549SOL    HW134280   3.190   2.473  17.017 -0.2681 -0.4540  0.6866
 7549SOL    HW234281   3.145   2.354  17.093 -1.3872 -1.4725 -0.1822
 7550SOL     OW34282   0.321   1.287   1.265  0.1982  0.2105 -0.3533
 7550SOL    HW134283   0.294   1.254   1.180 -1.1697  1.4125 -0.3766
 7550SOL    HW234284   0.412   1.257   1.276  0.1998 -0.0747 -1.1154
 7551SOL     OW34285   4.140   0.307   7.720  0.4276  0.0973 -0.1657
 7551SOL    HW134286   4.055   0.337   7.752  1.0893  1.4994  0.2683
 7551SOL    HW234287   4.199   0.348   7.784  1.5873 -0.7307 -0.7166
 7552SOL     OW34288   2.535   0.718   3.681 -0.2329 -0.1891  0.1366
 7552SOL    HW134289   2.473   0.650   3.708 -0.4766  0.2590  0.7165
 7552SOL    HW234290   2.592   0.658   3.633  0.2053 -0.2118  0.6800
 7553SOL     OW34291   1.491   3.398  12.632  0.0494 -0.7917  0.2756
 7553SOL    HW134292   1.524   3.309  12.633  1.7296 -0.1499  1.7683
 7553SOL    HW234293   1.525   3.424  12.547  0.5036  2.1359  1.3420
 7554SOL     OW34294   4.023   0.291   6.087 -0.1450 -0.1321 -0.2452
 7554SOL    HW134295   4.010   0.201   6.056 -2.4143 -0.0057  0.3242
 7554SOL    HW234296   3.981   0.353   6.027 -1.0444  1.0717  1.6333
 7555SOL     OW34297   1.274   1.120  15.546  0.2243  0.3277  0.0570
 7555SOL    HW134298   1.345   1.086  15.493  0.2821 -0.3769  0.5911
 7555SOL    HW234299   1.290   1.074  15.628 -0.8017  2.3813  1.4255
 7556SOL     OW34300   1.517   2.727   8.385 -0.4263  0.1746 -0.0036
 7556SOL    HW134301   1.547   2.805   8.338 -2.9025  0.3595 -1.3121
 7556SOL    HW234302   1.427   2.741   8.414 -0.7429 -1.3449 -0.2569
 7557SOL     OW34303   3.949   3.220  10.013  0.6762 -0.3268 -0.0141
 7557SOL    HW134304   3.887   3.249  10.080  1.0663  1.5253 -0.4580
 7557SOL    HW234305   3.939   3.293   9.952  0.7236 -0.8845 -0.6899
 7558SOL     OW34306   3.408   1.886   6.419 -0.5036  0.0030 -0.0676
 7558SOL    HW134307   3.407   1.968   6.469 -0.2345  1.1763 -1.9762
 7558SOL    HW234308   3.402   1.922   6.330  1.0048  0.8903  0.1820
 7559SOL     OW34309   0.767   4.615   7.129  0.6794  0.3860  0.2316
 7559SOL    HW134310   0.699   4.650   7.071  0.1692 -2.0168 -0.6100
 7559SOL    HW234311   0.712   4.602   7.206  1.0097 -1.7185  0.1009
 7560SOL     OW34312   0.042   0.748   9.964 -0.1062  0.2045  0.2135
 7560SOL    HW134313   0.113   0.805   9.935  2.2698 -2.5645  0.6384
 7560SOL    HW234314   4.718   0.735   9.888  2.2279 -0.6264 -1.4077
 7561SOL     OW34315   4.648   4.460   6.717  0.1898 -0.0726  0.1107
 7561SOL    HW134316   0.003   4.458   6.680 -0.2661 -0.4775 -0.9475
 7561SOL    HW234317   4.628   4.553   6.730 -0.0686 -0.3090  1.4163
 7562SOL     OW34318   1.456   1.721   6.820 -0.1844  0.0707 -0.2767
 7562SOL    HW134319   1.446   1.816   6.806  0.4414  0.3099  0.9452
 7562SOL    HW234320   1.483   1.692   6.733  0.7146  0.2171 -0.0392
 7563SOL     OW34321   2.325   1.165   1.631 -0.3025 -0.2112 -0.7240
 7563SOL    HW134322   2.415   1.177   1.603  0.0848 -0.8175  0.2400
 7563SOL    HW234323   2.344   1.182   1.723  0.3653  0.0030 -0.8990
 7564SOL     OW34324   4.074   4.254  14.235 -0.4988 -0.5990  0.2725
 7564SOL    HW134325   4.113   4.173  14.204  0.6913 -0.2622  0.8877
 7564SOL    HW234326   4.098   4.319  14.168 -0.3403 -1.2319 -0.2917
 7565SOL     OW34327   3.114   1.744   6.204  0.1767 -0.0527  0.8470
 7565SOL    HW134328   3.200   1.722   6.240 -0.0237 -0.9679  0.7819
 7565SOL    HW234329   3.134   1.756   6.111  1.0042 -0.1642  1.0058
 7566SOL     OW34330   0.679   4.612   8.058 -0.4136 -0.2484  1.1752
 7566SOL    HW134331   0.721   4.561   8.127 -1.4757 -0.8311  1.4019
 7566SOL    HW234332   0.663   4.696   8.101  1.7055  0.2913  0.9146
 7567SOL     OW34333   3.483   0.016   8.362  0.0727 -0.3050  0.0747
 7567SOL    HW134334   3.390   4.732   8.349 -0.1523  0.2033  0.9884
 7567SOL    HW234335   3.496   0.013   8.457 -0.4900  1.7561  0.2184
 7568SOL     OW34336   4.006   0.891  15.519  0.4501  0.1603  1.0578
 7568SOL    HW134337   3.982   0.909  15.610 -2.5373 -1.0660  0.5018
 7568SOL    HW234338   3.977   0.965  15.466 -1.9672 -1.4468  0.1835
 7569SOL     OW34339   1.709   2.074   2.387 -0.2012 -0.4032  0.7913
 7569SOL    HW134340   1.751   2.115   2.311 -0.9784 -1.5001 -0.2530
 7569SOL    HW234341   1.787   2.062   2.441  0.9191 -2.0017 -1.1252
 7570SOL     OW34342   3.026   2.803   1.431 -0.1600  0.3670  0.5504
 7570SOL    HW134343   3.110   2.772   1.396  0.7755  0.9072  2.2814
 7570SOL    HW234344   3.032   2.763   1.518 -1.3278  0.9677  0.9044
 7571SOL     OW34345   0.362   1.675   7.511 -0.7972 -0.8108  0.1846
 7571SOL    HW134346   0.320   1.755   7.478  2.1782  0.4667 -0.4761
 7571SOL    HW234347   0.324   1.674   7.599  0.2043 -1.7600  0.5985
 7572SOL     OW34348   0.647   1.673   2.700 -0.3272 -0.1934  0.2440
 7572SOL    HW134349   0.684   1.743   2.754  2.0237  0.3339 -2.0232
 7572SOL    HW234350   0.552   1.688   2.699  0.0821  2.5685  1.3685
 7573SOL     OW34351   3.977   2.452   9.766 -0.2008  1.0805  0.3528
 7573SOL    HW134352   3.927   2.515   9.714 -0.0741  0.9373  0.0588
 7573SOL    HW234353   3.952   2.487   9.852 -2.5874  2.2016 -0.7823
 7574SOL     OW34354   2.211   1.283  12.685 -0.8022 -0.9199  0.3389
 7574SOL    HW134355   2.191   1.218  12.752 -3.9643 -0.1021  0.1568
 7574SOL    HW234356   2.283   1.234  12.643 -1.1389  0.9868 -2.4474
 7575SOL     OW34357   0.312   3.833   3.481  0.1524  0.2800  0.6491
 7575SOL    HW134358   0.309   3.822   3.576 -0.0516  0.9891  0.7244
 7575SOL    HW234359   0.283   3.924   3.483  0.2692  0.3924 -2.8759
 7576SOL     OW34360   4.447   1.733   2.351  0.1805 -0.4576  0.8589
 7576SOL    HW134361   4.367   1.761   2.306 -0.7850 -1.1123  2.1699
 7576SOL    HW234362   4.441   1.786   2.430 -0.7910  0.0189  0.4753
 7577SOL     OW34363   4.201   3.452  12.691  0.8038 -0.2217 -0.4420
 7577SOL    HW134364   4.248   3.507  12.629  2.5634 -0.5666  0.5972
 7577SOL    HW234365   4.266   3.383  12.705  0.7680 -0.2851 -0.5881
 7578SOL     OW34366   2.341   2.173   6.485  0.5384 -0.0145  0.2191
 7578SOL    HW134367   2.420   2.220   6.460 -0.1142  0.4393 -1.0388
 7578SOL    HW234368   2.299   2.224   6.554 -0.5776 -0.5542 -0.0581
 7579SOL     OW34369   0.704   3.882   2.195 -0.0194 -0.4224  0.2458
 7579SOL    HW134370   0.772   3.934   2.153 -0.8939  0.1899 -0.4107
 7579SOL    HW234371   0.695   3.933   2.276  1.5549 -0.4662  0.4425
 7580SOL     OW34372   1.159   2.068   4.134  0.2973  0.0785 -0.4506
 7580SOL    HW134373   1.086   2.009   4.114 -2.1127  3.4526 -1.5746
 7580SOL    HW234374   1.231   2.006   4.150 -0.6877 -0.2561  2.6976
 7581SOL     OW34375   1.866   0.505   4.590 -0.1038  0.1627  0.2812
 7581SOL    HW134376   1.902   0.501   4.678 -0.5645 -0.6106  0.4348
 7581SOL    HW234377   1.773   0.521   4.606 -0.0580 -0.0548  0.7571
 7582SOL     OW34378   1.892   1.872   5.114 -0.6850 -0.2162 -0.0696
 7582SOL    HW134379   1.922   1.956   5.149  2.5065 -1.0529 -0.7854
 7582SOL    HW234380   1.879   1.887   5.021  1.9699  1.5712 -0.1706
 7583SOL     OW34381   1.758   0.812   2.375 -0.0720 -0.4853 -0.1271
 7583SOL    HW134382   1.683   0.872   2.379 -1.3283 -1.9159 -2.0146
 7583SOL    HW234383   1.754   0.764   2.458  1.4592  0.8357  0.7021
 7584SOL     OW34384   2.309   2.681   0.687  0.0373  0.5961  1.0291
 7584SOL    HW134385   2.300   2.605   0.745  0.4364 -1.0140 -1.0181
 7584SOL    HW234386   2.359   2.739   0.745 -1.6440  0.5192  2.5675
 7585SOL     OW34387   4.205   1.837   7.089  0.1549  0.0371 -0.7197
 7585SOL    HW134388   4.153   1.846   7.168 -1.5032 -1.4813 -1.6540
 7585SOL    HW234389   4.289   1.817   7.130 -1.2232 -1.0811  1.5168
 7586SOL     OW34390   0.370   0.348   8.124 -0.0127 -0.2397 -0.1686
 7586SOL    HW134391   0.381   0.318   8.215 -1.0091 -1.0810 -0.3263
 7586SOL    HW234392   0.434   0.418   8.133  0.0274 -0.3201  0.1826
 7587SOL     OW34393   1.326   2.032   5.921  0.0684  0.1170  0.4626
 7587SOL    HW134394   1.292   1.995   5.840  2.3418  0.1022 -0.4791
 7587SOL    HW234395   1.412   2.060   5.890 -1.5635  2.4102 -1.9363
 7588SOL     OW34396   1.976   2.098   9.336  0.9678  0.0060 -0.0712
 7588SOL    HW134397   2.034   2.024   9.323 -0.0771 -0.6104 -1.3331
 7588SOL    HW234398   1.899   2.065   9.289  2.3370 -1.5061 -1.2269
 7589SOL     OW34399   0.961   0.812   8.608 -0.3592 -0.6211  0.5657
 7589SOL    HW134400   1.024   0.811   8.679 -0.4666 -2.5220  0.6400
 7589SOL    HW234401   0.958   0.908   8.609  0.2469 -0.6077  0.7928
 7590SOL     OW34402   2.728   2.833  10.230 -0.5945 -0.1942  0.7225
 7590SOL    HW134403   2.682   2.813  10.148 -0.0185 -0.2652  0.4186
 7590SOL    HW234404   2.693   2.917  10.258  0.5175 -0.3753  2.6319
 7591SOL     OW34405   1.729   3.197  13.100 -0.8973 -0.4069 -0.4143
 7591SOL    HW134406   1.817   3.190  13.138  0.3275  0.7158 -2.9623
 7591SOL    HW234407   1.732   3.293  13.102 -0.2952 -0.4523  1.0472
 7592SOL     OW34408   1.063   4.211   2.691  0.3570 -0.3370  0.1767
 7592SOL    HW134409   1.043   4.204   2.597 -1.7278 -0.7153  0.6435
 7592SOL    HW234410   1.072   4.121   2.721 -1.6081 -0.5878  0.0189
 7593SOL     OW34411   2.293   0.345   4.537 -0.0115  0.0068  0.0887
 7593SOL    HW134412   2.285   0.264   4.587  0.3139 -1.4365 -2.2160
 7593SOL    HW234413   2.246   0.410   4.590 -1.2546  0.4383 -1.5550
 7594SOL     OW34414   4.154   0.081   3.521  0.0155  0.2771 -0.6978
 7594SOL    HW134415   4.156   0.164   3.475  3.4702  1.0304  0.8243
 7594SOL    HW234416   4.071   0.044   3.491 -1.5686  2.8274  0.5916
 7595SOL     OW34417   0.124   0.784   5.758  0.6684 -0.7480  0.2038
 7595SOL    HW134418   0.127   0.880   5.757  1.6574 -0.7365  4.1522
 7595SOL    HW234419   0.031   0.770   5.779  0.5708  1.7548  1.5321
 7596SOL     OW34420   2.355   3.065   8.945 -0.0528 -0.4119  0.2371
 7596SOL    HW134421   2.286   3.065   9.012 -0.4001 -0.2182 -0.1180
 7596SOL    HW234422   2.423   3.028   9.001  0.0196 -2.9730 -1.5359
 7597SOL     OW34423   0.730   2.906   3.669 -0.3123 -0.0254  0.3649
 7597SOL    HW134424   0.808   2.850   3.664 -0.1373  0.4590 -1.9723
 7597SOL    HW234425   0.716   2.941   3.581 -0.3950 -1.0045 -0.0154
 7598SOL     OW34426   2.031   1.542  14.927 -0.0502 -0.4097  0.3938
 7598SOL    HW134427   2.060   1.516  14.839 -0.0150  0.4703  0.1392
 7598SOL    HW234428   2.099   1.506  14.983 -0.7288 -0.3746  1.2472
 7599SOL     OW34429   0.836   0.050   2.463 -0.1371  0.8130  0.2070
 7599SOL    HW134430   0.881   0.015   2.540  1.1795 -0.4567 -1.1377
 7599SOL    HW234431   0.883   0.001   2.395  0.1800 -1.8379  2.3236
 7600SOL     OW34432   1.917   4.581   5.298 -0.4295  0.3238  0.2943
 7600SOL    HW134433   1.836   4.564   5.249 -0.4258 -2.2089  1.1391
 7600SOL    HW234434   1.890   4.589   5.389  1.6398  1.5928  0.7900
 7601SOL     OW34435   3.218   1.315   1.321 -0.4024 -0.0452 -0.1610
 7601SOL    HW134436   3.247   1.227   1.347 -1.0280  0.2402  1.4782
 7601SOL    HW234437   3.170   1.358   1.391  1.4345  1.1047  0.3785
 7602SOL     OW34438   4.424   4.584  17.047  0.2295  0.3983 -0.1669
 7602SOL    HW134439   4.449   4.658  17.103 -1.2145 -1.0377  2.3911
 7602SOL    HW234440   4.344   4.615  17.004 -1.2889  0.0814  2.3958
 7603SOL     OW34441   3.587   3.773   4.191 -0.3984  0.1848  0.3751
 7603SOL    HW134442   3.525   3.703   4.208 -0.6772  0.3860  0.1835
 7603SOL    HW234443   3.593   3.814   4.277 -0.2162  0.4283  0.2466
 7604SOL     OW34444   3.911   3.866   4.278 -0.0596 -0.5127  0.2492
 7604SOL    HW134445   3.971   3.800   4.242 -0.7093 -0.2972 -1.2003
 7604SOL    HW234446   3.912   3.849   4.372 -0.0989  0.7737  0.4730
 7605SOL     OW34447   4.651   2.073  11.248  0.0042  0.2505  0.0152
 7605SOL    HW134448   4.620   2.164  11.250 -2.1125 -0.4749 -0.2992
 7605SOL    HW234449   4.571   2.022  11.235 -0.6068  1.2418 -0.1957
 7606SOL     OW34450   3.599   1.892   1.361 -0.1710  0.7976  0.1532
 7606SOL    HW134451   3.514   1.858   1.388  0.9351 -1.9955  0.0661
 7606SOL    HW234452   3.651   1.866   1.437  1.5605 -1.1135 -1.7200
 7607SOL     OW34453   3.971   4.644  13.530  0.2271  0.0144  0.0930
 7607SOL    HW134454   3.968   4.683  13.617  1.2900 -0.7110  0.4598
 7607SOL    HW234455   3.953   4.721  13.476  0.8039 -2.1969 -3.2829
 7608SOL     OW34456   1.877   2.800   6.429  0.2836  0.2025 -0.3448
 7608SOL    HW134457   1.828   2.878   6.401  1.3066  1.9508  2.7612
 7608SOL    HW234458   1.901   2.766   6.343 -2.5992 -1.9294 -0.2786
 7609SOL     OW34459   3.331   3.988   7.877  0.2407  0.4387 -0.2406
 7609SOL    HW134460   3.239   3.972   7.896  0.5522 -0.4256  0.5731
 7609SOL    HW234461   3.345   3.922   7.809 -0.2232  1.5675 -1.4209
 7610SOL     OW34462   3.699   1.689   4.282  0.6029 -0.7198 -0.1051
 7610SOL    HW134463   3.697   1.615   4.342 -0.0127  0.0402  0.8018
 7610SOL    HW234464   3.678   1.658   4.194 -0.4746 -0.0043 -0.0929
 7611SOL     OW34465   1.319   3.864  12.183 -0.0081  0.2832  0.3941
 7611SOL    HW134466   1.363   3.809  12.248  0.0522 -1.4644 -1.1205
 7611SOL    HW234467   1.386   3.906  12.130 -1.0430  1.0900 -0.2866
 7612SOL     OW34468   4.688   0.440   1.639 -0.1348  0.1471 -0.5245
 7612SOL    HW134469   4.610   0.495   1.645 -1.2972 -1.6829  1.1695
 7612SOL    HW234470   4.663   0.379   1.569  0.4148 -1.8187  0.9856
 7613SOL     OW34471   2.852   1.350   2.387 -0.1759  0.4167 -0.3425
 7613SOL    HW134472   2.896   1.279   2.340 -3.7892 -0.3028 -2.5932
 7613SOL    HW234473   2.903   1.430   2.370  0.1525  0.3836  0.4907
 7614SOL     OW34474   3.268   0.754  13.015  0.0711  0.3635 -0.8522
 7614SOL    HW134475   3.240   0.677  12.965 -4.0480  0.6398  1.0474
 7614SOL    HW234476   3.360   0.730  13.023 -0.6066 -1.5839  1.2899
 7615SOL     OW34477   1.446   1.055   3.036 -0.3042 -0.8813  0.1335
 7615SOL    HW134478   1.444   1.128   2.975  3.0952  1.4315  2.7852
 7615SOL    HW234479   1.385   1.088   3.102 -0.6089 -2.7702  0.8045
 7616SOL     OW34480   0.720   0.768   2.300  0.0296 -0.0246 -0.3274
 7616SOL    HW134481   0.691   0.824   2.372 -1.2268  0.0392 -0.8733
 7616SOL    HW234482   0.706   0.682   2.340 -3.6405  1.1215  0.9287
 7617SOL     OW34483   1.953   4.139   7.696  0.0337  0.0238 -0.2696
 7617SOL    HW134484   1.997   4.063   7.734 -1.7250 -1.5904 -1.4220
 7617SOL    HW234485   1.987   4.145   7.607 -0.6201 -3.1994 -0.7299
 7618SOL     OW34486   2.119   2.785   7.075  0.2532 -0.6213  0.2125
 7618SOL    HW134487   2.036   2.827   7.098  1.3297 -0.5635  4.1526
 7618SOL    HW234488   2.170   2.866   7.082 -0.1013 -0.6194  3.0752
 7619SOL     OW34489   2.294   1.362   5.184 -0.3089 -0.5260 -0.2018
 7619SOL    HW134490   2.353   1.295   5.220 -2.2909 -2.9170 -1.3943
 7619SOL    HW234491   2.279   1.310   5.105 -1.4637 -2.0843  1.0405
 7620SOL     OW34492   3.836   0.494   9.437  0.4239 -0.0891  0.2171
 7620SOL    HW134493   3.799   0.490   9.525 -0.6765  1.3620 -0.1803
 7620SOL    HW234494   3.919   0.534   9.465  1.5769 -1.8543 -0.7242
 7621SOL     OW34495   2.144   2.514   2.606  0.6939 -0.2596 -0.6091
 7621SOL    HW134496   2.060   2.494   2.564 -0.0459 -0.0130  0.7766
 7621SOL    HW234497   2.107   2.555   2.684  2.2363 -2.8569  1.4576
 7622SOL     OW34498   1.910   2.995  15.914 -0.1001  0.1199  0.1818
 7622SOL    HW134499   1.886   2.963  16.001 -0.7186 -2.0816 -0.8088
 7622SOL    HW234500   1.822   3.018  15.884 -0.2460 -2.2680 -1.2297
 7623SOL     OW34501   4.459   3.973  10.137 -0.1963  0.1840 -0.0550
 7623SOL    HW134502   4.496   4.055  10.171 -1.0376 -0.3550  2.1951
 7623SOL    HW234503   4.468   3.912  10.210  1.4663 -0.0416 -0.4582
 7624SOL     OW34504   2.627   3.790  10.514  0.5696 -0.1249 -0.4069
 7624SOL    HW134505   2.718   3.765  10.525  0.6819 -0.1078 -1.2678
 7624SOL    HW234506   2.613   3.773  10.421  2.4834 -1.0030 -0.5302
 7625SOL     OW34507   1.438   3.261   8.613  0.8282  0.4555 -0.3555
 7625SOL    HW134508   1.507   3.325   8.594  0.1498  1.8727  1.9393
 7625SOL    HW234509   1.395   3.304   8.687  2.3680 -0.6581  1.1748
 7626SOL     OW34510   4.450   0.991   5.981 -0.1739 -0.1150 -0.5205
 7626SOL    HW134511   4.414   0.908   6.013  0.0984  0.7123  1.8835
 7626SOL    HW234512   4.505   1.024   6.052  0.7431 -1.4370 -0.6051
 7627SOL     OW34513   3.490   1.597   1.572  0.2173 -0.7200 -0.2211
 7627SOL    HW134514   3.493   1.531   1.503  0.5606 -0.7078 -0.2159
 7627SOL    HW234515   3.414   1.563   1.619  0.8512  0.5653  1.7359
 7628SOL     OW34516   1.246   2.783   6.239 -0.4831  0.2456 -0.1745
 7628SOL    HW134517   1.228   2.712   6.301  0.6294 -0.2173 -0.3879
 7628SOL    HW234518   1.168   2.776   6.184  1.8676  2.1235 -3.7620
 7629SOL     OW34519   2.827   2.577   4.989  0.1715  0.0305 -0.4515
 7629SOL    HW134520   2.856   2.644   4.926 -0.1715  1.2456  0.6866
 7629SOL    HW234521   2.860   2.616   5.069  0.3103  0.0158 -0.5021
 7630SOL     OW34522   4.371   2.525  15.103 -0.0898  0.4510  0.3512
 7630SOL    HW134523   4.391   2.519  15.196 -0.8020  0.6662  0.5217
 7630SOL    HW234524   4.456   2.520  15.060  1.0241  0.5253  2.5594
 7631SOL     OW34525   3.514   0.098   7.645 -0.9592 -0.3091 -0.5654
 7631SOL    HW134526   3.482   0.021   7.692 -2.1066 -0.4179 -1.5184
 7631SOL    HW234527   3.606   0.097   7.669 -1.0462  1.8617 -0.1775
 7632SOL     OW34528   0.639   0.724   7.709 -0.2676 -0.2463  0.0094
 7632SOL    HW134529   0.627   0.757   7.798  1.6550  2.1249 -0.6160
 7632SOL    HW234530   0.733   0.709   7.712 -0.3365 -0.9899 -1.2658
 7633SOL     OW34531   3.934   2.848   5.512  0.2743 -0.3484 -0.2809
 7633SOL    HW134532   3.941   2.754   5.525 -0.6901 -0.3963 -0.1000
 7633SOL    HW234533   4.006   2.860   5.450  1.7471  0.5319  1.6117
 7634SOL     OW34534   0.596   1.522  10.326  0.8703 -0.4567 -0.2018
 7634SOL    HW134535   0.587   1.603  10.376 -0.4093 -0.6741 -0.0747
 7634SOL    HW234536   0.511   1.482  10.344  0.7608  0.9530  2.3385
 7635SOL     OW34537   4.392   0.007   6.486 -0.1701  0.4525  0.5008
 7635SOL    HW134538   4.408   4.647   6.467 -1.7767  0.0619  1.0479
 7635SOL    HW234539   4.321   0.021   6.423 -1.8604 -1.8343  1.8769
 7636SOL     OW34540   4.062   1.586  15.508  0.3320 -0.1437  0.9519
 7636SOL    HW134541   4.043   1.493  15.499 -0.3189  0.1012 -0.2320
 7636SOL    HW234542   3.986   1.612  15.560  0.2489  2.2199 -0.3244
 7637SOL     OW34543   0.469   3.715   2.491 -0.1665 -0.2876 -0.0595
 7637SOL    HW134544   0.442   3.770   2.418  0.5285  2.4439  1.7380
 7637SOL    HW234545   0.466   3.628   2.452 -1.4669 -0.7000  0.9735
 7638SOL     OW34546   1.587   1.792   4.306 -0.8045 -0.1556 -0.2772
 7638SOL    HW134547   1.546   1.823   4.387  1.6974  1.2456  0.4831
 7638SOL    HW234548   1.662   1.747   4.345  1.9371  2.5007 -2.4711
 7639SOL     OW34549   2.193   4.401  13.652 -0.2398 -0.2050 -0.0234
 7639SOL    HW134550   2.192   4.487  13.695 -0.8954 -1.4916  2.5377
 7639SOL    HW234551   2.118   4.409  13.594  0.1221 -1.0574 -0.6115
 7640SOL     OW34552   4.094   0.715   3.612  0.7277  0.2530  0.2581
 7640SOL    HW134553   4.095   0.715   3.708 -0.8881  1.4303  0.2621
 7640SOL    HW234554   4.171   0.659   3.601 -0.9104 -1.4463 -2.6430
 7641SOL     OW34555   2.885   3.464   1.547  0.2601 -0.1038 -0.0165
 7641SOL    HW134556   2.825   3.433   1.615 -0.9166 -1.6413 -1.7520
 7641SOL    HW234557   2.878   3.559   1.562 -0.9870 -0.2621  0.4559
 7642SOL     OW34558   2.713   0.669   7.782  0.0512  0.9024  0.4427
 7642SOL    HW134559   2.729   0.723   7.860 -0.8187 -0.6128  1.6648
 7642SOL    HW234560   2.662   0.731   7.731  0.8097 -1.4682 -3.1749
 7643SOL     OW34561   3.511   2.759   2.202  0.2222 -0.2253 -0.0528
 7643SOL    HW134562   3.549   2.720   2.281  1.9900  1.7831  0.0663
 7643SOL    HW234563   3.573   2.826   2.174  1.8045 -1.1499  1.2638
 7644SOL     OW34564   4.097   0.357  12.317  0.4527 -0.2257  0.2728
 7644SOL    HW134565   4.023   0.375  12.374  0.5581  0.3826  0.2189
 7644SOL    HW234566   4.078   0.423  12.250 -3.2695 -0.3938  1.1632
 7645SOL     OW34567   3.172   0.979   6.297  0.2032  0.5046 -0.2529
 7645SOL    HW134568   3.122   1.006   6.374 -0.1460 -0.4255 -0.1608
 7645SOL    HW234569   3.111   0.982   6.224  0.4010 -0.9069 -0.4641
 7646SOL     OW34570   2.523   0.714   8.051  0.5895 -0.3811  0.2748
 7646SOL    HW134571   2.606   0.746   8.086 -0.1421  1.1715  0.5847
 7646SOL    HW234572   2.538   0.622   8.031  0.4820 -0.2007 -0.6121
 7647SOL     OW34573   3.556   2.426   8.113  0.0393  0.0785  0.4492
 7647SOL    HW134574   3.479   2.388   8.154 -0.0487  0.4711  0.6432
 7647SOL    HW234575   3.519   2.445   8.027 -1.3421  2.1182  1.5128
 7648SOL     OW34576   2.309   1.362   7.429 -0.1000 -0.7004  0.4602
 7648SOL    HW134577   2.303   1.282   7.480  1.4329  0.3858  2.3676
 7648SOL    HW234578   2.324   1.322   7.344  0.6515 -0.4910  0.4973
 7649SOL     OW34579   2.951   0.431   9.880 -0.8188 -0.4583 -0.3870
 7649SOL    HW134580   2.879   0.466   9.828 -0.6391 -0.2949 -0.5270
 7649SOL    HW234581   2.955   0.343   9.842  0.6269 -0.2440 -0.7479
 7650SOL     OW34582   0.379   2.718   5.520 -0.0423  0.2969  0.6018
 7650SOL    HW134583   0.295   2.732   5.478  1.0108  0.7078 -1.3707
 7650SOL    HW234584   0.443   2.746   5.455  0.4867  0.5873  1.2408
 7651SOL     OW34585   0.461   3.864   9.489 -0.2154 -0.7372 -0.0810
 7651SOL    HW134586   0.406   3.929   9.445 -1.3898 -1.3007  0.5463
 7651SOL    HW234587   0.392   3.803   9.517 -1.4529  1.0332  0.6675
 7652SOL     OW34588   0.006   4.566   3.736 -0.1698  0.9179  0.6018
 7652SOL    HW134589   4.687   4.514   3.674  1.1980 -1.6184  1.6168
 7652SOL    HW234590   0.090   4.523   3.747 -0.7414  0.0902  1.6880
 7653SOL     OW34591   1.911   0.825   4.959  0.3861 -0.0032  0.0506
 7653SOL    HW134592   1.907   0.854   4.868  3.2969  2.3932  0.6647
 7653SOL    HW234593   1.827   0.789   4.986 -0.8430  1.0448 -2.3821
 7654SOL     OW34594   3.106   1.596   7.740  0.3375 -0.1006  0.2960
 7654SOL    HW134595   3.044   1.526   7.758  1.0282 -1.0421 -1.0080
 7654SOL    HW234596   3.090   1.660   7.809  0.7494  0.5938 -0.2465
 7655SOL     OW34597   0.036   3.695   2.855 -0.4327  0.3232 -0.0029
 7655SOL    HW134598   0.035   3.617   2.910  2.3399  1.6993  2.0083
 7655SOL    HW234599   0.115   3.683   2.802 -1.4680 -2.7706 -0.8425
 7656SOL     OW34600   2.210   3.218   8.308 -0.4801 -0.0994 -0.2342
 7656SOL    HW134601   2.253   3.297   8.339 -1.2194  1.2920 -2.8041
 7656SOL    HW234602   2.121   3.243   8.334  0.4125  3.2284 -0.4663
 7657SOL     OW34603   3.131   1.652   3.154  0.6286  0.3110 -0.6384
 7657SOL    HW134604   3.126   1.738   3.196  1.7228  0.9607 -1.8201
 7657SOL    HW234605   3.050   1.606   3.176  1.1688  0.1159  0.9139
 7658SOL     OW34606   3.353   3.555   2.379 -0.2277 -0.4885  0.1702
 7658SOL    HW134607   3.273   3.503   2.386 -0.0024 -0.7805  0.5958
 7658SOL    HW234608   3.403   3.495   2.324  2.0860  0.5785  1.1440
 7659SOL     OW34609   0.383   1.834  10.168  0.0239  0.6248  0.4480
 7659SOL    HW134610   0.475   1.822  10.146 -0.5463  0.2919 -1.7123
 7659SOL    HW234611   0.367   1.908  10.110 -0.0476 -1.9321 -2.7727
 7660SOL     OW34612   3.466   1.045   9.039  0.6111 -0.2550  0.3650
 7660SOL    HW134613   3.518   0.999   9.105 -2.8100  1.6411  4.4103
 7660SOL    HW234614   3.520   1.037   8.961  0.0402 -1.3422  0.0875
 7661SOL     OW34615   1.573   0.199   3.597  0.1225 -0.5944 -0.2111
 7661SOL    HW134616   1.629   0.176   3.671  0.7375  2.1660  0.1850
 7661SOL    HW234617   1.628   0.188   3.520  0.2595 -0.4730 -0.1311
 7662SOL     OW34618   0.272   2.054  16.058 -0.3742  0.0329 -0.3345
 7662SOL    HW134619   0.249   2.147  16.048  0.0677  0.1699 -0.1136
 7662SOL    HW234620   0.192   2.009  16.033  0.3511 -0.1314 -2.3364
 7663SOL     OW34621   2.850   2.867   2.215 -0.4411 -0.0385  0.0268
 7663SOL    HW134622   2.845   2.851   2.121 -0.5101  1.3482 -0.2028
 7663SOL    HW234623   2.769   2.817   2.230 -0.6250  0.1471 -0.3611
 7664SOL     OW34624   1.009   0.855   6.388  0.1792  0.1386 -0.4126
 7664SOL    HW134625   0.936   0.886   6.335 -0.7114 -1.1349  0.0698
 7664SOL    HW234626   0.959   0.841   6.469 -0.9602  1.6613 -0.8663
 7665SOL     OW34627   3.406   3.091   6.761 -0.0754 -0.3515  0.1892
 7665SOL    HW134628   3.357   3.021   6.805 -0.0820 -0.7645 -0.4726
 7665SOL    HW234629   3.372   3.067   6.674 -1.4164  0.5842  0.4687
 7666SOL     OW34630   3.583   1.291   1.329 -0.1716 -0.0743  0.0918
 7666SOL    HW134631   3.516   1.298   1.260  0.8876  1.7709 -0.7536
 7666SOL    HW234632   3.641   1.366   1.314  1.1048 -1.4396 -1.7932
 7667SOL     OW34633   1.015   0.390   2.894  0.0051 -0.2917 -0.1085
 7667SOL    HW134634   1.042   0.298   2.888  2.5070  0.5036 -1.2532
 7667SOL    HW234635   1.063   0.420   2.971  0.3169  2.8586 -1.5407
 7668SOL     OW34636   3.857   4.032   3.374 -0.5577 -0.3585  0.0396
 7668SOL    HW134637   3.825   4.089   3.444 -0.3239  0.2992 -0.3868
 7668SOL    HW234638   3.862   3.948   3.420 -1.1540 -0.4075  0.0082
 7669SOL     OW34639   3.283   0.042   7.456  0.4470  0.0215 -0.4834
 7669SOL    HW134640   3.360   0.040   7.512  0.3822  0.7297 -0.3622
 7669SOL    HW234641   3.234   0.121   7.482 -0.4844 -1.0613  1.0907
 7670SOL     OW34642   3.549   4.607  11.785  0.0095 -0.6877  0.5016
 7670SOL    HW134643   3.573   4.694  11.815  0.1571 -0.6190  0.1767
 7670SOL    HW234644   3.481   4.587  11.850 -0.3990  2.2239  0.9497
 7671SOL     OW34645   0.785   0.354   3.221  0.0431 -0.2075  0.6559
 7671SOL    HW134646   0.764   0.442   3.251 -0.8476  0.0029 -0.5947
 7671SOL    HW234647   0.878   0.353   3.195 -0.5752  0.1697 -1.5801
 7672SOL     OW34648   4.378   0.516   5.562  0.2799 -1.2850  0.0958
 7672SOL    HW134649   4.311   0.530   5.496  1.0357  2.7652  0.1767
 7672SOL    HW234650   4.440   0.465   5.508  1.2809  2.4476 -2.2786
 7673SOL     OW34651   3.966   3.673   3.367  0.7120  0.2598  0.3382
 7673SOL    HW134652   3.900   3.625   3.317  0.8580  0.1761  0.2248
 7673SOL    HW234653   3.916   3.727   3.428 -1.6363 -2.7416  1.0867
 7674SOL     OW34654   2.871   0.737   2.986  0.1016  0.4198  0.1419
 7674SOL    HW134655   2.919   0.795   3.045 -2.2278  0.8891  1.5646
 7674SOL    HW234656   2.782   0.768   3.002  0.0241  0.5490 -0.5132
 7675SOL     OW34657   1.164   2.166   7.481 -0.0515  0.3182  0.4282
 7675SOL    HW134658   1.093   2.106   7.457  0.1102  0.8490 -1.3716
 7675SOL    HW234659   1.243   2.111   7.479  0.3650  0.8714  1.5658
 7676SOL     OW34660   3.433   3.368   5.010 -0.5150  0.0660  0.4138
 7676SOL    HW134661   3.525   3.362   5.037 -0.9753 -3.0843  1.2688
 7676SOL    HW234662   3.409   3.275   5.010  0.1193 -0.1038  3.2597
 7677SOL     OW34663   1.907   1.843  17.307 -0.3001 -0.0570 -0.1983
 7677SOL    HW134664   1.877   1.796  17.229  0.2810 -0.9786  0.1343
 7677SOL    HW234665   1.922   1.772  17.369 -1.3001  0.7349  0.9319
 7678SOL     OW34666   0.632   2.610  11.204  1.2061  0.5726  0.4831
 7678SOL    HW134667   0.690   2.630  11.130  1.3573 -1.9978 -0.0681
 7678SOL    HW234668   0.692   2.622  11.277  1.0297  1.4644  0.4915
 7679SOL     OW34669   3.585   1.918  15.267  0.5258 -0.1000 -0.1485
 7679SOL    HW134670   3.585   2.005  15.228 -0.7616  0.6831  1.6177
 7679SOL    HW234671   3.491   1.901  15.279  0.7250 -1.7985 -0.9437
 7680SOL     OW34672   3.696   0.641   9.008 -0.3196 -0.1975 -0.3759
 7680SOL    HW134673   3.650   0.613   9.088  1.2554  0.4665  0.7564
 7680SOL    HW234674   3.756   0.704   9.048 -0.8186 -0.0078  0.0717
 7681SOL     OW34675   4.313   4.331   2.641  0.4945 -0.0924  0.2473
 7681SOL    HW134676   4.309   4.236   2.630 -2.0142  0.0726 -0.1874
 7681SOL    HW234677   4.227   4.341   2.683  1.1386  0.5048  1.4247
 7682SOL     OW34678   4.723   1.342  12.632 -0.0276 -0.1316  0.4183
 7682SOL    HW134679   0.065   1.284  12.621  0.4660  0.8814 -1.4376
 7682SOL    HW234680   4.652   1.277  12.636  0.0743 -0.1550  1.8156
 7683SOL     OW34681   0.822   4.248  13.545  0.2924  0.5616 -0.2267
 7683SOL    HW134682   0.731   4.226  13.528  0.0620  1.7612 -0.5445
 7683SOL    HW234683   0.854   4.189  13.614  0.7952  0.0376 -0.8970
 7684SOL     OW34684   3.455   2.938  13.102 -0.3281 -0.2658 -0.3436
 7684SOL    HW134685   3.542   2.908  13.128 -0.8875 -0.7642  0.9695
 7684SOL    HW234686   3.456   3.026  13.138  0.0104 -0.3587 -0.1282
 7685SOL     OW34687   0.082   3.940   8.737 -0.2582  0.4596  0.0357
 7685SOL    HW134688   0.090   3.846   8.717 -1.6115  0.3442  0.0430
 7685SOL    HW234689   4.729   3.954   8.696 -0.4810  1.5455  0.8910
 7686SOL     OW34690   2.015   1.862   1.887 -0.5244  0.1054  0.0122
 7686SOL    HW134691   2.034   1.871   1.793 -1.2711  1.1451 -0.0389
 7686SOL    HW234692   1.969   1.945   1.896  2.0294  1.6415 -1.0506
 7687SOL     OW34693   2.153   2.877   3.323 -0.0637 -0.0036  0.4300
 7687SOL    HW134694   2.078   2.913   3.276  0.0188 -0.4477 -0.0317
 7687SOL    HW234695   2.211   2.865   3.248  0.6290  1.9095  0.6768
 7688SOL     OW34696   0.008   1.678  11.275  0.4019  0.0248  0.8993
 7688SOL    HW134697   0.072   1.619  11.315  1.1555 -0.2581 -0.7159
 7688SOL    HW234698   4.660   1.665  11.325  0.1729 -0.1211  0.4858
 7689SOL     OW34699   1.100   1.195  13.660 -0.2481  0.0599 -0.2843
 7689SOL    HW134700   1.102   1.290  13.670  0.8538  0.0357 -0.2998
 7689SOL    HW234701   1.008   1.174  13.679  0.1918 -1.1412  0.4783
 7690SOL     OW34702   0.028   0.594  12.957 -0.1178 -0.4929 -0.5069
 7690SOL    HW134703   0.071   0.656  13.016 -0.5486  0.9877 -1.7278
 7690SOL    HW234704   0.080   0.516  12.973  0.7899  0.6029  1.8523
 7691SOL     OW34705   2.155   1.495  16.530  0.6595  0.5398  0.1333
 7691SOL    HW134706   2.151   1.578  16.579  2.9684  0.8701 -0.2492
 7691SOL    HW234707   2.176   1.529  16.443  0.1840  0.0349 -0.1768
 7692SOL     OW34708   0.588   0.180  10.303  0.0296  0.5546 -0.6720
 7692SOL    HW134709   0.681   0.188  10.281 -0.3126  1.1300 -1.9012
 7692SOL    HW234710   0.560   0.262  10.342  3.4202  1.7819 -0.8247
 7693SOL     OW34711   4.163   2.451  14.891  0.0243  0.5845  0.4430
 7693SOL    HW134712   4.136   2.540  14.870 -0.0561 -0.6021 -4.4369
 7693SOL    HW234713   4.237   2.466  14.950  1.7871 -3.3396 -0.8070
 7694SOL     OW34714   1.307   0.563  11.193  0.5420  0.4586  0.4981
 7694SOL    HW134715   1.339   0.530  11.109 -0.0304  0.4112  0.3029
 7694SOL    HW234716   1.231   0.619  11.176  1.8882  1.9699 -0.5381
 7695SOL     OW34717   0.561   4.090  16.698  0.0528  0.0484  0.3038
 7695SOL    HW134718   0.551   4.185  16.706  0.0149 -0.1442  2.3583
 7695SOL    HW234719   0.651   4.094  16.667  0.2900 -0.7259  0.9013
 7696SOL     OW34720   4.423   0.708   8.826  0.1262 -0.2450 -0.3453
 7696SOL    HW134721   4.510   0.696   8.787 -0.1977  1.6062 -1.6960
 7696SOL    HW234722   4.399   0.617   8.842  1.2662 -0.2709  1.1542
 7697SOL     OW34723   3.038   4.166   3.197 -0.9479 -0.5439 -0.2693
 7697SOL    HW134724   2.981   4.157   3.121 -1.0974  0.9849 -0.3226
 7697SOL    HW234725   3.128   4.165   3.166 -0.6729 -0.5474  0.5298
 7698SOL     OW34726   1.853   4.540  13.266 -0.9076  0.1304  0.0088
 7698SOL    HW134727   1.871   4.595  13.191 -3.8694  2.6435  1.1280
 7698SOL    HW234728   1.831   4.606  13.332 -0.0582 -0.7305  1.1589
 7699SOL     OW34729   0.704   1.083   7.758  0.1241  0.4138 -0.2610
 7699SOL    HW134730   0.698   1.041   7.843  1.9949 -0.3053 -0.4711
 7699SOL    HW234731   0.647   1.024   7.709 -0.2813 -1.0296  1.9875
 7700SOL     OW34732   2.966   0.806   8.333  0.1107  0.5965  0.8309
 7700SOL    HW134733   2.971   0.726   8.385 -0.3335  1.0314  1.5332
 7700SOL    HW234734   3.058   0.821   8.311  0.4131 -2.1107  0.1817
 7701SOL     OW34735   4.445   2.331  16.840  0.6840 -0.1296 -0.2736
 7701SOL    HW134736   4.362   2.342  16.794  0.4131 -2.1206 -0.2733
 7701SOL    HW234737   4.480   2.419  16.855  1.4812 -0.5008  0.0677
 7702SOL     OW34738   0.822   2.518   1.319 -0.1648  0.2681 -0.4341
 7702SOL    HW134739   0.763   2.449   1.291  2.5567 -1.8981 -0.8746
 7702SOL    HW234740   0.803   2.583   1.251  1.8536  1.4526  0.1206
 7703SOL     OW34741   1.662   2.712  14.879  0.0494 -0.5917 -0.1802
 7703SOL    HW134742   1.658   2.733  14.786 -1.3095 -0.4166 -0.0713
 7703SOL    HW234743   1.716   2.633  14.875 -2.8722 -2.6003 -0.0213
 7704SOL     OW34744   0.996   4.067  11.723  0.1297 -0.4851 -0.4486
 7704SOL    HW134745   0.978   3.974  11.708 -0.0207 -0.6643  0.7819
 7704SOL    HW234746   0.983   4.069  11.818  1.4212 -3.1337 -0.2260
 7705SOL     OW34747   0.401   3.764   5.594 -0.5436  0.1775 -0.4331
 7705SOL    HW134748   0.331   3.746   5.657  2.2590  0.7559  2.8700
 7705SOL    HW234749   0.361   3.741   5.510 -0.3736  3.2387 -1.3589
 7706SOL     OW34750   0.104   2.459   4.407  0.2376 -0.8519  0.5983
 7706SOL    HW134751   0.192   2.449   4.369 -0.0499 -1.9636  0.2389
 7706SOL    HW234752   0.051   2.417   4.340 -0.5306 -0.5797  1.0365
 7707SOL     OW34753   1.258   3.197   4.288 -0.1835  0.1287 -0.2188
 7707SOL    HW134754   1.258   3.287   4.258 -0.1186 -0.3336 -1.5932
 7707SOL    HW234755   1.324   3.195   4.358 -0.4087 -1.1889 -0.0314
 7708SOL     OW34756   2.567   2.143  12.659 -0.3457 -0.2066  1.0004
 7708SOL    HW134757   2.496   2.087  12.691 -0.0967 -1.0976  0.0170
 7708SOL    HW234758   2.616   2.141  12.741  1.6177 -0.5670 -0.1777
 7709SOL     OW34759   4.135   4.640   4.580  0.3273  0.0360  0.1068
 7709SOL    HW134760   4.229   4.623   4.594  0.1516  0.4937  1.8782
 7709SOL    HW234761   4.122   4.612   4.490 -3.1543 -0.8781  0.9204
 7710SOL     OW34762   3.927   1.941  13.996 -0.0117  0.2031  0.5390
 7710SOL    HW134763   3.930   1.959  14.089 -1.1521  3.4541 -0.0603
 7710SOL    HW234764   3.889   1.853  13.986 -1.9649  1.1504 -0.4057
 7711SOL     OW34765   1.869   0.946   2.759  0.8836 -0.1301 -0.1516
 7711SOL    HW134766   1.818   1.025   2.774  3.6266  1.2778  1.8110
 7711SOL    HW234767   1.881   0.950   2.665  4.1303  0.3878  0.2686
 7712SOL     OW34768   1.508   1.512   1.986  0.6846  0.0934  0.4783
 7712SOL    HW134769   1.419   1.478   1.988 -0.3751  2.7796 -1.3355
 7712SOL    HW234770   1.539   1.466   1.908 -2.0106 -2.6954  1.0814
 7713SOL     OW34771   4.252   3.028   4.156 -0.2011  0.2689  0.0854
 7713SOL    HW134772   4.173   3.050   4.204 -0.7554  1.2009 -1.2546
 7713SOL    HW234773   4.212   2.960   4.102  0.4114  0.8899 -1.1481
 7714SOL     OW34774   2.637   4.325   5.575  0.1610  0.3960 -0.2748
 7714SOL    HW134775   2.658   4.308   5.667  3.0236 -0.0779 -1.0044
 7714SOL    HW234776   2.616   4.237   5.543  1.2359 -0.0400  0.1881
 7715SOL     OW34777   4.039   2.830   8.679  0.2447 -0.2439  0.0885
 7715SOL    HW134778   4.063   2.740   8.657 -1.9943 -0.4459 -1.5502
 7715SOL    HW234779   3.948   2.827   8.649  0.5387 -1.8288 -0.6297
 7716SOL     OW34780   4.591   4.079   7.794  0.1174 -0.0153 -0.0398
 7716SOL    HW134781   4.626   4.159   7.755 -0.1807 -0.1082 -0.5081
 7716SOL    HW234782   4.665   4.018   7.793 -0.1214 -0.3131  0.5444
 7717SOL     OW34783   0.269   4.459   2.949  0.2408 -0.5497  0.9428
 7717SOL    HW134784   0.195   4.477   2.890  0.6309  0.9471  0.9115
 7717SOL    HW234785   0.307   4.388   2.897 -1.5327 -1.3531  0.7225
 7718SOL     OW34786   0.969   4.251  11.541  0.4178 -0.5990  0.1216
 7718SOL    HW134787   0.944   4.314  11.608 -0.3667 -1.5019  0.6708
 7718SOL    HW234788   0.978   4.176  11.601  0.5427 -0.5641  0.1466
 7719SOL     OW34789   1.770   4.577  15.672 -0.3427 -0.4926  0.3290
 7719SOL    HW134790   1.780   4.559  15.579 -1.5644 -2.6354  0.6150
 7719SOL    HW234791   1.687   4.624  15.684  1.0031  1.9957 -0.2467
 7720SOL     OW34792   2.916   1.206   2.738 -0.3353  0.4398  0.5619
 7720SOL    HW134793   2.892   1.281   2.793  0.8508  1.3361 -0.1487
 7720SOL    HW234794   2.838   1.210   2.683  0.0868 -0.3954 -0.0959
 7721SOL     OW34795   3.614   0.909  12.774 -0.1459  0.1100 -0.4164
 7721SOL    HW134796   3.695   0.939  12.815  0.8236 -1.0377 -1.5164
 7721SOL    HW234797   3.630   0.933  12.682 -1.8184 -1.6359 -1.1737
 7722SOL     OW34798   1.511   0.893  10.670 -0.2121  0.7605 -0.1171
 7722SOL    HW134799   1.533   0.877  10.578 -0.4088 -3.0140  0.5243
 7722SOL    HW234800   1.421   0.860  10.673  0.0938 -0.1907 -1.3174
 7723SOL     OW34801   3.307   1.621   1.168 -0.1170  0.6335 -0.0899
 7723SOL    HW134802   3.401   1.605   1.158 -0.3311  0.1215 -1.2680
 7723SOL    HW234803   3.267   1.596   1.085 -0.0595  0.8691 -0.1876
 7724SOL     OW34804   1.405   4.632  17.287  0.5686  0.2934 -0.1570
 7724SOL    HW134805   1.365   4.544  17.284  2.9952 -0.9515  4.3892
 7724SOL    HW234806   1.387   4.672  17.372  2.0446  2.8415 -1.0565
 7725SOL     OW34807   3.553   1.123   3.101 -0.4448  0.1429 -0.0819
 7725SOL    HW134808   3.530   1.156   3.014 -3.1648 -0.7108  0.3381
 7725SOL    HW234809   3.540   1.206   3.148  1.6433 -1.3165  3.0960
 7726SOL     OW34810   0.734   3.815   9.898  0.7878 -0.4093  0.1320
 7726SOL    HW134811   0.800   3.746   9.886  0.4947 -0.9243  1.4997
 7726SOL    HW234812   0.756   3.868   9.974 -0.6163 -0.5095  0.6041
 7727SOL     OW34813   3.107   0.607   2.534  0.3901 -0.4828  0.1100
 7727SOL    HW134814   3.078   0.524   2.498  1.4796 -0.3905 -0.9877
 7727SOL    HW234815   3.031   0.645   2.578  2.7738  2.2761  1.8801
 7728SOL     OW34816   1.602   2.395  12.145  0.4660 -0.2704  0.2961
 7728SOL    HW134817   1.676   2.338  12.127  0.2661 -0.5632  0.3982
 7728SOL    HW234818   1.651   2.471  12.175 -1.5763  1.3324 -0.3772
 7729SOL     OW34819   1.624   2.634   4.524  0.0018  0.2684  0.4070
 7729SOL    HW134820   1.530   2.653   4.518 -0.5890 -2.0746  2.3682
 7729SOL    HW234821   1.623   2.540   4.539  1.1040  0.4997  1.8819
 7730SOL     OW34822   3.233   4.210  17.101 -0.0988 -0.8164  0.4100
 7730SOL    HW134823   3.213   4.118  17.120 -0.2509 -0.8932 -0.1200
 7730SOL    HW234824   3.153   4.251  17.132  1.4555  2.8587 -0.5048
 7731SOL     OW34825   4.266   3.093   8.443  0.4493  0.3960 -0.0871
 7731SOL    HW134826   4.353   3.056   8.453  0.7597  0.5638 -2.0073
 7731SOL    HW234827   4.282   3.180   8.480  0.8333 -0.5127  1.8324
 7732SOL     OW34828   2.862   3.545  10.831 -0.3483 -0.4180  0.3299
 7732SOL    HW134829   2.878   3.453  10.851  0.7125  0.2721  2.6197
 7732SOL    HW234830   2.948   3.567  10.796 -0.1884  0.0068  0.9951
 7733SOL     OW34831   1.778   2.279   1.102  0.0993  0.2518  0.5490
 7733SOL    HW134832   1.715   2.286   1.031 -0.4719  1.0366  1.1293
 7733SOL    HW234833   1.729   2.226   1.165  0.0646 -0.0489  0.2655
 7734SOL     OW34834   0.145   0.642  13.214 -0.4904  0.1377  0.1684
 7734SOL    HW134835   0.105   0.556  13.200  2.9715 -1.3007 -0.9945
 7734SOL    HW234836   0.235   0.611  13.219 -0.8642 -1.0527 -0.3256
 7735SOL     OW34837   3.836   3.019   3.321  0.2669 -0.5786 -0.1303
 7735SOL    HW134838   3.793   2.947   3.368 -0.0816  0.0438  0.5108
 7735SOL    HW234839   3.826   3.093   3.381 -0.7495 -1.4795  0.8338
 7736SOL     OW34840   1.253   2.322   8.609 -0.1484 -0.2681  0.4548
 7736SOL    HW134841   1.187   2.256   8.587 -0.5227  0.4188 -0.4513
 7736SOL    HW234842   1.200   2.395   8.639  3.2783  1.4995  2.2135
 7737SOL     OW34843   3.955   1.133  14.798 -0.2114  0.2780  0.7400
 7737SOL    HW134844   3.902   1.205  14.834  0.6075  1.2835 -0.1012
 7737SOL    HW234845   3.925   1.132  14.707 -0.2476  3.9663  0.7100
 7738SOL     OW34846   1.071   3.215   1.935  0.0164  0.4911 -0.2221
 7738SOL    HW134847   1.092   3.149   2.001  0.2336 -0.3978 -1.1658
 7738SOL    HW234848   1.094   3.294   1.983  0.4464  0.9123 -1.1165
 7739SOL     OW34849   2.338   2.507  14.195  0.3947 -0.2464 -0.0032
 7739SOL    HW134850   2.292   2.423  14.202  1.2943 -0.6178  1.3795
 7739SOL    HW234851   2.428   2.477  14.182 -0.5969 -2.5753 -1.5173
 7740SOL     OW34852   4.640   2.255   7.154 -0.7425 -0.6151 -0.0567
 7740SOL    HW134853   4.662   2.215   7.238 -2.1694 -0.3016  0.4709
 7740SOL    HW234854   4.548   2.231   7.143 -1.0325 -1.1640  3.3990
 7741SOL     OW34855   0.618   0.686   7.249 -0.1024 -0.2807 -0.2652
 7741SOL    HW134856   0.623   0.780   7.264 -1.8792 -0.1084 -0.7774
 7741SOL    HW234857   0.523   0.676   7.256 -0.2023  0.1379 -0.9588
 7742SOL     OW34858   1.582   4.422   6.036 -0.0471  0.9632 -0.3960
 7742SOL    HW134859   1.670   4.443   6.005  0.7912  0.6341  1.7875
 7742SOL    HW234860   1.545   4.407   5.949 -1.9912 -1.5306  0.8488
 7743SOL     OW34861   2.651   2.077   4.274  0.2519  0.2926  0.2453
 7743SOL    HW134862   2.564   2.062   4.237 -1.0622  1.9234  2.6996
 7743SOL    HW234863   2.683   1.994   4.309  1.7012  0.8405  0.2388
 7744SOL     OW34864   4.417   1.634   1.530  0.6849  0.5055 -0.5605
 7744SOL    HW134865   4.472   1.651   1.453 -0.3077  3.2788 -0.6555
 7744SOL    HW234866   4.468   1.565   1.571  0.4938  1.2190  0.8892
 7745SOL     OW34867   2.207   2.002   5.472 -0.6297 -0.5648 -0.2520
 7745SOL    HW134868   2.275   2.004   5.406 -0.4754 -1.1918 -0.1092
 7745SOL    HW234869   2.223   1.918   5.515 -2.2064 -1.2981 -1.0737
 7746SOL     OW34870   3.068   1.420   9.556 -0.0722  0.0167 -0.1846
 7746SOL    HW134871   2.973   1.426   9.562 -0.2734  0.3698 -3.6255
 7746SOL    HW234872   3.090   1.512   9.573 -1.0408  0.3343 -0.6701
 7747SOL     OW34873   2.330   3.070  16.286  0.4296  0.4943  0.3472
 7747SOL    HW134874   2.406   3.085  16.341  0.4305 -0.7936  0.6975
 7747SOL    HW234875   2.307   3.156  16.251  2.8194  0.7323 -0.6397
 7748SOL     OW34876   1.719   0.403   2.404 -0.0997 -0.3464 -0.4445
 7748SOL    HW134877   1.797   0.449   2.373  0.6554 -1.9332 -0.8810
 7748SOL    HW234878   1.651   0.464   2.372  0.7406 -0.4728 -2.4836
 7749SOL     OW34879   2.644   4.565   0.497 -0.4841  0.2086 -0.0589
 7749SOL    HW134880   2.628   4.617   0.417 -2.2388  0.7502  0.6470
 7749SOL    HW234881   2.568   4.582   0.552  1.5112  0.6789  2.5523
 7750SOL     OW34882   3.391   4.605   7.792  0.0937 -0.6517 -0.5707
 7750SOL    HW134883   3.309   4.655   7.791  0.5143  0.0690  0.1946
 7750SOL    HW234884   3.420   4.631   7.880  0.6654  1.9713 -1.5217
 7751SOL     OW34885   2.175   0.434   6.544  0.0819 -0.3560 -0.1805
 7751SOL    HW134886   2.202   0.447   6.453  1.4569 -2.0304 -0.0137
 7751SOL    HW234887   2.097   0.489   6.554  0.5782  0.8010 -2.7210
 7752SOL     OW34888   0.338   1.130   1.552  0.0782  0.1507 -0.2789
 7752SOL    HW134889   0.389   1.050   1.557  1.4564  1.0337 -0.1677
 7752SOL    HW234890   0.327   1.142   1.457  1.4415 -1.4785 -0.6240
 7753SOL     OW34891   4.340   3.504   3.014 -0.4587 -0.0604  0.1034
 7753SOL    HW134892   4.294   3.545   3.086  0.7850  0.7802  0.4243
 7753SOL    HW234893   4.313   3.412   3.022 -1.7552  0.3948  0.7810
 7754SOL     OW34894   0.492   2.180   2.999  0.5549 -0.0415 -0.2143
 7754SOL    HW134895   0.535   2.161   3.082 -0.8425 -1.3462  0.2270
 7754SOL    HW234896   0.401   2.169   3.027  0.3619 -0.1556 -0.8891
 7755SOL     OW34897   1.854   4.502  15.388  0.0947  0.4753  0.1780
 7755SOL    HW134898   1.890   4.418  15.416 -4.0661 -1.3677  0.0654
 7755SOL    HW234899   1.931   4.547  15.354 -0.1113 -1.4383 -2.8399
 7756SOL     OW34900   0.980   0.731  12.633 -0.0121 -0.0974  0.1691
 7756SOL    HW134901   1.043   0.675  12.587 -0.4987 -1.0023  0.5964
 7756SOL    HW234902   0.993   0.698  12.722 -0.9430 -2.9205 -0.7090
 7757SOL     OW34903   3.517   4.479   1.381 -0.4598 -0.5139  0.3892
 7757SOL    HW134904   3.572   4.536   1.434 -0.8757 -0.4448  0.7474
 7757SOL    HW234905   3.475   4.415   1.437  2.1336 -1.3199  1.3861
 7758SOL     OW34906   1.729   4.643   3.477 -0.0429 -0.2797 -0.4925
 7758SOL    HW134907   1.735   4.733   3.445  3.5429 -1.0759 -1.9435
 7758SOL    HW234908   1.637   4.643   3.504 -0.1195  1.1221 -0.7558
 7759SOL     OW34909   4.679   0.805   2.905  0.4375  0.1498  0.1603
 7759SOL    HW134910   0.025   0.833   2.860 -1.2730  3.5290 -0.7474
 7759SOL    HW234911   4.644   0.733   2.853  2.8298  0.4022 -1.7906
 7760SOL     OW34912   2.467   3.896   2.393 -0.2656  0.3542 -0.2240
 7760SOL    HW134913   2.502   3.807   2.398  0.0743  0.3723 -2.3501
 7760SOL    HW234914   2.466   3.919   2.486  1.9513  2.4404 -0.6930
 7761SOL     OW34915   2.528   0.261  16.621  0.0300 -0.0359  0.0060
 7761SOL    HW134916   2.514   0.215  16.538 -2.4016  1.7752 -0.6024
 7761SOL    HW234917   2.621   0.283  16.617 -0.1044  0.4050 -0.6922
 7762SOL     OW34918   1.224   2.211   6.601 -0.2853 -0.2221  0.1399
 7762SOL    HW134919   1.150   2.264   6.629 -0.8525 -2.3019  2.6315
 7762SOL    HW234920   1.300   2.245   6.649  0.2300  0.0391 -0.8624
 7763SOL     OW34921   2.519   3.428  12.255 -0.1976 -0.5555  0.2942
 7763SOL    HW134922   2.574   3.363  12.211 -2.5572 -1.2648 -1.6716
 7763SOL    HW234923   2.521   3.395  12.345 -0.2064 -0.6095  0.2746
 7764SOL     OW34924   3.635   4.334   1.743 -0.3104  0.2706  0.2796
 7764SOL    HW134925   3.721   4.326   1.703 -0.1827  1.2545  0.3698
 7764SOL    HW234926   3.642   4.293   1.830  0.2287  1.4305  0.7770
 7765SOL     OW34927   3.614   2.038   3.417 -0.4006  0.5566 -0.0918
 7765SOL    HW134928   3.594   1.961   3.470 -1.7409  0.5365 -0.6320
 7765SOL    HW234929   3.560   2.109   3.451  0.2203  1.2201 -0.5175
 7766SOL     OW34930   0.068   3.073   2.748  0.2083  0.3845  1.2157
 7766SOL    HW134931   0.135   3.005   2.736  0.0862  0.3570  0.7164
 7766SOL    HW234932   0.084   3.132   2.675 -0.4835 -0.8984  0.0461
 7767SOL     OW34933   3.617   0.086  17.285 -0.3004  0.5650  0.2661
 7767SOL    HW134934   3.601   0.088  17.190  4.0663 -0.7463 -0.4839
 7767SOL    HW234935   3.561   0.152  17.326 -0.5540  1.2026 -1.0990
 7768SOL     OW34936   1.028   1.281   5.307  0.3911  0.5427 -0.7550
 7768SOL    HW134937   0.981   1.217   5.253 -2.1623  0.4511  1.5957
 7768SOL    HW234938   1.115   1.248   5.284 -0.9443 -1.8149 -2.5114
 7769SOL     OW34939   3.779   4.634   6.370 -0.2066  0.4052  0.0554
 7769SOL    HW134940   3.860   4.606   6.412 -1.1218  0.3766  1.8294
 7769SOL    HW234941   3.815   4.704   6.315  0.6557 -1.5825 -1.8959
 7770SOL     OW34942   4.082   4.344   7.238  0.2894  0.2713  0.2443
 7770SOL    HW134943   4.000   4.327   7.284 -0.1860  1.2637 -0.2635
 7770SOL    HW234944   4.089   4.439   7.247 -2.3368  0.5991 -1.2075
 7771SOL     OW34945   2.249   0.877   6.035  0.2369  0.1323  0.6935
 7771SOL    HW134946   2.176   0.937   6.020  0.3674  0.0396 -0.3421
 7771SOL    HW234947   2.315   0.908   5.973  0.8887  0.0268  1.3424
 7772SOL     OW34948   1.649   2.648   8.939 -0.7593  0.2051  0.5303
 7772SOL    HW134949   1.701   2.729   8.944  0.0219 -0.1168 -2.3680
 7772SOL    HW234950   1.699   2.591   8.997 -0.8900 -0.7225 -0.2872
 7773SOL     OW34951   2.755   2.802  13.165 -0.4949 -0.0432  0.2502
 7773SOL    HW134952   2.763   2.721  13.215 -0.3391  0.0684  0.4068
 7773SOL    HW234953   2.803   2.769  13.090 -0.5801 -0.4562  0.3768
 7774SOL     OW34954   2.789   1.240  13.099  0.1667  0.0636  0.4564
 7774SOL    HW134955   2.790   1.300  13.174  1.7333  1.5066 -0.7094
 7774SOL    HW234956   2.725   1.180  13.137 -2.0528  1.6227 -0.8061
 7775SOL     OW34957   4.502   4.040   1.979  0.0278 -0.1564  0.6996
 7775SOL    HW134958   4.548   3.956   1.970  0.8493  0.6804 -2.9137
 7775SOL    HW234959   4.411   4.010   1.979  0.5548 -1.7317 -0.0747
 7776SOL     OW34960   1.187   2.351   1.637  0.6535  0.1436  0.0429
 7776SOL    HW134961   1.240   2.276   1.662  1.0937  0.5676  0.3667
 7776SOL    HW234962   1.105   2.305   1.620  0.6513  0.0557  0.2891
 7777SOL     OW34963   1.091   4.373  10.729  0.2872  0.1887  0.4124
 7777SOL    HW134964   1.077   4.306  10.796 -0.0133  0.2205  0.3834
 7777SOL    HW234965   1.141   4.320  10.667 -1.0894 -1.5427  0.7745
 7778SOL     OW34966   1.533   2.173   1.590  0.8709 -0.5302  0.1566
 7778SOL    HW134967   1.581   2.092   1.608  2.7367  0.8865  1.6560
 7778SOL    HW234968   1.605   2.236   1.582  0.3590  0.0769  0.3179
 7779SOL     OW34969   4.274   0.983   3.810 -0.4502 -0.4711 -0.0279
 7779SOL    HW134970   4.274   0.982   3.906  3.0868  3.2612  0.0137
 7779SOL    HW234971   4.340   0.917   3.794  0.5382 -0.1004  2.4844
 7780SOL     OW34972   4.148   4.011   3.491 -0.1084  0.2845 -0.0257
 7780SOL    HW134973   4.108   4.064   3.560  0.1963  0.3713  0.0867
 7780SOL    HW234974   4.224   4.068   3.474  0.3407  0.0216  1.1084
 7781SOL     OW34975   3.213   3.169   3.791  0.1415  0.4419  0.0524
 7781SOL    HW134976   3.270   3.148   3.864 -1.3548  2.0776  1.7113
 7781SOL    HW234977   3.211   3.265   3.790  1.1861  0.4497 -1.7555
 7782SOL     OW34978   0.288   2.592   0.393  0.2425 -0.3151  0.0318
 7782SOL    HW134979   0.257   2.507   0.360 -0.9260  1.0799 -2.4546
 7782SOL    HW234980   0.254   2.657   0.331  1.5265  0.4295  0.1053
 7783SOL     OW34981   1.701   4.305  13.202  0.3423  0.9183 -0.3696
 7783SOL    HW134982   1.682   4.357  13.123 -0.9852 -0.7716 -1.1661
 7783SOL    HW234983   1.749   4.373  13.250  0.4979  1.0315 -0.6794
 7784SOL     OW34984   2.994   1.102  12.849 -0.1982  0.4169 -0.3191
 7784SOL    HW134985   2.926   1.166  12.869 -0.2196 -0.0919  1.1866
 7784SOL    HW234986   2.962   1.061  12.768 -1.9067  1.4686 -0.1858
 7785SOL     OW34987   2.336   1.862   2.797 -0.3450 -0.6935  0.2918
 7785SOL    HW134988   2.408   1.926   2.793 -2.7959  2.1485  1.4882
 7785SOL    HW234989   2.386   1.798   2.847 -1.6080 -0.4828  1.8253
 7786SOL     OW34990   0.939   0.304   7.898  0.1738 -0.2749 -0.2386
 7786SOL    HW134991   0.892   0.229   7.861 -0.1283 -0.5786  0.7579
 7786SOL    HW234992   0.973   0.276   7.983 -1.6781  1.4989  1.1085
 7787SOL     OW34993   2.425   4.593  13.514 -0.1487  0.1190  0.3137
 7787SOL    HW134994   2.469   4.662  13.564 -1.0869  1.6746 -1.0077
 7787SOL    HW234995   2.351   4.648  13.487  1.6127  1.0447 -2.6252
 7788SOL     OW34996   3.027   0.267   7.826 -0.3181 -0.5690 -0.0805
 7788SOL    HW134997   3.093   0.319   7.871 -1.5173 -0.4640  1.5608
 7788SOL    HW234998   2.946   0.316   7.841  0.3369  0.1969  0.9646
 7789SOL     OW34999   0.028   2.561   2.521 -0.3724  0.6289 -0.1815
 7789SOL    HW135000   0.085   2.542   2.447 -3.1510 -0.0671 -2.1525
 7789SOL    HW235001   4.678   2.577   2.475  1.6870 -0.1552 -4.1778
 7790SOL     OW35002   3.538   2.194  13.883  0.2280 -0.4443 -0.6437
 7790SOL    HW135003   3.591   2.252  13.939 -0.3853 -1.3301  0.8446
 7790SOL    HW235004   3.599   2.128  13.848  0.9487  0.2994 -0.8110
 7791SOL     OW35005   2.984   0.783  16.900  0.4444 -0.8472 -0.9081
 7791SOL    HW135006   2.962   0.875  16.916 -0.1570 -1.1945  0.3068
 7791SOL    HW235007   2.939   0.741  16.974 -0.7201  1.7082 -0.1773
 7792SOL     OW35008   2.895   1.228  14.490 -0.6151  0.6477 -0.0435
 7792SOL    HW135009   2.831   1.297  14.511  2.0982  2.9486  0.6400
 7792SOL    HW235010   2.837   1.154  14.506 -2.1625  1.9309  0.3617
 7793SOL     OW35011   0.745   4.598   7.632  0.3592 -0.1990 -0.1284
 7793SOL    HW135012   0.714   4.509   7.614  1.1111 -0.5699  0.4366
 7793SOL    HW235013   0.659   4.640   7.637 -0.8089 -2.8077  1.8145
 7794SOL     OW35014   4.336   0.280  13.309  0.0887 -0.2316  0.0126
 7794SOL    HW135015   4.259   0.296  13.363 -0.6607 -0.1890 -1.0788
 7794SOL    HW235016   4.345   0.185  13.316 -0.9230 -0.1236  2.7575
 7795SOL     OW35017   0.610   2.456   3.643 -0.2928 -0.5060  0.4392
 7795SOL    HW135018   0.517   2.472   3.624 -0.3522  0.2927  1.4257
 7795SOL    HW235019   0.624   2.514   3.717 -3.2068 -0.6130  1.0605
 7796SOL     OW35020   1.205   1.938   9.030 -0.3407  0.4242  0.3178
 7796SOL    HW135021   1.222   1.921   8.937  0.6547  1.2372  0.3580
 7796SOL    HW235022   1.120   1.980   9.020 -0.5823  0.2341  1.5546
 7797SOL     OW35023   0.497   1.637   7.786  1.0140 -0.5032  0.4135
 7797SOL    HW135024   0.404   1.661   7.789  2.0424  3.9324 -3.0612
 7797SOL    HW235025   0.537   1.711   7.832  0.2985  0.1027  0.0570
 7798SOL     OW35026   0.706   3.661   4.174 -0.3463 -0.0267 -0.2932
 7798SOL    HW135027   0.643   3.601   4.215 -0.7265 -0.2103 -1.1603
 7798SOL    HW235028   0.737   3.613   4.098 -0.0442 -2.2242  1.2137
 7799SOL     OW35029   4.705   1.141   1.895 -0.5961 -0.2358  0.9649
 7799SOL    HW135030   4.654   1.069   1.933 -0.1495 -1.1392 -0.1551
 7799SOL    HW235031   0.004   1.085   1.824  1.8947  0.8785  1.2266
 7800SOL     OW35032   0.721   2.486   6.852  0.0438 -0.3517 -0.8577
 7800SOL    HW135033   0.627   2.493   6.869 -0.6994 -2.9003 -3.9783
 7800SOL    HW235034   0.721   2.513   6.760  1.1550  0.5650 -0.5845
 7801SOL     OW35035   3.051   0.336   8.326 -0.1872  0.1135  0.3664
 7801SOL    HW135036   3.061   0.256   8.378  1.8305 -0.0462 -0.2497
 7801SOL    HW235037   2.998   0.297   8.256 -1.3271  0.0416  1.2745
 7802SOL     OW35038   0.909   2.517   5.438 -0.0894 -0.1951  0.3553
 7802SOL    HW135039   0.836   2.456   5.445 -0.6778  0.3889 -0.6829
 7802SOL    HW235040   0.959   2.477   5.366  0.9823 -0.2450  1.1248
 7803SOL     OW35041   3.329   2.022   8.503  0.3013  0.0791  0.0148
 7803SOL    HW135042   3.334   2.105   8.454 -1.2844  0.5035  0.5844
 7803SOL    HW235043   3.287   2.054   8.582 -1.1976 -3.2305  0.5485
 7804SOL     OW35044   1.091   4.489   3.397 -0.1930  0.2788 -0.2975
 7804SOL    HW135045   1.181   4.520   3.389 -0.7577  2.0922  0.5675
 7804SOL    HW235046   1.049   4.514   3.314 -2.1743 -2.3204 -0.0866
 7805SOL     OW35047   3.931   1.611   2.565  0.3724 -0.1694  0.2397
 7805SOL    HW135048   3.907   1.652   2.648  0.1742 -1.0285  0.6097
 7805SOL    HW235049   3.878   1.532   2.572 -1.4550  0.8616 -1.9686
 7806SOL     OW35050   2.471   3.270   1.903  0.0939  0.3406  0.0614
 7806SOL    HW135051   2.415   3.206   1.860 -0.5219  0.6653  0.3726
 7806SOL    HW235052   2.524   3.281   1.825 -0.0189  0.5964  0.0201
 7807SOL     OW35053   2.341   0.991   3.916 -0.2592  0.7671 -0.1873
 7807SOL    HW135054   2.317   1.016   3.827 -0.8763 -0.2542 -0.3090
 7807SOL    HW235055   2.285   1.039   3.976 -1.8483 -1.1101 -0.1693
 7808SOL     OW35056   2.481   0.489   9.033 -0.1143  0.1490  0.0325
 7808SOL    HW135057   2.496   0.395   9.028 -1.4900 -0.0041 -1.4105
 7808SOL    HW235058   2.404   0.494   9.090  1.0580  1.2548  1.5095
 7809SOL     OW35059   0.562   4.408   4.659 -0.2346 -0.5104 -0.2982
 7809SOL    HW135060   0.516   4.486   4.629 -0.7347 -1.2966 -1.6062
 7809SOL    HW235061   0.597   4.380   4.574 -0.3359  1.0273 -0.8396
 7810SOL     OW35062   0.301   0.483   4.557  0.4612  0.1090  0.1483
 7810SOL    HW135063   0.206   0.485   4.554  0.3542 -1.2179  3.9013
 7810SOL    HW235064   0.313   0.571   4.521  0.5043  0.1112  0.1669
 7811SOL     OW35065   4.515   0.531   6.849 -0.0106 -0.5417  0.2644
 7811SOL    HW135066   4.602   0.549   6.814 -0.3019 -0.5345 -0.4512
 7811SOL    HW235067   4.529   0.519   6.943  1.7305  0.4214  0.1359
 7812SOL     OW35068   2.067   0.025   8.248 -0.1803 -0.2621  0.3780
 7812SOL    HW135069   2.022   4.701   8.187 -0.2111 -1.6451  1.6993
 7812SOL    HW235070   2.026   4.723   8.326 -1.5705  2.0252  0.6933
 7813SOL     OW35071   4.457   4.710   2.408  0.0114 -0.1514 -0.2620
 7813SOL    HW135072   4.414   0.041   2.465 -0.1888 -2.6243  2.4086
 7813SOL    HW235073   4.416   4.631   2.441  0.9334 -0.7128 -0.4520
 7814SOL     OW35074   0.887   3.491   3.683 -0.4939  0.0554  0.1832
 7814SOL    HW135075   0.865   3.492   3.589  0.9607  3.1802 -0.1198
 7814SOL    HW235076   0.809   3.444   3.711 -0.3859  0.8461  1.7897
 7815SOL     OW35077   1.239   3.993  17.116 -0.0876 -0.2499 -1.4518
 7815SOL    HW135078   1.262   3.936  17.043 -0.8982 -4.5375  1.6333
 7815SOL    HW235079   1.323   4.037  17.117  0.1125 -0.6153 -2.2342
 7816SOL     OW35080   3.741   2.090  10.726  0.1301  0.3887 -0.0061
 7816SOL    HW135081   3.689   2.048  10.656  0.3459  0.3951 -0.1714
 7816SOL    HW235082   3.822   2.106  10.677  1.3323  1.2255  2.2892
 7817SOL     OW35083   0.977   4.014   8.195 -0.3543  0.4114  0.0501
 7817SOL    HW135084   0.904   3.963   8.229  0.2271 -1.2357 -1.1426
 7817SOL    HW235085   1.002   4.065   8.271 -0.0309 -1.7566  1.3962
 7818SOL     OW35086   2.725   3.135   6.816  0.1666  0.3111  0.0261
 7818SOL    HW135087   2.807   3.108   6.858 -0.5782 -0.7163  0.8208
 7818SOL    HW235088   2.677   3.054   6.798 -0.5973  0.6977  0.3409
 7819SOL     OW35089   2.508   4.406   6.388 -0.2799  0.1514 -0.1501
 7819SOL    HW135090   2.562   4.339   6.429  0.1060 -0.0642 -0.9990
 7819SOL    HW235091   2.556   4.481   6.423 -1.5806  1.6682 -1.6066
 7820SOL     OW35092   3.815   2.831   2.441  0.0513  0.2712  0.0407
 7820SOL    HW135093   3.753   2.887   2.487 -0.5899 -0.6831  0.3298
 7820SOL    HW235094   3.878   2.897   2.414  0.3257  0.6310  1.6118
 7821SOL     OW35095   1.991   4.252   3.629 -0.1644 -0.1839 -0.6224
 7821SOL    HW135096   1.930   4.285   3.563 -2.8548 -1.2880  1.3238
 7821SOL    HW235097   1.929   4.210   3.689  0.4912  1.3041  1.0962
 7822SOL     OW35098   3.010   2.877   5.200 -0.2967  0.5694  0.3436
 7822SOL    HW135099   3.036   2.964   5.169  2.7076 -0.1061  0.9831
 7822SOL    HW235100   2.999   2.901   5.292  0.6805 -0.1288  0.6498
 7823SOL     OW35101   0.572   2.596   4.850 -0.0655 -0.5107  0.1017
 7823SOL    HW135102   0.590   2.548   4.930  2.1992 -1.1790 -0.7974
 7823SOL    HW235103   0.523   2.672   4.880  1.3573 -0.4045  2.0969
 7824SOL     OW35104   1.030   3.596  11.938 -0.2024 -0.1385 -0.3011
 7824SOL    HW135105   1.074   3.646  12.007 -0.9393 -0.7247  0.5880
 7824SOL    HW235106   0.936   3.603  11.955 -0.1410  2.7955 -1.0245
 7825SOL     OW35107   3.752   1.867   9.940  0.0725 -0.0126  0.5227
 7825SOL    HW135108   3.789   1.905   9.861 -0.7388  1.5503  0.8984
 7825SOL    HW235109   3.800   1.784   9.945 -1.2822 -0.8157  0.2218
 7826SOL     OW35110   1.018   2.227   8.852 -0.8833  0.3469  0.5069
 7826SOL    HW135111   1.068   2.146   8.847 -0.0106  1.0689 -2.8540
 7826SOL    HW235112   0.942   2.184   8.891 -1.4913  0.0836 -0.9849
 7827SOL     OW35113   4.635   4.425   0.573  0.3360 -0.0089  0.4714
 7827SOL    HW135114   4.704   4.372   0.534  0.0890 -0.6207  0.8537
 7827SOL    HW235115   4.594   4.365   0.636 -1.9551  1.3082  0.2347
 7828SOL     OW35116   3.333   3.771  11.888  0.4727  0.1719  0.1591
 7828SOL    HW135117   3.284   3.691  11.870  1.2804 -0.0923 -0.8744
 7828SOL    HW235118   3.286   3.809  11.962  0.2824  3.6159 -1.7180
 7829SOL     OW35119   2.182   0.037  11.170  0.5588  0.8429  0.1963
 7829SOL    HW135120   2.101   0.088  11.169 -0.9506 -1.5773 -1.4494
 7829SOL    HW235121   2.210   0.044  11.261  0.0786  0.6228  0.3589
 7830SOL     OW35122   3.076   0.765   5.923 -0.8042 -0.1045 -0.1394
 7830SOL    HW135123   2.985   0.761   5.893 -0.9169  0.1655  0.1754
 7830SOL    HW235124   3.107   0.815   5.848 -0.8940  0.3419  0.1236
 7831SOL     OW35125   2.180   1.382  11.821  0.2103  0.2538  0.5839
 7831SOL    HW135126   2.094   1.420  11.837  0.1125 -0.0984  0.8947
 7831SOL    HW235127   2.218   1.392  11.909 -1.8274 -2.5194  1.7699
 7832SOL     OW35128   0.663   1.036   4.898  0.6027  0.4159 -0.1358
 7832SOL    HW135129   0.740   1.002   4.943  0.7252 -0.1573 -0.7729
 7832SOL    HW235130   0.681   1.003   4.810 -0.4343  0.1939 -0.2622
 7833SOL     OW35131   1.532   3.931  15.046  0.3277  0.4644  0.0994
 7833SOL    HW135132   1.472   3.856  15.042 -0.9414  1.4777 -0.1327
 7833SOL    HW235133   1.563   3.916  15.135  2.5606 -0.6108 -0.8535
 7834SOL     OW35134   1.253   0.484   0.978  0.6030  0.3040 -0.3020
 7834SOL    HW135135   1.166   0.448   0.997  0.2418  1.0101 -0.5864
 7834SOL    HW235136   1.297   0.425   0.917  1.5153  0.8855 -0.1958
 7835SOL     OW35137   2.079   2.963   2.655 -0.1392  0.2227 -0.0855
 7835SOL    HW135138   2.113   2.953   2.744 -2.2328 -1.5937  0.4834
 7835SOL    HW235139   2.007   3.022   2.677  0.2277  0.8688 -0.6028
 7836SOL     OW35140   1.287   2.514   2.269 -0.0358 -0.0728 -0.1958
 7836SOL    HW135141   1.352   2.445   2.261  0.6471  0.5700 -0.2482
 7836SOL    HW235142   1.241   2.506   2.353  0.0339  0.1085 -0.1397
 7837SOL     OW35143   3.857   0.975   6.191 -0.2197 -0.8352  0.0552
 7837SOL    HW135144   3.865   1.009   6.101  1.2078 -0.4648  0.3256
 7837SOL    HW235145   3.831   1.052   6.241 -2.0034 -0.0943 -2.0276
 7838SOL     OW35146   1.036   3.734  12.191  0.1218 -0.4157 -0.5030
 7838SOL    HW135147   1.030   3.677  12.268  3.0369  0.8918  0.6774
 7838SOL    HW235148   1.123   3.773  12.192  0.0980 -0.3904  1.0639
 7839SOL     OW35149   4.090   0.052   1.767  0.2309  0.5396  0.0841
 7839SOL    HW135150   4.171   0.014   1.731 -2.0307 -2.6516 -1.5882
 7839SOL    HW235151   4.104   0.035   1.860 -1.4228 -1.4455 -0.0455
 7840SOL     OW35152   3.139   3.124  15.137 -0.3341  0.1438  0.0628
 7840SOL    HW135153   3.171   3.074  15.212 -2.2743 -0.2840  0.6056
 7840SOL    HW235154   3.047   3.137  15.160 -0.4723  1.5097 -1.2714
 7841SOL     OW35155   0.191   1.507   6.645 -0.2763 -0.2970 -0.1427
 7841SOL    HW135156   0.170   1.419   6.677  0.4888  0.0459  1.2940
 7841SOL    HW235157   0.276   1.515   6.687 -0.3475  0.5213 -0.1568
 7842SOL     OW35158   3.963   3.189  10.409  0.2251  0.6258  0.0216
 7842SOL    HW135159   4.045   3.227  10.377  0.2986  0.0952 -0.4259
 7842SOL    HW235160   3.928   3.270  10.446  0.3099  0.6662  0.0138
 7843SOL     OW35161   3.232   4.246   2.734  0.5282 -0.1660  0.6537
 7843SOL    HW135162   3.150   4.294   2.726 -0.1358 -1.7365 -1.9345
 7843SOL    HW235163   3.280   4.309   2.788 -1.7072  0.9226  1.3902
 7844SOL     OW35164   4.379   3.586   6.426  0.0272 -0.7196  0.2714
 7844SOL    HW135165   4.298   3.536   6.427 -0.3972 -0.0248  1.4426
 7844SOL    HW235166   4.350   3.673   6.454 -0.7410 -0.6978 -0.6061
 7845SOL     OW35167   4.715   2.955   4.645  0.1696  0.2892 -0.6801
 7845SOL    HW135168   4.695   2.897   4.719  1.5773  0.2884 -0.3056
 7845SOL    HW235169   4.629   2.952   4.602 -0.0436  0.8085 -0.2920
 7846SOL     OW35170   3.390   0.539   1.197 -0.1727 -0.7133  0.1760
 7846SOL    HW135171   3.364   0.514   1.108  1.9995 -2.9775  0.1760
 7846SOL    HW235172   3.348   0.625   1.196  0.2246 -0.4836  3.9429
 7847SOL     OW35173   2.218   2.023  14.475  0.6603 -0.4294 -0.3260
 7847SOL    HW135174   2.247   1.981  14.555  1.3431  2.3234  0.8533
 7847SOL    HW235175   2.139   1.975  14.449 -0.8929  1.3524  1.1069
 7848SOL     OW35176   3.752   4.660   4.687 -1.0710 -0.3952  0.7869
 7848SOL    HW135177   3.820   4.723   4.710 -1.7334  0.9511 -0.9978
 7848SOL    HW235178   3.709   4.714   4.621 -0.2500 -0.3024  0.3237
 7849SOL     OW35179   3.740   0.526  11.321 -0.3077  0.2189 -0.4666
 7849SOL    HW135180   3.799   0.519  11.247  1.0758 -0.3763  0.7071
 7849SOL    HW235181   3.761   0.614  11.352 -0.5896  1.0282 -2.5744
 7850SOL     OW35182   3.954   4.381   9.840  0.4667  0.3730  0.1885
 7850SOL    HW135183   4.037   4.391   9.887  1.1638 -0.9847 -0.7489
 7850SOL    HW235184   3.905   4.328   9.903 -1.9662  1.4823 -0.7533
 7851SOL     OW35185   3.360   1.530   2.078  0.0433  0.0969  0.1184
 7851SOL    HW135186   3.451   1.552   2.058  0.2691 -1.6828 -0.8968
 7851SOL    HW235187   3.349   1.444   2.036 -0.4970  0.2863 -0.1231
 7852SOL     OW35188   4.475   3.204   4.178 -0.3938  0.5009  0.4490
 7852SOL    HW135189   4.417   3.139   4.139 -1.2083  1.0458  0.7577
 7852SOL    HW235190   4.449   3.284   4.132  0.1113 -0.3045 -1.2422
 7853SOL     OW35191   4.476   0.855   6.967 -0.3416 -0.4869 -0.1642
 7853SOL    HW135192   4.571   0.849   6.965 -0.3009  0.6361 -2.0683
 7853SOL    HW235193   4.456   0.871   6.874  0.9594  0.5206 -0.2587
 7854SOL     OW35194   4.069   0.591  12.945  0.4932 -0.7257  0.2130
 7854SOL    HW135195   4.051   0.500  12.918  0.4299 -0.7648  0.3841
 7854SOL    HW235196   4.077   0.579  13.040 -2.1156 -1.2281  0.3647
 7855SOL     OW35197   3.341   1.457   4.331  0.0753 -0.4596 -0.0760
 7855SOL    HW135198   3.259   1.471   4.283 -0.2472 -0.2860  0.5230
 7855SOL    HW235199   3.313   1.394   4.398  1.9229 -0.8189  0.3504
 7856SOL     OW35200   2.961   4.430   9.963 -0.1882  0.7103  0.0163
 7856SOL    HW135201   2.889   4.483   9.929 -1.2488 -2.2488 -2.3185
 7856SOL    HW235202   3.012   4.419   9.883  0.5377  0.5979  0.4948
 7857SOL     OW35203   3.626   0.854  10.770  0.8112  0.1376 -0.0458
 7857SOL    HW135204   3.544   0.820  10.805  0.6301 -0.0695 -0.6854
 7857SOL    HW235205   3.672   0.901  10.841  1.0178  0.5332 -0.4424
 7858SOL     OW35206   2.911   1.547   4.028 -0.0129  0.2750  0.2502
 7858SOL    HW135207   2.831   1.524   3.981 -0.6377  0.0423  1.4177
 7858SOL    HW235208   2.899   1.642   4.035 -0.1655  0.3577 -1.2060
 7859SOL     OW35209   2.760   0.716   6.123 -0.4639  0.0719 -0.3654
 7859SOL    HW135210   2.761   0.799   6.076  2.2129 -0.4619 -1.2392
 7859SOL    HW235211   2.723   0.744   6.207 -2.3789  0.8045 -1.4382
 7860SOL     OW35212   0.945   2.149   3.095  0.0085  0.6216  0.4500
 7860SOL    HW135213   0.984   2.148   3.183  0.4179 -0.5928  0.2688
 7860SOL    HW235214   1.022   2.158   3.039 -0.2443 -0.6988 -0.1223
 7861SOL     OW35215   4.491   0.302  10.196 -0.4807 -0.2244  0.0963
 7861SOL    HW135216   4.499   0.217  10.239 -1.9854  0.3639  1.5377
 7861SOL    HW235217   4.399   0.312  10.175  0.3834  3.9050 -1.7877
 7862SOL     OW35218   3.443   0.814   7.668 -0.2191 -0.1149  0.0425
 7862SOL    HW135219   3.457   0.724   7.698  0.5697 -0.3097 -0.8828
 7862SOL    HW235220   3.463   0.805   7.574  1.9377 -3.0404  0.7933
 7863SOL     OW35221   4.003   0.142   9.931  0.0405  0.1352 -0.1691
 7863SOL    HW135222   4.044   0.115  10.013 -0.3812  2.0026  0.6512
 7863SOL    HW235223   3.939   0.201   9.972  0.3179 -0.2914  0.8683
 7864SOL     OW35224   2.623   1.063   3.384  0.0560  0.4684 -0.7735
 7864SOL    HW135225   2.532   1.047   3.359 -0.5067  0.4920  1.2799
 7864SOL    HW235226   2.611   1.090   3.475 -0.3870 -0.4860 -0.5525
 7865SOL     OW35227   3.382   1.288   1.962  0.2106  0.4138  0.6640
 7865SOL    HW135228   3.418   1.298   1.874  0.9310  1.1898  1.0480
 7865SOL    HW235229   3.457   1.265   2.017  0.5591 -0.2011 -0.0623
 7866SOL     OW35230   2.315   1.173   4.979  0.2390  0.5823 -0.0425
 7866SOL    HW135231   2.396   1.162   4.930  0.1597  3.5728 -0.8575
 7866SOL    HW235232   2.293   1.084   5.007 -1.4420  1.4993  1.5171
 7867SOL     OW35233   3.535   3.087   5.553 -0.1391  0.0069  0.4103
 7867SOL    HW135234   3.615   3.068   5.504 -0.9597 -0.4045 -0.7582
 7867SOL    HW235235   3.484   3.100   5.473 -1.2291  0.5589  1.1937
 7868SOL     OW35236   0.434   0.407   8.404 -0.4351  0.2602 -0.7088
 7868SOL    HW135237   0.459   0.499   8.411 -1.2226  0.3759  0.7026
 7868SOL    HW235238   0.363   0.402   8.469 -0.1961  0.9688 -0.3920
 7869SOL     OW35239   1.585   0.362   5.142 -0.4315 -0.2065 -0.3634
 7869SOL    HW135240   1.539   0.313   5.074 -1.0145 -0.0605 -0.0750
 7869SOL    HW235241   1.518   0.368   5.210  1.6495  0.9014  1.6329
 7870SOL     OW35242   2.977   3.484   7.424 -0.6026  0.8017  0.1489
 7870SOL    HW135243   2.994   3.521   7.338 -0.4602  1.3496  0.4166
 7870SOL    HW235244   2.976   3.391   7.400 -1.4745  0.7346  0.4434
 7871SOL     OW35245   2.782   2.891   9.478 -0.3728  0.6314  0.2790
 7871SOL    HW135246   2.827   2.971   9.450 -0.4993  0.2597 -0.9787
 7871SOL    HW235247   2.767   2.901   9.572  1.3560  1.0639  0.5162
 7872SOL     OW35248   4.426   2.112   2.419  0.3365 -0.4869  0.3394
 7872SOL    HW135249   4.347   2.112   2.365  1.6501  0.8915 -1.5661
 7872SOL    HW235250   4.414   2.032   2.472  0.0277 -0.4300  0.3591
 7873SOL     OW35251   3.684   3.996   2.621  0.2073  0.6859  0.4307
 7873SOL    HW135252   3.675   3.996   2.526  0.3395 -1.1630  0.4153
 7873SOL    HW235253   3.621   4.066   2.636 -0.3237  0.5763 -1.3896
 7874SOL     OW35254   2.590   2.181   0.495  0.2530 -0.2042  0.2597
 7874SOL    HW135255   2.567   2.088   0.495 -0.6825  0.0360 -1.1906
 7874SOL    HW235256   2.572   2.213   0.584  0.6618 -1.4529  0.7888
 7875SOL     OW35257   4.407   3.228   7.127  0.9084  0.0081  0.6226
 7875SOL    HW135258   4.357   3.310   7.122 -0.5346 -1.0275 -1.5166
 7875SOL    HW235259   4.377   3.201   7.214  1.1856 -1.9667  0.1026
 7876SOL     OW35260   1.831   2.860   2.755  0.1132 -0.1303 -0.2423
 7876SOL    HW135261   1.824   2.821   2.843  0.7479  0.6901  0.1638
 7876SOL    HW235262   1.884   2.804   2.698  0.7012  0.3115 -0.1267
 7877SOL     OW35263   4.463   3.269   7.904 -0.1967 -0.1927  0.3670
 7877SOL    HW135264   4.384   3.251   7.955 -0.3495 -0.0337  0.1863
 7877SOL    HW235265   4.462   3.363   7.884  1.3347 -0.3375 -0.3885
 7878SOL     OW35266   0.683   2.633   3.847  0.5771 -0.1844 -0.2209
 7878SOL    HW135267   0.680   2.679   3.763 -0.3037  1.4584  0.7026
 7878SOL    HW235268   0.716   2.710   3.893  0.5588  1.1674 -2.4714
 7879SOL     OW35269   2.177   4.239   7.081 -0.3338 -0.3504  0.0368
 7879SOL    HW135270   2.193   4.147   7.104 -0.3056  0.2094  2.2404
 7879SOL    HW235271   2.142   4.231   6.992  0.8918 -1.8900 -0.3243
 7880SOL     OW35272   2.794   3.258   4.814 -0.6099  0.3260 -0.2038
 7880SOL    HW135273   2.778   3.349   4.788  2.0343  1.6391  2.7937
 7880SOL    HW235274   2.833   3.226   4.733 -0.8974  0.2070 -0.2985
 7881SOL     OW35275   0.621   4.495  15.052 -0.3349 -0.0121 -0.2119
 7881SOL    HW135276   0.665   4.441  14.986  1.9776 -1.1440  2.2823
 7881SOL    HW235277   0.628   4.578  15.005 -0.2713  0.1962  0.1626
 7882SOL     OW35278   1.962   4.118   0.370 -0.3210 -0.8499 -0.2885
 7882SOL    HW135279   2.004   4.041   0.408  2.7311  0.2415 -1.4726
 7882SOL    HW235280   1.978   4.096   0.278  4.0209 -0.9099  0.4775
 7883SOL     OW35281   2.121   0.411   2.876 -0.3348 -0.3497  0.3520
 7883SOL    HW135282   2.050   0.360   2.838 -1.6650  0.3917  1.8191
 7883SOL    HW235283   2.078   0.461   2.946  1.3604  1.4930  0.0968
 7884SOL     OW35284   0.516   3.892   3.731  0.0043 -0.5652  0.6480
 7884SOL    HW135285   0.434   3.872   3.776 -0.1452  0.1755  0.6930
 7884SOL    HW235286   0.581   3.860   3.794 -0.0813  0.8834  1.4614
 7885SOL     OW35287   1.101   4.069   5.113  0.4597 -0.7746  0.2323
 7885SOL    HW135288   1.129   4.159   5.095 -2.9338  0.9765  3.5903
 7885SOL    HW235289   1.128   4.062   5.205 -1.5361 -1.3750  0.7726
 7886SOL     OW35290   3.302   0.726   3.059  0.1418 -0.0661  0.0922
 7886SOL    HW135291   3.269   0.814   3.040 -1.4922 -0.3615  1.5351
 7886SOL    HW235292   3.266   0.716   3.147 -2.9888  0.7868 -1.0993
 7887SOL     OW35293   4.052   2.203   9.670 -0.2615 -0.2589 -0.3871
 7887SOL    HW135294   4.141   2.227   9.695 -1.0106  1.2991  0.8206
 7887SOL    HW235295   3.999   2.273   9.710  1.7662  0.1984  1.4483
 7888SOL     OW35296   4.471   1.647   4.295 -0.4841 -0.2866 -0.6530
 7888SOL    HW135297   4.377   1.652   4.310 -0.3658  0.2124 -0.0855
 7888SOL    HW235298   4.498   1.575   4.352 -0.2173  0.1134 -0.2705
 7889SOL     OW35299   0.332   3.634   1.941 -0.2060  1.1331  0.4033
 7889SOL    HW135300   0.408   3.650   1.998  1.5349 -1.7049 -1.1510
 7889SOL    HW235301   0.364   3.653   1.853 -0.0013 -0.7993  0.0707
 7890SOL     OW35302   1.698   1.853   3.114 -0.5752  0.0724 -0.0207
 7890SOL    HW135303   1.746   1.837   3.033  0.7570  0.3339  0.7304
 7890SOL    HW235304   1.635   1.922   3.094 -0.1422  0.7765  1.0412
 7891SOL     OW35305   1.081   4.366   3.100  0.5922  0.4783  0.4193
 7891SOL    HW135306   1.168   4.336   3.075  0.5655  0.2727  0.5761
 7891SOL    HW235307   1.042   4.278   3.104 -1.5612  1.2152 -3.5164
 7892SOL     OW35308   3.270   4.603   9.349  0.2642  0.8427  0.1671
 7892SOL    HW135309   3.350   4.608   9.297  0.9033 -0.3277  1.0200
 7892SOL    HW235310   3.198   4.635   9.295 -0.6540 -0.3607  0.6890
 7893SOL     OW35311   0.065   1.788  16.525 -0.2819 -0.5551  0.6154
 7893SOL    HW135312   0.123   1.819  16.455  0.3779 -1.0903  0.9259
 7893SOL    HW235313   0.046   1.709  16.474  0.2858 -1.1240  1.2763
 7894SOL     OW35314   2.957   2.372   5.735 -0.1385 -0.2588  0.1857
 7894SOL    HW135315   2.894   2.391   5.665  2.4017  0.4936 -1.9018
 7894SOL    HW235316   3.039   2.365   5.688 -0.3880 -1.5826 -0.0318
 7895SOL     OW35317   3.005   1.828   6.982 -0.3590 -0.4257 -0.7622
 7895SOL    HW135318   2.914   1.799   6.976 -1.3730  1.9582  2.8937
 7895SOL    HW235319   3.029   1.770   7.054 -0.8874 -0.7815 -0.8731
 7896SOL     OW35320   2.339   3.516   4.481 -0.2800  0.1981 -0.1215
 7896SOL    HW135321   2.375   3.431   4.455  0.7596  1.2315 -2.1227
 7896SOL    HW235322   2.245   3.509   4.470 -0.7734  0.3353  4.2773
 7897SOL     OW35323   0.464   0.162   5.861  0.0005  0.2069 -0.1993
 7897SOL    HW135324   0.497   0.092   5.918  1.4555  0.9992 -0.0599
 7897SOL    HW235325   0.401   0.199   5.924  1.2067  1.2819  0.3735
 7898SOL     OW35326   3.534   2.251  17.336 -0.3676  0.2606 -0.5415
 7898SOL    HW135327   3.531   2.218  17.246  4.0634 -3.3078  0.5818
 7898SOL    HW235328   3.450   2.297  17.333 -0.1425  0.5177 -3.0092
 7899SOL     OW35329   2.041   2.217   5.456  0.0638  0.0454  0.6069
 7899SOL    HW135330   2.095   2.296   5.452  1.6927 -1.1578 -0.6706
 7899SOL    HW235331   2.105   2.147   5.446  1.9377  2.0015 -0.8555
 7900SOL     OW35332   4.559   2.796   7.913 -0.5605  0.0662  0.2468
 7900SOL    HW135333   4.516   2.714   7.936  0.5018 -0.5696 -0.0543
 7900SOL    HW235334   4.594   2.775   7.826  1.1845 -2.7189  1.6002
 7901SOL     OW35335   0.306   3.955   0.253  0.0919  0.0542 -0.2555
 7901SOL    HW135336   0.342   3.917   0.172 -1.7225 -0.7128 -0.6947
 7901SOL    HW235337   0.255   3.882   0.287  2.6151 -0.8188  1.6819
 7902SOL     OW35338   3.695   4.612   9.559 -0.2244  0.1338 -0.2328
 7902SOL    HW135339   3.782   4.587   9.527  0.0288  1.5332 -0.6488
 7902SOL    HW235340   3.716   4.649   9.645  1.5413  1.3207 -1.1728
 7903SOL     OW35341   0.388   2.778  10.457  0.0764  0.6041 -0.2980
 7903SOL    HW135342   0.461   2.775  10.395  0.5131 -0.0727  0.2586
 7903SOL    HW235343   0.357   2.688  10.449  0.3442  0.4259  0.7030
 7904SOL     OW35344   3.919   3.044   9.224  0.6328  0.1553  0.1292
 7904SOL    HW135345   3.962   2.966   9.261  0.1536 -0.2063 -0.0755
 7904SOL    HW235346   3.914   3.018   9.132 -3.1111 -1.3426  0.7630
 7905SOL     OW35347   0.054   4.446   7.117  0.2441 -0.8368  0.3532
 7905SOL    HW135348   0.013   4.526   7.150  2.0740  0.3756 -0.3256
 7905SOL    HW235349   0.105   4.482   7.044 -0.6627  0.6040  0.4309
 7906SOL     OW35350   1.228   2.567   6.393  0.0147  0.3034  0.1719
 7906SOL    HW135351   1.196   2.500   6.332 -0.1260 -0.1808  0.7861
 7906SOL    HW235352   1.166   2.581   6.465  2.1852  3.8808  1.3337
 7907SOL     OW35353   0.703   3.036   7.599 -0.2431 -0.4508 -0.1015
 7907SOL    HW135354   0.705   3.036   7.503  1.3583  1.1523 -0.0686
 7907SOL    HW235355   0.798   3.039   7.609 -0.2160 -1.0031 -0.1520
 7908SOL     OW35356   2.104   4.550   4.002  0.1353  0.2209 -0.1127
 7908SOL    HW135357   2.146   4.500   3.932 -2.2460 -1.4434 -0.3567
 7908SOL    HW235358   2.015   4.535   3.969 -0.5709  2.3481  0.8507
 7909SOL     OW35359   1.323   1.593   5.942  0.5205 -0.0273 -0.5383
 7909SOL    HW135360   1.356   1.633   5.861  0.0964  1.5485  0.0560
 7909SOL    HW235361   1.274   1.667   5.978  1.5651  0.1849  0.4913
 7910SOL     OW35362   0.746   1.120   2.063  0.1329  0.2903  0.0841
 7910SOL    HW135363   0.657   1.108   2.096  0.2293 -2.7421 -0.7629
 7910SOL    HW235364   0.776   1.031   2.080  2.6200  1.1476  0.1186
 7911SOL     OW35365   4.504   3.643   8.599 -0.4380  0.1887  0.5726
 7911SOL    HW135366   4.524   3.558   8.560  0.1409  0.7421 -0.3676
 7911SOL    HW235367   4.592   3.660   8.634  0.0501  0.8167 -0.9602
 7912SOL     OW35368   1.422   3.076   4.520  0.1314 -0.3132  0.4105
 7912SOL    HW135369   1.425   2.984   4.492 -0.9100  0.0564 -0.9244
 7912SOL    HW235370   1.370   3.071   4.600  1.4255 -1.2860  1.2025
 7913SOL     OW35371   2.807   3.390   4.079 -0.4706 -0.2163  0.7123
 7913SOL    HW135372   2.882   3.407   4.136  0.5357 -0.6683 -0.4905
 7913SOL    HW235373   2.823   3.461   4.017 -4.4393 -0.0685 -0.1566
 7914SOL     OW35374   2.450   2.588   4.733  0.1761 -0.5436 -0.0446
 7914SOL    HW135375   2.455   2.657   4.667  1.4431 -0.8591 -0.2833
 7914SOL    HW235376   2.451   2.634   4.817 -2.8161  0.4732 -0.6015
 7915SOL     OW35377   1.387   1.900  15.268  0.2823 -0.2678  0.2621
 7915SOL    HW135378   1.318   1.885  15.332  1.3081  1.9120  1.8829
 7915SOL    HW235379   1.364   1.985  15.231 -0.3091  0.0319  1.3215
 7916SOL     OW35380   4.286   2.313  15.920 -0.3524 -0.2489  0.3427
 7916SOL    HW135381   4.368   2.315  15.872  1.3309 -1.6232  3.2053
 7916SOL    HW235382   4.236   2.391  15.896 -0.0836 -0.8607 -2.2116
 7917SOL     OW35383   4.310   4.476   2.410 -0.0698 -0.1109 -0.6727
 7917SOL    HW135384   4.301   4.395   2.360  0.3585 -1.4017  1.3496
 7917SOL    HW235385   4.330   4.426   2.490 -1.2941 -1.0462 -0.9323
 7918SOL     OW35386   2.166   0.519   4.701  0.9072 -0.2135 -0.0017
 7918SOL    HW135387   2.154   0.595   4.757  0.5279 -0.6489  0.5032
 7918SOL    HW235388   2.125   0.453   4.756  0.6457  0.4402  0.5918
 7919SOL     OW35389   1.156   2.863   2.284 -0.1519  0.5778 -1.3499
 7919SOL    HW135390   1.068   2.871   2.249 -0.2233 -0.4839 -1.3937
 7919SOL    HW235391   1.155   2.784   2.338  1.2527 -1.4430 -4.2949
 7920SOL     OW35392   2.358   4.462  15.499  0.3568  0.9047  0.1218
 7920SOL    HW135393   2.321   4.524  15.561 -1.4981 -1.7693  1.6889
 7920SOL    HW235394   2.446   4.458  15.537  1.5596 -1.5335 -2.8733
 7921SOL     OW35395   0.823   4.712   6.197  0.4402 -0.2602 -0.0646
 7921SOL    HW135396   0.792   0.041   6.263  1.5243  0.2923 -0.0872
 7921SOL    HW235397   0.784   4.635   6.238 -1.6268  0.3548 -0.8316
 7922SOL     OW35398   0.361   1.549   6.338  0.1447  0.2995 -0.0934
 7922SOL    HW135399   0.432   1.504   6.383 -0.5012  0.1306  0.7631
 7922SOL    HW235400   0.275   1.509   6.355  0.1715  0.3404  0.1431
 7923SOL     OW35401   1.234   0.388   7.192  0.3681  0.2370  0.8100
 7923SOL    HW135402   1.160   0.431   7.234  0.8182  0.7553  1.0712
 7923SOL    HW235403   1.207   0.337   7.116  2.6426 -0.6227  0.5601
 7924SOL     OW35404   2.041   0.478   6.078  0.2486  0.1465 -0.1453
 7924SOL    HW135405   2.017   0.532   6.002  1.7267 -1.3361 -1.6414
 7924SOL    HW235406   2.060   0.546   6.143  0.8004 -0.5352  0.3994
 7925SOL     OW35407   4.479   1.679   4.622  0.3214 -0.1926 -0.6507
 7925SOL    HW135408   4.435   1.598   4.647  2.0587 -1.1714 -0.7186
 7925SOL    HW235409   4.456   1.741   4.691  0.1893 -2.6874  1.5137
 7926SOL     OW35410   1.957   2.272   3.329 -0.1309  0.1488 -0.6749
 7926SOL    HW135411   2.032   2.221   3.296  0.5780 -0.0805  1.2792
 7926SOL    HW235412   1.996   2.358   3.346  1.2060 -0.4408 -0.7184
 7927SOL     OW35413   1.667   1.228  12.688 -0.2179 -0.2020  0.7373
 7927SOL    HW135414   1.615   1.234  12.608  0.0012  0.0934  0.6171
 7927SOL    HW235415   1.749   1.201  12.647 -0.9645 -2.0274  0.4509
 7928SOL     OW35416   0.503   1.940  16.792 -0.1125 -0.2035  0.3946
 7928SOL    HW135417   0.417   1.975  16.817 -0.6575 -0.6912 -0.7495
 7928SOL    HW235418   0.562   1.995  16.843  0.5650 -1.7481  1.2721
 7929SOL     OW35419   1.820   1.745  17.075 -0.1432  0.0008 -0.4158
 7929SOL    HW135420   1.766   1.754  16.996  0.0838 -1.6899 -0.7616
 7929SOL    HW235421   1.908   1.745  17.036  0.0116  0.2154 -0.0631
 7930SOL     OW35422   2.880   1.236   6.835  0.2282 -0.6403  0.2667
 7930SOL    HW135423   2.944   1.166   6.826  0.3361 -0.5452  0.3010
 7930SOL    HW235424   2.848   1.253   6.746  2.2880 -0.3173 -0.4180
 7931SOL     OW35425   3.918   2.796   9.379 -0.3715  0.2814 -0.2592
 7931SOL    HW135426   3.882   2.726   9.434 -2.7485  1.5477 -0.2310
 7931SOL    HW235427   3.922   2.757   9.292  0.9815  0.9545 -0.5016
 7932SOL     OW35428   0.318   4.039   8.098  0.1580  0.5835 -0.3288
 7932SOL    HW135429   0.406   4.050   8.063  0.6344  1.6396  1.2234
 7932SOL    HW235430   0.304   3.945   8.087 -0.0994  0.5782  0.0506
 7933SOL     OW35431   1.666   4.535   5.157  0.2912 -0.7186  0.5098
 7933SOL    HW135432   1.618   4.482   5.094 -3.5896  1.2175  1.8794
 7933SOL    HW235433   1.616   4.522   5.238  0.0448  0.5562  0.5667
 7934SOL     OW35434   3.484   4.139   2.046 -0.0542  0.3203 -0.1352
 7934SOL    HW135435   3.436   4.210   2.004  0.9824  1.2049  0.1956
 7934SOL    HW235436   3.441   4.134   2.131 -0.0047 -1.6874 -0.2199
 7935SOL     OW35437   1.698   1.129  13.717  0.3570  0.1865  0.0589
 7935SOL    HW135438   1.649   1.162  13.642  2.5393  1.4862 -0.8059
 7935SOL    HW235439   1.630   1.074  13.756  3.3713 -2.3389  1.7690
 7936SOL     OW35440   4.663   3.965  12.360 -0.0855 -0.0846 -0.4620
 7936SOL    HW135441   0.009   3.932  12.317 -0.0411  0.4018 -0.7558
 7936SOL    HW235442   4.657   4.051  12.319 -0.1010  0.4863  0.7673
 7937SOL     OW35443   0.194   1.802   6.532 -0.7616 -0.1531 -0.4757
 7937SOL    HW135444   0.125   1.736   6.529 -0.8875 -0.0750  0.7796
 7937SOL    HW235445   0.167   1.846   6.613 -0.7391  1.6976 -1.4540
 7938SOL     OW35446   0.592   3.207   7.780 -0.5733  0.4343  0.5053
 7938SOL    HW135447   0.633   3.145   7.719  2.7648  2.6679  0.5037
 7938SOL    HW235448   0.660   3.213   7.847  0.0790 -0.2488 -0.0867
 7939SOL     OW35449   2.630   3.892  16.748 -0.5309 -0.3521 -0.4060
 7939SOL    HW135450   2.639   3.926  16.837  0.2510  0.3147 -0.7305
 7939SOL    HW235451   2.704   3.832  16.741  1.2022  1.8902 -1.5018
 7940SOL     OW35452   2.080   4.705   9.970  0.2495  0.7084  0.0131
 7940SOL    HW135453   2.004   4.663   9.929 -0.0838  2.2080 -0.8938
 7940SOL    HW235454   2.145   4.636   9.957 -2.7311 -2.2859  0.7996
 7941SOL     OW35455   1.679   3.473   2.724 -0.7977 -0.1469 -0.3250
 7941SOL    HW135456   1.587   3.498   2.735 -0.8976 -0.8307  0.4363
 7941SOL    HW235457   1.690   3.497   2.632  2.4354  0.9582  0.3332
 7942SOL     OW35458   4.254   3.191   1.567  0.2689 -0.0436 -0.1291
 7942SOL    HW135459   4.336   3.194   1.615 -0.4384  0.8201  1.0270
 7942SOL    HW235460   4.245   3.280   1.533  1.7494  0.1535  0.0078
 7943SOL     OW35461   3.155   2.004   5.948 -0.4988 -0.2704  0.0579
 7943SOL    HW135462   3.226   1.939   5.945 -0.1041  0.1789 -0.3685
 7943SOL    HW235463   3.184   2.044   5.866 -0.9244  1.4537  0.7526
 7944SOL     OW35464   0.759   0.624   5.946  0.4196  0.0428 -0.1788
 7944SOL    HW135465   0.694   0.635   5.877 -0.8087 -1.5274  0.7349
 7944SOL    HW235466   0.810   0.558   5.899 -1.1991 -0.2929 -1.4464
 7945SOL     OW35467   0.088   0.482   9.411  0.4429  0.0451  0.3063
 7945SOL    HW135468   0.109   0.388   9.416  1.2329  0.1966 -0.2163
 7945SOL    HW235469   0.116   0.499   9.322  2.1569 -2.0975  0.4218
 7946SOL     OW35470   0.512   2.466   5.104  0.2545 -0.0702 -0.0598
 7946SOL    HW135471   0.432   2.467   5.051  0.9270 -2.3059 -1.1552
 7946SOL    HW235472   0.471   2.459   5.190  1.2696  0.6865  0.4754
 7947SOL     OW35473   2.934   2.320  16.557 -0.0084 -0.0595  0.0974
 7947SOL    HW135474   2.949   2.380  16.630  0.8945  0.1894 -0.2925
 7947SOL    HW235475   2.922   2.385  16.488  1.3609 -1.2877 -1.2885
 7948SOL     OW35476   4.488   2.525   1.366 -0.4032 -0.6837  0.2366
 7948SOL    HW135477   4.512   2.539   1.457  1.2612 -1.3199 -0.0938
 7948SOL    HW235478   4.566   2.558   1.320 -1.0206 -1.9484 -1.7146
 7949SOL     OW35479   1.322   1.805   0.618  0.1890 -0.6071  0.6376
 7949SOL    HW135480   1.278   1.797   0.533  2.0425 -0.8030 -0.3171
 7949SOL    HW235481   1.250   1.855   0.655  1.2307  0.7946  0.7681
 7950SOL     OW35482   4.091   3.044  10.611  0.0019  0.0611  0.2472
 7950SOL    HW135483   4.033   3.083  10.545  1.7651 -2.2384 -2.6632
 7950SOL    HW235484   4.171   3.096  10.606 -0.3169  0.6822  1.6299
 7951SOL     OW35485   0.476   1.103   7.957 -0.3083 -0.6645 -0.1038
 7951SOL    HW135486   0.450   1.109   7.865  0.0995  1.5089 -0.0726
 7951SOL    HW235487   0.394   1.117   8.005 -0.0941 -2.3323  0.7481
 7952SOL     OW35488   3.810   0.447   6.269  0.4619 -0.1850 -0.2878
 7952SOL    HW135489   3.798   0.495   6.187 -0.4824  1.2864  0.6977
 7952SOL    HW235490   3.721   0.444   6.305  0.0616  3.4971 -0.8985
 7953SOL     OW35491   0.407   3.967   4.614 -0.1636  0.1017  0.0184
 7953SOL    HW135492   0.407   4.046   4.668 -0.6408 -0.5133  0.9140
 7953SOL    HW235493   0.356   3.913   4.675  0.2416 -0.3664 -0.0550
 7954SOL     OW35494   0.024   0.432   4.563  0.0627  0.0310  0.2371
 7954SOL    HW135495   4.699   0.470   4.629 -0.1209  2.1441 -1.1475
 7954SOL    HW235496   4.702   0.443   4.486  0.3700  0.6820  0.1025
 7955SOL     OW35497   2.740   1.259   5.475 -0.0699  0.2338  0.1835
 7955SOL    HW135498   2.766   1.189   5.415  0.5099  1.9831 -1.6339
 7955SOL    HW235499   2.791   1.334   5.444 -0.2909  1.2953  2.4117
 7956SOL     OW35500   1.074   0.311   7.524 -0.1147 -0.5685  0.8920
 7956SOL    HW135501   1.109   0.241   7.469 -1.4801 -1.5606  1.2818
 7956SOL    HW235502   1.025   0.257   7.587  0.7034 -1.4080  0.8168
 7957SOL     OW35503   2.626   2.387   5.003  0.1967  0.0423 -0.5547
 7957SOL    HW135504   2.615   2.417   5.094  1.9937  0.6683 -0.5476
 7957SOL    HW235505   2.694   2.450   4.979  1.5044 -1.1954 -0.0762
 7958SOL     OW35506   2.377   4.515   7.410  0.1901  0.2630 -0.4186
 7958SOL    HW135507   2.393   4.483   7.498  0.9883 -1.1799 -1.0928
 7958SOL    HW235508   2.397   4.608   7.423 -0.5261  0.3523  0.0115
 7959SOL     OW35509   3.409   0.184  10.020 -0.5367 -0.1227 -0.4004
 7959SOL    HW135510   3.357   0.132  10.081  0.1982  0.0123  0.3395
 7959SOL    HW235511   3.436   0.261  10.070  3.1075 -0.3989 -1.9650
 7960SOL     OW35512   2.872   1.178   9.330  0.3436  0.1250 -0.8374
 7960SOL    HW135513   2.934   1.141   9.393 -0.8236 -0.2286  0.1008
 7960SOL    HW235514   2.924   1.188   9.250 -1.5977  1.0928 -1.9636
 7961SOL     OW35515   0.680   2.432   3.268  0.2667 -0.4068 -0.0320
 7961SOL    HW135516   0.651   2.341   3.253 -0.1669  0.2120 -2.9545
 7961SOL    HW235517   0.679   2.471   3.181  2.1672  0.5982  0.3944
 7962SOL     OW35518   3.103   1.060   6.803  0.1681  0.5692 -0.3789
 7962SOL    HW135519   3.177   1.083   6.860 -0.3103 -0.7482  0.7615
 7962SOL    HW235520   3.057   0.996   6.856  1.0822  0.0857 -0.1699
 7963SOL     OW35521   3.118   3.843   4.385 -0.6378 -0.0760  0.2075
 7963SOL    HW135522   3.049   3.803   4.330 -1.4323 -0.9953  1.8746
 7963SOL    HW235523   3.115   3.934   4.355  1.3687  0.1229  0.6634
 7964SOL     OW35524   1.245   0.905   5.948  0.7591  0.1943 -0.0953
 7964SOL    HW135525   1.244   0.833   6.011 -0.1325  0.0892 -0.2298
 7964SOL    HW235526   1.236   0.854   5.867 -0.5678  0.4467 -0.1137
 7965SOL     OW35527   3.491   4.414   5.410  0.5378 -0.2573 -0.3869
 7965SOL    HW135528   3.495   4.338   5.352 -0.4235  0.2500 -1.1332
 7965SOL    HW235529   3.579   4.428   5.444  0.0640  0.5486  0.5059
 7966SOL     OW35530   4.139   0.884   2.018  0.0193  0.1489  0.3287
 7966SOL    HW135531   4.230   0.854   2.025  0.8229  2.2973 -0.8395
 7966SOL    HW235532   4.093   0.803   1.995 -0.7989  0.3861  1.1399
 7967SOL     OW35533   2.337   4.710  17.352 -0.3741  0.1639  0.0633
 7967SOL    HW135534   2.347   0.052  17.410  1.3821  1.3561 -1.7925
 7967SOL    HW235535   2.278   4.660  17.408  1.4699  0.3859  2.2154
 7968SOL     OW35536   1.478   0.330   6.539 -0.0356  0.6219  0.3529
 7968SOL    HW135537   1.569   0.303   6.529  0.2757  2.2955 -1.2453
 7968SOL    HW235538   1.426   0.249   6.545  2.8454 -1.1909  0.4468
 7969SOL     OW35539   3.019   3.234   1.452 -0.2500  0.4131  0.2956
 7969SOL    HW135540   2.970   3.195   1.524 -2.3146 -0.1167 -1.3874
 7969SOL    HW235541   2.996   3.326   1.466 -0.2081  0.4336  0.2294
 7970SOL     OW35542   2.103   3.898   2.391  0.0744 -0.2632 -1.0561
 7970SOL    HW135543   2.033   3.952   2.429  1.9819  1.5973 -0.2211
 7970SOL    HW235544   2.052   3.844   2.330  0.8424 -1.4644 -0.6232
 7971SOL     OW35545   3.749   3.564   3.225  0.5331  0.0103 -0.1247
 7971SOL    HW135546   3.666   3.517   3.216  0.5464  0.1103 -0.7668
 7971SOL    HW235547   3.732   3.627   3.155 -0.2006  1.3183  1.2214
 7972SOL     OW35548   4.254   3.894   4.817  0.1631 -0.6452 -0.6780
 7972SOL    HW135549   4.232   3.968   4.874  1.6853  0.1890 -1.1789
 7972SOL    HW235550   4.188   3.830   4.842  1.3550 -1.2937  0.8226
 7973SOL     OW35551   0.249   1.169   2.885  0.8259  0.8364 -0.1316
 7973SOL    HW135552   0.206   1.086   2.907  1.8492  0.4467  0.3981
 7973SOL    HW235553   0.179   1.227   2.913 -1.3311 -1.2180 -1.2892
 7974SOL     OW35554   2.824   2.773   6.864 -0.1231 -0.6343 -0.4018
 7974SOL    HW135555   2.823   2.684   6.900 -0.4313 -0.8548 -0.9496
 7974SOL    HW235556   2.736   2.800   6.889 -0.4273 -0.3197 -1.8024
 7975SOL     OW35557   2.129   2.465   3.402  0.3498  0.0553  0.3104
 7975SOL    HW135558   2.116   2.543   3.456 -1.3301 -1.3596  1.9190
 7975SOL    HW235559   2.196   2.425   3.458 -0.5429 -0.6377  0.8728
 7976SOL     OW35560   2.532   2.653   7.206  0.2288 -0.6497 -0.1815
 7976SOL    HW135561   2.439   2.677   7.205  0.2358 -0.5147  3.0272
 7976SOL    HW235562   2.568   2.713   7.140  1.3678 -0.3942  0.6625
 7977SOL     OW35563   2.157   2.015   5.052 -0.0532 -0.1569  0.0883
 7977SOL    HW135564   2.212   1.956   5.104 -1.7290  0.1527  2.1867
 7977SOL    HW235565   2.095   2.054   5.114  1.0693  3.3488 -0.9959
 7978SOL     OW35566   1.134   2.674   2.517  0.0061  0.0899  0.2672
 7978SOL    HW135567   1.082   2.752   2.538  0.7945  0.7362 -0.2131
 7978SOL    HW235568   1.078   2.598   2.536  0.9897 -0.7593 -0.2886
 7979SOL     OW35569   4.278   4.343  16.424  0.2373 -0.5436 -0.0478
 7979SOL    HW135570   4.236   4.296  16.353 -2.4584  2.6393 -0.5487
 7979SOL    HW235571   4.356   4.294  16.450 -1.0423 -1.1023  2.7918
 7980SOL     OW35572   1.895   3.159   2.295 -0.0262  0.5763 -0.1335
 7980SOL    HW135573   1.833   3.187   2.228 -0.5057 -1.0500 -0.3741
 7980SOL    HW235574   1.849   3.079   2.321 -1.3375  1.3984  0.0480
 7981SOL     OW35575   1.083   3.674  14.796 -0.2886  0.2658 -0.4511
 7981SOL    HW135576   1.001   3.629  14.778  0.7866 -2.2587  0.9494
 7981SOL    HW235577   1.101   3.718  14.713  0.1980 -0.8450 -0.9420
 7982SOL     OW35578   1.438   3.960   4.859 -0.1924 -0.7150 -0.2362
 7982SOL    HW135579   1.383   3.890   4.895 -3.3466  2.2826  0.8625
 7982SOL    HW235580   1.517   3.941   4.909  0.3131  0.9126 -0.4212
 7983SOL     OW35581   1.312   0.628  10.421 -0.2580  0.1552 -0.4109
 7983SOL    HW135582   1.253   0.620  10.346 -0.1194  0.8160 -0.5944
 7983SOL    HW235583   1.318   0.724  10.422 -0.6558  0.1729  1.2163
 7984SOL     OW35584   4.554   0.635   8.470  0.5200  0.0718  0.0562
 7984SOL    HW135585   4.547   0.655   8.564 -0.0501 -1.5336  0.3497
 7984SOL    HW235586   4.497   0.558   8.468  0.3595  0.2118 -0.7664
 7985SOL     OW35587   3.913   0.542   4.542 -0.0800  0.9246  0.5605
 7985SOL    HW135588   3.827   0.571   4.511 -0.1538  0.2173  0.1062
 7985SOL    HW235589   3.960   0.625   4.535  3.6431 -1.0993  1.7308
 7986SOL     OW35590   2.874   4.550   8.898  0.8099 -0.0473  0.9571
 7986SOL    HW135591   2.856   4.635   8.857  0.0876  0.0942  1.5616
 7986SOL    HW235592   2.800   4.550   8.959  0.4411  0.6695  0.5060
 7987SOL     OW35593   4.570   1.796   5.133 -0.4683  0.4403 -0.3509
 7987SOL    HW135594   4.533   1.717   5.093 -1.2264  0.3460  0.5334
 7987SOL    HW235595   4.641   1.764   5.189 -0.0597  0.6731 -0.7344
 7988SOL     OW35596   2.721   0.509   5.923 -0.5044  0.0400 -0.5141
 7988SOL    HW135597   2.739   0.561   6.002 -1.3600 -0.2020 -0.1654
 7988SOL    HW235598   2.786   0.439   5.928  0.0697  0.6013  0.1227
 7989SOL     OW35599   3.759   4.516   9.186 -0.3559  0.2644 -1.0826
 7989SOL    HW135600   3.782   4.601   9.149 -0.0314  0.2540 -0.8990
 7989SOL    HW235601   3.795   4.520   9.275 -0.6385  0.7739 -0.9925
 7990SOL     OW35602   4.501   3.232   9.346  0.3438 -0.1178  0.3866
 7990SOL    HW135603   4.471   3.186   9.267 -1.0419 -1.1848  1.5339
 7990SOL    HW235604   4.570   3.170   9.370  0.1564 -0.1988  0.7174
 7991SOL     OW35605   2.932   2.039   9.053  0.2515  0.0996  0.5905
 7991SOL    HW135606   2.923   2.131   9.026 -0.9444 -0.4824 -1.0047
 7991SOL    HW235607   3.026   2.030   9.070 -0.2658 -3.2570  1.5919
 7992SOL     OW35608   2.911   3.038   1.632  0.2949  0.1367 -0.0021
 7992SOL    HW135609   2.929   2.984   1.709 -1.4885  2.1539  1.8237
 7992SOL    HW235610   2.921   2.970   1.566 -1.6909 -1.3077  1.1666
 7993SOL     OW35611   1.489   4.295  15.388 -0.1995 -0.0637 -0.0456
 7993SOL    HW135612   1.512   4.288  15.481  1.7598 -0.0514 -0.5388
 7993SOL    HW235613   1.416   4.233  15.387  0.5132 -0.9051  0.1155
 7994SOL     OW35614   1.678   0.344   5.863 -0.1249 -0.2649 -0.6039
 7994SOL    HW135615   1.664   0.410   5.931 -0.0689 -1.4720  0.5714
 7994SOL    HW235616   1.734   0.282   5.909  0.9561  1.6441  0.6618
 7995SOL     OW35617   1.795   3.107   6.394 -0.0722  0.3344 -0.2223
 7995SOL    HW135618   1.866   3.143   6.340  1.1906 -0.2612  1.0606
 7995SOL    HW235619   1.724   3.105   6.330 -1.6877 -0.8662  1.6230
 7996SOL     OW35620   0.876   0.613  12.028 -0.3975  0.6580  0.4588
 7996SOL    HW135621   0.830   0.645  11.951  0.9706 -1.1231 -1.0797
 7996SOL    HW235622   0.964   0.602  11.994  0.4472 -2.2065  3.5996
 7997SOL     OW35623   3.273   2.715   6.654  0.0479 -0.1983  0.7666
 7997SOL    HW135624   3.334   2.745   6.722 -1.0199  2.9559  0.3292
 7997SOL    HW235625   3.286   2.784   6.589 -0.9522 -0.5511  0.1871
 7998SOL     OW35626   2.345   3.934   2.127  0.5205 -0.1533 -0.1123
 7998SOL    HW135627   2.405   3.952   2.199  0.6584 -0.7929 -0.0673
 7998SOL    HW235628   2.287   3.879   2.180 -1.1427  2.2545  0.5927
 7999SOL     OW35629   3.230   2.204   6.998  0.0700 -0.0854 -0.7023
 7999SOL    HW135630   3.236   2.116   6.961  0.4241 -0.4107  0.1393
 7999SOL    HW235631   3.300   2.247   6.949 -2.9115  3.4034 -1.8731
 8000SOL     OW35632   2.517   0.560   5.765  0.8339 -0.1991  0.0021
 8000SOL    HW135633   2.483   0.475   5.792 -1.1470  0.4859 -0.3599
 8000SOL    HW235634   2.600   0.549   5.812  1.0352  1.9421  0.1614
 8001SOL     OW35635   4.683   3.184   8.063  0.1580  0.5032  0.5727
 8001SOL    HW135636   4.726   3.106   8.028 -0.3803  0.4067  0.1292
 8001SOL    HW235637   4.605   3.201   8.010 -0.3829 -0.1261  1.1663
 8002SOL     OW35638   0.925   0.633   5.038  0.5077 -0.1843  0.2530
 8002SOL    HW135639   0.995   0.570   5.053 -0.7719 -1.5489  0.5510
 8002SOL    HW235640   0.903   0.655   5.128 -0.0597  1.1494 -0.2121
 8003SOL     OW35641   2.055   2.613  11.421 -0.3401  0.1110 -0.4822
 8003SOL    HW135642   2.079   2.704  11.437  0.4950  0.0721 -1.5662
 8003SOL    HW235643   2.076   2.600  11.328 -2.9360  0.6175 -1.1536
 8004SOL     OW35644   1.093   4.370   5.366  0.9853  0.0945  0.1023
 8004SOL    HW135645   1.091   4.366   5.462 -0.1723 -0.8223  0.0471
 8004SOL    HW235646   1.027   4.307   5.337 -1.1959  1.9115  1.0796
 8005SOL     OW35647   1.126   1.084   6.816  0.3043  0.0218 -0.4577
 8005SOL    HW135648   1.046   1.135   6.828  1.7918  2.3379 -0.3651
 8005SOL    HW235649   1.094   0.996   6.836 -0.9631  0.7063  0.4852
 8006SOL     OW35650   0.391   1.824  16.080  0.0152  0.0127  0.2247
 8006SOL    HW135651   0.381   1.919  16.077 -1.3877 -0.1447  0.2430
 8006SOL    HW235652   0.425   1.806  15.992  2.2557  0.2856  1.0410
 8007SOL     OW35653   3.948   1.628   3.847  0.2766 -0.8117  0.4152
 8007SOL    HW135654   4.031   1.597   3.811  0.4723 -0.4162  0.5214
 8007SOL    HW235655   3.899   1.545   3.844  0.1210 -0.7716  1.8546
 8008SOL     OW35656   1.837   4.091   3.798  0.5003 -0.0069  0.1499
 8008SOL    HW135657   1.754   4.121   3.837 -0.8639 -1.7731 -1.3855
 8008SOL    HW235658   1.899   4.059   3.863 -1.1958 -0.8906  1.3481
 8009SOL     OW35659   3.527   2.020   4.435 -0.0582  0.1637 -0.4600
 8009SOL    HW135660   3.458   1.966   4.399  0.1636 -0.4608  0.0584
 8009SOL    HW235661   3.478   2.102   4.437 -0.0543  0.1727 -0.7287
 8010SOL     OW35662   1.326   2.052  11.888 -0.1999 -0.0278 -0.4678
 8010SOL    HW135663   1.375   2.132  11.906  1.3766 -0.6577 -2.0201
 8010SOL    HW235664   1.306   2.025  11.978  4.4091 -1.0829  0.2067
 8011SOL     OW35665   4.433   0.149   1.391  0.0680  0.1357 -0.6025
 8011SOL    HW135666   4.385   0.147   1.474 -1.4588 -0.7692 -1.5109
 8011SOL    HW235667   4.462   0.241   1.399 -1.7413  0.7512 -1.2413
 8012SOL     OW35668   1.268   1.634   3.657 -0.9163 -0.0609 -0.2586
 8012SOL    HW135669   1.339   1.685   3.618 -1.5788  0.8580 -0.2745
 8012SOL    HW235670   1.258   1.682   3.740 -2.8332 -0.0061 -0.5319
 8013SOL     OW35671   0.286   2.520   2.386 -0.1133 -0.0933 -0.0019
 8013SOL    HW135672   0.243   2.447   2.343  0.9468 -0.5926 -0.2259
 8013SOL    HW235673   0.364   2.537   2.334 -1.5115 -0.2894 -2.1350
 8014SOL     OW35674   1.339   4.388   7.497  0.0308  0.0802  0.5104
 8014SOL    HW135675   1.401   4.460   7.492 -0.2809  0.2864 -0.2867
 8014SOL    HW235676   1.401   4.326   7.535 -1.0028 -1.2038  0.1082
 8015SOL     OW35677   0.421   2.035  16.491  1.0359 -0.4345 -0.2755
 8015SOL    HW135678   0.434   1.971  16.421  2.6753 -0.3448 -0.0558
 8015SOL    HW235679   0.435   1.979  16.567 -0.7227  0.0243  0.3871
 8016SOL     OW35680   2.752   0.629   4.635  0.1468  0.3723  0.0270
 8016SOL    HW135681   2.690   0.575   4.586  0.6479 -0.3080  0.1542
 8016SOL    HW235682   2.838   0.593   4.614  1.2081  1.6242  2.1748
 8017SOL     OW35683   1.717   2.507   6.740  0.3613 -0.1602 -0.4579
 8017SOL    HW135684   1.637   2.556   6.724 -0.0051 -0.5375  0.2252
 8017SOL    HW235685   1.776   2.580   6.756  2.3494 -2.2451  1.7725
 8018SOL     OW35686   2.960   3.526   9.101  0.3596 -0.3940 -0.2325
 8018SOL    HW135687   2.970   3.498   9.192 -1.2445  0.8754  0.3484
 8018SOL    HW235688   3.025   3.596   9.100  1.1665 -1.1406  0.9789
 8019SOL     OW35689   0.605   0.033   6.042  0.0383 -0.1011 -0.0055
 8019SOL    HW135690   0.544   0.000   6.108  3.1825  0.5929  3.2046
 8019SOL    HW235691   0.687   0.024   6.089 -0.3947 -1.1245  0.5390
 8020SOL     OW35692   0.701   1.830  16.637 -0.1728 -0.0317  0.2710
 8020SOL    HW135693   0.630   1.857  16.694 -0.9620  2.1124 -1.7554
 8020SOL    HW235694   0.705   1.735  16.646  2.4364  0.1181  0.8156
 8021SOL     OW35695   2.101   2.454   8.910 -0.0957 -0.3372 -0.3676
 8021SOL    HW135696   2.073   2.430   8.998  1.3225  3.1336  1.0103
 8021SOL    HW235697   2.195   2.466   8.924 -0.0705 -0.5328 -0.3645
 8022SOL     OW35698   4.377   0.307   4.707 -0.4280 -0.1801 -0.2751
 8022SOL    HW135699   4.322   0.296   4.784 -0.1451  2.2671  0.2728
 8022SOL    HW235700   4.462   0.282   4.744  0.3326 -1.8218 -3.1653
 8023SOL     OW35701   4.100   3.585   4.483  0.2698 -0.8789  0.2356
 8023SOL    HW135702   4.027   3.633   4.523 -0.8737  0.8115 -3.9081
 8023SOL    HW235703   4.113   3.630   4.399  2.7384 -3.3629 -0.7079
 8024SOL     OW35704   3.444   3.885   5.953 -0.2290  0.0171  0.4832
 8024SOL    HW135705   3.359   3.913   5.989 -1.5846  1.1793 -3.6048
 8024SOL    HW235706   3.433   3.790   5.960 -0.0906  0.0226  0.7911
 8025SOL     OW35707   0.489   1.027   1.882 -0.0143  0.1841 -0.7855
 8025SOL    HW135708   0.428   1.079   1.830  0.1569 -0.0484 -1.2267
 8025SOL    HW235709   0.495   1.063   1.970 -1.0767 -0.1647 -0.5676
 8026SOL     OW35710   2.922   0.745   3.704  0.6479 -0.3908  0.4741
 8026SOL    HW135711   3.009   0.708   3.693  1.1853  0.4024  2.1260
 8026SOL    HW235712   2.853   0.687   3.670 -0.3598  0.2664  1.3793
 8027SOL     OW35713   4.650   4.030   5.299 -0.0737 -0.2610 -0.0273
 8027SOL    HW135714   4.652   3.983   5.383  1.6440 -0.1041  0.0206
 8027SOL    HW235715   4.720   3.977   5.261 -1.0317 -0.3756 -1.6280
 8028SOL     OW35716   1.887   2.109   1.579 -1.4772 -0.5708 -0.1011
 8028SOL    HW135717   1.952   2.157   1.630 -1.3244 -0.4454 -0.4211
 8028SOL    HW235718   1.835   2.186   1.556  1.2030  1.2350 -0.0346
 8029SOL     OW35719   0.924   4.141   6.036  0.2687 -0.0012 -0.0575
 8029SOL    HW135720   0.900   4.126   5.945 -2.8940 -2.2397  1.1528
 8029SOL    HW235721   0.840   4.139   6.083  0.8382 -1.3810  0.8907
 8030SOL     OW35722   3.247   3.872   4.961  0.6591  0.0035  0.0706
 8030SOL    HW135723   3.300   3.794   4.947  0.2999 -0.2879  0.3402
 8030SOL    HW235724   3.289   3.934   4.901  1.0001  1.5096  1.8260
 8031SOL     OW35725   3.103   2.334   4.753 -0.5656 -0.2509  0.2429
 8031SOL    HW135726   3.163   2.385   4.806 -0.6313  1.0287 -0.9036
 8031SOL    HW235727   3.114   2.379   4.669  0.6450 -2.3173 -0.7033
 8032SOL     OW35728   0.603   1.755  10.494  0.1630  0.0914  0.5322
 8032SOL    HW135729   0.549   1.766  10.572  0.2572  0.5418  0.5379
 8032SOL    HW235730   0.636   1.843  10.475  0.1124 -0.2900 -1.3161
 8033SOL     OW35731   2.928   0.558   0.877 -0.2959  0.5052  0.8853
 8033SOL    HW135732   2.873   0.621   0.830  0.7760  2.3182  2.0646
 8033SOL    HW235733   2.855   0.509   0.913 -0.3399 -1.2595 -1.5306
 8034SOL     OW35734   4.602   4.181   8.781  0.5431  0.6438 -0.0825
 8034SOL    HW135735   4.596   4.104   8.724  1.6060  1.6555 -1.5528
 8034SOL    HW235736   4.602   4.256   8.722  0.3539  2.3514  2.0877
 8035SOL     OW35737   0.863   1.204   0.740  0.3410 -0.7017  0.0063
 8035SOL    HW135738   0.926   1.228   0.808  1.5446 -1.5672 -0.8001
 8035SOL    HW235739   0.862   1.110   0.755  2.8308 -0.6400  0.5116
 8036SOL     OW35740   2.661   3.453  12.663 -0.2195 -0.1424 -0.2800
 8036SOL    HW135741   2.746   3.484  12.692  0.8586  0.0116 -3.5758
 8036SOL    HW235742   2.607   3.531  12.673  2.0759  1.0964  2.0349
 8037SOL     OW35743   2.346   4.327   9.493  0.1787 -0.6760  0.1477
 8037SOL    HW135744   2.412   4.311   9.561  1.7646 -0.3642 -1.3263
 8037SOL    HW235745   2.355   4.240   9.454  4.2620  0.5057 -1.5105
 8038SOL     OW35746   0.483   3.970   8.339 -0.7083 -0.5790  0.0021
 8038SOL    HW135747   0.401   3.995   8.296 -0.9004 -0.0424  0.6708
 8038SOL    HW235748   0.452   3.976   8.429 -0.7598 -0.9909  0.0113
 8039SOL     OW35749   1.855   1.631   8.706  0.4192  0.5180 -0.2141
 8039SOL    HW135750   1.908   1.710   8.719  1.5025 -0.2987  0.4163
 8039SOL    HW235751   1.880   1.578   8.782 -0.0717  1.2414  0.4529
 8040SOL     OW35752   4.128   0.854  12.837 -0.0076 -0.0922 -0.2532
 8040SOL    HW135753   4.125   0.760  12.855  1.1463 -0.4992 -2.1537
 8040SOL    HW235754   4.205   0.865  12.892 -0.3133 -0.0741  0.1724
 8041SOL     OW35755   4.120   2.230   6.308 -0.4553 -0.1051 -0.1134
 8041SOL    HW135756   4.063   2.270   6.242  0.3718 -0.0420 -0.7916
 8041SOL    HW235757   4.182   2.304   6.307 -0.3966 -0.1519  0.5881
 8042SOL     OW35758   2.594   2.098   7.853  0.2803 -0.0927  0.4439
 8042SOL    HW135759   2.552   2.178   7.821 -0.9006 -0.9460 -0.0994
 8042SOL    HW235760   2.523   2.040   7.878 -0.6538  0.9583  0.2091
 8043SOL     OW35761   0.692   4.084   6.165  0.2503  0.2477  0.2983
 8043SOL    HW135762   0.742   4.032   6.227 -1.8755  0.1537  1.9252
 8043SOL    HW235763   0.607   4.091   6.209  0.9456 -1.8517  1.9944
 8044SOL     OW35764   1.441   4.569  15.443  0.4013 -0.0064 -0.2330
 8044SOL    HW135765   1.363   4.599  15.397  0.5987 -1.1953 -1.3544
 8044SOL    HW235766   1.454   4.482  15.406 -0.1607 -0.8702  1.5754
 8045SOL     OW35767   3.930   4.639   8.693  0.3514 -0.0592 -0.2616
 8045SOL    HW135768   3.972   4.669   8.612  0.9335 -0.6022 -0.1681
 8045SOL    HW235769   3.924   4.723   8.737  1.1375 -1.1548  1.9543
 8046SOL     OW35770   3.832   1.306  10.921  0.4086  0.2634  0.2141
 8046SOL    HW135771   3.918   1.299  10.962 -0.6037  0.5333  2.3674
 8046SOL    HW235772   3.863   1.337  10.836 -1.7348 -2.8608 -1.7311
 8047SOL     OW35773   3.704   2.095   8.612  0.4821 -0.0903  0.1808
 8047SOL    HW135774   3.644   2.166   8.591  1.1429  0.2833 -0.4481
 8047SOL    HW235775   3.790   2.125   8.582 -0.2028  1.1073 -0.5901
 8048SOL     OW35776   4.015   2.944   1.973  0.3268 -0.1977  0.3819
 8048SOL    HW135777   3.953   3.017   1.971  2.7675  1.9089  1.8035
 8048SOL    HW235778   4.007   2.896   1.890  0.2908  1.5654 -0.6428
 8049SOL     OW35779   4.310   2.197  11.171  0.0897 -0.0557 -0.3576
 8049SOL    HW135780   4.345   2.109  11.156  1.5725  0.7081 -1.3514
 8049SOL    HW235781   4.332   2.205  11.264  0.5518 -4.2901 -0.0840
 8050SOL     OW35782   0.911   4.607  12.176  0.0184  0.8654 -0.5251
 8050SOL    HW135783   0.817   4.599  12.159 -0.0839 -0.9536  0.9402
 8050SOL    HW235784   0.942   4.611  12.085 -0.7855 -0.5002 -0.8631
 8051SOL     OW35785   2.194   2.174   6.011  0.0439 -0.1749 -0.1332
 8051SOL    HW135786   2.155   2.205   5.929  1.2125  0.7866 -0.3225
 8051SOL    HW235787   2.279   2.136   5.987  0.7229  0.4486  1.2919
 8052SOL     OW35788   1.720   1.823   5.347  0.1822 -0.0014  0.3399
 8052SOL    HW135789   1.742   1.845   5.256  1.6214  1.2486  0.9876
 8052SOL    HW235790   1.789   1.854   5.406  0.9516 -0.0550 -0.5153
 8053SOL     OW35791   0.983   4.217  16.318 -0.0315 -0.1278  0.1164
 8053SOL    HW135792   1.049   4.203  16.250  1.0198 -0.1521  1.1245
 8053SOL    HW235793   0.981   4.311  16.334 -2.2797 -0.1160 -0.3851
 8054SOL     OW35794   0.174   1.726   8.274 -0.1581  0.0771  0.8731
 8054SOL    HW135795   0.269   1.734   8.276 -0.0485 -1.1523  0.7231
 8054SOL    HW235796   0.151   1.717   8.182 -2.6194  2.1782  1.2839
 8055SOL     OW35797   3.949   4.407   6.894 -0.2361  0.6460 -0.6198
 8055SOL    HW135798   4.036   4.372   6.873 -0.1518 -0.1870  1.0730
 8055SOL    HW235799   3.964   4.479   6.955 -0.9333 -0.9349  1.4533
 8056SOL     OW35800   1.721   3.698  12.964  0.2545 -0.0500  0.0911
 8056SOL    HW135801   1.744   3.749  12.886  0.4399 -0.2291  0.0298
 8056SOL    HW235802   1.683   3.620  12.924 -0.1877 -0.4546  1.2881
 8057SOL     OW35803   3.878   1.165   9.369  0.3714 -0.1865  0.0900
 8057SOL    HW135804   3.945   1.177   9.437 -0.3200  1.6895  0.4268
 8057SOL    HW235805   3.810   1.134   9.428 -0.0956  0.0009 -0.3424
 8058SOL     OW35806   2.149   1.180  15.515  0.3132 -0.1558 -0.8848
 8058SOL    HW135807   2.147   1.263  15.561  4.1873 -0.8478  0.5622
 8058SOL    HW235808   2.134   1.211  15.425 -2.5645  3.5587  0.9095
 8059SOL     OW35809   0.785   0.972   0.993 -0.1204  0.1269  0.4869
 8059SOL    HW135810   0.859   1.010   1.041  0.8354 -1.5560  0.3736
 8059SOL    HW235811   0.816   0.968   0.903 -2.6445 -0.3468 -0.3530
 8060SOL     OW35812   3.166   1.316   2.183 -0.6012  0.1391 -0.4364
 8060SOL    HW135813   3.214   1.300   2.102  0.3238 -0.2284  0.1860
 8060SOL    HW235814   3.223   1.370   2.238 -0.0999  1.3624 -2.1657
 8061SOL     OW35815   0.323   1.208  15.167  0.5092 -0.0878 -0.2439
 8061SOL    HW135816   0.284   1.144  15.107  1.7722 -2.0682  1.0247
 8061SOL    HW235817   0.261   1.190  15.238  0.8306  0.6470  0.2226
 8062SOL     OW35818   3.979   2.992   4.772 -0.2425  0.2948 -0.0006
 8062SOL    HW135819   4.040   3.052   4.815 -0.7666  0.6855  0.1968
 8062SOL    HW235820   4.040   2.941   4.719 -1.8030  1.0693 -2.5423
 8063SOL     OW35821   2.650   2.659   2.541 -0.0248 -0.3061  0.3003
 8063SOL    HW135822   2.567   2.613   2.549 -0.1799  0.2545  1.8404
 8063SOL    HW235823   2.652   2.692   2.451 -1.2582 -0.4423  0.2343
 8064SOL     OW35824   4.668   3.409   2.646 -0.1723 -0.6654  0.1596
 8064SOL    HW135825   4.626   3.481   2.692 -0.6506 -0.4339 -0.6449
 8064SOL    HW235826   4.596   3.348   2.659 -0.0438 -0.4571  1.7990
 8065SOL     OW35827   3.706   3.467   8.165  0.1002 -0.5306  0.0898
 8065SOL    HW135828   3.799   3.446   8.156  0.8109  1.6945  2.4175
 8065SOL    HW235829   3.704   3.498   8.255 -0.4550 -1.4815  0.4014
 8066SOL     OW35830   3.494   1.673   5.504 -0.3081  1.1758 -0.1324
 8066SOL    HW135831   3.513   1.767   5.495  0.5827  1.1430  1.4251
 8066SOL    HW235832   3.444   1.686   5.584 -1.1058  0.1439 -0.4693
 8067SOL     OW35833   3.796   3.715   9.441 -0.3256 -0.1617  0.0340
 8067SOL    HW135834   3.858   3.785   9.421 -0.2207 -0.2404  0.0821
 8067SOL    HW235835   3.800   3.663   9.360 -2.0344  1.6667 -1.2084
 8068SOL     OW35836   4.661   1.425   8.065  0.0399 -0.5979  0.2828
 8068SOL    HW135837   4.570   1.426   8.035 -0.3307  0.0258  1.4234
 8068SOL    HW235838   4.658   1.344   8.116 -1.6524 -0.6725  0.0857
 8069SOL     OW35839   2.079   2.313  15.110  0.4441  0.4099 -0.0423
 8069SOL    HW135840   2.170   2.310  15.137  0.3899  0.2296  0.1146
 8069SOL    HW235841   2.067   2.407  15.097 -0.3188  0.4930  1.2548
 8070SOL     OW35842   1.128   3.437   6.496  0.6195  0.3880  0.3810
 8070SOL    HW135843   1.187   3.364   6.480 -0.1430  0.0467 -0.8725
 8070SOL    HW235844   1.093   3.410   6.581  2.9424  1.0466  1.5454
 8071SOL     OW35845   1.008   4.541   5.172 -0.0542 -0.9206 -0.1316
 8071SOL    HW135846   1.040   4.483   5.240  1.6283 -0.3755 -0.4579
 8071SOL    HW235847   1.010   4.480   5.098  2.6622  0.5209 -1.2469
 8072SOL     OW35848   3.205   1.692   2.234 -0.0543  0.1835  0.3162
 8072SOL    HW135849   3.210   1.771   2.180  0.5944 -0.0279  0.0615
 8072SOL    HW235850   3.266   1.644   2.179 -2.0109 -1.1396 -0.6821
 8073SOL     OW35851   2.672   2.337  13.345  0.8483 -0.0709  0.3044
 8073SOL    HW135852   2.631   2.251  13.334 -1.1369  0.6647  2.0149
 8073SOL    HW235853   2.758   2.302  13.369 -0.1584 -0.8804  2.6733
 8074SOL     OW35854   0.800   0.310   9.479  0.4244 -0.1937 -0.0305
 8074SOL    HW135855   0.720   0.329   9.529 -1.4094 -1.9801 -2.2582
 8074SOL    HW235856   0.766   0.248   9.415  2.0137  1.4151 -2.4111
 8075SOL     OW35857   1.758   2.047  15.903 -0.3162 -0.0251  0.0347
 8075SOL    HW135858   1.761   2.138  15.931  0.6429 -0.5651  1.6849
 8075SOL    HW235859   1.667   2.029  15.928  0.1191 -2.3756 -0.0215
 8076SOL     OW35860   3.324   3.808   8.748  0.2828 -0.1636 -0.8335
 8076SOL    HW135861   3.263   3.881   8.752  1.9252  1.2050 -0.6918
 8076SOL    HW235862   3.386   3.839   8.682  0.9431 -1.8771 -1.0227
 8077SOL     OW35863   0.265   1.514   3.735  0.6779  0.2504  0.4130
 8077SOL    HW135864   0.281   1.599   3.776 -0.4517  0.6740 -0.0120
 8077SOL    HW235865   0.212   1.468   3.800  1.6371 -1.4715 -0.0413
 8078SOL     OW35866   4.371   0.488   9.092  0.1163 -0.3996  0.5020
 8078SOL    HW135867   4.289   0.446   9.066 -0.1810  1.2166 -1.1075
 8078SOL    HW235868   4.407   0.438   9.166  0.9807 -0.3618  0.1049
 8079SOL     OW35869   1.311   0.189  15.527 -0.2735 -0.1176  0.4545
 8079SOL    HW135870   1.240   0.134  15.560 -1.2533  0.8777 -0.0112
 8079SOL    HW235871   1.323   0.246  15.603 -1.1574 -1.2623  1.4526
 8080SOL     OW35872   4.354   2.337   1.170  0.2619 -0.0206  0.4220
 8080SOL    HW135873   4.383   2.412   1.222  0.3206  1.0611 -1.1427
 8080SOL    HW235874   4.283   2.378   1.121 -0.5347 -0.3049  1.3616
 8081SOL     OW35875   1.150   2.771   3.286  0.0781 -0.5421  0.1297
 8081SOL    HW135876   1.245   2.763   3.282 -0.0381 -1.3230 -1.2368
 8081SOL    HW235877   1.131   2.691   3.336  1.0760 -0.8798 -0.0379
 8082SOL     OW35878   1.685   2.024   6.542 -0.1270  0.1593  0.3742
 8082SOL    HW135879   1.688   2.096   6.606 -0.6592 -2.0617  2.9257
 8082SOL    HW235880   1.691   2.066   6.456 -1.1615 -2.0815 -0.7863
 8083SOL     OW35881   3.145   0.782   4.022 -0.0160  0.1189 -0.1519
 8083SOL    HW135882   3.113   0.808   4.108 -1.3274  0.2650 -0.6923
 8083SOL    HW235883   3.233   0.813   4.043 -1.1836  2.8207  0.7908
 8084SOL     OW35884   1.656   1.293   9.929 -0.1665  0.6601  0.5224
 8084SOL    HW135885   1.630   1.285   9.837 -0.2284  0.2270  0.5754
 8084SOL    HW235886   1.727   1.230   9.939 -0.6846 -0.3088 -1.9027
 8085SOL     OW35887   2.854   0.911   9.179 -0.5716  0.4500  0.2732
 8085SOL    HW135888   2.784   0.944   9.235 -0.9074  2.3969 -1.2808
 8085SOL    HW235889   2.844   0.962   9.099  1.1593  0.3639 -0.0105
 8086SOL     OW35890   2.914   1.591   4.441  0.1353 -0.1268  0.0819
 8086SOL    HW135891   2.965   1.570   4.363 -0.9758  0.5078 -0.8120
 8086SOL    HW235892   2.844   1.526   4.429 -1.9621  2.2182 -0.2653
 8087SOL     OW35893   4.214   0.402   1.349 -0.0162 -0.5537 -0.3473
 8087SOL    HW135894   4.123   0.413   1.322  0.3479 -0.5874 -1.6044
 8087SOL    HW235895   4.245   0.484   1.310 -0.4535  0.5201  1.5660
 8088SOL     OW35896   2.087   1.573   7.206  0.1065 -0.1745  0.0579
 8088SOL    HW135897   2.085   1.626   7.126  0.7198  0.5458  0.5152
 8088SOL    HW235898   2.120   1.491   7.169  0.2233 -0.1312  0.0646
 8089SOL     OW35899   4.236   0.325  10.128 -0.0796  0.0865 -0.1328
 8089SOL    HW135900   4.213   0.413  10.159  0.2464 -0.4982  1.8044
 8089SOL    HW235901   4.262   0.336  10.037 -0.6156  0.0574 -0.2864
 8090SOL     OW35902   2.241   4.485   8.962 -0.4418 -0.1658  0.7015
 8090SOL    HW135903   2.322   4.455   9.002  0.3804  0.9291 -0.1407
 8090SOL    HW235904   2.282   4.566   8.932 -1.8396 -0.7419 -2.7599
 8091SOL     OW35905   0.625   3.389   3.738 -0.3760 -0.1687 -0.0625
 8091SOL    HW135906   0.579   3.431   3.810 -0.8547 -2.1624  0.7978
 8091SOL    HW235907   0.660   3.322   3.796 -1.2823  0.4111  1.1641
 8092SOL     OW35908   2.534   0.166   8.012 -0.0315 -0.8672  0.1742
 8092SOL    HW135909   2.577   0.095   7.964 -0.8754  0.3231 -2.3211
 8092SOL    HW235910   2.511   0.132   8.098 -2.5408  1.6040  0.4812
 8093SOL     OW35911   3.743   2.290   9.212  0.1617  0.7205 -0.7867
 8093SOL    HW135912   3.786   2.217   9.168 -1.3004 -1.6930  1.8931
 8093SOL    HW235913   3.702   2.249   9.287  1.3569 -0.5054 -0.8081
 8094SOL     OW35914   3.250   3.203   3.478  0.1217 -0.1172  0.2533
 8094SOL    HW135915   3.280   3.165   3.561 -3.1379 -1.2934  0.9203
 8094SOL    HW235916   3.269   3.137   3.413 -0.0227  0.3240 -0.2360
 8095SOL     OW35917   0.224   1.780   2.077 -0.1618  0.4107  0.3429
 8095SOL    HW135918   0.148   1.808   2.026  0.2301  0.1090 -0.4036
 8095SOL    HW235919   0.260   1.723   2.009 -0.2988  0.8136 -0.0698
 8096SOL     OW35920   4.347   2.698   7.281 -0.1517  0.3673  0.1890
 8096SOL    HW135921   4.287   2.689   7.207  1.8870 -0.1175 -1.3799
 8096SOL    HW235922   4.368   2.791   7.281  2.2053 -0.1661  1.2013
 8097SOL     OW35923   4.259   1.595   9.992 -0.2833  0.1771 -0.3260
 8097SOL    HW135924   4.201   1.595  10.068  0.3024  2.7849  0.1434
 8097SOL    HW235925   4.298   1.683   9.991 -0.8685  0.4385 -2.5018
 8098SOL     OW35926   2.981   0.942   3.162  0.2228  0.0734 -0.1610
 8098SOL    HW135927   3.060   0.954   3.110  1.0219 -1.0108  0.8152
 8098SOL    HW235928   3.021   0.932   3.248  0.8905  2.4524 -0.1873
 8099SOL     OW35929   3.631   4.073  13.959 -0.4395 -0.0453  0.1310
 8099SOL    HW135930   3.639   4.049  13.867  0.3621 -0.6137  0.3546
 8099SOL    HW235931   3.543   4.039  13.975 -1.7984  3.3452 -0.0495
 8100SOL     OW35932   3.796   4.298   9.015 -0.3327 -0.0262  0.6528
 8100SOL    HW135933   3.840   4.246   9.082  2.5522  3.3057  1.3902
 8100SOL    HW235934   3.760   4.364   9.074  0.1629  0.4406  0.4362
 8101SOL     OW35935   0.519   0.948   1.446  0.3867 -0.2123  0.6792
 8101SOL    HW135936   0.535   0.861   1.409  0.5297  0.2964 -0.4159
 8101SOL    HW235937   0.581   0.950   1.519  1.1288  0.0407  0.0376
 8102SOL     OW35938   2.872   3.473   0.832 -0.9881 -0.4185  0.0052
 8102SOL    HW135939   2.912   3.553   0.798  0.2000 -1.1879 -0.3932
 8102SOL    HW235940   2.933   3.404   0.805  0.2971 -0.1500  2.1890
 8103SOL     OW35941   2.700   2.177  15.537  0.1868  0.3593  0.4656
 8103SOL    HW135942   2.750   2.254  15.565 -1.0649  0.8800  1.2835
 8103SOL    HW235943   2.758   2.160  15.463 -0.1803  1.9935 -0.1806
 8104SOL     OW35944   1.424   0.407   2.969 -0.1706  0.3969  0.0915
 8104SOL    HW135945   1.338   0.404   2.927  0.3204 -0.0713 -0.8537
 8104SOL    HW235946   1.420   0.494   3.010 -0.5577  0.5007 -0.1680
 8105SOL     OW35947   0.312   4.128   3.829 -0.5641 -0.2822 -0.3379
 8105SOL    HW135948   0.241   4.073   3.796 -1.1219  0.2982 -0.0957
 8105SOL    HW235949   0.254   4.202   3.847  1.2131  0.5013  2.2993
 8106SOL     OW35950   3.707   3.839   5.674  0.0534  0.0884  0.2496
 8106SOL    HW135951   3.690   3.755   5.630 -0.1957  1.4887 -2.3231
 8106SOL    HW235952   3.633   3.847   5.734  2.7957  1.0358  3.4856
 8107SOL     OW35953   3.827   4.142   9.387 -0.4446  0.0633  0.4487
 8107SOL    HW135954   3.819   4.218   9.445  0.4426 -0.3684  1.1364
 8107SOL    HW235955   3.912   4.157   9.344 -1.1655 -1.1577 -1.3969
 8108SOL     OW35956   2.648   0.552   9.389 -0.2097 -0.0632  0.7090
 8108SOL    HW135957   2.640   0.646   9.404  1.9134  0.1961  0.1007
 8108SOL    HW235958   2.556   0.524   9.382 -0.4045  0.0397  2.8370
 8109SOL     OW35959   3.905   0.113   6.826 -0.3752  0.5259  0.7198
 8109SOL    HW135960   3.993   0.092   6.857  0.0527 -1.2270 -1.6715
 8109SOL    HW235961   3.878   0.185   6.882 -2.6388  1.0679 -1.0749
 8110SOL     OW35962   4.324   1.506   9.646  0.1489  0.2711  0.3288
 8110SOL    HW135963   4.288   1.497   9.735 -0.0359 -0.3142  0.1917
 8110SOL    HW235964   4.414   1.482   9.666  0.0508  0.0152  0.4691
 8111SOL     OW35965   1.428   1.645   6.279 -0.0121 -0.2868  0.0986
 8111SOL    HW135966   1.449   1.683   6.365 -0.1495 -2.0484  0.9217
 8111SOL    HW235967   1.473   1.703   6.218 -0.1991  0.7247  0.9139
 8112SOL     OW35968   3.878   1.636   8.698 -0.5801 -0.1347  1.0795
 8112SOL    HW135969   3.823   1.625   8.620 -0.5955 -1.6637  1.3069
 8112SOL    HW235970   3.830   1.699   8.752 -2.3447 -0.9192  0.4147
 8113SOL     OW35971   1.038   2.519  15.977  0.7951 -0.3270  0.3712
 8113SOL    HW135972   0.993   2.597  15.944 -2.0556 -1.8392  0.6432
 8113SOL    HW235973   1.077   2.561  16.053  0.3586 -1.6371  1.3184
 8114SOL     OW35974   2.654   3.398   5.669 -0.9204 -0.1926  0.2833
 8114SOL    HW135975   2.645   3.419   5.576 -1.1100 -0.6634  0.1969
 8114SOL    HW235976   2.607   3.467   5.716 -1.1838 -0.3376  0.2346
 8115SOL     OW35977   2.699   2.620   3.571 -0.6392 -0.2066  0.0967
 8115SOL    HW135978   2.644   2.548   3.538  0.0215  0.0029 -1.4803
 8115SOL    HW235979   2.630   2.685   3.581  0.5363  1.3317 -1.8963
 8116SOL     OW35980   0.112   3.264   4.727  0.2582 -0.1166  0.2222
 8116SOL    HW135981   0.031   3.246   4.773  1.4428 -1.4142  1.8317
 8116SOL    HW235982   0.083   3.349   4.694 -3.3735 -1.7443 -0.7352
 8117SOL     OW35983   2.966   1.137   2.201 -0.3416 -0.4564  0.1596
 8117SOL    HW135984   3.054   1.173   2.209  0.2563 -2.1829  1.5092
 8117SOL    HW235985   2.957   1.099   2.289  1.5845  2.7390  1.7398
 8118SOL     OW35986   1.799   2.409   4.880  0.0927 -0.2275 -0.1613
 8118SOL    HW135987   1.872   2.400   4.941  0.4392  0.5905 -0.4570
 8118SOL    HW235988   1.812   2.500   4.856 -2.4379 -0.1087 -1.1111
 8119SOL     OW35989   4.577   0.787   7.966 -0.2671  0.0744  0.1978
 8119SOL    HW135990   4.522   0.752   8.036 -0.5734 -2.6140 -1.3858
 8119SOL    HW235991   4.523   0.782   7.887 -0.1569  0.7428  0.0816
 8120SOL     OW35992   4.196   4.251  17.458 -0.1295 -0.4484 -0.3123
 8120SOL    HW135993   4.261   4.256  17.528 -0.0233 -1.3439 -0.3426
 8120SOL    HW235994   4.123   4.208  17.502 -0.7472  0.1472 -0.7606
 8121SOL     OW35995   3.281   0.154   9.250  0.7912  0.5322 -0.2287
 8121SOL    HW135996   3.234   0.220   9.302 -2.2484 -0.0939 -2.1767
 8121SOL    HW235997   3.354   0.128   9.306  0.8197  0.7974 -0.1416
 8122SOL     OW35998   0.804   2.962   3.180 -0.3229 -0.1235 -0.3598
 8122SOL    HW135999   0.801   2.872   3.147  0.6149 -1.2677  2.6937
 8122SOL    HW236000   0.785   3.002   3.095  1.8056  1.7004  0.0037
 8123SOL     OW36001   0.900   0.235  14.670 -0.8224 -0.5665  0.1816
 8123SOL    HW136002   0.869   0.156  14.626  0.2913 -0.1321 -1.3725
 8123SOL    HW236003   0.982   0.247  14.621 -1.7972  2.5931 -0.6745
 8124SOL     OW36004   3.759   3.033   5.394 -0.0941 -0.2495  0.0107
 8124SOL    HW136005   3.819   2.971   5.436  1.4420  1.6418  0.6029
 8124SOL    HW236006   3.698   2.971   5.354 -0.1421  1.1224 -2.0052
 8125SOL     OW36007   3.594   0.452   4.110  0.2157  0.1671  0.1343
 8125SOL    HW136008   3.657   0.389   4.075 -1.0963 -0.3899 -1.2705
 8125SOL    HW236009   3.576   0.504   4.031  0.1475 -1.2907 -0.7967
 8126SOL     OW36010   4.138   1.230   3.081 -0.2531 -0.0243  0.9001
 8126SOL    HW136011   4.220   1.213   3.035 -0.7751 -0.3208  0.0836
 8126SOL    HW236012   4.151   1.176   3.159 -1.9435 -0.5643  0.8057
 8127SOL     OW36013   4.556   1.164   0.936  0.3803 -0.2551  0.2102
 8127SOL    HW136014   4.512   1.151   1.021 -0.6891 -0.0293 -0.3127
 8127SOL    HW236015   4.480   1.154   0.879  0.6180  0.2520 -0.1971
 8128SOL     OW36016   0.448   0.534   6.100 -0.4711  0.1024 -0.0856
 8128SOL    HW136017   0.503   0.609   6.122  0.5325 -1.0864  1.3872
 8128SOL    HW236018   0.369   0.580   6.070 -0.7634 -0.2097  0.2182
 8129SOL     OW36019   1.901   1.581   4.972 -0.0997 -0.3562  0.3955
 8129SOL    HW136020   1.942   1.646   4.915 -1.2131 -0.5017 -0.5587
 8129SOL    HW236021   1.821   1.624   5.001  1.0426  1.0366  1.4617
 8130SOL     OW36022   0.113   2.095   7.583  0.1648 -0.3716 -0.5050
 8130SOL    HW136023   0.180   2.139   7.530 -0.5677  1.5139  0.1418
 8130SOL    HW236024   0.165   2.075   7.662 -2.0367  0.3597  1.1234
 8131SOL     OW36025   4.473   3.269   1.779  0.2680 -0.2187 -0.1862
 8131SOL    HW136026   4.534   3.342   1.793 -1.1727  0.9470  0.0443
 8131SOL    HW236027   4.408   3.289   1.846 -0.5967  1.0434 -1.4126
 8132SOL     OW36028   1.891   4.278   6.063 -0.2410 -0.2719  0.2338
 8132SOL    HW136029   1.953   4.308   6.130 -1.6129 -0.3479  1.5332
 8132SOL    HW236030   1.885   4.361   6.017  0.2543  0.9479  2.3749
 8133SOL     OW36031   2.128   1.388  15.176 -0.1429 -0.2923  0.1891
 8133SOL    HW136032   2.077   1.434  15.242  0.7915  0.6575  0.2403
 8133SOL    HW236033   2.099   1.300  15.201 -0.9636  0.5441  2.1500
 8134SOL     OW36034   3.710   3.595  10.099  0.0184  0.1137 -0.3196
 8134SOL    HW136035   3.644   3.659  10.126  0.8659  0.6566  0.4783
 8134SOL    HW236036   3.677   3.588  10.010  0.4055  0.8940 -0.5261
 8135SOL     OW36037   3.164   2.604   3.947  0.4221  0.6954  0.0112
 8135SOL    HW136038   3.193   2.548   3.875  1.2751 -2.0426  2.4410
 8135SOL    HW236039   3.211   2.562   4.019 -2.3189 -0.4778  1.1224
 8136SOL     OW36040   1.941   1.395   2.815  0.1802  0.0274 -0.0888
 8136SOL    HW136041   1.926   1.320   2.757 -0.9093  0.3250 -0.1983
 8136SOL    HW236042   1.858   1.439   2.796 -0.1300 -0.0136  1.1450
 8137SOL     OW36043   4.166   3.013   7.083  0.0691  0.4683 -0.6379
 8137SOL    HW136044   4.259   3.035   7.092  0.3597  0.4030 -3.6777
 8137SOL    HW236045   4.140   3.093   7.039 -0.4103  0.6054 -0.1011
 8138SOL     OW36046   4.005   4.347   3.431  0.5762 -0.3819 -0.6770
 8138SOL    HW136047   4.080   4.404   3.446  1.5896 -1.4393 -1.7382
 8138SOL    HW236048   4.040   4.302   3.354  2.0171 -1.2761  0.4986
 8139SOL     OW36049   1.258   1.867   3.824 -0.0779 -0.1196 -0.0719
 8139SOL    HW136050   1.200   1.937   3.793 -0.2527  1.0254  2.8229
 8139SOL    HW236051   1.349   1.894   3.819 -0.0094 -0.0391  1.6881
 8140SOL     OW36052   3.646   2.990  14.934  0.2357 -0.5399 -0.5081
 8140SOL    HW136053   3.658   3.084  14.945  0.4774 -0.4315 -1.6601
 8140SOL    HW236054   3.689   2.985  14.848 -0.3458 -0.6669 -0.7970
 8141SOL     OW36055   2.495   3.293   4.419  0.1016  0.2854  0.1249
 8141SOL    HW136056   2.575   3.333   4.452  0.3455  1.9045 -2.4700
 8141SOL    HW236057   2.486   3.223   4.484  2.4525 -0.8827 -0.8055
 8142SOL     OW36058   2.078   2.555   1.701 -0.0756 -0.5559 -0.5092
 8142SOL    HW136059   1.988   2.580   1.719  0.9662  0.8823  2.7540
 8142SOL    HW236060   2.077   2.459   1.701 -2.0749 -0.5270 -0.2164
 8143SOL     OW36061   4.727   4.612   9.147  0.2035  0.2350  0.3196
 8143SOL    HW136062   0.044   4.560   9.210  0.1369 -0.1965  0.0204
 8143SOL    HW236063   4.642   4.592   9.187 -0.5621  0.6387 -1.1140
 8144SOL     OW36064   1.756   1.188   0.677  0.2721 -0.2387 -0.0308
 8144SOL    HW136065   1.704   1.268   0.673 -0.6842 -0.8950 -0.6224
 8144SOL    HW236066   1.685   1.125   0.665  1.0923 -1.7170  2.8030
 8145SOL     OW36067   3.616   3.849  17.366  0.5906  0.1331 -0.6678
 8145SOL    HW136068   3.640   3.842  17.274 -1.0364 -0.0076 -1.0697
 8145SOL    HW236069   3.645   3.761  17.388 -1.3135 -0.2243  0.3971
 8146SOL     OW36070   1.527   1.158   9.364  0.3226  0.2514  0.1041
 8146SOL    HW136071   1.584   1.120   9.297  1.0741  2.9265 -0.7910
 8146SOL    HW236072   1.458   1.201   9.314 -0.3551 -1.3100 -0.2952
 8147SOL     OW36073   4.285   1.747   9.476 -0.1565 -0.0598  0.1440
 8147SOL    HW136074   4.321   1.681   9.535 -0.2760  1.4001  1.8308
 8147SOL    HW236075   4.357   1.757   9.413 -0.5967  2.3808  0.0258
 8148SOL     OW36076   2.444   0.743   5.108 -0.1578  0.1720 -0.1449
 8148SOL    HW136077   2.503   0.772   5.038  0.5225  0.3612  0.4979
 8148SOL    HW236078   2.414   0.658   5.077 -0.6939  0.4349 -0.3434
 8149SOL     OW36079   1.783   2.122  14.638  0.2786 -0.1520  0.5251
 8149SOL    HW136080   1.735   2.147  14.559 -1.3890  1.5293  2.0913
 8149SOL    HW236081   1.744   2.041  14.671 -0.9744 -0.2969 -1.3072
 8150SOL     OW36082   2.753   3.784   2.129  0.0503 -0.7213  0.3650
 8150SOL    HW136083   2.733   3.744   2.214 -1.7671 -2.6715 -1.0015
 8150SOL    HW236084   2.720   3.871   2.154 -0.4227 -1.4385  2.2925
 8151SOL     OW36085   3.911   1.878   2.318  0.2738 -0.2906  0.4810
 8151SOL    HW136086   3.952   1.905   2.236  0.2015  1.2246  0.9370
 8151SOL    HW236087   3.833   1.933   2.317  1.3641  1.2078 -2.2622
 8152SOL     OW36088   1.831   3.052  12.106 -0.4362 -0.1438 -0.2945
 8152SOL    HW136089   1.841   3.143  12.079  0.3705  0.0066  0.4925
 8152SOL    HW236090   1.918   3.026  12.078 -0.2857  1.3744 -1.1976
 8153SOL     OW36091   1.755   2.160   5.552  0.0446 -0.4036  0.4046
 8153SOL    HW136092   1.702   2.089   5.516  1.3228 -0.2240 -1.8219
 8153SOL    HW236093   1.836   2.132   5.509 -1.0370 -0.6968 -1.4482
 8154SOL     OW36094   2.480   4.191   3.511  0.1079  0.1041 -0.1516
 8154SOL    HW136095   2.464   4.105   3.550  1.5865 -0.5618 -0.9984
 8154SOL    HW236096   2.389   4.220   3.500  0.1056  0.1397 -0.0415
 8155SOL     OW36097   4.319   1.534   0.114 -0.5696 -0.1873 -0.5188
 8155SOL    HW136098   4.289   1.515   0.025 -2.4739 -0.4917  0.1927
 8155SOL    HW236099   4.409   1.566   0.105 -0.7929  1.4171  2.9094
 8156SOL     OW36100   2.274   4.124  15.793 -0.3702  0.3948  0.4875
 8156SOL    HW136101   2.345   4.171  15.748 -0.8401  0.2728 -0.3874
 8156SOL    HW236102   2.316   4.097  15.875  0.9893 -1.7245 -0.8920
 8157SOL     OW36103   3.514   4.029  14.682 -0.8647 -0.0524  0.1468
 8157SOL    HW136104   3.572   4.059  14.611  0.2939  0.6021  1.3715
 8157SOL    HW236105   3.487   3.944  14.647 -0.7252  0.3579 -0.9799
 8158SOL     OW36106   3.594   3.639   5.468  0.0686 -0.1543 -0.0555
 8158SOL    HW136107   3.595   3.676   5.380 -0.6411  0.0927  0.0422
 8158SOL    HW236108   3.509   3.674   5.494 -0.2542 -1.1103  0.1849
 8159SOL     OW36109   4.433   3.438   5.820  0.1054  0.3496  0.4619
 8159SOL    HW136110   4.517   3.483   5.814 -0.0176  0.4010 -0.8847
 8159SOL    HW236111   4.397   3.499   5.883  0.2333  1.6516 -0.7149
 8160SOL     OW36112   0.279   0.900   8.561 -0.1230 -0.0980  0.0328
 8160SOL    HW136113   0.351   0.963   8.574 -1.3066  0.7531  2.3591
 8160SOL    HW236114   0.240   0.946   8.487 -2.3004 -0.6385  0.8546
 8161SOL     OW36115   3.332   0.685   2.388 -0.0192 -0.1881  0.4853
 8161SOL    HW136116   3.281   0.760   2.358  1.1324  1.0661  1.6356
 8161SOL    HW236117   3.256   0.656   2.439 -0.1319 -1.1381 -0.2395
 8162SOL     OW36118   4.539   1.651  17.527  0.3489  0.1064 -0.6785
 8162SOL    HW136119   4.518   1.744  17.530  0.0855  0.0310 -0.1137
 8162SOL    HW236120   4.604   1.650  17.457 -0.0719  1.8871 -1.0825
 8163SOL     OW36121   1.361   1.909   4.187 -0.3430 -0.5912  0.1306
 8163SOL    HW136122   1.452   1.897   4.216 -0.6740  0.4663  1.6470
 8163SOL    HW236123   1.333   1.892   4.277  0.0786 -2.4010 -0.0815
 8164SOL     OW36124   0.310   0.379  17.098  0.0310  0.3812  0.3633
 8164SOL    HW136125   0.241   0.408  17.038  1.4419  2.2460 -0.3404
 8164SOL    HW236126   0.374   0.345  17.036 -1.0838 -0.2380 -0.4441
 8165SOL     OW36127   4.295   2.999  11.547 -0.4997 -0.0203  0.6451
 8165SOL    HW136128   4.213   2.953  11.564  0.2112 -1.1432  1.0502
 8165SOL    HW236129   4.308   2.988  11.453  1.5670 -1.3715  1.0958
 8166SOL     OW36130   3.937   2.298   2.396  0.5772 -0.3087 -0.0273
 8166SOL    HW136131   3.906   2.371   2.343 -2.6520  0.2553  2.6221
 8166SOL    HW236132   3.963   2.240   2.325 -1.4587  0.7290 -1.6368
 8167SOL     OW36133   3.182   1.340   4.755  0.1716 -0.5465 -0.3850
 8167SOL    HW136134   3.103   1.309   4.798  0.7861 -1.9045 -0.2268
 8167SOL    HW236135   3.199   1.272   4.690  2.5519  1.2595 -1.6462
 8168SOL     OW36136   1.907   1.118  14.467 -0.7236 -0.1341 -0.2808
 8168SOL    HW136137   1.974   1.144  14.404 -1.7349 -0.0233 -1.3321
 8168SOL    HW236138   1.901   1.188  14.532 -0.9172 -0.0071 -0.4332
 8169SOL     OW36139   3.666   0.649   4.510 -0.4691  0.4072  0.0832
 8169SOL    HW136140   3.621   0.588   4.569  2.0381  0.1426  1.6774
 8169SOL    HW236141   3.610   0.649   4.431 -1.4318 -0.7245  0.7606
 8170SOL     OW36142   0.993   3.188   5.470 -0.3999 -0.2227  0.1618
 8170SOL    HW136143   0.941   3.108   5.460 -1.0996  0.2487 -0.0044
 8170SOL    HW236144   0.919   3.241   5.441  2.2222  1.2649 -3.9245
 8171SOL     OW36145   0.322   0.497  17.353 -0.4580  0.0644 -0.1746
 8171SOL    HW136146   0.347   0.588  17.338  1.3071 -0.5295 -0.9422
 8171SOL    HW236147   0.297   0.457  17.270 -1.3056 -2.3819  1.2714
 8172SOL     OW36148   1.076   1.299   3.818  0.7754  0.4783 -0.0059
 8172SOL    HW136149   1.016   1.349   3.873  0.2858  0.5409 -0.5929
 8172SOL    HW236150   1.061   1.213   3.858  2.0406 -0.8253 -2.3388
 8173SOL     OW36151   3.546   0.790   9.765 -0.1533 -0.5362  0.1584
 8173SOL    HW136152   3.562   0.734   9.688  3.0474 -0.7631  0.9947
 8173SOL    HW236153   3.632   0.829   9.782 -0.9739  1.0190  0.7086
 8174SOL     OW36154   3.972   1.712   0.107 -0.3163  0.1033  0.0116
 8174SOL    HW136155   4.046   1.682   0.055 -1.3817 -0.0016 -1.4254
 8174SOL    HW236156   3.900   1.672   0.060 -0.8895  2.0142 -0.7233
 8175SOL     OW36157   0.393   3.646   9.013  0.1601 -0.2150 -0.1105
 8175SOL    HW136158   0.396   3.625   8.920  2.1629  2.0055 -0.5721
 8175SOL    HW236159   0.459   3.584   9.044  1.2530  1.2860  0.5558
 8176SOL     OW36160   2.115   4.204   3.241  0.3640  0.0458  0.0423
 8176SOL    HW136161   2.204   4.202   3.206 -0.1135  1.4866 -1.2506
 8176SOL    HW236162   2.062   4.225   3.164  2.3788 -0.1136 -1.3909
 8177SOL     OW36163   0.088   1.177   4.383  0.0720 -0.2036  0.1234
 8177SOL    HW136164   0.049   1.209   4.301 -0.8367 -0.2209  0.5385
 8177SOL    HW236165   0.008   1.132   4.411  0.1526 -0.7408 -0.5142
 8178SOL     OW36166   1.141   2.230   0.051  0.1757  0.1923 -0.0142
 8178SOL    HW136167   1.171   2.280  17.706  0.5463 -1.0078 -0.6489
 8178SOL    HW236168   1.048   2.214   0.037  0.1103  0.1565  0.4928
 8179SOL     OW36169   1.782   0.094  15.926  0.4518 -0.0818 -0.3636
 8179SOL    HW136170   1.735   0.085  15.843 -1.0005  0.3546  0.4158
 8179SOL    HW236171   1.719   0.054  15.985  1.7453  0.1225  1.1688
 8180SOL     OW36172   0.217   3.161  17.441  0.0446  0.0754 -0.3801
 8180SOL    HW136173   0.301   3.201  17.463  0.2841 -1.8548  2.1692
 8180SOL    HW236174   0.245   3.075  17.411  1.9075  0.3454  0.5574
 8181SOL     OW36175   0.097   1.420   5.225 -0.0118 -0.2858 -0.5339
 8181SOL    HW136176   0.123   1.352   5.288  2.2085  1.5780  0.5552
 8181SOL    HW236177   0.184   1.456   5.204 -1.0168  1.5258 -1.5572
 8182SOL     OW36178   1.687   0.866   0.461 -0.2850  0.4807  0.1308
 8182SOL    HW136179   1.729   0.947   0.433 -0.6934  0.4837 -0.4787
 8182SOL    HW236180   1.732   0.799   0.408 -2.0495 -0.2916 -0.3888
 8183SOL     OW36181   1.686   0.765   3.391 -0.2914  0.2831 -0.5673
 8183SOL    HW136182   1.739   0.833   3.349 -1.0917  0.4876 -1.2351
 8183SOL    HW236183   1.605   0.815   3.401 -1.3740 -1.6812  0.5873
 8184SOL     OW36184   0.402   0.654   5.299 -0.1895 -0.2641  0.3416
 8184SOL    HW136185   0.354   0.668   5.381 -2.3347  1.4415 -1.2028
 8184SOL    HW236186   0.343   0.697   5.238  1.2913  1.0267 -0.1566
 8185SOL     OW36187   0.462   4.322  14.702 -0.4198  0.1846  0.1819
 8185SOL    HW136188   0.466   4.286  14.613 -1.1185 -1.2404  0.7342
 8185SOL    HW236189   0.383   4.280  14.736  0.6082 -1.6192  0.3748
 8186SOL     OW36190   1.402   0.073  12.068  0.1412  0.0640  0.3311
 8186SOL    HW136191   1.318   0.046  12.105 -1.5798  0.3701 -3.3839
 8186SOL    HW236192   1.371   0.053  11.979 -0.8928  0.2426  0.6478
 8187SOL     OW36193   2.991   1.986   4.807 -0.3227 -0.5279  0.0361
 8187SOL    HW136194   3.074   2.028   4.830 -1.0041 -0.2258  1.9875
 8187SOL    HW236195   3.012   1.895   4.828  0.4286 -0.6863 -1.4453
 8188SOL     OW36196   2.786   1.965  12.439 -0.5455 -0.0763 -0.0690
 8188SOL    HW136197   2.744   1.922  12.364  1.2745 -0.8017 -0.6928
 8188SOL    HW236198   2.865   1.914  12.461  0.0809  0.7522 -0.3951
 8189SOL     OW36199   2.302   0.790   3.134 -0.3181 -0.2222 -0.6521
 8189SOL    HW136200   2.370   0.724   3.142  1.4374  1.5561 -0.8198
 8189SOL    HW236201   2.231   0.728   3.150 -0.5999  0.3317  0.2550
 8190SOL     OW36202   1.107   0.722   8.100  0.2516 -0.1675 -0.0769
 8190SOL    HW136203   1.173   0.724   8.169  1.4339  1.1680 -1.2658
 8190SOL    HW236204   1.158   0.706   8.020  0.9596  1.2193  0.0981
 8191SOL     OW36205   0.500   4.057   7.465  0.0388  0.1015  0.1257
 8191SOL    HW136206   0.577   4.029   7.516  0.4844  1.4790  0.2195
 8191SOL    HW236207   0.540   4.138   7.432 -0.5185  0.1373 -0.4332
 8192SOL     OW36208   2.947   1.750   6.572  0.1456  0.2350 -0.0714
 8192SOL    HW136209   2.944   1.779   6.663 -1.6830  3.8990 -1.3044
 8192SOL    HW236210   3.043   1.755   6.572  0.1394  0.1730 -2.3875
 8193SOL     OW36211   2.841   4.122   2.048 -0.0096 -0.0641 -0.0217
 8193SOL    HW136212   2.769   4.073   2.087  1.9704 -1.8504  1.3955
 8193SOL    HW236213   2.864   4.184   2.117 -0.3716 -1.2282  1.1421
 8194SOL     OW36214   1.230   2.099  10.963 -0.1279  0.1845 -0.1986
 8194SOL    HW136215   1.250   2.023  11.017  1.8587  0.0076 -1.1833
 8194SOL    HW236216   1.309   2.086  10.910 -0.0684 -3.5763  0.8095
 8195SOL     OW36217   0.921   4.043   6.836  0.1175  0.0538 -0.7640
 8195SOL    HW136218   0.842   4.085   6.870  0.2823 -1.4808  1.5420
 8195SOL    HW236219   0.924   4.087   6.751 -1.9708 -0.1212 -0.9247
 8196SOL     OW36220   2.474   3.887   8.941 -0.2135 -0.0638 -0.4050
 8196SOL    HW136221   2.488   3.891   8.846 -0.4366  0.9028 -0.4039
 8196SOL    HW236222   2.516   3.802   8.947 -0.1827  0.0607  1.2001
 8197SOL     OW36223   0.981   1.895   3.628 -0.4499  0.3076  0.1313
 8197SOL    HW136224   1.061   1.928   3.590  0.2103 -1.4046  0.0188
 8197SOL    HW236225   0.941   1.847   3.555  0.4714  0.9409 -0.7741
 8198SOL     OW36226   0.179   0.560   5.015 -0.4807  0.0253 -0.0946
 8198SOL    HW136227   0.189   0.514   5.098  0.0985 -0.1540 -0.2694
 8198SOL    HW236228   0.231   0.639   5.031 -1.0924  0.0773  1.6821
 8199SOL     OW36229   1.978   0.301  15.943  0.0301 -0.2281 -0.4263
 8199SOL    HW136230   1.902   0.258  15.982 -0.1302  2.3955  2.2164
 8199SOL    HW236231   2.004   0.251  15.866  0.0427 -1.2952  0.2749
 8200SOL     OW36232   3.025   4.118   4.177 -0.1957 -0.0529 -0.1107
 8200SOL    HW136233   3.091   4.049   4.171 -1.0820 -0.7288 -2.3854
 8200SOL    HW236234   3.069   4.172   4.112  2.1817  0.5377  2.0126
 8201SOL     OW36235   4.600   1.770   3.209 -0.3244  0.3072  0.1804
 8201SOL    HW136236   4.601   1.688   3.260 -0.3477  0.0476 -0.2367
 8201SOL    HW236237   4.582   1.741   3.120 -0.3334 -1.4800  0.7545
 8202SOL     OW36238   4.367   2.715   5.940  0.1765  0.1239  0.2182
 8202SOL    HW136239   4.367   2.646   5.874 -1.8690 -1.3641  1.7793
 8202SOL    HW236240   4.430   2.775   5.899 -0.4906 -0.0243 -1.0128
 8203SOL     OW36241   2.399   4.073   2.774 -0.7307  0.2226  0.5942
 8203SOL    HW136242   2.478   4.035   2.736 -1.6961  0.5331 -1.7544
 8203SOL    HW236243   2.349   4.087   2.693 -0.3728 -2.6903 -0.1096
 8204SOL     OW36244   1.140   1.400   1.169 -0.2762 -0.1254  0.1018
 8204SOL    HW136245   1.129   1.395   1.264 -1.8917 -1.2898 -0.1706
 8204SOL    HW236246   1.198   1.325   1.158  1.8932  2.0144 -3.0665
 8205SOL     OW36247   2.232   0.531  17.101  0.2878 -0.0643  0.1798
 8205SOL    HW136248   2.327   0.526  17.112  0.2868 -2.6391 -1.0158
 8205SOL    HW236249   2.210   0.605  17.158 -2.2628 -0.7463  0.0907
 8206SOL     OW36250   3.731   4.591  14.409  0.6182 -0.1179 -0.0546
 8206SOL    HW136251   3.693   4.617  14.325 -1.7182 -0.6335  0.8414
 8206SOL    HW236252   3.807   4.540  14.379  0.7063  1.3485 -2.3571
 8207SOL     OW36253   4.232   2.462   7.444  0.1464  0.3338  0.6280
 8207SOL    HW136254   4.303   2.409   7.409 -0.3718  0.1167 -0.0836
 8207SOL    HW236255   4.259   2.552   7.425  0.9237  0.2135  1.1828
 8208SOL     OW36256   0.495   4.667   4.578  0.2535  0.1435 -0.1852
 8208SOL    HW136257   0.432   4.707   4.518  0.7632 -0.9233 -1.4359
 8208SOL    HW236258   0.470   4.715   4.657  1.0374  3.6422 -2.0352
 8209SOL     OW36259   2.099   1.893   9.263  0.7344 -0.0176  0.4400
 8209SOL    HW136260   2.193   1.875   9.273  0.5807 -0.2884  1.3999
 8209SOL    HW236261   2.072   1.826   9.201  2.3098  0.2314 -0.5129
 8210SOL     OW36262   4.385   3.306  15.861  0.1846 -0.4744  0.3462
 8210SOL    HW136263   4.402   3.398  15.884  1.2514 -0.8328  1.0011
 8210SOL    HW236264   4.462   3.267  15.900 -0.5817 -3.2984 -0.9955
 8211SOL     OW36265   2.589   2.215   9.382  0.4294  0.0531 -0.4288
 8211SOL    HW136266   2.603   2.309   9.392  1.4860 -0.1919  0.4396
 8211SOL    HW236267   2.540   2.228   9.302  0.7076 -0.6628 -0.7141
 8212SOL     OW36268   4.261   0.468  13.635 -0.1677 -0.9213 -0.4434
 8212SOL    HW136269   4.275   0.436  13.724 -1.1825  1.9554  0.7505
 8212SOL    HW236270   4.346   0.510  13.622  0.2793 -1.2398  1.3588
 8213SOL     OW36271   0.340   2.663   1.384  0.0017 -0.5996 -0.4349
 8213SOL    HW136272   0.426   2.624   1.396 -0.7700 -2.2836 -0.4211
 8213SOL    HW236273   0.286   2.593   1.421  0.2435  0.5662  2.1121
 8214SOL     OW36274   1.604   3.535  16.625 -0.1931 -0.3692 -0.2032
 8214SOL    HW136275   1.549   3.459  16.606 -0.1978  0.5054 -3.5825
 8214SOL    HW236276   1.676   3.522  16.563 -0.2533  0.2988 -0.4142
 8215SOL     OW36277   0.852   0.756   3.485 -1.0283 -0.1478  0.3365
 8215SOL    HW136278   0.903   0.806   3.548 -0.9881  1.5753 -1.0554
 8215SOL    HW236279   0.807   0.701   3.549  1.6219 -1.3727  1.1204
 8216SOL     OW36280   4.321   4.500   5.129 -0.3325  0.2795 -0.0059
 8216SOL    HW136281   4.234   4.461   5.136 -0.7760  0.9127 -1.9659
 8216SOL    HW236282   4.348   4.508   5.221 -0.9205  1.1878  0.0835
 8217SOL     OW36283   0.381   1.948   8.062 -0.5872 -0.2891  0.1052
 8217SOL    HW136284   0.286   1.960   8.064 -0.6906 -1.1483  0.3847
 8217SOL    HW236285   0.401   1.925   8.152 -1.7938 -0.6439  0.2814
 8218SOL     OW36286   2.358   0.255   4.273  0.1909  0.1115  0.0066
 8218SOL    HW136287   2.411   0.231   4.349  1.1416 -0.2148 -0.7665
 8218SOL    HW236288   2.277   0.210   4.300  0.6399 -0.1946  0.8639
 8219SOL     OW36289   1.452   3.433   6.131  0.3751 -0.0708 -0.2171
 8219SOL    HW136290   1.373   3.406   6.178  0.6038  0.9721  0.7648
 8219SOL    HW236291   1.519   3.418   6.197 -0.1449  3.1160  1.0406
 8220SOL     OW36292   1.384   3.015   7.877  0.0702 -0.2976 -0.5200
 8220SOL    HW136293   1.366   2.970   7.795  2.9554  0.2276 -1.4226
 8220SOL    HW236294   1.355   2.940   7.930  0.4092  0.4704  0.7400
 8221SOL     OW36295   2.530   2.475  11.327  0.4468  0.2163 -0.5717
 8221SOL    HW136296   2.590   2.409  11.362  0.1786  0.2230 -0.0969
 8221SOL    HW236297   2.522   2.439  11.239  0.4141  3.3835 -1.8822
 8222SOL     OW36298   3.412   1.907   2.658 -0.2771 -0.4036 -0.7020
 8222SOL    HW136299   3.504   1.913   2.680 -0.6894  1.6226  0.3814
 8222SOL    HW236300   3.374   1.990   2.687  0.3041 -0.9007  1.4258
 8223SOL     OW36301   2.842   4.454   2.972  0.1441 -0.1046 -0.6322
 8223SOL    HW136302   2.757   4.459   2.928  0.8906  1.6837 -1.8865
 8223SOL    HW236303   2.813   4.477   3.060 -0.7708 -1.8149 -0.4919
 8224SOL     OW36304   2.459   0.234   8.586  0.1672 -0.2195  0.0653
 8224SOL    HW136305   2.448   0.143   8.561 -1.8301 -0.2984  1.2182
 8224SOL    HW236306   2.504   0.225   8.670 -1.2651 -0.9347  0.7700
 8225SOL     OW36307   3.381   0.926  10.089  0.4604  0.3499 -0.1591
 8225SOL    HW136308   3.467   0.958  10.115  1.2264  0.3540 -2.6371
 8225SOL    HW236309   3.416   0.845  10.051 -0.5754 -0.3397  0.3726
 8226SOL     OW36310   1.973   3.264   0.262  0.0011  0.8595  0.1892
 8226SOL    HW136311   1.885   3.298   0.279 -0.5484 -1.8945  2.9017
 8226SOL    HW236312   1.951   3.177   0.229  0.1215  1.1090 -0.5466
 8227SOL     OW36313   4.266   2.539   2.504 -0.1695  0.1096  0.0184
 8227SOL    HW136314   4.202   2.503   2.565  2.4009 -3.1829  0.7688
 8227SOL    HW236315   4.254   2.490   2.423  1.2000 -0.1792 -0.0011
 8228SOL     OW36316   0.151   3.118  12.828 -0.1962 -0.6649 -0.1743
 8228SOL    HW136317   0.124   3.108  12.737 -0.6706 -0.1924 -0.0887
 8228SOL    HW236318   0.205   3.197  12.825 -2.4245  0.9995  2.5811
 8229SOL     OW36319   1.406   2.622   0.730  0.0450  0.0885 -1.0066
 8229SOL    HW136320   1.353   2.650   0.805  0.8714  0.1357 -0.4470
 8229SOL    HW236321   1.419   2.528   0.739  2.9230  0.6739  0.7908
 8230SOL     OW36322   4.581   0.358   5.429  0.3066 -0.1098 -0.0681
 8230SOL    HW136323   4.587   0.268   5.397 -0.3023  0.3102 -1.3340
 8230SOL    HW236324   4.658   0.400   5.391 -0.2171  0.7136 -0.2072
 8231SOL     OW36325   2.438   3.573   6.681  0.5423 -0.0156  0.0425
 8231SOL    HW136326   2.514   3.515   6.688  0.6953  0.2812  0.9286
 8231SOL    HW236327   2.470   3.631   6.613 -1.9419  1.6326  0.2739
 8232SOL     OW36328   4.239   2.710  15.743 -0.1521  0.3427  0.4245
 8232SOL    HW136329   4.158   2.742  15.704 -0.0474  0.8335  0.6091
 8232SOL    HW236330   4.286   2.788  15.771  0.2920  0.4795 -0.7347
 8233SOL     OW36331   0.236   2.978   8.391 -0.1591 -0.2526 -0.7713
 8233SOL    HW136332   0.152   2.932   8.389  0.0934 -0.8097  1.5830
 8233SOL    HW236333   0.252   3.034   8.315 -0.6559  1.9450  0.7575
 8234SOL     OW36334   4.431   4.337   3.347  0.1255 -0.4490  0.8088
 8234SOL    HW136335   4.376   4.411   3.374  2.2728  1.3355  0.3329
 8234SOL    HW236336   4.521   4.367   3.357  0.6657 -2.2030  1.1011
 8235SOL     OW36337   1.381   3.345   0.530  0.6291  0.1534  0.1119
 8235SOL    HW136338   1.393   3.266   0.582  3.3116 -0.4862 -1.4149
 8235SOL    HW236339   1.460   3.400   0.539  1.3215 -0.8780  0.3394
 8236SOL     OW36340   3.058   1.057   8.789  0.0322  0.0645  0.7903
 8236SOL    HW136341   3.112   1.103   8.853  1.4323 -1.0927  0.4475
 8236SOL    HW236342   3.123   1.007   8.740 -0.1038  0.1835  0.4839
 8237SOL     OW36343   4.637   2.540   8.696 -0.1166  0.3365  0.0904
 8237SOL    HW136344   4.678   2.602   8.635 -0.3118  1.0489  0.6894
 8237SOL    HW236345   4.661   2.451   8.669 -0.1959 -0.0883  1.4155
 8238SOL     OW36346   2.485   3.961  17.277 -0.2470  0.0827  0.8625
 8238SOL    HW136347   2.421   3.965  17.205  0.9822  0.1605 -0.2237
 8238SOL    HW236348   2.466   4.035  17.335 -0.3794 -0.7860  1.9164
 8239SOL     OW36349   1.493   4.194   7.636 -0.2164  0.0230  0.5263
 8239SOL    HW136350   1.546   4.247   7.695  1.6543  2.2642 -3.1394
 8239SOL    HW236351   1.559   4.152   7.582 -1.6312 -0.3080 -0.9589
 8240SOL     OW36352   1.662   3.295   3.183  0.7667 -0.3475 -0.2214
 8240SOL    HW136353   1.600   3.366   3.164 -0.2026 -1.3900 -0.9663
 8240SOL    HW236354   1.731   3.301   3.118  0.1906 -0.8006 -0.8780
 8241SOL     OW36355   3.384   0.040   3.230  0.1193  0.5131 -0.3597
 8241SOL    HW136356   3.473   0.021   3.200 -1.1530 -1.7448 -2.6559
 8241SOL    HW236357   3.393   0.032   3.325  0.4681 -0.2876 -0.4588
 8242SOL     OW36358   0.592   1.648   1.772 -0.1685  0.0226 -0.3634
 8242SOL    HW136359   0.539   1.591   1.827 -2.7720  2.5192 -0.3172
 8242SOL    HW236360   0.633   1.599   1.701 -1.0369 -0.3143 -0.6313
 8243SOL     OW36361   2.847   1.815   5.885  0.2322 -0.4900 -0.1224
 8243SOL    HW136362   2.874   1.726   5.905 -1.2541 -0.6820  1.0174
 8243SOL    HW236363   2.769   1.798   5.833  0.2199 -1.6880  0.3038
 8244SOL     OW36364   4.579   1.165   3.704 -0.5530 -0.0754 -0.2522
 8244SOL    HW136365   4.535   1.084   3.680 -0.3262 -0.3526  0.2571
 8244SOL    HW236366   4.653   1.158   3.645 -0.1363 -3.3669  0.6647
 8245SOL     OW36367   4.164   3.941   7.004 -0.9798  0.4229 -0.5589
 8245SOL    HW136368   4.185   4.033   6.985 -1.1712  0.4391 -0.6869
 8245SOL    HW236369   4.128   3.926   6.917  0.6021 -2.0615 -0.7770
 8246SOL     OW36370   4.318   3.629   3.895 -0.1765  0.0454 -0.0590
 8246SOL    HW136371   4.253   3.659   3.831  0.5633  1.6135 -0.0666
 8246SOL    HW236372   4.348   3.712   3.933 -3.2322  0.7203  0.9435
 8247SOL     OW36373   1.532   1.320   4.333 -0.2303 -0.2295  0.1116
 8247SOL    HW136374   1.548   1.236   4.290  0.6398  0.6620 -1.3081
 8247SOL    HW236375   1.441   1.339   4.308  0.5695 -2.4399 -4.5102
 8248SOL     OW36376   4.697   1.529   1.051  0.0106  0.0496 -0.4501
 8248SOL    HW136377   4.726   1.523   0.960  0.5313  0.0168 -0.2863
 8248SOL    HW236378   4.685   1.623   1.059 -0.4520  0.0137 -0.7272
 8249SOL     OW36379   3.945   0.519  11.123 -0.0938  0.2936  0.1079
 8249SOL    HW136380   4.033   0.544  11.094 -0.9199 -0.1306 -2.7238
 8249SOL    HW236381   3.941   0.429  11.091  0.6796  0.7742 -1.3336
 8250SOL     OW36382   2.296   2.109   7.921  1.0793  0.2875 -0.1905
 8250SOL    HW136383   2.316   2.199   7.897  2.0668  0.0189 -0.4150
 8250SOL    HW236384   2.269   2.120   8.012 -1.8050  1.3366 -1.1743
 8251SOL     OW36385   3.887   3.829  13.250  0.0348 -0.3617 -0.0844
 8251SOL    HW136386   3.829   3.876  13.310  0.2184 -1.3096  0.8407
 8251SOL    HW236387   3.868   3.737  13.271 -0.6849 -0.4697 -1.1987
 8252SOL     OW36388   3.124   1.195   0.955  0.4162  0.0323 -0.1239
 8252SOL    HW136389   3.111   1.111   0.999  3.2840  0.0926  0.8198
 8252SOL    HW236390   3.091   1.256   1.021  1.5329  0.5827 -0.0751
 8253SOL     OW36391   2.089   3.519   6.998  0.1061 -0.1844  0.1120
 8253SOL    HW136392   2.056   3.444   7.048 -0.7040 -1.1651 -1.8729
 8253SOL    HW236393   2.111   3.471   6.918  1.5360  2.4027 -1.0561
 8254SOL     OW36394   3.380   3.061   7.721  0.0168 -0.2064 -0.1405
 8254SOL    HW136395   3.326   2.999   7.672 -0.5451 -0.1673  0.4262
 8254SOL    HW236396   3.381   3.144   7.673 -0.8218  0.0941  0.3470
 8255SOL     OW36397   1.369   3.505   2.275 -0.1475  0.4149 -0.1526
 8255SOL    HW136398   1.318   3.574   2.232 -0.9443  1.0790  1.8405
 8255SOL    HW236399   1.419   3.468   2.202  2.1381 -0.2286  1.7092
 8256SOL     OW36400   2.980   0.550   8.461  0.4621  0.1102  0.3119
 8256SOL    HW136401   3.005   0.480   8.400  1.0817  1.2603 -0.7536
 8256SOL    HW236402   3.040   0.524   8.532 -1.4121 -0.0734  1.8186
 8257SOL     OW36403   0.715   4.187   8.236  0.5813 -0.1314 -0.1147
 8257SOL    HW136404   0.808   4.169   8.221  0.0807 -1.4898 -1.5476
 8257SOL    HW236405   0.686   4.108   8.281 -0.8876  1.2550  1.3542
 8258SOL     OW36406   2.368   0.886  11.914 -0.5273 -0.0319 -0.1165
 8258SOL    HW136407   2.321   0.958  11.871 -1.0951  0.0248  0.6107
 8258SOL    HW236408   2.297   0.834  11.951 -1.0669  1.3689  0.8213
 8259SOL     OW36409   1.982   0.244  15.673 -0.6176  0.3709  0.4825
 8259SOL    HW136410   2.020   0.250  15.585  0.1211 -1.0085  0.7167
 8259SOL    HW236411   1.891   0.269  15.655 -0.4151 -1.0229 -2.6192
 8260SOL     OW36412   1.807   0.019  14.987 -0.3678 -0.5382  0.3370
 8260SOL    HW136413   1.768   4.666  14.971 -0.6979 -0.4737  0.8007
 8260SOL    HW236414   1.753   0.033  15.064  2.3366  1.5300  1.8321
 8261SOL     OW36415   3.462   3.627   7.023  0.1175 -0.6133 -0.4260
 8261SOL    HW136416   3.526   3.685   6.981  1.7898 -0.2899  2.5623
 8261SOL    HW236417   3.496   3.628   7.113 -0.3151 -0.6669 -0.2629
 8262SOL     OW36418   3.586   4.426   2.248  0.2655 -0.0817 -0.0958
 8262SOL    HW136419   3.639   4.414   2.170  0.6108  1.8104 -0.1590
 8262SOL    HW236420   3.503   4.456   2.213  1.2683  2.2859 -0.4583
 8263SOL     OW36421   1.388   0.573   6.455 -0.1440  0.3283  0.4628
 8263SOL    HW136422   1.441   0.497   6.477 -0.1168  0.4650  0.8639
 8263SOL    HW236423   1.301   0.538   6.470  1.5495 -3.2327  1.9119
 8264SOL     OW36424   2.805   4.519   3.723  0.0819  0.3063  0.0735
 8264SOL    HW136425   2.752   4.499   3.800  0.3248 -3.1053 -0.6161
 8264SOL    HW236426   2.774   4.606   3.700 -1.7828  0.2677  2.5021
 8265SOL     OW36427   3.460   4.158   2.623 -0.3908  0.2420 -0.0803
 8265SOL    HW136428   3.454   4.180   2.530 -1.6832 -0.2427 -0.1099
 8265SOL    HW236429   3.372   4.175   2.656  0.6632 -0.4184  3.0621
 8266SOL     OW36430   0.609   1.192   6.634  0.3550 -0.4142  1.1033
 8266SOL    HW136431   0.635   1.244   6.557  1.3216  0.2927  1.9083
 8266SOL    HW236432   0.563   1.118   6.595 -1.7442  1.1790  0.5680
 8267SOL     OW36433   0.842   0.179  16.701  0.1905 -0.4035  0.5632
 8267SOL    HW136434   0.754   0.166  16.666  0.2962 -0.9022  0.4866
 8267SOL    HW236435   0.846   0.268  16.735  2.0773 -0.0393 -0.6373
 8268SOL     OW36436   3.086   2.293   5.219  0.7166 -0.0706 -0.0055
 8268SOL    HW136437   3.069   2.383   5.248 -0.7198  0.3315 -2.0978
 8268SOL    HW236438   3.021   2.286   5.149  0.5594 -0.3567  0.1677
 8269SOL     OW36439   3.928   2.725   2.145  0.4005  0.2397  0.8204
 8269SOL    HW136440   3.889   2.783   2.211 -0.8139 -0.3913  0.6529
 8269SOL    HW236441   3.952   2.792   2.081  1.6854 -0.1816  0.8757
 8270SOL     OW36442   2.677   1.798  14.985 -0.0971 -0.0729  0.5100
 8270SOL    HW136443   2.611   1.730  14.997  0.4924 -0.0094  4.1588
 8270SOL    HW236444   2.632   1.881  15.002 -0.2644 -0.4156  1.7278
 8271SOL     OW36445   0.839   0.510   3.998  0.3689  0.3233  0.5534
 8271SOL    HW136446   0.754   0.555   4.002  0.8542  1.3361 -0.6527
 8271SOL    HW236447   0.828   0.423   4.037 -0.4255  1.3772  2.6801
 8272SOL     OW36448   1.728   3.203   6.823 -0.0758  0.2576 -0.0299
 8272SOL    HW136449   1.690   3.187   6.910 -1.6393  1.5968 -0.4663
 8272SOL    HW236450   1.719   3.298   6.833  0.6394  0.2136  1.0305
 8273SOL     OW36451   0.767   2.765   5.829 -0.7006 -0.2259  0.2677
 8273SOL    HW136452   0.748   2.777   5.922  0.1866  0.8260  0.3143
 8273SOL    HW236453   0.862   2.771   5.834 -0.5130 -2.5206 -0.5151
 8274SOL     OW36454   3.607   1.648   7.297  0.3007 -0.0021  0.3792
 8274SOL    HW136455   3.512   1.652   7.285  0.1934 -0.3944  1.1417
 8274SOL    HW236456   3.606   1.658   7.392 -2.5442 -3.3348  0.6781
 8275SOL     OW36457   0.295   0.642   7.958  0.6274 -0.2038  0.2206
 8275SOL    HW136458   0.258   0.729   7.949 -0.4398 -0.7693 -0.7931
 8275SOL    HW236459   0.226   0.601   8.011  0.0192 -1.2516 -1.3945
 8276SOL     OW36460   3.204   0.295   6.411 -0.4164  0.4716 -0.0430
 8276SOL    HW136461   3.157   0.374   6.386  0.8406  0.8197 -1.3716
 8276SOL    HW236462   3.231   0.320   6.500  0.0530 -2.0353  0.5272
 8277SOL     OW36463   4.647   4.236   2.904 -0.5721  0.0464 -0.4372
 8277SOL    HW136464   4.606   4.168   2.957 -0.5319 -0.2313 -0.7651
 8277SOL    HW236465   4.640   4.205   2.814 -0.8974 -0.5460 -0.2132
 8278SOL     OW36466   0.856   1.335   7.196 -0.2910 -0.6797  0.1549
 8278SOL    HW136467   0.875   1.424   7.167 -0.6936 -0.1946  1.4017
 8278SOL    HW236468   0.924   1.286   7.150  0.3863  0.4724 -0.0665
 8279SOL     OW36469   2.889   3.832  16.005  0.1157 -0.4034  0.1611
 8279SOL    HW136470   2.887   3.928  16.007 -1.2891 -0.4084 -1.2380
 8279SOL    HW236471   2.838   3.810  15.927  0.6855  0.7266 -0.5299
 8280SOL     OW36472   2.591   3.090   8.593  0.0031  0.3316 -0.3705
 8280SOL    HW136473   2.510   3.062   8.636  0.9229  1.1762  1.9043
 8280SOL    HW236474   2.572   3.064   8.503  1.2544 -2.7062  0.2587
 8281SOL     OW36475   1.366   2.371  14.379 -0.6238  0.2161 -0.3311
 8281SOL    HW136476   1.397   2.429  14.310  0.7316  0.6778  0.6809
 8281SOL    HW236477   1.271   2.387  14.376 -0.3877  1.9231  1.1532
 8282SOL     OW36478   4.492   0.747  17.027  0.3444 -0.1916  0.1639
 8282SOL    HW136479   4.478   0.689  16.952  1.3653 -1.3810  0.8982
 8282SOL    HW236480   4.453   0.700  17.100 -0.6601  2.2399  1.1845
 8283SOL     OW36481   3.250   0.472   3.925 -0.2697  0.1484  0.2206
 8283SOL    HW136482   3.278   0.380   3.930 -0.9888 -0.1408 -1.0318
 8283SOL    HW236483   3.244   0.496   4.017 -0.7457  0.4006  0.1200
 8284SOL     OW36484   1.438   1.380   5.544  0.0649  1.0908 -0.4089
 8284SOL    HW136485   1.361   1.363   5.597 -0.1510 -2.6114 -1.9318
 8284SOL    HW236486   1.454   1.293   5.508 -1.4661  0.8536 -0.4821
 8285SOL     OW36487   4.113   2.899   9.572 -0.1021 -0.4735  0.1487
 8285SOL    HW136488   4.184   2.859   9.522 -0.3746 -1.0331  0.2018
 8285SOL    HW236489   4.034   2.867   9.529 -1.1490  0.4661  1.3828
 8286SOL     OW36490   2.384   4.245  15.339  0.3776 -0.4715 -0.2268
 8286SOL    HW136491   2.379   4.340  15.352  1.8205 -0.3727 -0.3933
 8286SOL    HW236492   2.322   4.214  15.405 -0.0409  3.6289  1.3179
 8287SOL     OW36493   2.884   3.178  11.575 -0.1524  0.4532  0.0592
 8287SOL    HW136494   2.789   3.190  11.573 -0.2598 -0.5637 -0.5869
 8287SOL    HW236495   2.889   3.114  11.504  0.8828 -1.1072  1.5571
 8288SOL     OW36496   4.439   0.819   9.348  0.2876 -0.2680 -0.1206
 8288SOL    HW136497   4.479   0.732   9.355 -2.3568 -1.4635 -0.0092
 8288SOL    HW236498   4.508   0.865   9.396  0.4243 -0.4351 -0.1550
 8289SOL     OW36499   3.905   1.600  13.725 -0.5770 -0.4206  0.1915
 8289SOL    HW136500   3.868   1.622  13.811 -0.4991  0.8028 -0.0814
 8289SOL    HW236501   3.965   1.674  13.718  0.9179 -1.5799  1.0044
 8290SOL     OW36502   3.536   2.213  17.652 -0.4537 -0.2243  0.0785
 8290SOL    HW136503   3.525   2.230  17.559  0.5745 -0.1857 -0.0345
 8290SOL    HW236504   3.619   2.253  17.678 -1.3293  0.5850  1.6362
 8291SOL     OW36505   2.957   2.290   1.617 -0.0794 -0.7794 -0.3885
 8291SOL    HW136506   2.995   2.319   1.534  0.7691  0.6857  0.5088
 8291SOL    HW236507   2.886   2.352   1.634  1.2980  0.3451  1.2583
 8292SOL     OW36508   3.477   1.353   3.253 -0.4338  0.4443 -0.3229
 8292SOL    HW136509   3.431   1.342   3.336  2.0369  1.6845  1.2060
 8292SOL    HW236510   3.421   1.409   3.199 -0.2461  1.4923  0.5731
 8293SOL     OW36511   3.978   1.784   2.899 -0.1196  0.7149  0.1261
 8293SOL    HW136512   3.890   1.759   2.926 -0.5834 -1.5608 -3.5675
 8293SOL    HW236513   4.014   1.700   2.931 -1.4187  0.0903 -0.0676
 8294SOL     OW36514   4.466   0.611   1.250 -0.3626 -0.2959  0.0552
 8294SOL    HW136515   4.376   0.622   1.220 -0.2105 -0.8842 -0.6213
 8294SOL    HW236516   4.518   0.648   1.179 -1.6293 -2.7228 -2.1653
 8295SOL     OW36517   2.691   4.069   0.846  0.9065 -0.0758  0.1986
 8295SOL    HW136518   2.782   4.099   0.839  0.3650  1.4787 -0.1930
 8295SOL    HW236519   2.664   4.071   0.754 -2.4243 -1.6026  1.1500
 8296SOL     OW36520   3.912   4.042   2.799 -0.2166  0.0539  0.0850
 8296SOL    HW136521   3.844   4.014   2.738 -0.3911 -1.4254  0.9773
 8296SOL    HW236522   3.913   3.961   2.849 -0.2852 -1.1597 -1.8570
 8297SOL     OW36523   2.862   2.206  14.458 -0.3043 -0.1913  0.1192
 8297SOL    HW136524   2.937   2.228  14.512 -1.0617 -1.2670  1.5992
 8297SOL    HW236525   2.813   2.163  14.529 -0.3539 -1.7575 -0.8448
 8298SOL     OW36526   3.058   1.557   8.703 -0.0794  0.5685 -0.4477
 8298SOL    HW136527   3.043   1.585   8.793  1.1888  1.1959 -0.4281
 8298SOL    HW236528   2.971   1.546   8.666 -1.1404 -1.0949  2.4951
 8299SOL     OW36529   0.148   4.200   2.003  0.4820 -0.2737 -0.8292
 8299SOL    HW136530   0.176   4.283   2.041 -0.8194 -0.5507  0.7125
 8299SOL    HW236531   0.054   4.201   2.021  0.5132  0.3923 -0.6923
 8300SOL     OW36532   3.351   4.086  11.133  0.7822  0.3081 -0.0152
 8300SOL    HW136533   3.292   4.152  11.097  0.2790  0.2425  0.6926
 8300SOL    HW236534   3.416   4.101  11.065  1.7922  1.4665  1.2163
 8301SOL     OW36535   1.893   1.125   8.376 -0.1311  0.0456 -1.0589
 8301SOL    HW136536   1.964   1.070   8.409  1.1707  1.9542 -0.7134
 8301SOL    HW236537   1.938   1.195   8.329 -0.8737  0.5826 -0.9774
 8302SOL     OW36538   3.917   3.775   4.579 -0.2485 -0.2327  0.0812
 8302SOL    HW136539   3.924   3.739   4.668 -1.0247  0.5630  0.4635
 8302SOL    HW236540   3.959   3.861   4.585 -2.4984  0.8634  0.3026
 8303SOL     OW36541   4.075   4.541   3.718  0.0625  0.2857  0.9618
 8303SOL    HW136542   4.167   4.515   3.712  0.1682  1.3201 -1.6336
 8303SOL    HW236543   4.045   4.537   3.627  1.1523  2.4217  0.5001
 8304SOL     OW36544   0.243   2.732   4.768 -0.3847 -0.0445 -0.3140
 8304SOL    HW136545   0.227   2.639   4.751  0.5913  0.1445 -2.2834
 8304SOL    HW236546   0.263   2.751   4.676  1.9108 -1.6706 -0.1740
 8305SOL     OW36547   4.494   2.159   9.365  0.1864  0.5630 -0.0108
 8305SOL    HW136548   4.400   2.145   9.376  0.3791 -0.2674  0.6189
 8305SOL    HW236549   4.523   2.074   9.331  1.1456  0.4203  1.1556
 8306SOL     OW36550   1.083   3.135   9.568 -0.2629  0.9152  0.1933
 8306SOL    HW136551   1.130   3.202   9.518 -0.9050  1.2914  0.1026
 8306SOL    HW236552   1.010   3.186   9.602  0.1679 -0.0919  2.6360
 8307SOL     OW36553   2.288   1.506   4.122 -0.0231  0.7058 -0.4198
 8307SOL    HW136554   2.362   1.562   4.143 -0.2781  0.0519  2.1465
 8307SOL    HW236555   2.226   1.502   4.194 -3.0178 -1.2141 -3.0757
 8308SOL     OW36556   1.893   0.247   3.890  0.1275 -0.4583 -0.2262
 8308SOL    HW136557   1.876   0.280   3.802  1.1923 -0.7982 -0.5550
 8308SOL    HW236558   1.988   0.251   3.889  0.1014  0.7944  2.3052
 8309SOL     OW36559   2.909   3.143   9.434 -0.2613 -0.6070  0.0270
 8309SOL    HW136560   2.906   3.167   9.527 -2.4924  2.3337 -0.8143
 8309SOL    HW236561   2.950   3.226   9.410 -0.8839  0.5352  2.9413
 8310SOL     OW36562   4.003   1.352   0.889 -0.0804 -0.2633  0.0693
 8310SOL    HW136563   3.922   1.401   0.907  1.1684  1.7522  0.1862
 8310SOL    HW236564   4.051   1.355   0.972  1.5323 -0.7516 -0.8485
 8311SOL     OW36565   3.035   1.904   2.801  0.1667  0.6425  0.0315
 8311SOL    HW136566   3.041   1.818   2.759  3.0133  1.7380 -1.8282
 8311SOL    HW236567   3.128   1.911   2.825  1.0864 -0.8606 -3.2032
 8312SOL     OW36568   0.841   2.247  17.725 -0.3824 -0.4562  0.0434
 8312SOL    HW136569   0.780   2.234  17.653 -2.6168  0.4336  1.7935
 8312SOL    HW236570   0.784   2.202   0.055  0.6242  0.7245  1.8215
 8313SOL     OW36571   2.597   3.544  11.945 -0.5176  0.1088 -0.2191
 8313SOL    HW136572   2.685   3.531  11.980 -1.1552  0.6772  1.6096
 8313SOL    HW236573   2.563   3.600  12.015  4.6270  2.4524  0.4270
 8314SOL     OW36574   2.690   1.547   3.857  0.5680 -0.5774  0.0143
 8314SOL    HW136575   2.622   1.614   3.861  2.1137  1.1360 -2.5798
 8314SOL    HW236576   2.743   1.576   3.782 -1.1119  0.2319 -0.8618
 8315SOL     OW36577   4.453   4.052   3.364 -0.6148  0.4411  0.1989
 8315SOL    HW136578   4.466   4.140   3.399  0.5529  0.8205 -1.1880
 8315SOL    HW236579   4.529   4.009   3.405 -0.8741 -0.7317 -0.5591
 8316SOL     OW36580   3.427   3.912   1.643  0.3018  1.0081 -0.5982
 8316SOL    HW136581   3.386   3.843   1.590  0.8397  1.8860 -2.1266
 8316SOL    HW236582   3.413   3.861   1.724  0.7858 -1.5510 -2.1372
 8317SOL     OW36583   1.840   3.771  17.622  0.3313  0.6016 -0.6286
 8317SOL    HW136584   1.808   3.703  17.562  0.4441 -1.5123  1.6737
 8317SOL    HW236585   1.929   3.738  17.637 -0.6433 -1.0905  1.4249
 8318SOL     OW36586   1.274   4.261  10.547 -0.3722 -0.2509  0.4893
 8318SOL    HW136587   1.320   4.237  10.628  2.1584 -1.6022 -1.3718
 8318SOL    HW236588   1.322   4.330  10.502  2.9839 -1.5459  2.0664
 8319SOL     OW36589   3.967   1.126   2.899 -0.5552  0.1844 -0.2048
 8319SOL    HW136590   4.029   1.179   2.949 -0.6273  2.1616 -2.1946
 8319SOL    HW236591   3.987   1.042   2.941 -0.5657 -1.1431 -2.8688
 8320SOL     OW36592   0.869   3.771   5.810 -0.1663  0.0885 -0.2204
 8320SOL    HW136593   0.815   3.849   5.822 -3.1306 -1.9639 -0.3851
 8320SOL    HW236594   0.912   3.775   5.896  1.1611  0.2332 -0.8805
 8321SOL     OW36595   2.886   4.540   7.684 -0.6521  0.0137  0.0185
 8321SOL    HW136596   2.875   4.597   7.608 -0.9275  0.1234  0.1421
 8321SOL    HW236597   2.828   4.469   7.654 -0.2613 -0.2445 -0.1264
 8322SOL     OW36598   2.674   0.798   6.357 -0.3302  0.8569 -0.1358
 8322SOL    HW136599   2.697   0.886   6.385  0.5021  0.4831  0.3396
 8322SOL    HW236600   2.598   0.785   6.414 -0.9475  0.2889 -1.0877
 8323SOL     OW36601   2.437   3.170   2.933 -0.1355 -0.4607 -0.1020
 8323SOL    HW136602   2.531   3.182   2.914 -0.1108  1.6003  1.3768
 8323SOL    HW236603   2.432   3.216   3.016 -1.1584  1.1823 -1.0754
 8324SOL     OW36604   2.840   2.121   8.777  0.3618  0.3030  0.1007
 8324SOL    HW136605   2.880   2.204   8.803  0.2576  0.0257  1.1659
 8324SOL    HW236606   2.756   2.137   8.820 -0.1281 -1.3755 -0.2157
 8325SOL     OW36607   2.001   0.740  11.190  0.3209  0.8086  0.0045
 8325SOL    HW136608   1.999   0.782  11.276  1.1804 -1.3422  1.0947
 8325SOL    HW236609   2.012   0.650  11.221 -1.3619 -0.0910 -2.0203
 8326SOL     OW36610   2.470   2.632   8.387  0.5127  0.7596 -0.0669
 8326SOL    HW136611   2.447   2.541   8.406 -0.1916  0.7836 -0.7856
 8326SOL    HW236612   2.544   2.646   8.446 -0.1580 -3.2101  1.7151
 8327SOL     OW36613   0.455   2.051   0.788  0.1466 -0.4126 -0.2689
 8327SOL    HW136614   0.495   2.063   0.702  1.0776 -0.5452  0.1431
 8327SOL    HW236615   0.385   1.990   0.763 -2.5391  3.7536 -2.9472
 8328SOL     OW36616   3.169   4.324   7.907 -0.5208 -0.0444  0.0987
 8328SOL    HW136617   3.136   4.412   7.922  0.5173  0.3305  0.2355
 8328SOL    HW236618   3.187   4.304   7.999  0.5071 -0.2388 -0.1400
 8329SOL     OW36619   4.324   3.237  10.517  0.3993  1.0299  0.2299
 8329SOL    HW136620   4.275   3.253  10.436  0.3538 -0.2980 -0.0090
 8329SOL    HW236621   4.382   3.313  10.515  0.5281  0.9192 -0.1646
 8330SOL     OW36622   3.739   0.524   7.673 -0.0601 -0.7639 -0.8596
 8330SOL    HW136623   3.725   0.503   7.581  0.0755  1.8009 -1.4837
 8330SOL    HW236624   3.651   0.530   7.709  1.8786 -0.7219  3.9755
 8331SOL     OW36625   2.309   1.099   7.914  0.3502  0.0000  0.0918
 8331SOL    HW136626   2.287   1.024   7.969 -1.8176  1.4449  1.1793
 8331SOL    HW236627   2.267   1.078   7.831  2.0972  1.1139 -1.0583
 8332SOL     OW36628   0.145   2.491   4.677  0.0937  0.4412 -0.3716
 8332SOL    HW136629   0.143   2.471   4.583  2.8366 -1.0726 -0.1056
 8332SOL    HW236630   0.097   2.423   4.723 -3.8064  2.2844 -1.6520
 8333SOL     OW36631   1.030   4.703   8.137  0.2599  0.3153 -0.3805
 8333SOL    HW136632   1.021   4.610   8.116  1.6706 -0.1385  0.9897
 8333SOL    HW236633   0.940   0.000   8.143 -0.6845 -2.4758 -0.4711
 8334SOL     OW36634   3.461   2.992   3.587 -0.4464 -0.4964  0.1020
 8334SOL    HW136635   3.446   2.928   3.657 -0.1619  0.1587  0.7669
 8334SOL    HW236636   3.374   2.999   3.547 -0.1352  1.0530 -0.3005
 8335SOL     OW36637   1.804   1.234  12.182 -0.4712 -0.0942 -1.0381
 8335SOL    HW136638   1.799   1.327  12.159  1.4300  0.6101  1.3423
 8335SOL    HW236639   1.881   1.202  12.135  1.4308  0.0690  1.9662
 8336SOL     OW36640   0.373   4.396   5.050 -0.2668  0.0469  0.2103
 8336SOL    HW136641   0.453   4.391   5.102 -0.8167  0.5195  1.0982
 8336SOL    HW236642   0.378   4.488   5.024  1.2834  0.0825  0.6548
 8337SOL     OW36643   2.695   1.591   2.469 -0.0306 -0.0890 -0.4515
 8337SOL    HW136644   2.647   1.516   2.434 -3.7208  2.7069 -1.2561
 8337SOL    HW236645   2.784   1.564   2.444 -0.4967 -0.7059 -1.4601
 8338SOL     OW36646   0.987   0.774   9.679  0.4415  1.0337 -0.1915
 8338SOL    HW136647   0.972   0.783   9.585 -0.6989  1.1351  0.0086
 8338SOL    HW236648   1.082   0.763   9.681  0.4072  0.7723 -0.0049
 8339SOL     OW36649   0.555   0.288   4.860  0.5775  0.1110 -0.1370
 8339SOL    HW136650   0.502   0.360   4.892 -0.6684 -0.4177 -1.0182
 8339SOL    HW236651   0.574   0.241   4.942 -0.3619 -0.9861 -0.5401
 8340SOL     OW36652   1.034   2.457   4.686 -0.3192  0.2588  0.0449
 8340SOL    HW136653   1.109   2.450   4.628 -0.5917  1.9276 -0.5060
 8340SOL    HW236654   1.027   2.368   4.719  3.1464 -0.2803 -0.6965
 8341SOL     OW36655   4.430   1.329   1.367 -0.4581 -0.2696 -0.3689
 8341SOL    HW136656   4.481   1.399   1.326  1.0427 -1.6589 -0.8474
 8341SOL    HW236657   4.496   1.289   1.423  0.3575  1.6292  0.0114
 8342SOL     OW36658   0.903   1.563   9.958 -0.0642 -0.4134 -0.3026
 8342SOL    HW136659   0.971   1.589  10.020  0.0929 -1.0180 -0.2203
 8342SOL    HW236660   0.831   1.581  10.018  1.5676  2.1376  0.8783
 8343SOL     OW36661   1.290   3.547  17.669 -0.1675  0.2684 -0.5733
 8343SOL    HW136662   1.345   3.576  17.596  0.0711  2.7272  0.5505
 8343SOL    HW236663   1.321   3.611   0.002  4.1932 -1.2367 -1.1796
 8344SOL     OW36664   3.791   4.668   0.576 -0.2562 -0.0539 -0.2976
 8344SOL    HW136665   3.841   4.731   0.524 -0.8013  0.9077  0.3444
 8344SOL    HW236666   3.754   4.609   0.510  1.3772  0.4021 -1.6333
 8345SOL     OW36667   0.214   4.282  15.692 -0.4416 -0.4310  0.0554
 8345SOL    HW136668   0.287   4.256  15.749 -0.4561 -0.9250 -0.1543
 8345SOL    HW236669   0.216   4.377  15.686 -1.6297 -0.5450 -1.8519
 8346SOL     OW36670   0.564   3.580   3.534 -1.1471  0.2826 -0.2634
 8346SOL    HW136671   0.550   3.660   3.584 -2.1181 -0.8478  1.2695
 8346SOL    HW236672   0.560   3.516   3.605 -1.0989  0.9501  0.3403
 8347SOL     OW36673   1.655   3.141   8.462  0.7868  0.0876 -0.6407
 8347SOL    HW136674   1.588   3.201   8.497 -0.2475 -1.9669  0.9233
 8347SOL    HW236675   1.619   3.067   8.511 -2.7684  1.7956 -0.6417
 8348SOL     OW36676   1.318   0.623   5.076 -0.0181 -0.0183 -0.1301
 8348SOL    HW136677   1.359   0.632   5.162  0.9396  0.1155 -0.6013
 8348SOL    HW236678   1.395   0.614   5.021 -0.6584  0.7333 -1.1380
 8349SOL     OW36679   0.327   1.857   1.630  0.3270 -0.4134  0.1765
 8349SOL    HW136680   0.251   1.800   1.619 -0.9707  1.4718 -0.6045
 8349SOL    HW236681   0.377   1.801   1.689  2.4125  0.2415 -0.9574
 8350SOL     OW36682   4.107   0.829   9.189 -0.0019 -0.1423 -0.2727
 8350SOL    HW136683   4.193   0.808   9.153  1.2316  0.9562  1.9882
 8350SOL    HW236684   4.105   0.785   9.274  2.0318 -1.4011 -0.8689
 8351SOL     OW36685   4.684   1.115   6.970 -0.0746  0.0642 -1.3065
 8351SOL    HW136686   0.045   1.116   6.987 -0.4877 -1.4933  1.1538
 8351SOL    HW236687   4.692   1.059   6.893 -1.6898 -1.0220 -0.7013
 8352SOL     OW36688   1.034   0.476   2.004  0.0173 -0.0236  0.4794
 8352SOL    HW136689   1.019   0.416   2.078  0.4378 -0.0764  0.5242
 8352SOL    HW236690   1.040   0.559   2.052 -2.7457  0.8120 -0.6386
 8353SOL     OW36691   1.264   3.680   9.849 -0.1522  0.0046 -0.2375
 8353SOL    HW136692   1.302   3.632   9.775 -0.1004  0.6676 -0.6306
 8353SOL    HW236693   1.346   3.711   9.886  0.7300 -1.5925 -0.8380
 8354SOL     OW36694   2.690   1.687   5.668  0.1806  0.1734  0.3741
 8354SOL    HW136695   2.608   1.696   5.620 -0.6815  0.7844  1.9640
 8354SOL    HW236696   2.747   1.650   5.600  1.6337 -0.3313  1.8606
 8355SOL     OW36697   1.724   2.682   9.450 -0.4440 -0.2298 -0.0875
 8355SOL    HW136698   1.785   2.705   9.520 -1.3449  3.6267 -0.5775
 8355SOL    HW236699   1.704   2.596   9.486  0.9744 -0.6400 -0.2692
 8356SOL     OW36700   0.001   4.480   4.901  0.0200 -0.4987  0.1144
 8356SOL    HW136701   4.726   4.554   4.962  0.8759 -0.8132  0.6150
 8356SOL    HW236702   0.018   4.526   4.819  1.8119 -0.1264  0.6989
 8357SOL     OW36703   1.615   0.346   3.845 -0.0990 -0.4680  0.1803
 8357SOL    HW136704   1.608   0.426   3.793  0.1339 -1.1737 -0.9235
 8357SOL    HW236705   1.678   0.370   3.913  1.1592  1.7026 -1.7741
 8358SOL     OW36706   0.524   0.263  11.112  0.0794 -0.3704  0.2667
 8358SOL    HW136707   0.518   0.347  11.156  2.0501  0.9281 -1.9115
 8358SOL    HW236708   0.453   0.278  11.050  0.5102  1.0502  0.1180
 8359SOL     OW36709   2.049   4.226   2.702  0.1094 -0.8235 -0.3585
 8359SOL    HW136710   2.073   4.175   2.779  1.7110  0.5325  0.0430
 8359SOL    HW236711   2.023   4.315   2.727  0.8854 -1.6617  3.3757
 8360SOL     OW36712   1.973   1.005  15.644 -0.2505 -0.2319 -0.4460
 8360SOL    HW136713   2.039   1.055  15.596  1.4313 -2.0682  0.0070
 8360SOL    HW236714   2.016   0.925  15.673  1.6559  0.6123 -0.9572
 8361SOL     OW36715   3.950   0.501   2.548  0.0043  0.1454 -0.0091
 8361SOL    HW136716   3.964   0.444   2.472 -1.5851 -1.1462  0.6426
 8361SOL    HW236717   3.936   0.430   2.610  0.8029 -2.2268 -2.5207
 8362SOL     OW36718   4.075   4.571   0.471 -0.5156  0.0438  0.8921
 8362SOL    HW136719   4.143   4.637   0.458  2.4036 -2.8456  1.5314
 8362SOL    HW236720   4.004   4.624   0.507 -0.7389  0.2006  0.2113
 8363SOL     OW36721   0.770   0.599   3.705  0.4287 -0.7985 -0.2414
 8363SOL    HW136722   0.819   0.626   3.783  0.1627 -3.0958  0.7490
 8363SOL    HW236723   0.763   0.504   3.719 -3.0701 -0.6530 -0.8159
 8364SOL     OW36724   3.320   3.856  17.295 -0.2292  0.1559  0.3977
 8364SOL    HW136725   3.250   3.916  17.320  0.3265  0.6719  0.7143
 8364SOL    HW236726   3.370   3.847  17.376 -0.4731  1.7259  0.7177
 8365SOL     OW36727   2.040   3.204  14.494  0.1710 -0.0577 -0.0472
 8365SOL    HW136728   2.071   3.159  14.572 -0.4818  1.7951  1.2958
 8365SOL    HW236729   2.030   3.295  14.523 -0.1714  0.2157 -1.0176
 8366SOL     OW36730   4.362   0.813   2.165 -0.4549  0.1198 -0.0939
 8366SOL    HW136731   4.315   0.743   2.210  2.3079 -2.1291 -0.7213
 8366SOL    HW236732   4.385   0.864   2.243 -1.7250  0.9793 -0.3010
 8367SOL     OW36733   0.954   4.606   2.289 -0.0948 -0.0774 -0.1377
 8367SOL    HW136734   0.909   4.595   2.206  1.1474  1.8298 -1.0692
 8367SOL    HW236735   1.019   4.536   2.294 -0.7435 -0.7343 -0.9951
 8368SOL     OW36736   1.658   3.263  11.853  0.0025  0.5619 -0.0127
 8368SOL    HW136737   1.717   3.308  11.793  2.0344  0.6777  2.0792
 8368SOL    HW236738   1.687   3.285  11.942 -0.1108  0.0629  0.1467
 8369SOL     OW36739   3.887   4.260   0.276 -0.0857 -0.3419  0.2704
 8369SOL    HW136740   3.927   4.338   0.239  2.7156 -0.9704  1.9439
 8369SOL    HW236741   3.827   4.240   0.205  0.9956  2.2579 -1.3659
 8370SOL     OW36742   3.747   1.983  15.475  0.2957 -0.4345  0.2974
 8370SOL    HW136743   3.784   1.921  15.538 -0.7704 -1.2964  0.0819
 8370SOL    HW236744   3.671   1.942  15.434  1.4762 -0.6393 -1.6873
 8371SOL     OW36745   3.308   1.639   5.753 -0.2550 -0.0835  0.4023
 8371SOL    HW136746   3.351   1.566   5.798 -2.8985 -0.9147  1.5818
 8371SOL    HW236747   3.214   1.625   5.768 -0.3678  0.8544  0.5818
 8372SOL     OW36748   0.338   3.949   9.813 -0.0787 -0.3764  0.4055
 8372SOL    HW136749   0.364   3.861   9.838  2.3216  0.2200  0.0457
 8372SOL    HW236750   0.317   3.937   9.720 -1.6269 -0.5973  0.7827
 8373SOL     OW36751   3.283   1.635   4.070  0.5301  0.3762 -0.5087
 8373SOL    HW136752   3.357   1.637   4.009  0.6612  1.8675 -0.2829
 8373SOL    HW236753   3.332   1.583   4.135  2.5297  1.3815 -1.2283
 8374SOL     OW36754   4.045   2.976  13.753 -0.0517  0.4461  0.2761
 8374SOL    HW136755   4.128   2.938  13.724  0.6617  2.0267  0.2957
 8374SOL    HW236756   4.030   3.043  13.687 -1.7916 -0.7533 -0.5560
 8375SOL     OW36757   2.978   0.013   7.526 -0.1668 -0.1007  0.6807
 8375SOL    HW136758   3.017   0.100   7.528 -0.3983 -0.0350  2.2824
 8375SOL    HW236759   2.906   0.024   7.464 -0.4553 -1.0884  0.8360
 8376SOL     OW36760   0.167   0.962   9.293  0.0995 -0.5718 -0.5045
 8376SOL    HW136761   0.209   0.916   9.220  2.2038  2.0231 -0.9282
 8376SOL    HW236762   0.238   0.982   9.355 -1.6343 -3.7524  2.4696
 8377SOL     OW36763   4.681   0.374   1.972 -0.5668 -0.6939 -0.1890
 8377SOL    HW136764   4.705   0.329   2.053 -0.6891 -0.7708 -0.1947
 8377SOL    HW236765   4.724   0.459   1.980 -0.9322 -0.7316  2.0461
 8378SOL     OW36766   0.549   3.575  15.715  0.1772  0.1164 -0.5851
 8378SOL    HW136767   0.500   3.512  15.662 -1.4755 -0.9408  2.1959
 8378SOL    HW236768   0.485   3.576  15.787  0.2935 -0.0037 -0.4802
 8379SOL     OW36769   1.503   3.791   5.298  0.2025  0.0656  0.5689
 8379SOL    HW136770   1.435   3.733   5.264 -0.2490  0.6611  0.4645
 8379SOL    HW236771   1.558   3.725   5.340  0.3008  0.0862  0.4733
 8380SOL     OW36772   3.117   2.636   9.444 -0.3293  0.0839 -0.2749
 8380SOL    HW136773   3.195   2.595   9.481  0.6642  2.0282 -0.2231
 8380SOL    HW236774   3.051   2.578   9.481 -0.5995  1.3008  1.1527
 8381SOL     OW36775   2.432   3.331   8.453 -0.1666  0.2734 -0.1842
 8381SOL    HW136776   2.433   3.312   8.547 -1.6694  0.0358 -0.2066
 8381SOL    HW236777   2.398   3.421   8.459  0.9120  0.6996 -0.6322
 8382SOL     OW36778   0.248   0.367   5.252  0.1807  0.6508 -0.6609
 8382SOL    HW136779   0.217   0.317   5.328  1.3832  0.5419 -0.2395
 8382SOL    HW236780   0.342   0.355   5.261  0.1058 -0.2373 -1.0220
 8383SOL     OW36781   3.967   3.222   5.981 -0.7447 -0.7416  0.3617
 8383SOL    HW136782   4.036   3.181   5.929 -1.3736 -1.7713  0.3426
 8383SOL    HW236783   3.907   3.148   5.979 -0.7496 -0.7142 -0.3921
 8384SOL     OW36784   1.397   0.703   2.326  0.3978 -0.8847  0.5177
 8384SOL    HW136785   1.368   0.699   2.417  0.9195  0.5914  0.7422
 8384SOL    HW236786   1.349   0.780   2.295 -0.4040 -1.0831  1.2394
 8385SOL     OW36787   1.866   3.341   4.901  0.2535  0.7315 -0.3613
 8385SOL    HW136788   1.810   3.272   4.865  1.7174 -0.4614 -0.3463
 8385SOL    HW236789   1.947   3.311   4.859 -0.1244  1.2337 -1.4563
 8386SOL     OW36790   3.555   0.471   4.677  0.2022 -0.0944 -0.7869
 8386SOL    HW136791   3.591   0.475   4.765 -0.0436  0.5672 -0.7239
 8386SOL    HW236792   3.465   0.452   4.702  0.6528  0.0982  0.9808
 8387SOL     OW36793   3.262   0.256   9.822  0.0056 -0.3234  0.0230
 8387SOL    HW136794   3.176   0.222   9.847  0.2506 -0.2417  1.0125
 8387SOL    HW236795   3.316   0.218   9.892 -1.1745 -0.6074  0.7767
 8388SOL     OW36796   2.141   2.477   3.795  0.4513  0.5203  0.0726
 8388SOL    HW136797   2.216   2.520   3.755 -1.0538  2.1138 -1.0050
 8388SOL    HW236798   2.185   2.471   3.880  1.3954 -2.2256 -0.5857
 8389SOL     OW36799   4.099   3.806   6.763 -0.2990 -0.0366 -0.1170
 8389SOL    HW136800   4.168   3.759   6.717 -2.0791 -1.8996 -0.8884
 8389SOL    HW236801   4.078   3.747   6.835  2.2321  0.6340  1.1318
 8390SOL     OW36802   2.674   2.228   3.264 -0.1466  0.2243  0.2006
 8390SOL    HW136803   2.652   2.156   3.204 -0.2645 -0.0608  0.5846
 8390SOL    HW236804   2.677   2.308   3.213 -0.3279 -1.3227 -2.2311
 8391SOL     OW36805   1.955   0.385   8.031 -0.7011  0.0360  0.2745
 8391SOL    HW136806   1.894   0.395   7.958  0.1868 -0.6240 -0.5795
 8391SOL    HW236807   1.908   0.423   8.105 -0.6225  2.4743 -0.9256
 8392SOL     OW36808   2.494   3.806   8.688 -0.2376  0.2609  0.5666
 8392SOL    HW136809   2.436   3.848   8.624 -0.0095  0.3398  0.4104
 8392SOL    HW236810   2.443   3.727   8.704 -0.9852  0.7822  0.8062
 8393SOL     OW36811   3.873   1.851   1.241 -0.3992 -0.3765 -0.3133
 8393SOL    HW136812   3.873   1.780   1.177 -1.4586  0.6685 -1.4963
 8393SOL    HW236813   3.784   1.887   1.233 -0.7537 -1.5412 -1.6535
 8394SOL     OW36814   3.308   0.594   9.314  0.2670  0.2266  0.3691
 8394SOL    HW136815   3.257   0.669   9.286  0.2848 -1.0619 -3.0978
 8394SOL    HW236816   3.250   0.518   9.307 -0.7079  0.7739  2.4404
 8395SOL     OW36817   3.146   1.316   6.113 -0.1885 -0.1404 -0.1960
 8395SOL    HW136818   3.178   1.270   6.036 -0.2151 -2.1282  0.9686
 8395SOL    HW236819   3.054   1.297   6.097  0.1717 -2.1684  0.1498
 8396SOL     OW36820   1.562   1.466   8.866  0.2490  0.2760  0.7679
 8396SOL    HW136821   1.653   1.448   8.890  1.5680  3.9010 -1.6111
 8396SOL    HW236822   1.524   1.378   8.855 -1.3460  1.1751 -0.9718
 8397SOL     OW36823   4.580   0.747  12.819  0.1660 -0.0790 -0.2425
 8397SOL    HW136824   4.599   0.839  12.839 -0.2218 -0.1967  0.6909
 8397SOL    HW236825   4.656   0.708  12.864  0.1626  1.2429  0.9256
 8398SOL     OW36826   2.999   2.323   8.615  0.1168  0.0597 -0.7737
 8398SOL    HW136827   2.984   2.375   8.694  0.1234 -2.0913  0.6419
 8398SOL    HW236828   2.945   2.373   8.554 -2.0556 -1.8548 -0.4212
 8399SOL     OW36829   0.449   3.741   3.076  0.1065 -0.4512  0.0852
 8399SOL    HW136830   0.473   3.820   3.029 -0.7004 -0.0506  0.3422
 8399SOL    HW236831   0.426   3.678   3.007  1.3033 -0.5908 -0.1789
 8400SOL     OW36832   3.137   2.260   7.894 -0.0850  0.1574 -0.1674
 8400SOL    HW136833   3.065   2.274   7.832 -0.7673 -1.2988  0.3154
 8400SOL    HW236834   3.088   2.272   7.975 -0.5193 -1.2420 -0.2197
 8401SOL     OW36835   0.604   2.299  11.875  0.1070  0.2918 -0.1501
 8401SOL    HW136836   0.591   2.235  11.945  1.8631 -0.3556 -0.4110
 8401SOL    HW236837   0.698   2.312  11.891 -0.0497 -0.9752  1.8037
 8402SOL     OW36838   4.502   1.160  15.598 -0.1181 -0.4734 -0.0257
 8402SOL    HW136839   4.505   1.106  15.677  0.2846  0.1408  0.3806
 8402SOL    HW236840   4.588   1.202  15.599 -0.7100  0.8049 -3.5372
 8403SOL     OW36841   0.222   4.718  16.063  0.5194  0.5237 -0.1984
 8403SOL    HW136842   0.304   0.033  16.047  0.6508  0.2474 -0.3619
 8403SOL    HW236843   0.155   0.041  16.026 -0.6984  0.1103  1.3843
 8404SOL     OW36844   2.008   1.408  16.768  0.6719 -0.2659 -0.4825
 8404SOL    HW136845   2.099   1.423  16.795  0.3682 -0.4796  0.6412
 8404SOL    HW236846   1.991   1.319  16.797 -0.5390 -0.9151 -3.1641
 8405SOL     OW36847   3.355   2.345   6.770  0.1598  0.3706  0.1930
 8405SOL    HW136848   3.446   2.365   6.795  0.0703  3.2423 -1.8551
 8405SOL    HW236849   3.346   2.393   6.688 -0.4067 -0.2821 -0.1322
 8406SOL     OW36850   1.421   0.715   8.100 -0.2903  0.1911 -0.0864
 8406SOL    HW136851   1.466   0.704   8.184  2.1938  1.6904 -1.2326
 8406SOL    HW236852   1.412   0.810   8.097 -0.3896  0.1932  0.4023
 8407SOL     OW36853   3.666   1.969   6.786  1.0180 -0.1705 -0.2781
 8407SOL    HW136854   3.749   1.926   6.806  0.5177 -0.2432  1.6434
 8407SOL    HW236855   3.649   2.020   6.865 -0.3797  2.1524 -2.0980
 8408SOL     OW36856   2.162   3.439   0.398 -0.1823 -0.3399  0.0092
 8408SOL    HW136857   2.135   3.525   0.368 -0.8739 -0.9227 -1.0637
 8408SOL    HW236858   2.092   3.384   0.362 -0.7551  1.2761 -1.3631
 8409SOL     OW36859   3.613   3.283   2.110 -0.4624  0.7030 -0.2010
 8409SOL    HW136860   3.520   3.286   2.086 -0.6294 -0.8651  0.2320
 8409SOL    HW236861   3.639   3.374   2.094  0.5363  0.0549 -2.1157
 8410SOL     OW36862   2.461   0.760   3.975 -0.5191 -0.2875  0.2407
 8410SOL    HW136863   2.480   0.704   3.899  0.9874  0.5967 -0.0459
 8410SOL    HW236864   2.411   0.836   3.947 -0.5592  0.2131  1.6734
 8411SOL     OW36865   1.732   3.446   7.669 -0.4259  0.1861  0.1513
 8411SOL    HW136866   1.827   3.446   7.679 -0.4067 -0.7536  0.0068
 8411SOL    HW236867   1.721   3.362   7.713 -0.0746 -0.1119 -0.3367
 8412SOL     OW36868   4.083   1.300   6.016  0.1249 -0.6636 -0.1118
 8412SOL    HW136869   4.149   1.368   6.024  0.8180 -1.5100  1.2537
 8412SOL    HW236870   4.116   1.234   6.077  2.1559  0.2696 -0.2111
 8413SOL     OW36871   4.618   2.185  12.353  0.3607  0.8247 -0.4146
 8413SOL    HW136872   4.657   2.261  12.309  1.1866  0.2193 -0.7371
 8413SOL    HW236873   4.674   2.188  12.430  0.4984  0.4230 -0.4992
 8414SOL     OW36874   0.075   0.718   3.459 -0.5914 -0.1422 -0.0742
 8414SOL    HW136875   0.136   0.789   3.441  0.3340 -1.3135 -1.5466
 8414SOL    HW236876   4.728   0.743   3.413 -1.6197  2.6190  3.2331
 8415SOL     OW36877   2.630   2.229   6.514  0.5180 -0.3274  0.1858
 8415SOL    HW136878   2.643   2.302   6.575  2.4286  0.1887 -0.8428
 8415SOL    HW236879   2.696   2.240   6.447  1.3273  1.3804  1.2645
 8416SOL     OW36880   2.824   3.495   9.492  0.0397 -0.6487  0.2127
 8416SOL    HW136881   2.898   3.464   9.441 -0.0388 -0.8944  0.2482
 8416SOL    HW236882   2.765   3.544   9.435  0.0450 -0.3889  0.4291
 8417SOL     OW36883   4.380   0.830  10.902 -0.0490  0.5251 -0.0505
 8417SOL    HW136884   4.395   0.919  10.934 -0.5735 -0.1534  2.1148
 8417SOL    HW236885   4.456   0.812  10.848  0.1757  0.6691  0.2153
 8418SOL     OW36886   2.539   2.273   1.656 -0.1323 -0.2354  0.2719
 8418SOL    HW136887   2.510   2.250   1.568 -0.5498 -2.6865  1.0608
 8418SOL    HW236888   2.463   2.306   1.705 -0.4792 -0.8577  0.1474
 8419SOL     OW36889   0.024   3.873   4.580  0.8909  0.3524  0.2796
 8419SOL    HW136890   4.681   3.845   4.632  0.5710  1.5708  0.4552
 8419SOL    HW236891   0.070   3.917   4.652  1.7165 -0.8947  0.5129
 8420SOL     OW36892   4.295   1.545  12.439 -0.4007 -0.3724  0.1862
 8420SOL    HW136893   4.348   1.553  12.359 -1.2112  0.4644 -0.2660
 8420SOL    HW236894   4.220   1.599  12.412 -1.5604 -2.9014 -1.6626
 8421SOL     OW36895   0.224   0.639   5.528 -0.4416 -0.0535  0.2201
 8421SOL    HW136896   0.144   0.586   5.528 -1.6652  1.8103 -2.8578
 8421SOL    HW236897   0.197   0.702   5.594  0.5237  0.7976 -0.1997
 8422SOL     OW36898   4.057   1.129   6.957 -0.3035  0.2508 -0.3674
 8422SOL    HW136899   4.103   1.142   7.040 -0.1696  0.7336 -0.5155
 8422SOL    HW236900   4.076   1.215   6.919 -2.3270  0.7901 -0.1684
 8423SOL     OW36901   1.240   0.628   3.143  0.5993  0.2739 -0.3324
 8423SOL    HW136902   1.296   0.669   3.077  2.5012 -0.9432  0.5293
 8423SOL    HW236903   1.291   0.643   3.222 -1.7419 -0.5821  1.3312
 8424SOL     OW36904   2.414   2.267  11.657  0.6799 -0.1826 -0.1280
 8424SOL    HW136905   2.457   2.353  11.653  0.1566  0.1039  0.4422
 8424SOL    HW236906   2.361   2.261  11.578 -0.1426  1.4997  0.3047
 8425SOL     OW36907   0.666   3.940   8.929  0.2067  0.1275  0.2108
 8425SOL    HW136908   0.693   3.974   9.014  0.7370 -1.9945  0.9074
 8425SOL    HW236909   0.571   3.949   8.939  0.4500  2.5718  0.2395
 8426SOL     OW36910   2.378   0.828  10.036 -0.6160  0.0083 -0.4003
 8426SOL    HW136911   2.445   0.845   9.969  1.1643 -1.9723  0.8513
 8426SOL    HW236912   2.350   0.737  10.025  1.4748 -0.7627  0.6010
 8427SOL     OW36913   0.866   2.531   9.030 -0.1648 -0.2783  0.0628
 8427SOL    HW136914   0.891   2.525   8.937 -0.8539 -0.2202 -0.1281
 8427SOL    HW236915   0.845   2.439   9.049 -2.6234  0.2925  0.1314
 8428SOL     OW36916   3.971   3.962   7.571 -0.4592  0.5025  0.0716
 8428SOL    HW136917   3.992   4.037   7.628 -0.1642 -0.8981  1.8062
 8428SOL    HW236918   3.899   3.997   7.518  0.7455  3.4040  0.3277
 8429SOL     OW36919   0.714   2.042  14.201  0.1086 -0.2131  0.2065
 8429SOL    HW136920   0.675   2.129  14.191  1.6080  0.4105 -0.1437
 8429SOL    HW236921   0.661   1.997  14.136  0.7359 -0.6655  0.0102
 8430SOL     OW36922   3.299   1.658   2.846  0.0466 -0.3167  0.0769
 8430SOL    HW136923   3.327   1.693   2.761 -0.1365  1.9255  0.9637
 8430SOL    HW236924   3.302   1.739   2.896 -0.4611  0.2723 -0.8325
 8431SOL     OW36925   4.186   4.404   9.989  0.4898 -0.8036  0.2330
 8431SOL    HW136926   4.206   4.375  10.078  0.3328  1.3303  0.9588
 8431SOL    HW236927   4.195   4.499   9.989  2.5949 -1.0186 -1.3296
 8432SOL     OW36928   0.612   2.010  15.343 -0.8655  0.2413  0.7820
 8432SOL    HW136929   0.579   2.058  15.267 -1.1636 -1.1061  0.0668
 8432SOL    HW236930   0.546   1.941  15.350 -2.7431  1.9735  0.2601
 8433SOL     OW36931   1.049   0.304  12.585 -0.2353 -0.3907  0.0167
 8433SOL    HW136932   1.100   0.228  12.558  0.1682  0.0790 -0.5375
 8433SOL    HW236933   1.033   0.288  12.678 -0.6605  0.9996  0.1878
 8434SOL     OW36934   3.305   0.952   7.436 -0.1912  0.4770 -0.6305
 8434SOL    HW136935   3.304   0.956   7.531  3.5299 -1.7203 -0.5206
 8434SOL    HW236936   3.347   0.869   7.417 -0.0705  0.3801  0.0859
 8435SOL     OW36937   0.757   0.826  10.893  0.4030  0.0295 -0.0843
 8435SOL    HW136938   0.692   0.869  10.950  1.5433  1.5887  0.0223
 8435SOL    HW236939   0.709   0.745  10.876 -0.4301  0.7755 -1.2615
 8436SOL     OW36940   4.463   2.898   3.218  0.1839  0.4035 -0.4248
 8436SOL    HW136941   4.451   2.807   3.246 -1.4295  1.5826  2.8043
 8436SOL    HW236942   4.501   2.942   3.294 -0.4645  1.0232 -0.4593
 8437SOL     OW36943   1.283   1.272  17.014  0.4862  0.1103 -0.1677
 8437SOL    HW136944   1.266   1.193  17.065 -1.2670  0.6750  0.0988
 8437SOL    HW236945   1.338   1.320  17.076  0.7244 -0.1237 -0.1962
 8438SOL     OW36946   1.584   0.837   4.576 -0.2260 -0.5311 -0.2862
 8438SOL    HW136947   1.587   0.915   4.630  0.9385 -1.5351  1.0928
 8438SOL    HW236948   1.561   0.875   4.491  1.9706  0.6460 -0.3418
 8439SOL     OW36949   0.776   2.699  17.418 -0.2591  0.0630 -0.0085
 8439SOL    HW136950   0.776   2.714  17.323  3.8870  0.4043  0.0612
 8439SOL    HW236951   0.708   2.632  17.429 -1.3820  0.8915 -1.8261
 8440SOL     OW36952   1.564   3.376  10.476 -0.2831  0.4191 -0.4710
 8440SOL    HW136953   1.566   3.405  10.385 -1.1746  1.0826 -0.2844
 8440SOL    HW236954   1.513   3.297  10.460  0.0799  0.2934 -0.9896
 8441SOL     OW36955   0.386   0.340   6.325  0.3951  0.9098  0.0604
 8441SOL    HW136956   0.456   0.336   6.390 -0.9160 -0.1259  1.4041
 8441SOL    HW236957   0.428   0.404   6.268  0.7067 -0.3628 -1.1533
 8442SOL     OW36958   0.794   2.401   8.071  0.4685  0.4603  0.0639
 8442SOL    HW136959   0.702   2.426   8.070 -0.0633 -1.5318 -0.0672
 8442SOL    HW236960   0.796   2.314   8.032 -0.8606  1.7636 -2.8805
 8443SOL     OW36961   1.913   2.026   4.130  0.4982 -0.3982  0.1879
 8443SOL    HW136962   1.878   2.040   4.042 -1.6496 -0.1769  1.0886
 8443SOL    HW236963   1.832   2.039   4.179  0.0089  0.5276 -0.8670
 8444SOL     OW36964   0.170   2.098   0.912  0.0635  0.6709 -1.1351
 8444SOL    HW136965   0.121   2.052   0.979  0.2855  2.7341  0.4370
 8444SOL    HW236966   0.177   2.037   0.838 -0.2332  0.0003 -0.5992
 8445SOL     OW36967   0.103   1.003  13.125 -0.0641  0.1759  0.4389
 8445SOL    HW136968   0.069   1.009  13.035 -1.6676 -1.5680  0.9134
 8445SOL    HW236969   0.163   0.929  13.114 -1.4563 -1.1799  1.9636
 8446SOL     OW36970   3.147   0.282   3.527  0.2514  0.1123 -0.2451
 8446SOL    HW136971   3.117   0.254   3.613 -0.0676 -1.1890 -0.7715
 8446SOL    HW236972   3.238   0.306   3.544 -0.1267  1.7711 -0.5725
 8447SOL     OW36973   4.328   3.871  16.808  0.4704  0.4664  0.2546
 8447SOL    HW136974   4.340   3.803  16.874 -1.5877 -0.9525 -0.8627
 8447SOL    HW236975   4.324   3.815  16.731 -2.9233  0.1993  0.6476
 8448SOL     OW36976   3.680   4.331   6.148 -0.7442  0.4426  0.0902
 8448SOL    HW136977   3.712   4.333   6.239 -1.7889 -0.6105  0.4856
 8448SOL    HW236978   3.619   4.258   6.157  0.2757 -0.2957  0.9948
 8449SOL     OW36979   3.313   3.066  15.350 -0.4231  0.0442  0.4307
 8449SOL    HW136980   3.386   3.007  15.369 -1.5511 -1.8146 -1.0089
 8449SOL    HW236981   3.349   3.101  15.268 -0.0527  1.4401  1.1919
 8450SOL     OW36982   0.072   1.329   2.518 -0.2276 -0.3827 -0.0810
 8450SOL    HW136983   0.140   1.265   2.495  1.5431  1.0432  1.1394
 8450SOL    HW236984   4.731   1.279   2.552 -0.9894 -0.3547 -1.6849
 8451SOL     OW36985   3.665   3.362   9.910  0.2598 -0.2731 -0.6021
 8451SOL    HW136986   3.742   3.348   9.855  1.5558 -2.1444  1.6650
 8451SOL    HW236987   3.673   3.312   9.992 -0.3380  2.6842  1.2465
 8452SOL     OW36988   2.959   0.345   5.962  0.2144 -0.6336  0.1191
 8452SOL    HW136989   2.985   0.262   6.002 -1.2223 -0.6651  0.9957
 8452SOL    HW236990   3.016   0.401   6.014 -0.5491  1.2065 -1.0343
 8453SOL     OW36991   3.500   1.400   8.427  0.2924 -0.1071 -0.1272
 8453SOL    HW136992   3.431   1.443   8.375  0.6792  0.7046  0.0357
 8453SOL    HW236993   3.453   1.325   8.462  2.0558 -1.2651 -0.2566
 8454SOL     OW36994   4.717   0.137  16.016 -0.0220  0.1877  0.1680
 8454SOL    HW136995   4.691   0.129  15.924 -0.3321  2.4668  0.0535
 8454SOL    HW236996   4.668   0.208  16.058  0.7113  0.3323  0.7853
 8455SOL     OW36997   2.031   1.157  12.045 -0.5430  0.1869 -0.7124
 8455SOL    HW136998   2.115   1.136  12.005  0.0040  0.1586  0.4440
 8455SOL    HW236999   1.984   1.167  11.963 -0.8848 -3.8807 -1.0223
 8456SOL     OW37000   3.356   2.840  12.091 -0.4775 -0.1444 -0.4678
 8456SOL    HW137001   3.368   2.930  12.123  0.2448 -0.1597 -0.6998
 8456SOL    HW237002   3.349   2.799  12.177 -0.1983  1.1594  0.1754
 8457SOL     OW37003   4.098   1.479   9.460 -0.1033 -0.3597  0.1889
 8457SOL    HW137004   4.189   1.481   9.488  0.3171  0.3696 -1.2611
 8457SOL    HW237005   4.097   1.485   9.365 -0.5283  0.9426  0.2852
 8458SOL     OW37006   0.786   1.480   2.209 -0.5263  0.1948  0.1940
 8458SOL    HW137007   0.817   1.497   2.298  3.0224  1.8331 -1.3875
 8458SOL    HW237008   0.695   1.460   2.233 -0.3738 -1.1849 -0.3592
 8459SOL     OW37009   2.270   1.728   0.581  0.3123 -0.1890  0.5346
 8459SOL    HW137010   2.345   1.749   0.525  1.0442 -0.6632  1.3530
 8459SOL    HW237011   2.207   1.712   0.511 -1.0756  1.9850  1.2618
 8460SOL     OW37012   1.277   3.995   4.509  0.1300 -0.2913 -0.1156
 8460SOL    HW137013   1.199   4.004   4.563  0.2948  1.2853 -0.1284
 8460SOL    HW237014   1.346   4.031   4.564  2.3299 -1.6425 -1.9610
 8461SOL     OW37015   0.971   1.050   3.923  0.3090 -0.5810  0.0133
 8461SOL    HW137016   0.967   1.026   4.015 -0.2232 -1.9294 -0.3521
 8461SOL    HW237017   0.879   1.074   3.907  0.1597 -0.2444  1.4095
 8462SOL     OW37018   4.224   1.169   9.769  0.3924  0.3266 -0.6375
 8462SOL    HW137019   4.201   1.214   9.850  0.6088  0.3614 -0.5960
 8462SOL    HW237020   4.316   1.144   9.782  0.7716  1.0712 -1.8384
 8463SOL     OW37021   1.419   0.273   0.848  0.0147 -0.0597 -0.5602
 8463SOL    HW137022   1.329   0.245   0.830  0.3533 -0.4011 -1.7047
 8463SOL    HW237023   1.460   0.187   0.847  1.6681  0.7387 -0.4308
 8464SOL     OW37024   0.598   2.184   0.589  0.0589  0.6570  0.7123
 8464SOL    HW137025   0.543   2.262   0.593 -0.5247  0.3238 -0.8988
 8464SOL    HW237026   0.679   2.205   0.637  0.0986 -0.1564  1.0095
 8465SOL     OW37027   2.619   1.184   1.560  0.3781 -0.3788  0.6051
 8465SOL    HW137028   2.678   1.146   1.625 -0.2562 -0.9429  0.8470
 8465SOL    HW237029   2.633   1.277   1.581  1.1693 -1.1377  3.5040
 8466SOL     OW37030   1.658   0.779  13.967 -0.1544 -0.0067 -0.1849
 8466SOL    HW137031   1.600   0.819  13.902 -1.0607 -2.1074 -0.6500
 8466SOL    HW237032   1.710   0.728  13.906 -0.8765  0.0720 -0.8566
 8467SOL     OW37033   1.870   1.478   1.832 -0.3077  0.1053 -0.2130
 8467SOL    HW137034   1.886   1.394   1.875  2.2459  0.1093 -1.1424
 8467SOL    HW237035   1.883   1.537   1.906  1.6697 -0.8382  0.1869
 8468SOL     OW37036   0.145   0.212   9.480 -0.1386  0.3010  0.5700
 8468SOL    HW137037   0.230   0.179   9.510  0.4222  0.0871 -1.2836
 8468SOL    HW237038   0.087   0.157   9.533  0.4882  0.6173  1.5837
 8469SOL     OW37039   1.784   0.548   6.946  0.2711  0.4046 -0.0534
 8469SOL    HW137040   1.817   0.545   7.036 -0.1325 -1.5167  0.0427
 8469SOL    HW237041   1.690   0.542   6.963 -0.0496 -0.1862 -1.9801
 8470SOL     OW37042   1.182   3.176   7.854 -0.5181 -0.1478 -0.0978
 8470SOL    HW137043   1.211   3.213   7.770  1.1833 -0.0585  0.5306
 8470SOL    HW237044   1.240   3.100   7.859 -1.3226 -0.7354  0.3337
 8471SOL     OW37045   2.535   2.787   0.796 -0.4496 -0.3954  0.4314
 8471SOL    HW137046   2.524   2.838   0.876  1.8280  1.5683 -0.5070
 8471SOL    HW237047   2.628   2.765   0.801 -0.8731 -2.2285  0.0181
 8472SOL     OW37048   1.048   4.385   6.113 -0.2309 -0.0469 -0.2430
 8472SOL    HW137049   1.000   4.315   6.068  0.2735 -0.5504  0.0057
 8472SOL    HW237050   1.137   4.369   6.082 -0.4881 -0.3380 -0.8450
 8473SOL     OW37051   3.984   2.584  11.144  0.0171 -0.2508  0.0206
 8473SOL    HW137052   3.966   2.537  11.062  0.9831 -1.0134  0.2427
 8473SOL    HW237053   4.072   2.550  11.161  1.4686  3.1756 -0.7142
 8474SOL     OW37054   1.727   3.491  13.134  0.0020  0.2665  0.2239
 8474SOL    HW137055   1.813   3.463  13.105 -0.5296 -1.8960  0.7911
 8474SOL    HW237056   1.712   3.571  13.083 -2.7216 -0.5101 -0.1979
 8475SOL     OW37057   1.855   0.904  11.904 -0.4845 -0.1226 -0.1641
 8475SOL    HW137058   1.876   0.813  11.882 -2.1122  0.1908 -3.0988
 8475SOL    HW237059   1.760   0.896  11.896 -0.3447 -1.4266 -0.5501
 8476SOL     OW37060   1.521   0.805   6.491  0.2193  0.3929 -0.2818
 8476SOL    HW137061   1.508   0.831   6.582  0.8071  2.2019 -0.7078
 8476SOL    HW237062   1.452   0.740   6.475  1.7270 -0.8188 -1.8711
 8477SOL     OW37063   0.882   2.422   4.462 -0.0392 -0.0380 -0.2219
 8477SOL    HW137064   0.807   2.407   4.520  0.4790 -0.8618  0.2409
 8477SOL    HW237065   0.950   2.454   4.521  2.0054 -0.9484 -2.0910
 8478SOL     OW37066   3.818   0.596   5.864 -0.8058 -0.5178  0.0798
 8478SOL    HW137067   3.738   0.544   5.877 -1.6116  0.5551 -0.5949
 8478SOL    HW237068   3.794   0.665   5.926 -2.1334 -1.2266  0.3714
 8479SOL     OW37069   1.623   1.730   4.014  0.3142  0.2429 -0.1801
 8479SOL    HW137070   1.591   1.781   3.939  2.4452  0.9431 -0.6183
 8479SOL    HW237071   1.560   1.748   4.084 -0.5836  1.9222 -1.4119
 8480SOL     OW37072   4.357   1.976   4.665  0.5801 -0.3180 -0.3565
 8480SOL    HW137073   4.268   1.945   4.645 -0.1331  1.0425  0.7451
 8480SOL    HW237074   4.378   1.935   4.749  1.1384 -0.1795 -0.4316
 8481SOL     OW37075   3.994   1.104   9.136 -0.2920  0.0635  0.2802
 8481SOL    HW137076   3.952   1.129   9.218  1.5176  0.6819  1.0026
 8481SOL    HW237077   4.049   1.028   9.154 -0.6652 -0.8870 -2.4610
 8482SOL     OW37078   4.664   2.678   5.669 -0.2622 -0.1257  0.4669
 8482SOL    HW137079   4.677   2.744   5.600 -1.3786 -0.2862  0.0970
 8482SOL    HW237080   4.729   2.709   5.732  0.3976  2.9122 -1.6552
 8483SOL     OW37081   1.374   0.361   8.741 -0.5886 -0.1542 -0.3409
 8483SOL    HW137082   1.426   0.399   8.812 -1.7148 -1.6408  1.2694
 8483SOL    HW237083   1.414   0.284   8.703  1.2992  0.8393 -0.3805
 8484SOL     OW37084   4.290   4.681   1.265  0.2609 -0.1146 -0.3000
 8484SOL    HW137085   4.327   0.022   1.313 -1.9357  2.9292 -3.3373
 8484SOL    HW237086   4.270   4.713   1.176  1.0882  1.2005 -0.0171
 8485SOL     OW37087   3.704   0.848   4.018  0.4761 -0.2974 -0.3046
 8485SOL    HW137088   3.691   0.910   3.947 -0.5020 -0.0469  0.0957
 8485SOL    HW237089   3.673   0.771   3.970 -0.8816  0.0424  0.0265
 8486SOL     OW37090   3.808   0.396   7.216 -0.3504  0.1113 -0.7517
 8486SOL    HW137091   3.824   0.489   7.231 -1.0537  0.3939 -1.7593
 8486SOL    HW237092   3.766   0.369   7.298  0.3754  0.6973 -0.1902
 8487SOL     OW37093   2.470   1.325  12.230  0.1347 -0.0629 -0.5226
 8487SOL    HW137094   2.483   1.231  12.212 -0.0363 -0.5969  2.1658
 8487SOL    HW237095   2.561   1.353  12.235 -0.8571  3.0611 -0.5374
 8488SOL     OW37096   0.950   1.756  17.620 -0.7607  0.4784 -0.6183
 8488SOL    HW137097   1.010   1.686  17.595 -0.0936  0.6834  0.4333
 8488SOL    HW237098   0.887   1.747  17.549 -1.0898  0.0821 -0.2746
 8489SOL     OW37099   2.563   2.020   3.769  0.3095 -0.7941 -0.2019
 8489SOL    HW137100   2.651   2.041   3.797  0.0422 -1.1571  0.8910
 8489SOL    HW237101   2.586   1.976   3.687 -0.6683 -1.9550  0.1428
 8490SOL     OW37102   3.469   3.193  13.174 -0.0112 -0.2332 -0.0384
 8490SOL    HW137103   3.541   3.216  13.232  1.2274 -0.1745 -1.5860
 8490SOL    HW237104   3.401   3.221  13.236 -1.4220 -2.8128 -0.4263
 8491SOL     OW37105   4.134   2.502   2.060  0.0038  0.4764 -0.1372
 8491SOL    HW137106   4.089   2.482   1.978  0.7673  1.4593 -0.7887
 8491SOL    HW237107   4.108   2.594   2.067 -0.0847  0.4067  0.4872
 8492SOL     OW37108   2.074   4.033   1.272  0.1165 -0.1202  0.5525
 8492SOL    HW137109   2.055   4.100   1.206 -1.9103  0.1886  1.4453
 8492SOL    HW237110   1.987   4.001   1.295  0.5423  0.7120  3.3351
 8493SOL     OW37111   1.027   1.334  17.166  0.1055  0.0480 -0.0152
 8493SOL    HW137112   1.119   1.357  17.153  0.0182  0.6231  0.3654
 8493SOL    HW237113   1.008   1.257  17.112  2.5300 -1.8135  1.8242
 8494SOL     OW37114   1.412   0.361   4.358 -0.5096 -0.0873  0.0573
 8494SOL    HW137115   1.380   0.292   4.416 -0.1083 -1.0515 -0.8578
 8494SOL    HW237116   1.329   0.389   4.321 -0.3194 -1.5684 -1.5302
 8495SOL     OW37117   3.734   2.620   5.006 -0.2115 -0.1949 -0.1052
 8495SOL    HW137118   3.717   2.702   4.958  0.8633  0.6170  0.9171
 8495SOL    HW237119   3.797   2.651   5.071 -1.4484 -0.6496  1.3173
 8496SOL     OW37120   4.379   2.884   4.864  0.4430 -0.2153 -0.4172
 8496SOL    HW137121   4.390   2.827   4.788 -1.8459 -0.4989 -0.5202
 8496SOL    HW237122   4.385   2.969   4.821  1.9617  0.0530  0.3279
 8497SOL     OW37123   2.689   4.465   8.538 -0.2038  0.0072  0.1149
 8497SOL    HW137124   2.635   4.439   8.463  0.1996  2.2504 -0.9454
 8497SOL    HW237125   2.635   4.436   8.611 -0.2584  0.1355  0.1253
 8498SOL     OW37126   1.114   0.091  10.244 -0.4836 -0.8558  0.1881
 8498SOL    HW137127   1.121   0.139  10.326 -1.6984  0.8855 -0.7470
 8498SOL    HW237128   1.032   0.128  10.212  0.0566 -2.1556 -2.7919
 8499SOL     OW37129   0.760   4.368   4.848 -0.3217 -0.1008 -0.0695
 8499SOL    HW137130   0.692   4.377   4.781  2.1935 -0.1062 -2.5992
 8499SOL    HW237131   0.835   4.389   4.793 -0.1638  0.1896  0.2587
 8500SOL     OW37132   2.509   0.772  12.139  0.3087  0.7688  0.3517
 8500SOL    HW137133   2.433   0.764  12.197  0.2712  2.7467  0.5628
 8500SOL    HW237134   2.460   0.788  12.058 -0.1525  0.2294  0.5286
 8501SOL     OW37135   2.175   0.316   8.520  0.0595 -0.2243 -0.4474
 8501SOL    HW137136   2.121   0.294   8.444  1.5907  1.0426 -1.8915
 8501SOL    HW237137   2.264   0.294   8.493 -0.1426  0.1888 -1.4392
 8502SOL     OW37138   3.834   3.763   2.789  0.2434  0.5365  0.0256
 8502SOL    HW137139   3.769   3.768   2.718  1.9936  0.7476 -1.5600
 8502SOL    HW237140   3.789   3.748   2.872  1.1347 -0.0146  0.4057
 8503SOL     OW37141   0.505   1.794   3.245  0.4739  0.2681  0.2197
 8503SOL    HW137142   0.503   1.772   3.338  0.7525  1.8859  0.6140
 8503SOL    HW237143   0.437   1.731   3.221  0.3807  0.7639 -0.8216
 8504SOL     OW37144   3.608   1.763   5.970  0.1096  0.4315 -0.0430
 8504SOL    HW137145   3.664   1.766   5.892  0.7920  2.9403  0.5382
 8504SOL    HW237146   3.632   1.681   6.013  0.7964  1.1712  0.9654
 8505SOL     OW37147   3.771   0.044   1.338 -0.1126  0.0167 -0.1925
 8505SOL    HW137148   3.829   0.082   1.272  0.6673  0.4400  0.7283
 8505SOL    HW237149   3.806   4.691   1.357 -0.5445  0.1578  1.2429
 8506SOL     OW37150   0.792   3.672   8.892 -0.4227 -0.3684 -0.2925
 8506SOL    HW137151   0.766   3.762   8.914  2.2005 -0.3146  2.6070
 8506SOL    HW237152   0.795   3.641   8.982  0.1839 -1.5134 -0.7152
 8507SOL     OW37153   2.347   1.478   8.187 -0.1553  0.0928  0.2586
 8507SOL    HW137154   2.289   1.521   8.249 -2.1231 -0.2283 -1.3697
 8507SOL    HW237155   2.362   1.538   8.115  0.5014  2.8612  2.6968
 8508SOL     OW37156   2.744   1.731   1.054  0.1339  0.6837 -0.4482
 8508SOL    HW137157   2.653   1.724   1.083  0.1878  0.6940 -0.2716
 8508SOL    HW237158   2.740   1.807   0.996 -0.6134  0.7354 -0.3252
 8509SOL     OW37159   4.339   2.113   8.489  0.0818  0.2674 -0.1353
 8509SOL    HW137160   4.419   2.089   8.535 -0.2016 -1.1749 -0.4149
 8509SOL    HW237161   4.325   2.030   8.443  0.8075 -0.5761  1.1676
 8510SOL     OW37162   0.616   3.619  17.079  0.5897  0.1097 -0.1065
 8510SOL    HW137163   0.565   3.685  17.032 -1.5020 -0.3684  1.4518
 8510SOL    HW237164   0.703   3.658  17.088  0.7648 -0.6183  1.4177
 8511SOL     OW37165   4.488   1.104   9.465  0.5560 -0.5294 -0.5024
 8511SOL    HW137166   4.566   1.055   9.442  1.2709  0.5108 -0.2887
 8511SOL    HW237167   4.507   1.131   9.555 -0.4495 -0.5460 -0.2770
 8512SOL     OW37168   3.277   0.086   4.137  0.1454 -0.4843 -0.0111
 8512SOL    HW137169   3.317   0.151   4.196  0.7293  0.5216 -1.4849
 8512SOL    HW237170   3.295   0.140   4.059  0.4188 -2.1480 -1.1024
 8513SOL     OW37171   1.080   0.366  10.709 -0.3067  0.1437  0.2320
 8513SOL    HW137172   1.026   0.429  10.757  0.7595 -0.0978  1.7291
 8513SOL    HW237173   1.165   0.410  10.708  0.0793 -0.6445 -2.0881
 8514SOL     OW37174   1.902   4.403   3.174 -0.3591 -0.2203 -0.0595
 8514SOL    HW137175   1.842   4.330   3.158  0.7784 -1.3212  0.6692
 8514SOL    HW237176   1.833   4.469   3.186  0.8560  0.8805  0.9222
 8515SOL     OW37177   1.167   0.526   8.720 -0.3868  0.5369 -0.4825
 8515SOL    HW137178   1.087   0.474   8.730  0.5332 -1.3840 -2.9487
 8515SOL    HW237179   1.235   0.460   8.734 -0.4465 -0.0934 -3.1019
 8516SOL     OW37180   1.160   2.847   3.643 -0.1088 -0.5088  0.0566
 8516SOL    HW137181   1.077   2.805   3.625 -0.6696  0.5443  0.1700
 8516SOL    HW237182   1.202   2.808   3.566 -1.5679  0.8374 -1.4216
 8517SOL     OW37183   0.848   0.901  17.429  0.7630 -0.1903 -0.0298
 8517SOL    HW137184   0.894   0.959  17.369 -0.4531 -0.2854 -1.0669
 8517SOL    HW237185   0.883   0.817  17.399  1.0663  0.5242 -1.6806
 8518SOL     OW37186   2.591   3.381  10.597  0.5236 -0.5276  0.2847
 8518SOL    HW137187   2.638   3.430  10.530  0.7953  0.8844  1.4889
 8518SOL    HW237188   2.658   3.316  10.616  1.5129  0.3975 -0.0236
 8519SOL     OW37189   0.356   2.084   6.882 -0.3448 -0.1071 -0.2320
 8519SOL    HW137190   0.311   2.036   6.812 -0.9818  0.1006  0.0412
 8519SOL    HW237191   0.364   2.164   6.830  0.6124 -0.2758 -0.3582
 8520SOL     OW37192   2.144   0.216  15.398 -0.4588  0.5886  0.0153
 8520SOL    HW137193   2.174   0.284  15.338 -0.7930 -0.4585 -1.3272
 8520SOL    HW237194   2.092   0.168  15.334 -0.3045 -0.4142  0.6352
 8521SOL     OW37195   1.940   0.895   4.023 -0.1867  0.1538  0.0171
 8521SOL    HW137196   1.874   0.913   4.089 -1.4749  1.2060 -1.5400
 8521SOL    HW237197   1.885   0.858   3.954 -0.3573 -1.0846  0.8077
 8522SOL     OW37198   0.476   3.147   6.704 -0.3192 -0.2928  0.0018
 8522SOL    HW137199   0.414   3.127   6.633  0.4638  0.3941 -0.8813
 8522SOL    HW237200   0.427   3.109   6.777 -1.3433  0.7819 -0.1282
 8523SOL     OW37201   1.214   3.103  14.021  0.3183  0.2423 -0.1865
 8523SOL    HW137202   1.224   3.152  14.103  1.8230  1.2197 -0.9620
 8523SOL    HW237203   1.141   3.149  13.979 -0.1953  0.2590  0.7212
 8524SOL     OW37204   0.991   0.561  11.427 -0.1146 -0.1360 -0.3940
 8524SOL    HW137205   0.992   0.498  11.500 -0.3090 -1.1959 -1.3121
 8524SOL    HW237206   0.896   0.555  11.418 -0.1710 -0.7477  0.5019
 8525SOL     OW37207   0.113   1.297   9.204  0.2697  0.1276  0.0237
 8525SOL    HW137208   0.030   1.253   9.185  0.7034  0.2593 -2.1759
 8525SOL    HW237209   0.129   1.283   9.298 -0.2541 -1.3808 -0.1080
 8526SOL     OW37210   3.655   0.423   8.123  0.4170 -0.4285 -0.0405
 8526SOL    HW137211   3.712   0.368   8.177 -2.1307 -1.0931  2.0026
 8526SOL    HW237212   3.649   0.362   8.050 -0.0108  1.0900 -1.2897
 8527SOL     OW37213   0.074   1.795  16.864 -0.1295  0.9519 -0.2458
 8527SOL    HW137214   0.118   1.746  16.933 -2.0485 -1.0205 -0.4242
 8527SOL    HW237215   0.097   1.741  16.789  2.3021 -0.5622  1.5925
 8528SOL     OW37216   3.291   3.332  15.011 -0.3175  0.3215 -1.0371
 8528SOL    HW137217   3.274   3.248  15.055  1.1664  0.2027 -0.6686
 8528SOL    HW237218   3.248   3.390  15.074 -0.3111  0.6665 -1.3562
 8529SOL     OW37219   4.515   4.329  17.336 -0.0269  0.1552 -0.6004
 8529SOL    HW137220   4.438   4.272  17.333  0.9386 -1.1076 -1.2744
 8529SOL    HW237221   4.485   4.414  17.303 -2.2579 -0.7474 -0.9158
 8530SOL     OW37222   1.842   4.728   2.510 -0.3172  0.1116 -0.1712
 8530SOL    HW137223   1.780   4.669   2.554 -0.4726  0.3561 -0.0621
 8530SOL    HW237224   1.822   4.703   2.420  0.0944  0.0817 -0.2551
 8531SOL     OW37225   3.732   3.718   1.098  0.4706 -0.5550  0.0970
 8531SOL    HW137226   3.723   3.800   1.048  0.9281 -0.5786 -0.0213
 8531SOL    HW237227   3.668   3.662   1.055 -0.4794 -1.0550  2.1503
 8532SOL     OW37228   2.831   1.135   3.904 -0.3190  0.5099 -0.2553
 8532SOL    HW137229   2.810   1.056   3.954  3.8260 -0.2228  0.2844
 8532SOL    HW237230   2.801   1.113   3.816  1.9688 -1.5346 -0.5303
 8533SOL     OW37231   1.931   4.039   5.957  0.5492 -0.1514  0.0946
 8533SOL    HW137232   1.919   4.117   6.011 -2.6215 -0.4250 -0.1825
 8533SOL    HW237233   2.014   4.070   5.921  0.9278 -0.6197  0.5551
 8534SOL     OW37234   0.304   3.036   6.517 -0.5322  0.2862  0.2651
 8534SOL    HW137235   0.303   2.955   6.466  0.0770 -0.0045  0.7229
 8534SOL    HW237236   0.235   3.089   6.476 -0.8152  0.8057  1.4192
 8535SOL     OW37237   2.957   1.593   2.368 -0.0539  0.2367  0.6517
 8535SOL    HW137238   3.040   1.601   2.321  0.4579  3.4059  2.0686
 8535SOL    HW237239   2.953   1.686   2.392  0.7018  0.4716 -0.1109
 8536SOL     OW37240   2.976   3.344   5.011 -0.1422 -0.0012  0.1379
 8536SOL    HW137241   2.929   3.356   4.929 -0.4219  1.1081  0.4690
 8536SOL    HW237242   2.899   3.350   5.068 -1.9133 -0.7673 -2.2032
 8537SOL     OW37243   3.367   1.547   6.641  0.6540 -0.4078 -0.2238
 8537SOL    HW137244   3.422   1.582   6.711  0.3946  0.3611 -0.4028
 8537SOL    HW237245   3.350   1.459   6.675  2.1283 -0.6307 -0.0481
 8538SOL     OW37246   1.743   3.418   3.665  0.2196  0.1570 -0.3666
 8538SOL    HW137247   1.728   3.371   3.747  1.3397  3.2149  1.5826
 8538SOL    HW237248   1.695   3.499   3.684  2.4890  1.7812 -1.6781
 8539SOL     OW37249   1.953   0.242   0.188 -0.0104  0.2878  0.0168
 8539SOL    HW137250   1.892   0.214   0.119  0.5330 -0.2475 -0.2447
 8539SOL    HW237251   1.984   0.161   0.228  0.5325 -0.8595 -2.7002
 8540SOL     OW37252   0.508   4.451   2.253  0.2255  0.4690 -0.1630
 8540SOL    HW137253   0.439   4.512   2.225 -0.4296  0.0435  0.5552
 8540SOL    HW237254   0.543   4.505   2.324 -0.0139  1.2422 -0.6233
 8541SOL     OW37255   0.403   1.454  11.280  0.0272 -0.2859 -0.1701
 8541SOL    HW137256   0.376   1.376  11.330 -0.1442  1.5301  2.5720
 8541SOL    HW237257   0.497   1.441  11.297 -0.2171 -1.2816  0.4462
 8542SOL     OW37258   2.929   4.216   8.060  0.1016 -0.6666  0.5102
 8542SOL    HW137259   2.931   4.308   8.033  0.3746 -0.6301  0.6518
 8542SOL    HW237260   2.894   4.209   8.149 -0.6321 -2.4588  0.0736
 8543SOL     OW37261   3.737   2.593   2.507 -0.1066 -0.6169  0.2496
 8543SOL    HW137262   3.808   2.569   2.567 -1.2147 -0.1406  1.7483
 8543SOL    HW237263   3.776   2.675   2.476 -0.2851 -1.1272 -1.3018
 8544SOL     OW37264   4.478   2.277   1.570 -0.2516  0.2917 -0.5640
 8544SOL    HW137265   4.496   2.259   1.662 -0.2870  1.7883 -0.2618
 8544SOL    HW237266   4.467   2.372   1.576  1.6665  0.3543  1.8127
 8545SOL     OW37267   0.666   0.157   6.305 -0.2541  0.1126 -0.2455
 8545SOL    HW137268   0.631   0.200   6.227 -0.4004 -0.2138 -0.3569
 8545SOL    HW237269   0.643   0.218   6.375  1.4559  0.8392 -0.3169
 8546SOL     OW37270   1.319   3.814  10.945  0.4040 -0.0252 -0.0941
 8546SOL    HW137271   1.353   3.725  10.934 -0.0269 -0.2282  0.2333
 8546SOL    HW237272   1.264   3.819  10.867 -0.9715  0.0312  0.8724
 8547SOL     OW37273   2.512   2.816   3.545 -0.0162  0.2308 -0.0922
 8547SOL    HW137274   2.574   2.887   3.526  0.0504  0.2446  0.1821
 8547SOL    HW237275   2.427   2.858   3.533 -0.0326  0.2593  0.1346
 8548SOL     OW37276   4.023   1.970   2.553  0.4152  0.0301 -0.0952
 8548SOL    HW137277   3.990   1.942   2.468  0.0531 -0.5761  0.2506
 8548SOL    HW237278   3.964   2.044   2.567  0.0706 -0.3308  0.3660
 8549SOL     OW37279   3.498   1.054   8.132 -0.3230  0.0493  0.5322
 8549SOL    HW137280   3.470   1.003   8.208  0.2961 -1.1693 -0.0572
 8549SOL    HW237281   3.472   0.997   8.060 -0.0882 -1.2318  1.4560
 8550SOL     OW37282   3.113   2.272   9.236  0.4100  0.3961 -0.3142
 8550SOL    HW137283   3.034   2.289   9.288 -0.8981  0.1720 -2.2244
 8550SOL    HW237284   3.122   2.353   9.185  0.7114  1.9607  2.2176
 8551SOL     OW37285   0.305   4.028   9.372  0.2284  0.9655  0.3658
 8551SOL    HW137286   0.250   4.072   9.307  0.1693  1.8795  1.0365
 8551SOL    HW237287   0.236   4.000   9.433  0.6301  1.3456  0.9878
 8552SOL     OW37288   4.133   0.330  12.935 -0.1182  0.1063 -0.9378
 8552SOL    HW137289   4.217   0.354  12.974  0.1077  0.0221 -1.3733
 8552SOL    HW237290   4.146   0.236  12.923  1.0781 -0.0890  1.8017
 8553SOL     OW37291   0.916   1.740  14.403 -0.5249 -0.2189  0.9914
 8553SOL    HW137292   0.862   1.812  14.438 -1.2238 -1.3534  2.2498
 8553SOL    HW237293   0.969   1.718  14.480  3.0694  1.9486 -0.8812
 8554SOL     OW37294   2.848   3.700  17.020 -0.5007  0.3157 -0.0436
 8554SOL    HW137295   2.841   3.604  17.013  0.8560  0.2590 -0.6483
 8554SOL    HW237296   2.929   3.713  16.970 -1.2966  2.1502 -0.8492
 8555SOL     OW37297   3.364   2.444   6.490  0.0378  0.1915  0.4129
 8555SOL    HW137298   3.450   2.435   6.449 -0.3812 -0.5783 -0.2879
 8555SOL    HW237299   3.345   2.536   6.474  0.9249  0.0355 -1.5699
 8556SOL     OW37300   3.634   0.312   4.454 -1.1866  0.1761  0.3372
 8556SOL    HW137301   3.636   0.217   4.463 -1.0633  0.2221  0.8032
 8556SOL    HW237302   3.627   0.342   4.545  0.6967 -2.4463  1.3385
 8557SOL     OW37303   1.614   3.466   3.947 -0.6452 -0.1902  0.4293
 8557SOL    HW137304   1.523   3.495   3.953 -0.1893  0.9898  1.4944
 8557SOL    HW237305   1.653   3.547   3.915 -0.0371 -0.3048  0.8870
 8558SOL     OW37306   0.886   2.206   5.802 -0.0886 -0.1572 -0.4663
 8558SOL    HW137307   0.969   2.194   5.848  0.5431 -2.1388 -2.1271
 8558SOL    HW237308   0.916   2.231   5.715  1.0239 -1.1898 -0.3861
 8559SOL     OW37309   3.175   1.606  16.312  0.2330  0.3826  0.0977
 8559SOL    HW137310   3.209   1.551  16.383  0.7845  0.3601 -0.1796
 8559SOL    HW237311   3.112   1.664  16.355  0.4576 -1.2556  2.5779
 8560SOL     OW37312   1.817   3.904   3.236 -0.4541  0.3584  0.3911
 8560SOL    HW137313   1.881   3.894   3.307 -0.1008 -2.2842 -0.2976
 8560SOL    HW237314   1.778   3.988   3.262  0.9107  1.5802 -1.5779
 8561SOL     OW37315   1.103   3.219   6.162 -0.1463 -0.7470  0.2560
 8561SOL    HW137316   1.151   3.199   6.082  0.6909  3.6785 -0.3476
 8561SOL    HW237317   1.077   3.309   6.143 -1.2286 -0.9167  0.9322
 8562SOL     OW37318   3.159   0.137   6.046 -0.6242  0.1147  0.3258
 8562SOL    HW137319   3.220   0.202   6.012 -1.5068 -0.8895 -3.2638
 8562SOL    HW237320   3.190   0.053   6.009 -0.0215  0.9681 -1.1156
 8563SOL     OW37321   2.201   4.627   8.658  0.1326  0.5021 -0.0518
 8563SOL    HW137322   2.152   4.557   8.616 -1.3201  1.2011  0.4762
 8563SOL    HW237323   2.136   4.691   8.686 -0.6219 -0.7930  1.2040
 8564SOL     OW37324   0.705   1.598  15.508 -0.2540  0.6917 -0.0857
 8564SOL    HW137325   0.700   1.537  15.435  0.8301  1.3741 -0.7449
 8564SOL    HW237326   0.630   1.566  15.557 -1.3730 -0.5544 -2.6789
 8565SOL     OW37327   1.217   4.557   6.366  0.2382  0.1049 -0.0966
 8565SOL    HW137328   1.291   4.607   6.331 -0.8623 -0.6058 -3.4191
 8565SOL    HW237329   1.171   4.570   6.283 -2.0671 -1.6565  0.9027
 8566SOL     OW37330   4.495   3.818   2.750 -0.1699  0.1415 -0.5507
 8566SOL    HW137331   4.585   3.807   2.780 -0.0361 -2.3415 -1.7870
 8566SOL    HW237332   4.462   3.729   2.762 -0.3242  0.3267  0.3556
 8567SOL     OW37333   4.693   0.057   9.658  0.3316 -0.2846  0.4800
 8567SOL    HW137334   4.683   0.015   9.744  0.7552 -0.2672  0.5382
 8567SOL    HW237335   4.604   0.091   9.650  0.4097 -0.2291 -0.1836
 8568SOL     OW37336   4.709   2.420   5.614  0.6364  0.1127  0.2994
 8568SOL    HW137337   4.621   2.423   5.576  1.7481  1.1631 -2.2367
 8568SOL    HW237338   4.733   2.512   5.601  4.5791 -1.1297 -1.2625
 8569SOL     OW37339   3.544   2.329   4.410 -0.1362 -0.4842 -0.4162
 8569SOL    HW137340   3.512   2.294   4.327 -0.0681 -0.3567 -0.4953
 8569SOL    HW237341   3.556   2.421   4.389  0.0551 -0.2060  0.9027
 8570SOL     OW37342   0.961   3.245   2.594 -1.0104 -0.1731  0.1716
 8570SOL    HW137343   0.966   3.150   2.592 -2.2376 -0.2480  0.5891
 8570SOL    HW237344   0.902   3.246   2.670  0.9509 -0.7485  1.7062
 8571SOL     OW37345   2.386   0.526   3.774 -0.3125 -0.3325  0.3178
 8571SOL    HW137346   2.297   0.560   3.762 -0.7607 -1.0514  1.5437
 8571SOL    HW237347   2.374   0.452   3.835  1.1263 -0.6078  0.2579
 8572SOL     OW37348   2.239   1.725   5.574 -0.0752 -0.0793  0.5145
 8572SOL    HW137349   2.334   1.733   5.561 -0.0812 -0.6139  0.1517
 8572SOL    HW237350   2.225   1.633   5.550  1.0885  0.1297 -1.0459
 8573SOL     OW37351   4.285   0.013   3.772 -0.2370  0.3450 -0.1604
 8573SOL    HW137352   4.240   0.080   3.823  0.2008 -0.6053  1.4871
 8573SOL    HW237353   4.232   0.010   3.692  1.0388 -0.6328 -0.9767
 8574SOL     OW37354   1.900   2.888   4.231 -0.0481  0.5632 -0.1161
 8574SOL    HW137355   1.948   2.825   4.285  0.0412  1.6802  1.0927
 8574SOL    HW237356   1.926   2.974   4.264  1.2951  1.2140 -2.8069
 8575SOL     OW37357   0.886   4.387   4.560 -0.4629  0.2941  0.2477
 8575SOL    HW137358   0.875   4.329   4.485 -0.3435 -1.5250  1.6634
 8575SOL    HW237359   0.857   4.474   4.532 -2.1512 -0.8805 -1.6306
 8576SOL     OW37360   3.025   3.833  14.762 -0.2848 -0.1416 -0.2287
 8576SOL    HW137361   3.012   3.806  14.853 -0.8220  0.3390 -0.1596
 8576SOL    HW237362   3.120   3.832  14.754 -0.2624  0.1742  0.0329
 8577SOL     OW37363   1.304   3.249   3.389 -0.2030  0.0063 -0.0440
 8577SOL    HW137364   1.258   3.276   3.468 -0.4613  0.7642 -0.4563
 8577SOL    HW237365   1.397   3.253   3.413 -0.5767  1.2464  1.1648
 8578SOL     OW37366   4.628   1.169   8.142 -0.2481 -0.0310  0.3085
 8578SOL    HW137367   4.644   1.174   8.048 -0.6993  2.0681  0.3311
 8578SOL    HW237368   4.600   1.082   8.170  1.3082 -1.1983 -1.8019
 8579SOL     OW37369   4.418   4.365   6.628 -0.4033 -0.2369 -0.2786
 8579SOL    HW137370   4.470   4.340   6.552 -1.8711 -1.3612 -0.9093
 8579SOL    HW237371   4.494   4.395   6.679 -0.5767 -2.8177  1.4897
 8580SOL     OW37372   1.763   0.897  14.394  0.3533  0.1030 -0.0913
 8580SOL    HW137373   1.825   0.836  14.434 -1.8211 -1.3940  1.0281
 8580SOL    HW237374   1.802   0.981  14.418 -1.8039  0.9632  0.4330
 8581SOL     OW37375   2.206   3.595  17.275 -0.2203 -0.7608 -0.0310
 8581SOL    HW137376   2.202   3.567  17.366  0.8942  2.3327  0.9623
 8581SOL    HW237377   2.300   3.599  17.258 -0.9428  1.2144 -3.6278
 8582SOL     OW37378   3.322   4.446   6.077  0.1342 -0.5810  0.8697
 8582SOL    HW137379   3.389   4.473   6.139  1.0626  1.6940 -1.1305
 8582SOL    HW237380   3.264   4.399   6.137 -0.3090 -1.3437 -0.1484
 8583SOL     OW37381   1.024   4.333   5.647  0.0042 -0.4309  0.1083
 8583SOL    HW137382   1.078   4.332   5.726 -1.0852 -1.8651  0.8495
 8583SOL    HW237383   0.965   4.258   5.662  2.0892 -2.2200 -0.6441
 8584SOL     OW37384   3.943   0.612   2.245 -0.0857 -0.3529  0.4322
 8584SOL    HW137385   3.867   0.556   2.235  0.6103 -1.2781  0.3509
 8584SOL    HW237386   3.912   0.677   2.308  1.3218  2.8326 -2.1614
 8585SOL     OW37387   2.342   3.085  13.549 -0.0400  0.5568 -0.2109
 8585SOL    HW137388   2.392   3.135  13.614 -0.3665 -1.1651  1.3597
 8585SOL    HW237389   2.413   3.026  13.525 -1.0048 -1.2338  1.3604
 8586SOL     OW37390   2.054   3.911   5.600 -0.2931 -0.0733  0.0840
 8586SOL    HW137391   2.120   3.977   5.578  0.0169 -0.1623  0.7194
 8586SOL    HW237392   1.971   3.953   5.576  0.5619  1.8083  0.4252
 8587SOL     OW37393   1.105   1.122   2.261 -0.5522 -0.1358 -0.2250
 8587SOL    HW137394   1.116   1.217   2.266  0.0246 -0.4070  3.1273
 8587SOL    HW237395   1.076   1.108   2.170  0.8617  2.3587 -1.0535
 8588SOL     OW37396   4.443   0.211   7.733  0.3184  0.2738  0.0755
 8588SOL    HW137397   4.448   0.132   7.786 -0.1775 -2.3906 -3.8542
 8588SOL    HW237398   4.405   0.273   7.795  0.0919 -1.2779  1.4950
 8589SOL     OW37399   0.556   1.048   8.861 -0.4349  0.1911 -0.0211
 8589SOL    HW137400   0.508   1.128   8.840  0.5406  0.6551 -0.4940
 8589SOL    HW237401   0.504   1.011   8.932  0.0041  1.7556  1.1209
 8590SOL     OW37402   2.346   2.361   2.911 -0.2044 -0.1501  0.4900
 8590SOL    HW137403   2.400   2.433   2.877  1.5232 -0.8531  1.7536
 8590SOL    HW237404   2.350   2.375   3.006 -1.0355  0.3105  0.4576
 8591SOL     OW37405   0.044   1.137  11.766 -0.4390 -0.4423 -0.2681
 8591SOL    HW137406   0.034   1.177  11.853  1.6122  0.4635 -0.4455
 8591SOL    HW237407   0.019   1.046  11.783  0.3600 -0.8885 -1.4609
 8592SOL     OW37408   1.393   0.728   4.189  0.4426 -0.0351 -0.4441
 8592SOL    HW137409   1.331   0.660   4.215 -0.6471  1.7623  1.6638
 8592SOL    HW237410   1.456   0.686   4.131  0.9927 -0.3652  0.3855
 8593SOL     OW37411   4.043   0.046   8.469  0.8764  0.0862 -0.7969
 8593SOL    HW137412   3.967   0.104   8.478  0.2368 -1.0296  0.8152
 8593SOL    HW237413   4.098   0.091   8.405  0.6181  0.4873 -0.7387
 8594SOL     OW37414   2.874   2.480   7.421  0.6113 -0.2717  0.0602
 8594SOL    HW137415   2.875   2.512   7.331 -0.2998 -1.2119 -0.2842
 8594SOL    HW237416   2.822   2.551   7.459 -0.5707 -1.7965  1.2971
 8595SOL     OW37417   0.884   0.729   7.484  0.3680 -0.0803 -0.3733
 8595SOL    HW137418   0.867   0.823   7.483 -1.7254 -0.4436 -0.1579
 8595SOL    HW237419   0.941   0.719   7.560 -0.7091 -0.2100  0.4240
 8596SOL     OW37420   1.817   1.407   7.579  0.4989 -0.2520 -0.4162
 8596SOL    HW137421   1.830   1.406   7.484  0.6750  1.7625 -0.4176
 8596SOL    HW237422   1.869   1.482   7.606  0.4400 -0.2935 -0.1870
 8597SOL     OW37423   0.861   3.079  17.215 -0.1918 -0.5125 -0.3545
 8597SOL    HW137424   0.852   3.174  17.205  0.2295 -0.4278  0.0964
 8597SOL    HW237425   0.922   3.071  17.288  0.9407  0.5987 -1.1614
 8598SOL     OW37426   4.316   2.275  17.129 -0.3544 -0.2251 -0.6676
 8598SOL    HW137427   4.291   2.263  17.037  2.2892  0.0650 -1.4152
 8598SOL    HW237428   4.228   2.286  17.165 -1.2602 -1.6737 -2.3731
 8599SOL     OW37429   0.821   1.769   7.342  0.1185  0.6319 -0.3478
 8599SOL    HW137430   0.826   1.679   7.312 -0.8246  1.1955 -2.2095
 8599SOL    HW237431   0.781   1.763   7.429 -0.3374 -1.4916 -0.7075
 8600SOL     OW37432   3.033   2.307   8.147 -0.3255 -0.1166  0.8922
 8600SOL    HW137433   2.949   2.262   8.152 -0.8212  0.8104  0.8843
 8600SOL    HW237434   3.006   2.399   8.155  0.4942  0.1558  0.4820
 8601SOL     OW37435   4.447   2.281   3.814 -0.6728  0.9039 -0.0744
 8601SOL    HW137436   4.526   2.234   3.841 -1.5910 -0.5425  0.0699
 8601SOL    HW237437   4.425   2.222   3.742  0.1247 -0.2771  0.6599
 8602SOL     OW37438   4.329   4.604   2.874 -0.4645 -0.3221 -0.2868
 8602SOL    HW137439   4.414   4.566   2.850  1.3477  3.6324 -0.0842
 8602SOL    HW237440   4.287   4.536   2.927  0.1634  0.1804  0.8833
 8603SOL     OW37441   2.275   2.727   7.297 -0.4930 -0.1770 -0.6938
 8603SOL    HW137442   2.235   2.723   7.384 -0.2465  0.9026 -0.5312
 8603SOL    HW237443   2.204   2.724   7.233  0.3229  0.1829 -1.6110
 8604SOL     OW37444   2.302   2.280   7.224  0.1461  0.0738  0.1073
 8604SOL    HW137445   2.260   2.262   7.140  0.9588  1.6279 -0.6368
 8604SOL    HW237446   2.389   2.307   7.194  1.2520 -1.5492  1.8520
 8605SOL     OW37447   1.229   2.388   3.979 -0.0812 -0.0648 -0.3439
 8605SOL    HW137448   1.189   2.469   4.010 -0.4127  0.0215 -0.9947
 8605SOL    HW237449   1.155   2.332   4.005 -0.1091 -0.1165 -0.5383
 8606SOL     OW37450   2.406   0.513   4.143 -0.4255 -0.5558 -0.2289
 8606SOL    HW137451   2.340   0.519   4.074 -1.0532 -2.0741  0.2285
 8606SOL    HW237452   2.382   0.433   4.191 -1.7365 -0.1400 -0.2077
 8607SOL     OW37453   2.425   3.605   7.510  0.5712 -0.4192  0.3441
 8607SOL    HW137454   2.455   3.521   7.545 -1.0383 -0.8041  0.8275
 8607SOL    HW237455   2.488   3.613   7.439 -1.2369 -0.1870 -1.2387
 8608SOL     OW37456   2.359   1.739  16.556  0.2109 -0.3957  0.9515
 8608SOL    HW137457   2.405   1.808  16.604 -1.3703  0.3151  1.4565
 8608SOL    HW237458   2.359   1.770  16.466  4.0128  0.6754  1.3118
 8609SOL     OW37459   2.027   1.687   3.947  0.1119 -0.0783  0.1725
 8609SOL    HW137460   1.962   1.691   4.017  1.1213 -1.4111  1.1855
 8609SOL    HW237461   2.070   1.612   3.987  0.6706 -0.1933 -0.6479
 8610SOL     OW37462   3.392   0.996   9.628 -0.1231  0.2272 -0.1271
 8610SOL    HW137463   3.452   1.041   9.569  0.6941 -2.1524 -1.0971
 8610SOL    HW237464   3.434   0.912   9.644 -1.6270  0.2231  3.7915
 8611SOL     OW37465   1.798   0.532   8.192  0.5667  0.8951 -0.0681
 8611SOL    HW137466   1.767   0.617   8.162  0.7287  1.4068  1.2393
 8611SOL    HW237467   1.782   0.537   8.286 -0.4926  1.1013 -0.2667
 8612SOL     OW37468   4.288   2.017  13.018 -0.5783  0.9647  0.1084
 8612SOL    HW137469   4.196   2.026  12.993 -0.4067  0.2669 -0.7413
 8612SOL    HW237470   4.288   1.977  13.105  0.2240 -1.3651 -0.9661
 8613SOL     OW37471   4.695   2.435   9.021 -0.3680  0.3795  0.4316
 8613SOL    HW137472   0.006   2.514   9.053 -0.2251  0.7211 -0.6194
 8613SOL    HW237473   4.698   2.372   9.093  1.5380  1.8552  1.6348
 8614SOL     OW37474   4.134   2.898   4.571 -0.1274  0.0696  0.6016
 8614SOL    HW137475   4.230   2.907   4.574 -0.0156 -0.4421 -1.2011
 8614SOL    HW237476   4.110   2.932   4.484 -0.9307 -0.2394  0.7103
 8615SOL     OW37477   1.596   2.734  15.149  0.1143 -0.5118 -0.1150
 8615SOL    HW137478   1.653   2.803  15.183  1.3736 -1.0916 -1.0536
 8615SOL    HW237479   1.621   2.730  15.057  0.3079  1.6878 -0.1641
 8616SOL     OW37480   2.887   2.786   4.728 -0.0083 -0.1020 -0.0853
 8616SOL    HW137481   2.946   2.839   4.782  0.1240 -0.1641 -0.1704
 8616SOL    HW237482   2.820   2.853   4.712 -0.1018 -0.0942  0.3307
 8617SOL     OW37483   3.211   0.803  14.159 -0.0774 -0.4065  0.2609
 8617SOL    HW137484   3.182   0.879  14.211 -1.9730 -0.6894 -0.3650
 8617SOL    HW237485   3.133   0.778  14.108 -0.2945  1.2433 -0.2515
 8618SOL     OW37486   4.338   3.801   5.332 -0.0556  0.0047 -0.1291
 8618SOL    HW137487   4.420   3.799   5.381  0.8182 -0.9627 -1.6306
 8618SOL    HW237488   4.325   3.711   5.303 -0.7287 -0.5547  1.9375
 8619SOL     OW37489   4.666   0.945   6.731  0.4605  0.3552  0.8364
 8619SOL    HW137490   4.702   0.857   6.743  0.0456  0.1216  0.3399
 8619SOL    HW237491   4.580   0.918   6.701  0.9022  0.6885 -0.7073
 8620SOL     OW37492   3.889   2.606   7.783 -0.3668  0.5450  0.1217
 8620SOL    HW137493   3.980   2.589   7.758 -1.0810  1.2986 -3.0344
 8620SOL    HW237494   3.861   2.517   7.805 -0.0418  0.7303  1.2502
 8621SOL     OW37495   4.555   4.264   7.405 -0.5474 -0.7192 -0.3023
 8621SOL    HW137496   4.469   4.244   7.365 -2.1935  2.9833  1.4486
 8621SOL    HW237497   4.542   4.358   7.418  1.7518 -0.6000  0.9637
 8622SOL     OW37498   1.848   2.764   6.693  0.0681  0.7096 -0.3020
 8622SOL    HW137499   1.823   2.747   6.602 -1.3724  0.2587  0.1799
 8622SOL    HW237500   1.886   2.850   6.678  1.8746  0.2967  1.8688
 8623SOL     OW37501   2.936   2.117   5.345 -0.2773 -0.1401  0.6564
 8623SOL    HW137502   2.889   2.089   5.266  1.3989  1.5893 -0.9483
 8623SOL    HW237503   3.004   2.172   5.306 -0.5520 -0.5353 -0.3903
 8624SOL     OW37504   3.584   1.266   0.294 -0.3470  0.1705 -0.1592
 8624SOL    HW137505   3.505   1.217   0.316 -1.5568  1.2910 -1.9951
 8624SOL    HW237506   3.594   1.233   0.205 -1.9027 -1.8812  0.4290
 8625SOL     OW37507   4.683   3.066   2.336 -0.0183 -0.1400  0.1179
 8625SOL    HW137508   4.720   2.999   2.394 -0.2769 -0.0684  0.3642
 8625SOL    HW237509   4.628   3.015   2.277  1.2832 -1.3217 -0.0921
 8626SOL     OW37510   2.605   1.142   7.566 -0.1494  0.1908 -0.2965
 8626SOL    HW137511   2.512   1.124   7.584 -0.3290  2.5061  1.1512
 8626SOL    HW237512   2.609   1.230   7.530  1.6880 -1.2343 -3.5542
 8627SOL     OW37513   1.812   1.069   9.785 -0.6166 -0.4934 -0.0779
 8627SOL    HW137514   1.848   1.075   9.696 -1.8235  1.2185 -0.4701
 8627SOL    HW237515   1.884   1.093   9.843 -1.4916  1.1742  0.3212
 8628SOL     OW37516   0.935   2.568   7.380 -0.1605 -0.8880 -0.1156
 8628SOL    HW137517   0.861   2.510   7.398 -0.6057 -0.0656  0.6886
 8628SOL    HW237518   0.940   2.545   7.287  1.9201 -0.1864 -0.1689
 8629SOL     OW37519   0.657   2.878   8.590 -0.2960 -0.2802  0.2914
 8629SOL    HW137520   0.625   2.958   8.549 -0.3452 -0.0049  0.8729
 8629SOL    HW237521   0.593   2.810   8.569 -1.1559  0.3828  0.7624
 8630SOL     OW37522   2.576   2.345   4.702  0.0790  0.0161  0.4260
 8630SOL    HW137523   2.535   2.430   4.720  0.1589 -0.6126  3.4674
 8630SOL    HW237524   2.586   2.320   4.794  1.2194 -1.0732  0.0013
 8631SOL     OW37525   1.876   1.439   9.461 -0.0370  0.2603 -0.3705
 8631SOL    HW137526   1.811   1.496   9.421 -0.4802  1.0979  1.5155
 8631SOL    HW237527   1.957   1.482   9.433 -0.0670  1.2751  1.1024
 8632SOL     OW37528   2.069   4.246  13.170 -0.7179  0.0202 -0.5311
 8632SOL    HW137529   2.069   4.296  13.089  3.4859 -2.3549 -2.0036
 8632SOL    HW237530   2.040   4.304  13.240  0.1981 -0.1026 -0.0610
 8633SOL     OW37531   0.012   4.341   4.051  0.1196  0.2448  0.0333
 8633SOL    HW137532   0.001   4.247   4.040 -1.0561  0.6647 -2.2179
 8633SOL    HW237533   0.037   4.350   4.143  0.1912 -0.2219  0.0564
 8634SOL     OW37534   1.110   0.840   5.577  0.1520  0.1420 -0.0349
 8634SOL    HW137535   1.050   0.905   5.540 -0.7453 -0.8779 -0.3814
 8634SOL    HW237536   1.048   0.817   5.645  0.3248 -0.5638 -0.1163
 8635SOL     OW37537   2.445   2.073   5.955  1.1244 -0.1505 -0.6110
 8635SOL    HW137538   2.478   2.031   5.876  0.4797  0.4079 -1.1719
 8635SOL    HW237539   2.505   2.025   6.012 -1.1245  0.5119  2.3324
 8636SOL     OW37540   1.563   2.652  17.015 -0.3327 -0.2429  0.6293
 8636SOL    HW137541   1.573   2.747  17.028 -0.4599  0.0010 -0.9790
 8636SOL    HW237542   1.478   2.656  16.970  0.3492 -0.1823 -0.6490
 8637SOL     OW37543   0.798   1.794   6.261 -0.4430  0.4000 -0.0728
 8637SOL    HW137544   0.709   1.829   6.271 -0.5933  0.2708 -0.9603
 8637SOL    HW237545   0.833   1.838   6.184 -0.1234  1.0003  0.4236
 8638SOL     OW37546   1.658   0.602   3.760  0.1306 -0.0276  0.2302
 8638SOL    HW137547   1.739   0.654   3.760 -0.1811  0.4550 -0.5311
 8638SOL    HW237548   1.591   0.669   3.774 -0.4690 -1.2603  3.1721
 8639SOL     OW37549   0.721   3.117  13.978  0.2117  0.0078  0.1321
 8639SOL    HW137550   0.630   3.148  13.967 -0.4638 -0.7845  3.6181
 8639SOL    HW237551   0.716   3.023  13.963 -3.3184 -0.1046  1.9052
 8640SOL     OW37552   2.849   3.295  10.950 -0.3238 -0.4371  0.1032
 8640SOL    HW137553   2.912   3.338  11.009  0.3776  0.9433 -1.6410
 8640SOL    HW237554   2.816   3.231  11.013 -1.6208 -0.3724 -0.5186
 8641SOL     OW37555   3.116   0.379   9.333 -0.0011  0.5684  0.6998
 8641SOL    HW137556   3.155   0.355   9.417 -0.5272 -2.3994  0.0982
 8641SOL    HW237557   3.026   0.381   9.364 -0.3307 -0.3144 -0.1915
 8642SOL     OW37558   1.774   3.416   5.264  0.1931 -0.3818 -0.3719
 8642SOL    HW137559   1.754   3.407   5.357  1.5178 -3.0099 -0.3391
 8642SOL    HW237560   1.807   3.329   5.242  1.8824  0.9820 -3.3349
 8643SOL     OW37561   4.703   2.678   7.686 -0.0140 -0.2416  0.1031
 8643SOL    HW137562   0.020   2.724   7.619 -0.2919 -1.2866 -0.8350
 8643SOL    HW237563   4.663   2.603   7.642  0.9331 -0.1170 -0.9804
 8644SOL     OW37564   1.722   3.184  14.165 -0.0161 -0.2772  0.0456
 8644SOL    HW137565   1.680   3.108  14.124  0.2928 -0.6468  0.4146
 8644SOL    HW237566   1.813   3.171  14.139 -0.0929 -1.3634  0.3102
 8645SOL     OW37567   4.202   3.667   8.054 -0.3282 -0.6342 -0.0109
 8645SOL    HW137568   4.162   3.732   8.111  0.2650 -1.0155  0.8346
 8645SOL    HW237569   4.130   3.645   7.995  0.4371 -0.8735 -0.8585
 8646SOL     OW37570   2.897   3.409  12.487  0.5293  0.1626  0.6458
 8646SOL    HW137571   2.811   3.392  12.526  0.2422 -0.8508 -0.4319
 8646SOL    HW237572   2.959   3.376  12.552  1.2249  0.9034  0.3592
 8647SOL     OW37573   2.238   3.478   7.929 -0.0463 -0.6150  0.0415
 8647SOL    HW137574   2.162   3.535   7.940  1.2376  0.6435  2.6517
 8647SOL    HW237575   2.282   3.509   7.849 -0.5003 -0.1730 -0.0362
 8648SOL     OW37576   4.712   1.837  14.480 -0.1773  0.3370  0.4371
 8648SOL    HW137577   4.667   1.917  14.453  0.3619  0.6252  0.3736
 8648SOL    HW237578   4.646   1.769  14.469  0.5881 -0.3506  0.0408
 8649SOL     OW37579   3.092   3.677   8.220  0.5162 -1.0216 -0.1672
 8649SOL    HW137580   3.026   3.608   8.232 -0.9323  0.7941  2.2301
 8649SOL    HW237581   3.073   3.737   8.292 -0.2288 -0.1812 -1.0614
 8650SOL     OW37582   2.147   2.309  14.255 -1.0685 -0.5571  0.2247
 8650SOL    HW137583   2.119   2.276  14.170  1.6819  0.2366 -0.9897
 8650SOL    HW237584   2.089   2.263  14.316 -0.1693 -0.2419  1.3217
 8651SOL     OW37585   0.253   3.740   6.186 -0.4921 -0.1137  0.2492
 8651SOL    HW137586   0.300   3.704   6.261 -1.1909 -1.8967 -0.1757
 8651SOL    HW237587   0.254   3.666   6.126  1.6882  0.6441 -0.6393
 8652SOL     OW37588   1.772   4.032  17.676  0.1635  0.8090 -0.2271
 8652SOL    HW137589   1.807   3.943  17.670 -1.4742  0.1383  0.4567
 8652SOL    HW237590   1.715   4.021  17.600  3.8706  1.4395 -3.1135
 8653SOL     OW37591   1.531   4.625   4.541  0.5730 -0.0899 -0.0892
 8653SOL    HW137592   1.586   4.669   4.606 -0.6655  1.2587  0.0527
 8653SOL    HW237593   1.526   4.680   4.462 -1.6896 -2.0938 -1.3425
 8654SOL     OW37594   0.867   0.575   6.399 -0.1545  0.0948  0.0215
 8654SOL    HW137595   0.850   0.519   6.323 -0.7418  0.2718  0.0271
 8654SOL    HW237596   0.784   0.584   6.445 -0.4128 -0.3245 -0.3594
 8655SOL     OW37597   1.188   3.341   9.443  0.8409 -0.0209  0.1604
 8655SOL    HW137598   1.119   3.351   9.377  0.8723 -0.4077  0.0708
 8655SOL    HW237599   1.262   3.378   9.396  0.2779  0.5775 -0.2623
 8656SOL     OW37600   2.859   0.397   6.924 -0.7785  0.4720 -0.3507
 8656SOL    HW137601   2.936   0.376   6.976 -1.6102 -1.7474 -0.0430
 8656SOL    HW237602   2.897   0.442   6.848 -0.9541 -0.9218 -1.2573
 8657SOL     OW37603   1.926   1.879  12.721  0.4423  0.2359 -0.5750
 8657SOL    HW137604   1.989   1.851  12.788 -1.2718 -4.1521 -0.7827
 8657SOL    HW237605   1.940   1.974  12.725 -0.7227  0.4940 -2.6787
 8658SOL     OW37606   3.080   0.660  14.384  0.5171 -0.2424  0.0547
 8658SOL    HW137607   3.172   0.674  14.359 -0.0703  2.1095 -0.7586
 8658SOL    HW237608   3.084   0.566  14.398  2.2098 -0.4931 -2.0348
 8659SOL     OW37609   3.959   1.428   7.134  0.0982  0.1683  0.0397
 8659SOL    HW137610   3.959   1.395   7.224  0.7322  3.3103  1.2131
 8659SOL    HW237611   4.052   1.450   7.124 -0.3648  2.0557 -0.0742
 8660SOL     OW37612   1.569   3.270   3.448  0.3811  0.4341 -0.0951
 8660SOL    HW137613   1.628   3.320   3.504  0.9905 -0.8038  0.3525
 8660SOL    HW237614   1.606   3.275   3.360  2.4525  2.0471  0.8532
 8661SOL     OW37615   1.090   2.865   7.331 -0.1581  0.6024 -0.1568
 8661SOL    HW137616   1.004   2.889   7.295 -0.7773 -0.6390  0.5056
 8661SOL    HW237617   1.060   2.838   7.418  1.2317  0.0881  0.1466
 8662SOL     OW37618   1.822   2.873   8.948  0.5269 -0.1074  0.3235
 8662SOL    HW137619   1.879   2.898   9.021 -0.0417  2.2323 -0.0216
 8662SOL    HW237620   1.879   2.894   8.874 -0.0316 -2.4710 -0.7632
 8663SOL     OW37621   3.816   3.670   3.778  0.0520  0.6844  0.1834
 8663SOL    HW137622   3.848   3.750   3.820 -0.4074  1.4974 -1.0279
 8663SOL    HW237623   3.758   3.639   3.848  0.6968 -2.6103 -0.7323
 8664SOL     OW37624   0.730   1.580   1.523  0.6472 -0.4124  0.6118
 8664SOL    HW137625   0.684   1.531   1.455  1.9972 -0.1610 -0.4773
 8664SOL    HW237626   0.736   1.661   1.473 -1.6264  0.1442  1.2370
 8665SOL     OW37627   4.591   0.422  10.489  0.1297  0.1671 -0.4312
 8665SOL    HW137628   4.552   0.481  10.425 -3.4698 -0.9280  0.7352
 8665SOL    HW237629   4.683   0.413  10.462 -0.2278 -2.0586 -0.8731
 8666SOL     OW37630   4.069   3.238   8.904 -0.5890  0.1619 -0.4855
 8666SOL    HW137631   4.121   3.160   8.882  1.1216  1.1879 -0.0481
 8666SOL    HW237632   4.005   3.230   8.833  0.3670  0.6830 -1.4095
 8667SOL     OW37633   2.457   3.122   6.677 -0.1413 -0.3386 -0.7754
 8667SOL    HW137634   2.418   3.144   6.593  1.5677 -0.0850 -1.5062
 8667SOL    HW237635   2.536   3.087   6.635 -0.4550  1.2205 -2.6862
 8668SOL     OW37636   1.168   1.798   1.697 -1.1148  0.2880 -0.5468
 8668SOL    HW137637   1.212   1.793   1.782 -1.6551  0.6247 -0.2495
 8668SOL    HW237638   1.094   1.852   1.724 -0.2322  0.7180  1.0625
 8669SOL     OW37639   2.248   2.421   9.804  0.2340 -0.4014  0.4731
 8669SOL    HW137640   2.334   2.458   9.827  0.3296  0.5212 -1.3696
 8669SOL    HW237641   2.190   2.493   9.828 -0.1142 -0.2199 -0.8991
 8670SOL     OW37642   4.086   2.145   8.866  0.4924  0.4412  0.4297
 8670SOL    HW137643   4.009   2.128   8.920  1.3095  0.4892  1.6034
 8670SOL    HW237644   4.160   2.118   8.921 -1.2403  1.1177  3.0725
 8671SOL     OW37645   0.204   2.697   7.834  0.2268 -0.3948  0.1772
 8671SOL    HW137646   0.274   2.667   7.776 -0.4020  2.3011 -1.9560
 8671SOL    HW237647   0.128   2.670   7.782  1.8763 -2.7481 -1.0232
 8672SOL     OW37648   4.470   3.229   2.636  0.3562  0.6180  0.4346
 8672SOL    HW137649   4.464   3.134   2.628  0.1540  0.5983  0.8129
 8672SOL    HW237650   4.397   3.244   2.695  0.8840 -1.9565  1.7098
 8673SOL     OW37651   4.670   0.784  13.290 -0.2831 -0.4219 -0.1625
 8673SOL    HW137652   4.670   0.780  13.386 -0.2919  1.7825 -0.0709
 8673SOL    HW237653   4.731   0.714  13.269  0.2380 -0.1092  0.2926
 8674SOL     OW37654   1.845   2.465   8.323 -0.7284 -0.2908 -0.2072
 8674SOL    HW137655   1.875   2.401   8.388  0.1267 -1.9554 -2.2524
 8674SOL    HW237656   1.750   2.461   8.316 -0.6083 -2.8844 -0.4673
 8675SOL     OW37657   1.516   1.854   1.542  0.8888  0.1064 -0.1548
 8675SOL    HW137658   1.474   1.831   1.458  1.2036  0.9537 -0.5427
 8675SOL    HW237659   1.441   1.849   1.601 -0.3518 -1.6475 -1.8457
 8676SOL     OW37660   1.999   1.528  15.375 -0.4847  0.7037  0.0993
 8676SOL    HW137661   2.067   1.574  15.425 -2.2378 -0.3758  3.5232
 8676SOL    HW237662   1.932   1.509  15.441  0.4033 -1.5105  0.3582
 8677SOL     OW37663   0.589   3.347  16.971 -0.0265 -0.2762 -0.0636
 8677SOL    HW137664   0.576   3.424  17.027 -1.0253 -1.7416  1.7703
 8677SOL    HW237665   0.576   3.273  17.031 -1.9136 -0.5743 -0.8245
 8678SOL     OW37666   4.435   0.776   0.089 -0.1793  0.4572  0.0981
 8678SOL    HW137667   4.340   0.778   0.076 -0.3745 -0.0445  1.4588
 8678SOL    HW237668   4.471   0.756   0.002 -2.3888  1.2313 -1.0087
 8679SOL     OW37669   2.216   4.495   7.144 -0.0359 -0.2682  0.4677
 8679SOL    HW137670   2.159   4.497   7.221  1.3393  1.0975  1.4459
 8679SOL    HW237671   2.204   4.402   7.124  0.8856 -0.5150  1.0979
 8680SOL     OW37672   3.903   4.643  11.811  0.5354 -0.0175 -0.2232
 8680SOL    HW137673   3.889   4.665  11.904  1.2638 -2.3357  0.4494
 8680SOL    HW237674   3.905   0.002  11.786 -2.4762  0.7066  2.1598
 8681SOL     OW37675   0.134   1.904   0.715 -0.2069  0.0037  0.2428
 8681SOL    HW137676   0.109   1.836   0.653  1.1259 -0.0476 -0.2364
 8681SOL    HW237677   0.203   1.865   0.769  0.2251 -0.1669 -0.4242
 8682SOL     OW37678   3.345   0.083  13.698  0.2673 -0.0126  0.3540
 8682SOL    HW137679   3.287   0.056  13.627 -0.2336  2.6458 -0.2385
 8682SOL    HW237680   3.378   0.166  13.664  0.7956 -0.7007 -0.7818
 8683SOL     OW37681   4.282   0.051   9.629 -0.2251 -0.4171 -0.7323
 8683SOL    HW137682   4.328   0.033   9.547  1.0821 -0.6484  0.0470
 8683SOL    HW237683   4.192   0.037   9.599  0.2294 -0.2122 -2.2319
 8684SOL     OW37684   0.546   0.572  12.393  0.2454 -0.6435 -0.4303
 8684SOL    HW137685   0.571   0.662  12.411 -0.4393 -0.9359  2.0130
 8684SOL    HW237686   0.550   0.572  12.297 -0.5577  0.7144 -0.4593
 8685SOL     OW37687   3.957   2.191   4.978  0.0020 -0.1540 -0.1157
 8685SOL    HW137688   3.925   2.256   4.916  2.0022 -1.8964 -3.0294
 8685SOL    HW237689   3.931   2.115   4.925 -0.5453 -0.8379  1.1403
 8686SOL     OW37690   1.208   3.838   4.121 -0.1364  0.3568 -0.0939
 8686SOL    HW137691   1.299   3.845   4.151  0.5253 -2.7114 -1.2976
 8686SOL    HW237692   1.160   3.826   4.202 -1.3751 -2.5082 -1.2429
 8687SOL     OW37693   1.819   0.082  10.428  0.1974  0.6311  0.7233
 8687SOL    HW137694   1.913   0.080  10.446  0.3894 -0.0520 -0.4016
 8687SOL    HW237695   1.815   0.045  10.340  2.1095 -2.5484  2.0085
 8688SOL     OW37696   2.913   3.044   6.532  0.4272  1.1997 -0.3401
 8688SOL    HW137697   2.956   2.967   6.570  0.3742  0.2151 -2.2349
 8688SOL    HW237698   2.940   3.107   6.599 -1.1193  0.0387  1.3388
 8689SOL     OW37699   2.056   2.622   6.575 -0.1601  0.1645  0.0386
 8689SOL    HW137700   2.011   2.595   6.656 -1.9577  0.3014 -0.9012
 8689SOL    HW237701   2.017   2.709   6.564 -0.8935 -0.7461 -4.5114
 8690SOL     OW37702   2.830   0.182   8.240 -0.1632 -0.4735  0.1309
 8690SOL    HW137703   2.779   0.254   8.276  1.1375 -0.0698  1.1725
 8690SOL    HW237704   2.767   0.110   8.237 -1.5742  0.7723  0.1982
 8691SOL     OW37705   1.234   0.498   4.170 -0.6161 -0.1352  0.5727
 8691SOL    HW137706   1.151   0.531   4.135 -1.3495 -1.6976  0.8570
 8691SOL    HW237707   1.265   0.438   4.103 -0.6998  0.2703  0.1696
 8692SOL     OW37708   3.183   0.775   1.866 -0.2199  0.2062  0.2690
 8692SOL    HW137709   3.202   0.755   1.774  0.8994  1.7327  0.1606
 8692SOL    HW237710   3.268   0.816   1.886 -0.1236 -0.1978  0.6733
 8693SOL     OW37711   3.398   0.272   9.041  0.3045  0.1969 -0.1434
 8693SOL    HW137712   3.347   0.236   9.114  1.2226 -1.2151 -0.2090
 8693SOL    HW237713   3.390   0.366   9.055  0.4974 -0.1333  2.3095
 8694SOL     OW37714   0.715   4.487   2.720 -0.0328  0.0319 -0.0074
 8694SOL    HW137715   0.785   4.460   2.781 -0.4937  1.0455  0.9659
 8694SOL    HW237716   0.679   4.399   2.709 -2.7898  0.8152  2.7421
 8695SOL     OW37717   3.491   0.732   7.422  0.5297  0.2993  0.2201
 8695SOL    HW137718   3.522   0.741   7.332 -1.8942 -2.3106 -0.8628
 8695SOL    HW237719   3.484   0.637   7.427 -2.0209  0.6046  2.2546
 8696SOL     OW37720   3.546   1.938   5.484 -0.3402 -0.3335  0.1040
 8696SOL    HW137721   3.516   1.981   5.404  3.1187 -0.4380 -1.2359
 8696SOL    HW237722   3.561   2.010   5.545  3.1865 -1.5358  0.6458
 8697SOL     OW37723   2.285   4.393   4.755  0.7194  0.6540 -0.3161
 8697SOL    HW137724   2.306   4.474   4.801  0.2136  0.2449  0.6389
 8697SOL    HW237725   2.273   4.329   4.825  2.7787 -0.3539 -0.8931
 8698SOL     OW37726   0.602   4.575   5.818 -0.1086 -0.2570 -0.4203
 8698SOL    HW137727   0.695   4.591   5.802 -0.1147  0.6993  0.5486
 8698SOL    HW237728   0.581   4.651   5.872  0.6224 -0.5523  0.2821
 8699SOL     OW37729   3.088   3.152   5.187  0.3314  0.1535  0.4286
 8699SOL    HW137730   3.052   3.212   5.122  0.2222  2.0706  2.2505
 8699SOL    HW237731   3.066   3.207   5.262  0.5689 -1.7374  1.8807
 8700SOL     OW37732   4.022   4.246   1.324 -0.1568  0.1034  0.1318
 8700SOL    HW137733   3.947   4.305   1.320  1.5148  2.2064 -1.0016
 8700SOL    HW237734   3.976   4.165   1.303 -2.7326  1.2758  1.2977
 8701SOL     OW37735   1.942   0.994   2.478  0.7707 -0.3470  0.1210
 8701SOL    HW137736   2.023   0.947   2.457  0.7413 -0.0082 -0.7514
 8701SOL    HW237737   1.882   0.957   2.414  2.2239  0.0776 -1.4951
 8702SOL     OW37738   1.496   3.161  17.547  0.0571  0.5069 -0.7436
 8702SOL    HW137739   1.412   3.160  17.593 -0.6349 -0.1107 -2.0335
 8702SOL    HW237740   1.513   3.255  17.546  0.7745  0.4139  1.5216
 8703SOL     OW37741   1.112   1.727   6.633 -0.2852 -0.3200  0.3789
 8703SOL    HW137742   1.022   1.723   6.600 -0.1008  0.6369 -0.2536
 8703SOL    HW237743   1.112   1.821   6.651 -0.7783  0.0417 -1.4844
 8704SOL     OW37744   1.310   4.324   6.125  0.3282  0.3246  0.1956
 8704SOL    HW137745   1.390   4.377   6.134  0.7308 -0.7164  2.6948
 8704SOL    HW237746   1.338   4.233   6.118 -0.1486  0.1760  0.2292
 8705SOL     OW37747   2.121   0.861   5.721  0.0991  0.2536  0.6088
 8705SOL    HW137748   2.196   0.918   5.737 -0.2235  0.6012  0.8994
 8705SOL    HW237749   2.051   0.923   5.698  1.0905  1.5807  1.1973
 8706SOL     OW37750   1.491   2.647   6.748  0.2996 -0.3118 -0.2569
 8706SOL    HW137751   1.497   2.672   6.840 -1.1699 -2.0094  0.3155
 8706SOL    HW237752   1.471   2.731   6.705  2.6445  0.7190  0.6944
 8707SOL     OW37753   1.451   2.133  17.355 -0.3619  0.2983 -0.3850
 8707SOL    HW137754   1.540   2.109  17.377  0.9138  3.2115 -2.3426
 8707SOL    HW237755   1.465   2.200  17.288 -0.5619  0.7158 -0.0112
 8708SOL     OW37756   3.817   3.001   8.395 -0.5632  0.5736  0.7654
 8708SOL    HW137757   3.843   2.931   8.335 -1.3109  0.3911  0.6568
 8708SOL    HW237758   3.723   2.986   8.404 -0.4925 -0.6469 -0.5048
 8709SOL     OW37759   4.115   3.696   9.230  0.2565 -0.3931  0.3409
 8709SOL    HW137760   4.177   3.737   9.170  1.9149 -0.1132  2.2442
 8709SOL    HW237761   4.167   3.628   9.273 -1.3669 -1.6423  0.3334
 8710SOL     OW37762   4.226   3.453   7.087  0.3756  0.5063  0.1689
 8710SOL    HW137763   4.198   3.517   7.021 -1.2353 -1.0820 -0.6988
 8710SOL    HW237764   4.206   3.504   7.166 -5.8854 -1.4245 -0.1627
 8711SOL     OW37765   0.619   0.584  12.129  0.0684  0.0494  0.4499
 8711SOL    HW137766   0.712   0.576  12.112  0.0271 -0.2337  0.3560
 8711SOL    HW237767   0.584   0.514  12.074 -0.9899 -1.1136  2.5734
 8712SOL     OW37768   0.405   2.038   5.593  0.3811 -0.1529  0.0244
 8712SOL    HW137769   0.493   2.027   5.628 -0.0191 -0.6487  0.8899
 8712SOL    HW237770   0.405   1.956   5.544 -1.8866 -1.3355  1.9780
 8713SOL     OW37771   2.700   3.742   4.070 -0.1847 -0.2028 -0.2327
 8713SOL    HW137772   2.659   3.813   4.022 -0.0749 -0.1551 -0.2572
 8713SOL    HW237773   2.627   3.727   4.130  0.9514  0.3722  1.3254
 8714SOL     OW37774   3.816   3.514   9.004  0.1411  0.3464  0.3585
 8714SOL    HW137775   3.864   3.493   9.084  0.5501  1.6582  0.4499
 8714SOL    HW237776   3.725   3.524   9.031  0.2551 -0.1277  0.9282
 8715SOL     OW37777   1.601   4.415   9.580  0.0322 -0.0984 -0.6088
 8715SOL    HW137778   1.559   4.350   9.636  0.2409  1.1854  1.0463
 8715SOL    HW237779   1.672   4.363   9.544  3.1904  3.5147  0.3665
 8716SOL     OW37780   0.877   4.505  16.399  0.1335 -0.3054 -0.1365
 8716SOL    HW137781   0.830   4.586  16.419 -1.7530 -1.1057 -1.2423
 8716SOL    HW237782   0.900   4.471  16.485 -0.7941  0.7045  0.5227
 8717SOL     OW37783   2.673   4.516  15.241 -1.0155 -0.4714  0.3142
 8717SOL    HW137784   2.687   4.574  15.166  0.9124 -1.1584  0.1302
 8717SOL    HW237785   2.661   4.434  15.193 -2.4198 -0.9166  1.4344
 8718SOL     OW37786   2.778   2.076   4.022  0.2125  0.6320 -0.1963
 8718SOL    HW137787   2.737   2.127   3.952  1.1150  0.7118 -0.6797
 8718SOL    HW237788   2.723   2.097   4.097 -1.0380 -1.5637 -0.5218
 8719SOL     OW37789   3.321   2.604   2.097 -0.2624 -0.5358  0.1862
 8719SOL    HW137790   3.242   2.651   2.124 -2.0210 -2.3697 -1.7181
 8719SOL    HW237791   3.394   2.653   2.134  0.0388 -1.1661  0.4316
 8720SOL     OW37792   2.033   2.819  12.301  0.2960 -1.0308  0.3669
 8720SOL    HW137793   1.950   2.839  12.344  0.3773  2.7963 -1.2543
 8720SOL    HW237794   2.087   2.868  12.363 -0.5246  1.5633 -0.9285
 8721SOL     OW37795   4.701   3.536   3.748  0.8962 -0.4572 -0.1119
 8721SOL    HW137796   4.723   3.528   3.655  0.5103 -2.0790 -0.0696
 8721SOL    HW237797   4.627   3.476   3.756 -1.0223  1.5848 -2.7575
 8722SOL     OW37798   2.137   4.048   6.319  0.3608  0.2015  0.6260
 8722SOL    HW137799   2.072   3.996   6.272  1.3758  0.4987 -1.1088
 8722SOL    HW237800   2.155   3.992   6.394 -0.0248 -0.1403  0.4570
 8723SOL     OW37801   4.663   1.618   8.724  0.2125 -0.0636 -0.6455
 8723SOL    HW137802   4.704   1.543   8.680  0.5034  0.0495 -0.5608
 8723SOL    HW237803   4.596   1.634   8.657  0.6977  0.1672 -1.0705
 8724SOL     OW37804   3.732   2.166   3.226  0.2415 -0.3504 -0.4422
 8724SOL    HW137805   3.698   2.135   3.142  0.1753  0.4931 -0.7192
 8724SOL    HW237806   3.677   2.114   3.285 -1.3387  0.2775 -1.3347
 8725SOL     OW37807   4.559   0.375   1.385  0.4460  0.5392 -0.5902
 8725SOL    HW137808   4.510   0.433   1.327  0.1998  0.9729  0.0474
 8725SOL    HW237809   4.650   0.381   1.354  0.8537 -3.1267 -0.1297
 8726SOL     OW37810   2.875   0.234  13.862  0.3310  0.2844 -0.2813
 8726SOL    HW137811   2.847   0.149  13.828 -0.6023  0.1654  0.7752
 8726SOL    HW237812   2.913   0.263  13.779 -0.9538 -0.2437 -1.0505
 8727SOL     OW37813   3.755   0.911   9.931 -0.6530 -0.0299  0.6183
 8727SOL    HW137814   3.684   0.967   9.962 -0.5240 -0.0213  0.8988
 8727SOL    HW237815   3.834   0.967   9.936  1.1101 -2.6098  1.6139
 8728SOL     OW37816   2.139   1.627   4.316 -0.0071 -0.0004  0.5578
 8728SOL    HW137817   2.045   1.623   4.331  0.1605 -1.2427  1.3481
 8728SOL    HW237818   2.147   1.707   4.265  2.0647 -0.6551 -0.1715
 8729SOL     OW37819   1.781   0.988  17.367 -0.1379 -0.4964 -0.1013
 8729SOL    HW137820   1.788   0.916  17.430 -0.7807  0.2810  0.8612
 8729SOL    HW237821   1.713   0.943  17.318 -0.3085 -0.4651  0.1025
 8730SOL     OW37822   3.490   0.443  17.637 -0.0964 -0.3396  0.3604
 8730SOL    HW137823   3.477   0.387  17.714 -2.1475  0.6103  0.7051
 8730SOL    HW237824   3.532   0.518  17.679 -0.9698 -0.7713  2.0136
 8731SOL     OW37825   0.167   2.237  13.784 -0.0646 -1.1443  0.0206
 8731SOL    HW137826   0.141   2.179  13.712 -0.4881  0.1844 -0.9007
 8731SOL    HW237827   0.083   2.248  13.828  0.2499  0.1733  0.2734
 8732SOL     OW37828   0.619   1.925   2.819  0.4000  0.7359 -0.0829
 8732SOL    HW137829   0.538   1.972   2.803  0.0587 -0.0586 -0.6493
 8732SOL    HW237830   0.679   1.995   2.791  0.0112  0.5951 -1.2272
 8733SOL     OW37831   1.491   1.318   2.982  0.2656 -0.3359 -0.6383
 8733SOL    HW137832   1.531   1.351   3.063 -0.2385 -0.3704 -0.3770
 8733SOL    HW237833   1.484   1.396   2.928  1.4683  0.2332  0.0157
 8734SOL     OW37834   2.621   2.688   1.551 -0.4883 -0.3020 -0.4348
 8734SOL    HW137835   2.548   2.702   1.492  0.0063  1.7888 -0.5381
 8734SOL    HW237836   2.697   2.699   1.494 -1.9432  2.5674 -1.7989
 8735SOL     OW37837   1.873   1.819   2.224 -0.0905  0.3227  0.0855
 8735SOL    HW137838   1.842   1.904   2.256  1.6327  0.5817  1.1380
 8735SOL    HW237839   1.962   1.836   2.255 -0.0746 -1.0729  0.8102
 8736SOL     OW37840   2.039   3.866  17.326  0.5830 -0.2541 -0.1396
 8736SOL    HW137841   2.074   3.795  17.272  0.1951  0.8289 -1.7948
 8736SOL    HW237842   2.118   3.903  17.365 -0.4399  1.6302  0.1379
 8737SOL     OW37843   2.551   4.635   1.545  0.3252  0.5806  0.1867
 8737SOL    HW137844   2.547   4.570   1.474 -0.5703 -0.5633  1.2926
 8737SOL    HW237845   2.532   4.572   1.614 -0.9401  1.0138  0.2381
 8738SOL     OW37846   3.829   1.443  12.651  0.4019  0.3295  0.4402
 8738SOL    HW137847   3.867   1.459  12.738 -1.8203  0.4088  1.4042
 8738SOL    HW237848   3.803   1.535  12.641 -2.3242 -0.4139  0.7146
 8739SOL     OW37849   2.986   1.298   3.544  0.0330 -0.3502  0.4940
 8739SOL    HW137850   2.918   1.231   3.553 -2.8388  2.9112  3.2853
 8739SOL    HW237851   3.028   1.300   3.630 -2.7289 -0.0855  1.8348
 8740SOL     OW37852   3.686   3.533   5.817 -1.0833 -0.4781 -0.0341
 8740SOL    HW137853   3.775   3.547   5.851 -0.9659 -0.1082 -0.5041
 8740SOL    HW237854   3.665   3.441   5.832  0.0475  0.0827  5.1498
 8741SOL     OW37855   0.110   1.582   9.258  0.0937  0.0544  0.2036
 8741SOL    HW137856   0.082   1.499   9.218  0.0824  0.3620 -0.4341
 8741SOL    HW237857   0.094   1.565   9.351 -2.2357 -0.8555 -0.3620
 8742SOL     OW37858   4.033   3.376   7.654 -0.3966  0.1786  0.7716
 8742SOL    HW137859   4.122   3.403   7.678 -0.0186 -1.5277  1.2835
 8742SOL    HW237860   3.996   3.363   7.741  0.4731  1.3873  1.3216
 8743SOL     OW37861   1.626   3.040   4.072 -0.3380 -0.1753 -0.2809
 8743SOL    HW137862   1.634   3.057   4.165 -1.2238 -2.6233  0.2692
 8743SOL    HW237863   1.553   2.978   4.078 -2.3029  2.0174 -1.6578
 8744SOL     OW37864   4.715   3.202   3.307  1.0081 -0.3460 -0.4566
 8744SOL    HW137865   0.063   3.156   3.291  1.2467  0.8585 -2.7047
 8744SOL    HW237866   4.717   3.210   3.402 -0.1673  2.2048 -0.6416
 8745SOL     OW37867   1.277   2.919   2.000  0.1815 -0.1104  0.1467
 8745SOL    HW137868   1.228   2.908   2.081 -0.0634 -1.9209 -0.2389
 8745SOL    HW237869   1.259   2.833   1.960 -0.2128 -0.3553  0.8550
 8746SOL     OW37870   2.885   3.515  12.821 -0.0823 -0.9409  0.0089
 8746SOL    HW137871   2.952   3.450  12.803  1.3400  0.8361 -1.0566
 8746SOL    HW237872   2.913   3.550  12.906 -1.6355 -0.5824  0.3761
 8747SOL     OW37873   0.421   0.912  11.471 -0.0325 -0.2087 -0.0593
 8747SOL    HW137874   0.416   0.840  11.534 -0.5281  0.6592  0.8806
 8747SOL    HW237875   0.336   0.951  11.492 -0.1957  0.1794 -1.4347
 8748SOL     OW37876   3.532   0.604   3.125  0.0867 -0.1833  0.5788
 8748SOL    HW137877   3.544   0.683   3.178  2.7059 -0.8073  0.8954
 8748SOL    HW237878   3.454   0.637   3.080  1.6177  2.3718 -0.1825
 8749SOL     OW37879   2.166   1.985   7.207  0.2006 -0.2817  0.0633
 8749SOL    HW137880   2.176   2.029   7.123 -0.3252 -2.4524 -1.1252
 8749SOL    HW237881   2.257   1.964   7.228  1.1281  3.1846 -0.5182
 8750SOL     OW37882   3.606   2.650   8.257 -0.1325  0.3684 -0.0746
 8750SOL    HW137883   3.615   2.562   8.222  0.2338 -0.5850  2.4254
 8750SOL    HW237884   3.686   2.651   8.310 -0.5126 -2.2056  0.5507
 8751SOL     OW37885   1.255   1.894   4.440 -0.2447  0.0357 -0.5475
 8751SOL    HW137886   1.175   1.852   4.472  0.3312 -0.0553  0.7717
 8751SOL    HW237887   1.245   1.976   4.489  2.1669  0.7144 -1.1885
 8752SOL     OW37888   1.746   1.061   6.446 -0.2360  0.2478 -0.1136
 8752SOL    HW137889   1.793   0.978   6.455  0.2199  0.4700 -0.4439
 8752SOL    HW237890   1.659   1.033   6.415 -0.2170 -2.3960  2.2862
 8753SOL     OW37891   2.299   1.179  11.962 -0.2159 -0.0049 -0.4607
 8753SOL    HW137892   2.288   1.230  11.882  2.8485  1.1283 -0.1605
 8753SOL    HW237893   2.288   1.242  12.034  0.6493 -1.4583  0.9581
 8754SOL     OW37894   2.199   0.985  17.332  0.8379  0.1463  0.1783
 8754SOL    HW137895   2.282   0.954  17.367  0.1818 -0.8287  0.8760
 8754SOL    HW237896   2.163   0.904  17.296  0.1796  1.0702 -1.2447
 8755SOL     OW37897   1.836   0.351   7.328  0.1694 -0.8819 -0.7699
 8755SOL    HW137898   1.891   0.418   7.288  2.0513 -1.0540  1.4859
 8755SOL    HW237899   1.774   0.339   7.257 -0.8159  1.2194 -0.2611
 8756SOL     OW37900   1.134   3.503   3.792 -0.2215  1.0930 -0.3979
 8756SOL    HW137901   1.051   3.490   3.748 -0.5679  2.5665 -0.1839
 8756SOL    HW237902   1.123   3.587   3.837  1.3463  1.2016 -0.1977
 8757SOL     OW37903   4.689   0.838   8.297 -0.4609  0.0376  0.1050
 8757SOL    HW137904   4.719   0.758   8.255 -2.7576 -1.1328  0.6327
 8757SOL    HW237905   4.637   0.810   8.373 -0.1277  0.7909  0.6168
 8758SOL     OW37906   0.577   4.575  15.802  0.3927  0.3272 -0.2962
 8758SOL    HW137907   0.484   4.574  15.779  0.7630 -0.0490 -1.7865
 8758SOL    HW237908   0.608   4.628  15.728 -2.4750 -0.0148 -1.7125
 8759SOL     OW37909   1.545   0.887   7.213  0.2874  0.4098  0.4001
 8759SOL    HW137910   1.494   0.967   7.212  0.5252  0.5692  1.4770
 8759SOL    HW237911   1.548   0.866   7.119 -1.6124  2.1295 -0.0297
 8760SOL     OW37912   3.204   0.979   3.034  0.0547  0.4060 -0.2119
 8760SOL    HW137913   3.217   1.073   3.046  1.4714  0.4301 -1.9735
 8760SOL    HW237914   3.206   0.973   2.938  0.1976 -0.7009 -0.1378
 8761SOL     OW37915   3.764   1.974   0.024  0.1454  0.6745  0.0252
 8761SOL    HW137916   3.743   1.886  17.724  0.0968  0.8940 -0.5508
 8761SOL    HW237917   3.801   1.945   0.107 -0.7834  1.1774  0.6072
 8762SOL     OW37918   2.311   2.297   3.539 -0.1434  0.4497 -0.2938
 8762SOL    HW137919   2.332   2.287   3.632  1.1702  0.2010 -0.6295
 8762SOL    HW237920   2.310   2.205   3.513  0.1223  0.2192  0.5244
 8763SOL     OW37921   2.550   2.709   8.766 -0.2958 -0.6926  0.0222
 8763SOL    HW137922   2.531   2.719   8.859 -0.0960  0.9895 -0.1087
 8763SOL    HW237923   2.497   2.633   8.743 -3.3828  1.8116 -0.9895
 8764SOL     OW37924   2.241   2.997   4.624 -0.5455  0.1434  0.0384
 8764SOL    HW137925   2.279   2.972   4.540  0.7894  1.7457  0.1621
 8764SOL    HW237926   2.193   3.077   4.605 -1.9347 -0.4867  0.8504
 8765SOL     OW37927   1.892   3.420   5.940  0.7088  0.1406  0.2503
 8765SOL    HW137928   1.819   3.481   5.943 -0.2928 -1.0270 -0.0895
 8765SOL    HW237929   1.876   3.370   5.860 -0.0533 -0.1018  0.5557
 8766SOL     OW37930   0.895   3.650   4.379  0.3237 -0.3393  0.3073
 8766SOL    HW137931   0.848   3.638   4.296 -2.3238 -0.4830  1.8060
 8766SOL    HW237932   0.963   3.713   4.359  0.9927 -0.8391  1.0429
 8767SOL     OW37933   0.158   3.618   8.311 -0.1629  0.3214  0.1496
 8767SOL    HW137934   0.114   3.534   8.302 -0.5050  0.5149  0.0185
 8767SOL    HW237935   0.222   3.607   8.380 -0.9810 -2.8246  0.3994
 8768SOL     OW37936   2.510   3.000   9.155  0.7892 -0.0711  0.2048
 8768SOL    HW137937   2.472   3.009   9.243  0.9522  0.8768  0.1759
 8768SOL    HW237938   2.558   3.082   9.152 -0.4180  0.5625 -1.4479
 8769SOL     OW37939   4.474   2.783  12.602  0.7021  0.4417  0.6623
 8769SOL    HW137940   4.542   2.751  12.543 -0.6194  0.3329 -0.7764
 8769SOL    HW237941   4.521   2.849  12.653  2.1466  0.9826 -1.3772
 8770SOL     OW37942   3.781   3.611   5.155  0.3195 -0.6204 -0.5774
 8770SOL    HW137943   3.833   3.684   5.189  1.5617 -1.4169 -0.7597
 8770SOL    HW237944   3.693   3.644   5.175  0.7963  0.1960  0.1172
 8771SOL     OW37945   1.437   1.177   0.870 -0.1047  0.0182  0.6538
 8771SOL    HW137946   1.510   1.229   0.904 -0.8933  1.8973 -0.4972
 8771SOL    HW237947   1.478   1.116   0.809 -0.7742 -0.1340  0.3479
 8772SOL     OW37948   0.328   2.288   9.544  0.3203 -0.5853  0.2534
 8772SOL    HW137949   0.272   2.249   9.477  1.1455 -0.6813 -0.3783
 8772SOL    HW237950   0.410   2.251   9.512  1.1081 -0.3137  1.9941
 8773SOL     OW37951   4.267   4.228   1.218  0.0001  0.2374 -0.1441
 8773SOL    HW137952   4.179   4.230   1.256  0.3913 -0.1423  0.7831
 8773SOL    HW237953   4.249   4.152   1.164  0.0416  2.2079 -2.9123
 8774SOL     OW37954   1.949   4.167   4.985 -0.1375 -0.0807  0.3755
 8774SOL    HW137955   1.950   4.170   5.081 -0.4581 -1.0327  0.4020
 8774SOL    HW237956   1.935   4.258   4.959 -1.2360 -0.2316  0.4400
 8775SOL     OW37957   1.991   2.381   2.033 -0.0716 -0.0636  0.5167
 8775SOL    HW137958   2.027   2.398   2.120  0.4347 -1.2697  0.5413
 8775SOL    HW237959   1.927   2.450   2.020  1.4148  1.1419 -0.4236
 8776SOL     OW37960   3.399   2.040   6.157 -0.3198 -0.5372  0.2755
 8776SOL    HW137961   3.379   1.970   6.094  0.3685  0.1980 -0.7536
 8776SOL    HW237962   3.372   2.119   6.111 -0.7551 -0.2305  1.0616
 8777SOL     OW37963   4.175   2.820   4.022 -0.7522  0.0922 -0.0491
 8777SOL    HW137964   4.207   2.736   3.987 -0.8552 -0.0263  0.1382
 8777SOL    HW237965   4.152   2.856   3.936  0.1130 -2.0255 -1.1853
 8778SOL     OW37966   1.345   4.025   3.748  1.0318 -0.2126  0.2887
 8778SOL    HW137967   1.263   3.977   3.760  0.2186  0.4746 -2.4976
 8778SOL    HW237968   1.318   4.057   3.662 -0.4181  1.8932  1.5068
 8779SOL     OW37969   1.043   3.753   7.088  0.3774 -1.3605  0.1220
 8779SOL    HW137970   0.952   3.733   7.067 -0.1554  2.0174 -0.8345
 8779SOL    HW237971   1.043   3.848   7.077 -2.3867 -1.5248 -1.1911
 8780SOL     OW37972   0.860   1.926  17.098  0.0991 -0.2638  0.1902
 8780SOL    HW137973   0.945   1.910  17.057 -0.0678  0.6122 -0.4785
 8780SOL    HW237974   0.894   1.977  17.172  1.6032 -1.0726  0.0522
 8781SOL     OW37975   3.611   3.521   3.531  0.1620 -0.5175 -0.2600
 8781SOL    HW137976   3.603   3.611   3.499  2.9927 -0.9438 -2.1699
 8781SOL    HW237977   3.701   3.499   3.508  1.0960  1.3094  1.5719
 8782SOL     OW37978   1.994   4.341   1.364  0.0188 -0.0596  0.0097
 8782SOL    HW137979   1.962   4.294   1.288 -0.7931  1.2385 -0.4499
 8782SOL    HW237980   1.968   4.431   1.345  1.9348  0.7122  1.0022
 8783SOL     OW37981   1.225   2.005   6.975  0.3925 -0.2805  0.4954
 8783SOL    HW137982   1.317   2.004   6.949  0.4661  1.3330  0.6678
 8783SOL    HW237983   1.226   2.098   6.997 -0.4909 -0.5175  1.5943
 8784SOL     OW37984   2.126   3.600   9.451 -0.6644  0.0181 -0.5836
 8784SOL    HW137985   2.068   3.571   9.380 -0.4611  0.0967 -0.7830
 8784SOL    HW237986   2.148   3.689   9.424  0.2470 -0.5550 -1.7338
 8785SOL     OW37987   2.982   4.507   5.716 -0.6443  0.1502  0.3766
 8785SOL    HW137988   3.036   4.465   5.783 -2.0748 -1.3762  0.5658
 8785SOL    HW237989   3.007   4.465   5.633  0.1534  1.1711  0.1022
 8786SOL     OW37990   3.581   2.341   6.055 -0.3339 -0.1453  0.8406
 8786SOL    HW137991   3.545   2.364   6.141  0.4751  2.4164  0.4961
 8786SOL    HW237992   3.667   2.310   6.085 -0.9722 -1.9625  0.7567
 8787SOL     OW37993   0.249   2.539   8.296 -0.2611 -0.4448  0.7165
 8787SOL    HW137994   0.306   2.518   8.370 -0.0554  0.2567  0.7588
 8787SOL    HW237995   0.277   2.484   8.223 -0.0079 -0.3192  0.7175
 8788SOL     OW37996   2.412   4.615   6.826 -0.1596  0.3976 -0.0292
 8788SOL    HW137997   2.327   4.625   6.868 -0.5332  0.8283 -0.8753
 8788SOL    HW237998   2.430   4.700   6.786 -3.7292  0.2907 -1.9038
 8789SOL     OW37999   1.373   1.779  14.515 -0.2772  0.0609  0.8237
 8789SOL    HW138000   1.349   1.715  14.582 -1.7582  1.5752  1.7209
 8789SOL    HW238001   1.317   1.755  14.442  0.2489  3.3020 -0.6167
 8790SOL     OW38002   2.984   2.855   1.839 -0.4695 -0.2433 -0.1389
 8790SOL    HW138003   3.049   2.806   1.788  0.6196 -1.0551  2.0562
 8790SOL    HW238004   2.947   2.778   1.882 -0.2903 -0.7983 -0.9810
 8791SOL     OW38005   1.424   0.453   5.343  0.0891  0.0772  0.0133
 8791SOL    HW138006   1.380   0.519   5.397  0.8263 -0.6316  1.4569
 8791SOL    HW238007   1.341   0.413   5.316 -0.4968 -0.1983  2.2552
 8792SOL     OW38008   2.264   4.526  13.212  0.8750  0.3945  0.1871
 8792SOL    HW138009   2.274   4.608  13.261  3.1651 -0.3268  0.8982
 8792SOL    HW238010   2.329   4.471  13.257 -2.4303 -2.5914  1.2894
 8793SOL     OW38011   2.714   0.351  12.931  0.0662 -0.2913  0.0315
 8793SOL    HW138012   2.724   0.369  12.837  0.7468 -1.3934 -0.1156
 8793SOL    HW238013   2.806   0.330  12.947  0.0003  0.2109  1.0356
 8794SOL     OW38014   3.777   2.763   6.657  0.2309  0.4735  0.5956
 8794SOL    HW138015   3.723   2.753   6.579 -0.4212  0.3764  1.0540
 8794SOL    HW238016   3.754   2.851   6.688 -2.3734  0.0504 -0.1058
 8795SOL     OW38017   0.895   1.978  12.560 -0.3656  0.1360  0.2673
 8795SOL    HW138018   0.891   2.042  12.631 -0.9938  0.3637  0.0250
 8795SOL    HW238019   0.905   1.900  12.616 -2.8728 -0.0754  0.4342
 8796SOL     OW38020   2.284   1.169   8.269 -0.1649  0.4805 -0.6482
 8796SOL    HW138021   2.257   1.090   8.222 -1.4362  0.9238 -0.6608
 8796SOL    HW238022   2.282   1.233   8.198 -1.4629  0.5645 -0.5382
 8797SOL     OW38023   3.985   4.620  16.560 -0.4657  1.2075 -0.0861
 8797SOL    HW138024   3.939   4.602  16.642 -0.4357 -1.6030 -0.6904
 8797SOL    HW238025   4.076   4.590  16.562 -1.1876 -1.1368 -2.8930
 8798SOL     OW38026   3.308   1.049   2.343  0.0942 -0.6552 -0.1632
 8798SOL    HW138027   3.275   1.039   2.432  0.0787 -0.7786 -0.1828
 8798SOL    HW238028   3.331   1.142   2.337  1.4862 -1.0832 -1.5509
 8799SOL     OW38029   0.390   4.038   2.066  0.0165 -0.1561  0.0079
 8799SOL    HW138030   0.312   4.065   2.017  0.3853  0.5926 -0.1675
 8799SOL    HW238031   0.443   4.000   1.997 -0.2713 -0.7821  0.1247
 8800SOL     OW38032   1.299   0.709   2.768  0.2194 -0.4457 -0.4163
 8800SOL    HW138033   1.390   0.728   2.790  0.4845  0.1270 -2.0354
 8800SOL    HW238034   1.245   0.771   2.818  0.6864  1.7151 -2.5558
 8801SOL     OW38035   2.294   2.177  11.421  0.3228 -0.2946 -0.0024
 8801SOL    HW138036   2.229   2.112  11.447  0.8723 -0.7910  0.1498
 8801SOL    HW238037   2.264   2.189  11.331  0.0677  2.8301  0.5147
 8802SOL     OW38038   2.611   4.542  13.228 -0.2299  0.5253  0.2527
 8802SOL    HW138039   2.697   4.528  13.266 -0.5714 -1.6164  0.2401
 8802SOL    HW238040   2.550   4.477  13.262  1.2688 -2.3085 -2.4973
 8803SOL     OW38041   2.405   0.969   5.791  0.0917 -0.5734  0.3785
 8803SOL    HW138042   2.448   1.022   5.858 -0.4204 -1.1606  1.1689
 8803SOL    HW238043   2.479   0.967   5.731  1.6836 -0.7866  2.3343
 8804SOL     OW38044   0.163   1.826   5.273  0.5272 -0.1390 -0.2665
 8804SOL    HW138045   0.256   1.818   5.296  0.4446 -0.3778 -0.0182
 8804SOL    HW238046   0.171   1.775   5.193  1.8481  0.8556 -0.7775
 8805SOL     OW38047   4.200   3.411   1.920  0.1053 -0.4504 -0.3120
 8805SOL    HW138048   4.174   3.428   2.010 -1.7564  2.0821 -1.3323
 8805SOL    HW238049   4.285   3.454   1.914  0.4698 -0.9603  1.2772
 8806SOL     OW38050   4.063   0.778   9.798  0.6354 -0.0365  0.3710
 8806SOL    HW138051   4.055   0.858   9.851  0.7002  0.3757 -0.2388
 8806SOL    HW238052   4.125   0.729   9.852  2.5917  2.0968  0.0795
 8807SOL     OW38053   3.779   2.836  17.057  0.1647 -0.2235 -0.1158
 8807SOL    HW138054   3.848   2.877  17.005  0.1967 -0.6533 -0.4138
 8807SOL    HW238055   3.816   2.812  17.142 -2.0205  1.6292  1.3439
 8808SOL     OW38056   1.579   2.906   3.066 -0.9546  0.4644  0.1470
 8808SOL    HW138057   1.499   2.900   3.014 -0.9421  0.2840  0.1464
 8808SOL    HW238058   1.601   2.989   3.025  0.8560  0.0184  0.1876
 8809SOL     OW38059   0.045   4.096   3.725  0.3334  0.3594  0.1700
 8809SOL    HW138060   4.730   4.015   3.709  0.2930  0.2937  0.6426
 8809SOL    HW238061   0.064   4.114   3.632  1.0675  0.5899  0.3628
 8810SOL     OW38062   3.590   2.418   2.701  0.3911  0.1847 -0.5494
 8810SOL    HW138063   3.650   2.492   2.709 -0.2485  0.5776  0.5904
 8810SOL    HW238064   3.597   2.411   2.606  1.8154 -0.7316 -0.3761
 8811SOL     OW38065   4.435   2.521   4.539  0.3406  0.8641  0.8622
 8811SOL    HW138066   4.399   2.547   4.623  0.9224 -0.4928  1.5310
 8811SOL    HW238067   4.413   2.428   4.529  1.5346  0.5143  1.4826
 8812SOL     OW38068   2.223   1.567   2.061 -0.6903  0.3874  0.3818
 8812SOL    HW138069   2.214   1.481   2.103 -1.3103 -0.7991 -2.2003
 8812SOL    HW238070   2.131   1.574   2.034 -0.3506 -1.2924 -1.2774
 8813SOL     OW38071   4.030   0.535   6.397  0.2314  0.4580 -0.3213
 8813SOL    HW138072   3.950   0.510   6.350  0.5421  0.3083 -0.7769
 8813SOL    HW238073   4.079   0.582   6.329  2.0795 -1.4469 -0.3204
 8814SOL     OW38074   4.562   1.961   8.588  0.1088  0.1503 -0.0129
 8814SOL    HW138075   4.532   1.871   8.574  1.9402 -0.1574 -1.8956
 8814SOL    HW238076   4.652   1.970   8.557  0.2465  0.3973  0.4578
 8815SOL     OW38077   1.549   1.796   2.002 -0.3148 -0.2169  0.1881
 8815SOL    HW138078   1.565   1.701   2.007 -0.0427 -0.0682  2.3155
 8815SOL    HW238079   1.613   1.828   1.939 -2.1943  2.1422 -0.4890
 8816SOL     OW38080   2.011   2.387  11.902 -0.4199 -1.0185 -0.1913
 8816SOL    HW138081   2.051   2.434  11.829 -1.6798 -0.1210 -0.3077
 8816SOL    HW238082   1.961   2.457  11.945  1.6303 -0.3601  1.1429
 8817SOL     OW38083   1.587   0.863  11.884 -0.1529  0.1622  0.0928
 8817SOL    HW138084   1.560   0.792  11.943  0.5607  0.9831  1.4044
 8817SOL    HW238085   1.513   0.865  11.823 -0.2238  0.0708  0.1753
 8818SOL     OW38086   3.157   2.346   2.497 -0.1004  0.2222  0.7523
 8818SOL    HW138087   3.066   2.374   2.483 -0.7613 -1.5392  1.5055
 8818SOL    HW238088   3.187   2.402   2.568  0.3955 -0.1141  0.8075
 8819SOL     OW38089   2.333   2.293   4.182  0.0928 -0.0441 -0.0502
 8819SOL    HW138090   2.416   2.305   4.228  1.4071 -0.3552 -2.3562
 8819SOL    HW238091   2.290   2.230   4.240 -2.5725 -0.9276 -3.0048
 8820SOL     OW38092   1.827   1.427   9.715 -0.1360 -0.3666 -0.8782
 8820SOL    HW138093   1.857   1.443   9.626  0.5579  0.5720 -0.4705
 8820SOL    HW238094   1.738   1.453   9.694  0.1802  1.0659 -0.4529
 8821SOL     OW38095   0.388   3.121   2.938  0.1254  0.5882 -0.3402
 8821SOL    HW138096   0.330   3.083   2.872 -1.9420 -0.1598  1.9011
 8821SOL    HW238097   0.363   3.214   2.935  0.1423  0.5996 -0.0817
 8822SOL     OW38098   1.568   2.180  11.108  0.1227  0.3055 -0.0318
 8822SOL    HW138099   1.568   2.088  11.081 -1.5701  0.7279 -1.5033
 8822SOL    HW238100   1.650   2.210  11.069 -0.3491  1.9592  0.2758
 8823SOL     OW38101   0.142   4.731   4.222  0.0361  0.4268 -0.2023
 8823SOL    HW138102   0.134   4.647   4.176 -2.2788  0.1352  0.7397
 8823SOL    HW238103   0.056   0.012   4.261 -0.3797  0.9551 -1.3043
 8824SOL     OW38104   4.116   1.058   3.300 -0.0953 -0.1703  0.1466
 8824SOL    HW138105   4.136   1.043   3.393  0.4387 -0.7352 -0.0553
 8824SOL    HW238106   4.175   1.000   3.252 -1.4504 -1.2068 -0.2571
 8825SOL     OW38107   4.515   4.061   3.861  0.1202  0.3674 -0.3659
 8825SOL    HW138108   4.532   4.021   3.776 -3.6009  0.0086 -0.9463
 8825SOL    HW238109   4.420   4.069   3.857 -0.0317 -0.7401  1.1297
 8826SOL     OW38110   2.704   2.961   4.655  0.4823 -0.6096  0.1147
 8826SOL    HW138111   2.642   2.901   4.613  0.0965 -0.0610 -0.1008
 8826SOL    HW238112   2.654   3.040   4.635  1.0974 -0.0544  0.7776
 8827SOL     OW38113   4.217   1.286   8.807 -0.2388  0.5077  0.5685
 8827SOL    HW138114   4.165   1.364   8.827  0.1602  0.7520  0.6511
 8827SOL    HW238115   4.247   1.273   8.898  0.4077 -0.7767  0.1710
 8828SOL     OW38116   2.636   1.591  13.485  0.0487  0.1556  0.6147
 8828SOL    HW138117   2.575   1.661  13.507 -3.1039 -2.3367 -0.2138
 8828SOL    HW238118   2.705   1.602  13.550 -0.0370 -0.9640  0.9073
 8829SOL     OW38119   3.794   4.532  15.905 -0.5794  0.7030  0.3907
 8829SOL    HW138120   3.779   4.606  15.846  0.8238 -1.0220 -2.1327
 8829SOL    HW238121   3.800   4.583  15.986 -1.5536  1.4209  0.0163
 8830SOL     OW38122   2.485   2.547   9.832 -0.4032  1.0827 -0.1547
 8830SOL    HW138123   2.529   2.610   9.889  1.3194 -1.4291  1.3333
 8830SOL    HW238124   2.551   2.549   9.762  0.5285 -0.6568  0.6518
 8831SOL     OW38125   1.293   4.478  12.099  0.0794  0.4710 -0.3026
 8831SOL    HW138126   1.364   4.444  12.045  0.2684 -0.1976  0.3732
 8831SOL    HW238127   1.309   4.573  12.101 -1.9684  0.8051  0.5001
 8832SOL     OW38128   0.943   4.389   1.261 -0.0674 -0.0753 -0.1825
 8832SOL    HW138129   0.924   4.482   1.277 -0.7454  0.0327 -1.6238
 8832SOL    HW238130   0.866   4.358   1.214 -1.4501 -1.7085  3.1887
 8833SOL     OW38131   1.753   2.357   1.620  0.3746  0.0309  0.3924
 8833SOL    HW138132   1.746   2.435   1.564  1.2676 -0.3807 -0.2863
 8833SOL    HW238133   1.693   2.383   1.690  0.0834  0.6634 -0.0883
 8834SOL     OW38134   3.745   1.169   8.187  0.4242  0.1089 -0.8948
 8834SOL    HW138135   3.769   1.111   8.259 -0.9283  1.3721  0.5735
 8834SOL    HW238136   3.655   1.147   8.165 -0.1950  1.4438  0.3224
 8835SOL     OW38137   2.143   3.281   2.012 -0.3959  0.0638 -0.5070
 8835SOL    HW138138   2.238   3.292   2.007 -0.3047 -2.0376 -2.9224
 8835SOL    HW238139   2.133   3.277   2.107  0.5924  1.4532 -0.3389
 8836SOL     OW38140   4.258   1.163   4.328 -0.7351  0.1655 -0.6164
 8836SOL    HW138141   4.227   1.232   4.269  1.3959  1.4953 -0.1629
 8836SOL    HW238142   4.179   1.154   4.381  0.4385  0.7138  1.2315
 8837SOL     OW38143   4.467   0.012   7.934 -0.3909 -0.6287  0.7706
 8837SOL    HW138144   4.437   4.660   7.965 -1.6438 -0.3714  0.2769
 8837SOL    HW238145   4.545   0.019   7.989 -1.1026 -1.6498  1.9161
 8838SOL     OW38146   4.564   2.814   6.900  0.0167 -0.0474  0.7148
 8838SOL    HW138147   4.518   2.898   6.910  1.0290  0.3030  2.5258
 8838SOL    HW238148   4.498   2.754   6.936  0.4730 -1.0470 -0.1272
 8839SOL     OW38149   3.334   0.948   5.746  0.3355  0.0932  0.4562
 8839SOL    HW138150   3.373   0.905   5.822  1.8242 -0.4020 -0.5774
 8839SOL    HW238151   3.258   0.994   5.782 -0.1787  0.0182 -0.5258
 8840SOL     OW38152   2.815   0.605   5.131  0.1953 -0.1736  0.3498
 8840SOL    HW138153   2.735   0.556   5.110 -0.6354  2.0251 -1.6627
 8840SOL    HW238154   2.861   0.529   5.166  0.7111 -0.9481 -2.0427
 8841SOL     OW38155   3.873   0.353   2.777  0.6139  0.7471 -0.1995
 8841SOL    HW138156   3.836   0.401   2.851 -1.2219 -1.1550  0.1386
 8841SOL    HW238157   3.819   0.273   2.773  1.6687  0.0098  0.2527
 8842SOL     OW38158   4.501   4.589   3.498 -0.0956 -0.1683 -0.2734
 8842SOL    HW138159   4.501   4.681   3.524  1.3384  1.0007 -4.4927
 8842SOL    HW238160   4.563   4.592   3.426 -0.0456 -0.9959 -0.2662
 8843SOL     OW38161   0.036   1.669   1.858  0.3422 -0.1476 -0.1311
 8843SOL    HW138162   0.006   1.627   1.938  0.9076  0.3891  0.3552
 8843SOL    HW238163   0.060   1.588   1.813 -0.1184 -0.4922  0.2400
 8844SOL     OW38164   3.236   0.387   1.450 -0.4049  0.7327  0.2244
 8844SOL    HW138165   3.179   0.399   1.526 -2.6662  0.4103 -1.4297
 8844SOL    HW238166   3.171   0.391   1.379  0.1909 -0.1844 -0.3686
 8845SOL     OW38167   3.350   3.172  12.078  0.0856  0.2471 -0.4109
 8845SOL    HW138168   3.339   3.266  12.089 -0.0601  0.2274 -0.3881
 8845SOL    HW238169   3.400   3.141  12.154  1.1467 -0.6778 -1.4788
 8846SOL     OW38170   3.276   4.336   4.996  0.4796  0.0041 -0.5590
 8846SOL    HW138171   3.301   4.324   4.905 -0.5901 -1.2421 -0.6957
 8846SOL    HW238172   3.183   4.319   4.978  0.0395  2.2555 -0.4144
 8847SOL     OW38173   1.698   0.042   3.806  0.4644 -0.5226  0.0153
 8847SOL    HW138174   1.767   0.093   3.849 -0.2859  1.0086 -0.6382
 8847SOL    HW238175   1.697   4.698   3.863  0.9750  0.2897  1.1148
 8848SOL     OW38176   1.603   0.881   9.810  0.0626 -0.1676  0.4471
 8848SOL    HW138177   1.566   0.889   9.721  1.5794 -2.0902 -0.3570
 8848SOL    HW238178   1.677   0.940   9.800 -0.0995 -0.6167 -3.7405
 8849SOL     OW38179   1.263   1.385   4.286 -0.4492 -0.8407  0.8252
 8849SOL    HW138180   1.278   1.471   4.326 -0.0466  0.1185 -1.4051
 8849SOL    HW238181   1.188   1.405   4.229  0.8772 -0.2837 -0.7196
 8850SOL     OW38182   3.561   2.388   3.141  0.6637 -0.7508  0.4792
 8850SOL    HW138183   3.587   2.470   3.100 -4.0164  0.1102 -0.8021
 8850SOL    HW238184   3.641   2.365   3.188  1.2110  1.0574  0.4390
 8851SOL     OW38185   3.885   1.541  14.718  0.5300  0.0699 -0.0496
 8851SOL    HW138186   3.846   1.557  14.805  1.6402 -0.9111  0.6219
 8851SOL    HW238187   3.964   1.494  14.745 -0.0682 -1.0887 -0.3401
 8852SOL     OW38188   2.497   2.084  12.144  0.1507 -0.1912 -0.4376
 8852SOL    HW138189   2.433   2.056  12.210 -1.2677 -1.3189 -2.2685
 8852SOL    HW238190   2.446   2.143  12.088 -0.6686 -2.0253 -1.6400
 8853SOL     OW38191   4.566   1.587   0.058 -0.3288  0.1101  0.0848
 8853SOL    HW138192   4.657   1.559   0.068 -0.8714 -2.2876 -1.8027
 8853SOL    HW238193   4.567   1.619  17.700 -1.0409  2.5162  0.9116
 8854SOL     OW38194   2.361   2.348   7.472 -0.2365  0.4411  0.1392
 8854SOL    HW138195   2.272   2.319   7.492  0.6053 -1.0282  1.7467
 8854SOL    HW238196   2.352   2.342   7.377  0.2136  2.9384 -0.0579
 8855SOL     OW38197   1.327   0.116   4.466  0.0687  0.1093  0.7019
 8855SOL    HW138198   1.241   0.075   4.472  0.3079 -0.6998 -1.3174
 8855SOL    HW238199   1.364   0.118   4.554 -0.3905 -1.1595  0.9246
 8856SOL     OW38200   3.236   3.183   5.589 -0.0363  0.2605 -0.1000
 8856SOL    HW138201   3.310   3.150   5.641  1.2721  4.1052  0.4392
 8856SOL    HW238202   3.258   3.182   5.496  2.2882  0.6042  0.4570
 8857SOL     OW38203   0.501   2.961   3.983 -0.0436  0.3622  0.0584
 8857SOL    HW138204   0.585   2.923   4.011 -0.3940 -0.8868 -0.5763
 8857SOL    HW238205   0.461   2.966   4.070 -1.0757  1.6573 -0.4951
 8858SOL     OW38206   3.970   4.507   6.496  0.3378 -0.3427 -0.0539
 8858SOL    HW138207   3.974   4.598   6.527 -1.2196  0.5859 -2.5541
 8858SOL    HW238208   4.045   4.472   6.543  1.0081 -1.2327 -1.7900
 8859SOL     OW38209   4.463   1.419   7.815 -0.6764 -0.0606 -0.5259
 8859SOL    HW138210   4.481   1.505   7.854 -0.8206  0.0668 -0.7401
 8859SOL    HW238211   4.516   1.429   7.736 -1.1897  1.4081 -0.6944
 8860SOL     OW38212   0.866   2.443   2.673  0.0729  0.2679  0.2817
 8860SOL    HW138213   0.951   2.405   2.652 -1.1217 -1.5303 -1.2517
 8860SOL    HW238214   0.825   2.367   2.712 -3.9410  2.0815 -0.3713
 8861SOL     OW38215   1.616   1.855  12.004 -0.1413 -0.5135  0.3298
 8861SOL    HW138216   1.681   1.901  11.951 -0.6720 -1.7344 -1.3416
 8861SOL    HW238217   1.631   1.764  11.980  2.0629  0.2276 -1.0196
 8862SOL     OW38218   0.221   4.228   2.807  0.1036  0.7765 -0.1420
 8862SOL    HW138219   0.131   4.237   2.836  0.1474 -0.5578  0.4362
 8862SOL    HW238220   0.229   4.134   2.787  0.5142  0.3989  1.7729
 8863SOL     OW38221   4.625   1.944   9.278 -0.2669 -0.6264 -0.3950
 8863SOL    HW138222   4.602   1.871   9.334 -1.7740 -0.2045 -0.4557
 8863SOL    HW238223   4.638   1.898   9.195 -0.4256 -1.5241  0.0815
 8864SOL     OW38224   0.670   2.060  11.062 -0.5302  0.2137 -0.4409
 8864SOL    HW138225   0.634   1.984  11.107 -2.0385 -0.2028 -2.3628
 8864SOL    HW238226   0.629   2.126  11.117 -1.9278 -0.8778 -0.1932
 8865SOL     OW38227   1.188   1.557   0.314  0.2518  0.7163  0.3683
 8865SOL    HW138228   1.101   1.518   0.328  0.9507 -0.1493  2.4393
 8865SOL    HW238229   1.238   1.479   0.293  1.3330  1.3217  0.6684
 8866SOL     OW38230   0.168   3.640   7.216  0.0885 -0.3432 -0.3551
 8866SOL    HW138231   0.094   3.636   7.277  1.7363  0.1300  1.6484
 8866SOL    HW238232   0.245   3.627   7.271 -2.1462  1.8823  3.2861
 8867SOL     OW38233   1.109   3.164  14.910 -0.6052  0.0185 -0.4236
 8867SOL    HW138234   1.186   3.144  14.856  0.3282 -0.2911  1.0219
 8867SOL    HW238235   1.054   3.091  14.881  1.9531 -2.6588  1.4221
 8868SOL     OW38236   2.092   1.739  16.646  0.2048  0.4221 -0.1525
 8868SOL    HW138237   2.171   1.790  16.625 -0.9715  1.8666 -1.1245
 8868SOL    HW238238   2.093   1.740  16.741 -2.7378 -1.8938 -0.1218
 8869SOL     OW38239   1.375   1.973  17.139  0.1243  0.7094 -0.3347
 8869SOL    HW138240   1.408   2.027  17.211  0.9945 -1.9312  1.2329
 8869SOL    HW238241   1.445   2.009  17.083  1.2408 -0.8048  0.0911
 8870SOL     OW38242   0.823   1.725   8.070  0.3516  0.0627 -0.2726
 8870SOL    HW138243   0.737   1.765   8.058 -0.7097 -1.9666  0.5004
 8870SOL    HW238244   0.808   1.656   8.006  3.3015  1.2635 -2.2307
 8871SOL     OW38245   4.546   4.457   1.924 -0.2268  0.1773  0.3876
 8871SOL    HW138246   4.593   4.440   1.842 -2.0831 -0.5474 -0.5209
 8871SOL    HW238247   4.568   4.545   1.955 -1.7287  0.5215  0.4578
 8872SOL     OW38248   1.418   0.690  15.728  0.1236 -0.1588 -0.3466
 8872SOL    HW138249   1.397   0.735  15.810 -0.6376 -1.3351  0.1051
 8872SOL    HW238250   1.440   0.766  15.676 -0.6844  0.9275  0.8920
 8873SOL     OW38251   0.258   0.872   3.051 -0.8038  0.2269 -0.1102
 8873SOL    HW138252   0.328   0.819   3.014  0.2241 -0.3232  2.6094
 8873SOL    HW238253   0.178   0.829   3.020 -1.5552  2.0611 -0.7251
 8874SOL     OW38254   2.772   0.050  14.553 -0.7869 -0.1052  0.4407
 8874SOL    HW138255   2.742   0.004  14.474 -2.9101  0.6973  0.7817
 8874SOL    HW238256   2.851   4.730  14.560 -1.4976 -1.0905  0.9907
 8875SOL     OW38257   1.753   0.790   7.505  0.1305 -0.4026 -0.4278
 8875SOL    HW138258   1.673   0.748   7.473  0.1699 -0.0686 -0.9641
 8875SOL    HW238259   1.744   0.789   7.600  2.4093 -2.3983 -0.2353
 8876SOL     OW38260   0.342   4.529   5.957 -0.2375  0.2142  0.3596
 8876SOL    HW138261   0.316   4.621   5.961  0.3910  0.5025 -2.0783
 8876SOL    HW238262   0.413   4.512   6.019 -1.0587  1.0481  1.5362
 8877SOL     OW38263   4.403   0.852   1.024 -0.1277  0.4906  0.1340
 8877SOL    HW138264   4.348   0.885   0.953  0.6570  1.2048 -0.1475
 8877SOL    HW238265   4.340   0.858   1.095 -1.5328  0.5846 -1.1223
 8878SOL     OW38266   4.448   4.373  14.581 -0.0555  0.3982 -0.0024
 8878SOL    HW138267   4.386   4.389  14.653  0.2513 -1.3377  0.6463
 8878SOL    HW238268   4.409   4.315  14.516  0.1628  0.6987 -0.3960
 8879SOL     OW38269   0.608   2.137   6.017 -0.0660 -0.5903 -0.2720
 8879SOL    HW138270   0.657   2.215   5.993  1.7715 -2.1770 -1.7169
 8879SOL    HW238271   0.523   2.160   5.979  0.7340  1.5078 -0.7716
 8880SOL     OW38272   0.158   1.651  11.722 -0.4637  0.2417  0.3118
 8880SOL    HW138273   0.137   1.735  11.682 -1.3364 -0.5881 -0.9741
 8880SOL    HW238274   0.190   1.604  11.645  1.8247  0.2131  1.2951
 8881SOL     OW38275   2.428   2.757   4.941  0.1154 -0.2497  0.1818
 8881SOL    HW138276   2.481   2.835   4.959  1.4240 -0.3408 -3.2243
 8881SOL    HW238277   2.358   2.762   5.007  1.2496 -0.5928  1.4073
 8882SOL     OW38278   2.574   3.847  14.379 -0.5890 -0.6571 -0.1428
 8882SOL    HW138279   2.622   3.929  14.363 -0.9782  0.0980  2.6702
 8882SOL    HW238280   2.527   3.869  14.459 -1.8667 -3.3492 -0.1745
 8883SOL     OW38281   3.230   4.134   4.446 -0.3243 -0.5623  0.2899
 8883SOL    HW138282   3.255   4.082   4.522 -0.1200  2.5296  2.3609
 8883SOL    HW238283   3.301   4.113   4.384 -0.5316  1.0088 -0.4948
 8884SOL     OW38284   0.869   1.961   6.073  0.8946  0.8019  0.2435
 8884SOL    HW138285   0.789   1.968   6.021  0.0585 -2.8036  1.0504
 8884SOL    HW238286   0.909   2.046   6.056  0.7802  0.5106 -1.5243
 8885SOL     OW38287   0.476   0.283   9.349 -0.2826 -0.0467 -0.0429
 8885SOL    HW138288   0.426   0.236   9.416 -0.1962 -1.9689 -1.3317
 8885SOL    HW238289   0.533   0.214   9.315  0.4364  0.0164  1.0253
 8886SOL     OW38290   2.568   2.765   7.764  0.4022  0.2022  0.2420
 8886SOL    HW138291   2.498   2.765   7.829 -0.8935  0.6768 -1.1368
 8886SOL    HW238292   2.527   2.739   7.682 -0.2313  1.0762  0.2738
 8887SOL     OW38293   4.500   4.708  10.151  0.2735  0.3960  0.9517
 8887SOL    HW138294   4.534   4.726  10.239 -0.5754  0.0544  1.3432
 8887SOL    HW238295   4.571   0.000  10.092  2.0229 -0.4726  2.6726
 8888SOL     OW38296   2.345   0.768  12.991 -0.7396  0.5838 -0.5245
 8888SOL    HW138297   2.383   0.685  12.965 -0.3533  0.9776 -1.2101
 8888SOL    HW238298   2.391   0.788  13.073 -1.3691  1.1290 -0.2979
 8889SOL     OW38299   2.304   3.504   5.980  0.0421  0.3033  0.0414
 8889SOL    HW138300   2.236   3.475   5.919 -0.1912  1.2458 -0.1437
 8889SOL    HW238301   2.246   3.557   6.034 -1.4598 -0.4743 -0.7989
 8890SOL     OW38302   3.322   4.343  17.344  0.6039  0.4961 -0.2744
 8890SOL    HW138303   3.350   4.305  17.427  0.4805  1.1207  0.0534
 8890SOL    HW238304   3.399   4.340  17.288  0.0040 -1.3257 -1.0125
 8891SOL     OW38305   1.007   2.702   6.184 -0.5926  0.2714 -0.1001
 8891SOL    HW138306   0.960   2.758   6.121  1.7258  1.2319 -0.9714
 8891SOL    HW238307   0.987   2.612   6.158 -2.4481  0.6503 -0.0034
 8892SOL     OW38308   4.652   3.456   9.358 -0.4594  0.2097 -0.2422
 8892SOL    HW138309   4.581   3.394   9.341  0.0749 -0.0715 -1.4780
 8892SOL    HW238310   4.717   3.396   9.394  1.8371  1.2647 -2.6203
 8893SOL     OW38311   0.875   3.431   5.681  0.1309 -0.1856  0.1368
 8893SOL    HW138312   0.900   3.410   5.591 -1.5076  0.0287 -0.3618
 8893SOL    HW238313   0.795   3.480   5.661  1.3399  1.6239 -0.2359
 8894SOL     OW38314   1.552   4.083   6.887 -0.3401 -0.9113 -0.0369
 8894SOL    HW138315   1.613   4.126   6.827 -0.1145 -2.7052 -1.0798
 8894SOL    HW238316   1.588   3.997   6.909 -0.3458 -1.0299 -0.4895
 8895SOL     OW38317   2.527   1.365   6.209 -0.3350 -0.0344 -0.0763
 8895SOL    HW138318   2.476   1.421   6.268  0.2135  0.0909  0.2756
 8895SOL    HW238319   2.612   1.356   6.252  0.0494 -1.3914 -1.1242
 8896SOL     OW38320   0.064   0.096   6.533 -0.5590 -0.3835 -0.3080
 8896SOL    HW138321   4.720   0.152   6.532  0.6100  1.2117 -1.1757
 8896SOL    HW238322   0.027   0.012   6.558  0.1074 -1.1175 -1.7940
 8897SOL     OW38323   3.761   2.861  13.111  0.4714  0.6897  0.1233
 8897SOL    HW138324   3.789   2.838  13.199  0.1503 -1.0133 -0.2189
 8897SOL    HW238325   3.819   2.806  13.057  1.1425  1.5527 -0.0337
 8898SOL     OW38326   1.991   0.201   5.646 -0.5597 -0.4216  0.2362
 8898SOL    HW138327   1.983   0.285   5.691  0.9666  0.8686 -1.9210
 8898SOL    HW238328   2.077   0.215   5.606 -0.3652  1.8994  1.4756
 8899SOL     OW38329   1.098   4.358   6.524 -0.1501  0.2228 -0.7202
 8899SOL    HW138330   1.180   4.320   6.555 -0.3459 -0.6496 -1.2476
 8899SOL    HW238331   1.132   4.433   6.476  4.0254 -1.0565  0.2809
 8900SOL     OW38332   0.816   1.158   5.677 -0.2290 -0.2604  0.3714
 8900SOL    HW138333   0.851   1.141   5.590  0.7410  1.5725  0.4150
 8900SOL    HW238334   0.784   1.247   5.664 -0.8949 -0.6530 -0.6720
 8901SOL     OW38335   3.716   0.034   2.251  0.3547  0.0283 -0.5768
 8901SOL    HW138336   3.731   4.713   2.328  1.2316  2.2925  0.8454
 8901SOL    HW238337   3.622   0.055   2.250  0.3238 -0.0077  3.4585
 8902SOL     OW38338   0.194   0.178   8.845  0.1301 -0.7434 -0.0737
 8902SOL    HW138339   0.160   0.186   8.934 -1.1067 -0.5331 -0.5750
 8902SOL    HW238340   0.172   0.086   8.834 -2.4752 -0.1177  0.1158
 8903SOL     OW38341   4.306   0.030   7.224 -0.1858 -0.4247 -0.7272
 8903SOL    HW138342   4.362   4.724   7.156  4.1244  1.4906  1.7236
 8903SOL    HW238343   4.379   0.064   7.275 -0.7943 -0.1523 -0.0439
 8904SOL     OW38344   1.780   2.543  12.608 -0.1784  0.3355  0.1839
 8904SOL    HW138345   1.851   2.518  12.549 -2.0769  1.4941 -2.5611
 8904SOL    HW238346   1.707   2.546  12.546 -0.1359 -0.7961  0.0715
 8905SOL     OW38347   0.760   1.413   0.544 -0.1818 -0.0447 -0.0313
 8905SOL    HW138348   0.788   1.377   0.628  1.1281  0.6102 -0.1808
 8905SOL    HW238349   0.758   1.339   0.483  0.3501  0.2524 -0.4095
 8906SOL     OW38350   0.366   4.284   2.570 -0.2617  0.1887  0.0820
 8906SOL    HW138351   0.276   4.262   2.596 -0.2489 -0.6464 -0.5449
 8906SOL    HW238352   0.354   4.270   2.476  0.0810  1.5208 -0.1492
 8907SOL     OW38353   4.508   4.190  14.015  0.4161 -0.0377  0.1244
 8907SOL    HW138354   4.560   4.268  13.996  0.0017 -0.0869 -1.1802
 8907SOL    HW238355   4.446   4.193  13.943  1.6914  0.9194 -0.9448
 8908SOL     OW38356   2.764   2.437   9.054 -0.0942 -0.0804  0.2599
 8908SOL    HW138357   2.763   2.531   9.034 -0.6298  0.0209  0.7649
 8908SOL    HW238358   2.834   2.402   9.000 -1.3082 -1.1710 -0.5959
 8909SOL     OW38359   2.590   3.477   4.830 -0.1421  0.6628 -0.0688
 8909SOL    HW138360   2.561   3.547   4.772  3.9017  2.9519  0.6939
 8909SOL    HW238361   2.655   3.521   4.884  3.3725  0.1787 -3.9686
 8910SOL     OW38362   1.606   2.695  16.698  0.2752  0.0225  0.1082
 8910SOL    HW138363   1.581   2.679  16.788 -0.7742  1.5889  0.0955
 8910SOL    HW238364   1.537   2.651  16.649 -1.0435  1.6513  0.4892
 8911SOL     OW38365   0.991   3.069   3.543  0.5790  0.4152 -0.5830
 8911SOL    HW138366   0.954   3.051   3.630 -1.5141  2.4818 -1.0626
 8911SOL    HW238367   1.085   3.049   3.546  0.3887 -0.3761  0.2150
 8912SOL     OW38368   3.483   2.569   8.975 -0.0983  0.0945 -0.3383
 8912SOL    HW138369   3.473   2.640   8.912 -1.4320  0.3832  0.1907
 8912SOL    HW238370   3.450   2.612   9.054  0.1263 -1.0499  0.3814
 8913SOL     OW38371   2.987   4.716   8.082 -0.4394 -0.1382  0.2414
 8913SOL    HW138372   3.058   0.010   8.023 -0.3172 -1.5917 -0.2863
 8913SOL    HW238373   2.966   0.068   8.120 -0.9802 -0.1207 -0.0975
 8914SOL     OW38374   3.838   4.017   6.858 -0.2815 -0.0457  0.2409
 8914SOL    HW138375   3.867   4.097   6.814  0.6067 -1.1523 -1.1773
 8914SOL    HW238376   3.835   4.047   6.949  0.2492 -1.5942  0.7642
 8915SOL     OW38377   0.208   1.041  11.541 -0.1290  0.2181 -0.1258
 8915SOL    HW138378   0.120   1.035  11.506 -0.0443 -1.4270 -0.0498
 8915SOL    HW238379   0.187   0.996  11.623 -1.4901 -0.4942 -0.8756
 8916SOL     OW38380   2.327   3.135  11.500  0.1491 -0.1072  0.2674
 8916SOL    HW138381   2.407   3.112  11.548  1.5606  4.7614  0.1772
 8916SOL    HW238382   2.354   3.167  11.414  0.6664 -1.2833 -0.0097
 8917SOL     OW38383   1.756   0.165   3.406 -0.0031 -0.2229 -0.3422
 8917SOL    HW138384   1.817   0.231   3.374  1.7067 -0.9391  1.4771
 8917SOL    HW238385   1.684   0.173   3.344  0.1240 -2.3510 -0.7633
 8918SOL     OW38386   3.061   2.631   0.085 -0.0175  0.2413  0.5630
 8918SOL    HW138387   3.023   2.689   0.152 -0.9513 -2.1273  2.0676
 8918SOL    HW238388   3.150   2.627   0.117  0.1125  0.5671  0.2476
 8919SOL     OW38389   1.473   1.940   2.241  0.3977 -0.0627 -0.3404
 8919SOL    HW138390   1.513   1.910   2.160 -1.0132 -0.4852 -0.8899
 8919SOL    HW238391   1.547   1.968   2.294  1.0164 -2.5644  0.1070
 8920SOL     OW38392   3.946   1.184  12.425  0.2379 -0.0182 -0.0644
 8920SOL    HW138393   3.985   1.225  12.503 -0.0476  1.4342 -0.6797
 8920SOL    HW238394   3.978   1.238  12.353  1.9998  0.2132  0.8772
 8921SOL     OW38395   3.754   1.199  12.758  0.6436  0.2831 -0.1050
 8921SOL    HW138396   3.673   1.189  12.708  1.5656  2.3386 -2.0409
 8921SOL    HW238397   3.777   1.288  12.728 -0.4228  0.6054  0.0201
 8922SOL     OW38398   1.406   2.601   2.630  0.1124 -0.1303 -0.5644
 8922SOL    HW138399   1.370   2.597   2.718 -0.0727 -0.3755 -0.6512
 8922SOL    HW238400   1.328   2.619   2.578 -0.6978  0.2863  0.7929
 8923SOL     OW38401   0.089   3.476   1.848 -0.3431  0.4902 -0.4976
 8923SOL    HW138402   0.131   3.546   1.898 -1.7051  1.4263 -0.6435
 8923SOL    HW238403   0.150   3.450   1.779  0.1279 -4.2396  1.6983
 8924SOL     OW38404   2.573   3.639   5.763 -0.1068 -0.7852 -0.0134
 8924SOL    HW138405   2.500   3.680   5.718  0.6700 -0.3259 -0.8635
 8924SOL    HW238406   2.652   3.688   5.739 -0.2417 -0.1825  0.7920
 8925SOL     OW38407   1.394   1.610  14.751 -0.2177  0.7120 -0.5310
 8925SOL    HW138408   1.427   1.674  14.813 -1.5715 -0.6952  1.6384
 8925SOL    HW238409   1.368   1.540  14.811 -0.5100  0.1837 -1.2745
 8926SOL     OW38410   1.170   0.262  11.383 -0.8730 -0.1069 -0.2117
 8926SOL    HW138411   1.083   0.257  11.343 -0.0447 -0.7617 -1.9028
 8926SOL    HW238412   1.171   0.183  11.438  2.5657  0.3988  0.4674
 8927SOL     OW38413   3.013   2.967  11.335  0.0749 -0.3069 -0.2235
 8927SOL    HW138414   3.069   2.947  11.410  0.7036 -2.6809 -1.3176
 8927SOL    HW238415   3.040   2.917  11.258  1.7869  0.7260 -0.3037
 8928SOL     OW38416   4.124   1.508   7.782 -0.2547  0.3791  0.1084
 8928SOL    HW138417   4.032   1.522   7.802  0.4151  2.4048  1.7844
 8928SOL    HW238418   4.147   1.458   7.861  1.1324 -0.9039 -1.0959
 8929SOL     OW38419   1.235   4.335   4.445 -0.2128 -0.6105 -0.0921
 8929SOL    HW138420   1.205   4.408   4.391 -1.5961  0.5900  2.3111
 8929SOL    HW238421   1.259   4.277   4.373 -0.5872 -0.0738 -0.6464
 8930SOL     OW38422   2.551   2.414   2.092 -0.4786  0.1413  0.6672
 8930SOL    HW138423   2.535   2.498   2.048 -0.7599  0.0666  0.6326
 8930SOL    HW238424   2.482   2.414   2.159  0.5199 -1.1577  1.7036
 8931SOL     OW38425   1.708   3.641  10.059 -0.1489  0.4698  0.4006
 8931SOL    HW138426   1.648   3.617  10.130  0.4324  0.3587  0.8574
 8931SOL    HW238427   1.790   3.643  10.107  0.2377  0.3928 -0.2565
 8932SOL     OW38428   4.704   4.450   5.566  0.2106 -0.0268  0.4001
 8932SOL    HW138429   0.047   4.437   5.622 -0.9910 -0.9493  1.8084
 8932SOL    HW238430   4.712   4.381   5.500  0.1168 -0.1163  0.4833
 8933SOL     OW38431   2.076   4.419  13.401 -0.4572  0.0090 -0.2816
 8933SOL    HW138432   2.016   4.489  13.378  2.1237  1.6942 -1.9092
 8933SOL    HW238433   2.148   4.438  13.341 -1.0592  0.5140 -0.8384
 8934SOL     OW38434   0.053   1.985   7.314  0.1327  0.1324  0.2169
 8934SOL    HW138435   0.133   1.934   7.322 -1.6695 -3.1110 -2.7759
 8934SOL    HW238436   0.045   2.029   7.399  1.5079 -1.2333  1.0496
 8935SOL     OW38437   2.396   0.322   5.799 -0.0477 -0.3645 -0.1973
 8935SOL    HW138438   2.424   0.243   5.845  1.9936  0.4602  0.0071
 8935SOL    HW238439   2.302   0.318   5.814  0.0609  2.2913  1.0787
 8936SOL     OW38440   1.393   4.554   2.723  0.0393  0.0686 -0.4958
 8936SOL    HW138441   1.359   4.474   2.681 -1.1557  0.5498 -0.4593
 8936SOL    HW238442   1.364   4.610   2.651 -0.3750 -0.3454 -0.6571
 8937SOL     OW38443   3.649   0.225   7.937 -0.8191 -0.0830  0.1421
 8937SOL    HW138444   3.553   0.221   7.937 -0.6980 -3.2783 -1.5051
 8937SOL    HW238445   3.674   0.134   7.949 -0.0974  0.2249  0.9840
 8938SOL     OW38446   2.366   1.987  13.733 -0.6364  0.6288  0.0722
 8938SOL    HW138447   2.355   2.070  13.687 -2.1469  1.3285  1.6623
 8938SOL    HW238448   2.277   1.965  13.763 -0.4161 -0.7813 -0.3130
 8939SOL     OW38449   3.462   3.246   8.186 -0.3199 -0.7972 -0.2661
 8939SOL    HW138450   3.501   3.222   8.270 -0.4570 -2.5525 -0.7168
 8939SOL    HW238451   3.518   3.323   8.173 -0.3288 -0.8990 -0.8802
 8940SOL     OW38452   0.324   2.603   3.896 -0.4364 -0.2340 -0.6042
 8940SOL    HW138453   0.317   2.644   3.982  2.6270  1.3083 -1.0855
 8940SOL    HW238454   0.374   2.668   3.846 -1.1420  1.3070  0.6940
 8941SOL     OW38455   2.056   2.383   6.210 -0.2100  0.2149  0.1846
 8941SOL    HW138456   1.999   2.393   6.134 -0.9564  0.6644  0.8082
 8941SOL    HW238457   2.067   2.289   6.218 -2.3268  0.0278  0.6538
 8942SOL     OW38458   4.091   4.689   2.033 -0.1654  0.4399 -0.5655
 8942SOL    HW138459   4.095   4.601   2.069 -0.3817  0.3941 -0.6563
 8942SOL    HW238460   4.031   0.010   2.084 -2.0314 -1.5531 -0.6474
 8943SOL     OW38461   2.326   4.656   5.468  0.1235  0.0591  0.2906
 8943SOL    HW138462   2.383   4.606   5.410 -0.5076  0.8911 -1.0339
 8943SOL    HW238463   2.391   4.662   5.538  0.3095 -0.1869  0.1396
 8944SOL     OW38464   3.087   1.588   0.951  0.1706  0.0310  0.3802
 8944SOL    HW138465   3.056   1.660   1.006  1.0040  1.0323 -0.4727
 8944SOL    HW238466   3.071   1.510   1.005  1.3449 -0.2915  0.2749
 8945SOL     OW38467   2.517   1.554   0.056  0.0527  0.9589 -0.4766
 8945SOL    HW138468   2.501   1.528   0.147  2.0930 -0.6720 -0.5824
 8945SOL    HW238469   2.430   1.583   0.031  0.5340  0.9963 -2.1170
 8946SOL     OW38470   3.798   1.307  14.964  0.1069 -0.0903 -0.5988
 8946SOL    HW138471   3.868   1.296  15.028 -2.2234 -1.1742  1.7769
 8946SOL    HW238472   3.789   1.402  14.952  2.3585  0.4829  2.1432
 8947SOL     OW38473   1.955   0.456   5.751  0.3666  0.1166 -0.2919
 8947SOL    HW138474   1.932   0.498   5.834 -2.8566  1.7666 -1.9785
 8947SOL    HW238475   2.035   0.501   5.725  0.1643  0.1866 -0.7971
 8948SOL     OW38476   3.092   3.908   6.827  0.0073 -0.2819  0.0541
 8948SOL    HW138477   3.058   3.900   6.916  0.1254 -0.6561  0.0665
 8948SOL    HW238478   3.186   3.899   6.841  0.1872 -2.3300 -2.5126
 8949SOL     OW38479   4.216   0.684   2.389  0.3235  0.0461  0.5809
 8949SOL    HW138480   4.223   0.615   2.456  2.1078 -2.1456 -1.8509
 8949SOL    HW238481   4.125   0.678   2.359 -0.4236 -1.7357  3.2070
 8950SOL     OW38482   0.099   0.368   5.781  0.7977  0.7758  0.4518
 8950SOL    HW138483   0.055   0.423   5.716 -0.5918 -0.4403  0.3665
 8950SOL    HW238484   0.029   0.350   5.844 -0.5220 -0.2295 -1.2811
 8951SOL     OW38485   4.623   2.022  16.517 -0.2333  0.1314 -0.3262
 8951SOL    HW138486   4.669   1.938  16.509 -0.9722 -0.3256  0.2820
 8951SOL    HW238487   4.571   2.004  16.595  0.3880 -3.1266 -0.6410
 8952SOL     OW38488   3.171   3.692   6.509  0.1642  0.2180 -0.1393
 8952SOL    HW138489   3.132   3.611   6.542 -1.1307  0.8786 -0.0606
 8952SOL    HW238490   3.245   3.656   6.460  0.8982 -0.8247  1.7554
 8953SOL     OW38491   2.854   3.816   0.771 -0.4448  0.2071  0.2208
 8953SOL    HW138492   2.936   3.784   0.735 -2.0985 -2.0735 -1.5637
 8953SOL    HW238493   2.814   3.865   0.698 -0.4973 -1.4562 -0.8698
 8954SOL     OW38494   0.028   1.610   3.512  0.3285 -0.1648 -0.4585
 8954SOL    HW138495   0.031   1.543   3.580 -1.8150  0.5209  0.3063
 8954SOL    HW238496   0.091   1.672   3.547  0.8220 -1.8918  1.6767
 8955SOL     OW38497   1.951   0.366   9.002  0.0434  0.2285 -0.4248
 8955SOL    HW138498   1.917   0.279   9.023  1.6075 -0.5467 -1.1163
 8955SOL    HW238499   1.930   0.373   8.909  0.5695  1.1676 -0.4711
 8956SOL     OW38500   4.480   1.727   8.506 -0.3875 -0.0883 -0.3435
 8956SOL    HW138501   4.395   1.687   8.525  0.0463 -0.7980  0.0946
 8956SOL    HW238502   4.502   1.684   8.423  0.6259  1.1903 -0.7249
 8957SOL     OW38503   2.034   2.191   1.180 -0.4303 -0.2136 -0.5094
 8957SOL    HW138504   1.947   2.216   1.151  0.1311 -0.6901 -2.6028
 8957SOL    HW238505   2.031   2.231   1.267 -0.5528 -0.5037 -0.3800
 8958SOL     OW38506   4.632   1.449   9.453  0.5376 -0.3141 -0.0915
 8958SOL    HW138507   4.625   1.461   9.548 -2.4022 -1.5291 -0.1640
 8958SOL    HW238508   4.540   1.430   9.431  0.7721  0.3699 -1.6820
 8959SOL     OW38509   0.302   0.575   3.613 -0.1450  0.1243 -0.3252
 8959SOL    HW138510   0.358   0.513   3.567  1.8863  0.2894  1.9196
 8959SOL    HW238511   0.234   0.596   3.549 -1.2867 -2.2226  0.1230
 8960SOL     OW38512   1.676   1.898   8.629  1.0525 -0.0718 -0.4436
 8960SOL    HW138513   1.754   1.925   8.679  2.6073  1.8677 -3.9287
 8960SOL    HW238514   1.692   1.932   8.541  2.4667  1.4485  0.3965
 8961SOL     OW38515   2.238   2.789   2.961 -0.0376  0.0028 -0.5349
 8961SOL    HW138516   2.214   2.882   2.954  2.0174  0.7323  2.1403
 8961SOL    HW238517   2.333   2.792   2.951  0.1739 -0.0148  1.5264
 8962SOL     OW38518   1.666   0.573   3.129  0.1656 -0.0962 -0.3497
 8962SOL    HW138519   1.596   0.619   3.083 -0.1750  0.3084  0.5677
 8962SOL    HW238520   1.662   0.618   3.213  1.5351 -2.3134  0.9052
 8963SOL     OW38521   0.912   0.488   7.046  0.2430  0.3482  0.6865
 8963SOL    HW138522   0.850   0.421   7.074  0.2850  0.2042  0.4296
 8963SOL    HW238523   0.942   0.521   7.131  0.1606 -1.4644  1.4163
 8964SOL     OW38524   1.573   2.063   2.984 -0.7415  0.1932 -0.2929
 8964SOL    HW138525   1.562   2.133   2.919  1.4281 -0.0170 -0.8875
 8964SOL    HW238526   1.507   2.073   3.052  0.2059 -2.5376  1.0191
 8965SOL     OW38527   2.156   0.718  14.222  0.0658  0.1180 -0.4679
 8965SOL    HW138528   2.178   0.782  14.290 -4.0309  1.3346 -0.2690
 8965SOL    HW238529   2.214   0.760  14.159  1.2025 -1.4489 -0.4464
 8966SOL     OW38530   2.938   4.345   8.587  0.6616 -0.0038  0.2652
 8966SOL    HW138531   2.911   4.283   8.655  4.4480 -1.5995  0.3044
 8966SOL    HW238532   2.858   4.397   8.572  1.9089  1.5188 -1.0953
 8967SOL     OW38533   1.134   3.964   2.816  0.1691 -0.2969  0.8290
 8967SOL    HW138534   1.122   3.926   2.903 -1.0091 -2.6133 -0.3526
 8967SOL    HW238535   1.049   3.947   2.774  1.4678  0.8913 -2.2644
 8968SOL     OW38536   4.327   1.109  10.938 -0.2674 -0.2373  0.0563
 8968SOL    HW138537   4.273   1.169  10.887 -0.2292 -0.8780 -0.7312
 8968SOL    HW238538   4.375   1.175  10.989 -2.4901  2.4964 -1.3903
 8969SOL     OW38539   2.339   0.888   4.799  0.5725  0.1665  0.3614
 8969SOL    HW138540   2.291   0.831   4.860 -0.0633 -1.3275 -1.5320
 8969SOL    HW238541   2.424   0.871   4.839  1.0315 -0.7346 -1.0088
 8970SOL     OW38542   2.479   4.014   1.861 -0.3125  0.8980 -0.0955
 8970SOL    HW138543   2.424   3.993   1.936 -1.0979  1.7777 -0.4143
 8970SOL    HW238544   2.428   4.091   1.835 -2.9305 -0.8152 -0.0856
 8971SOL     OW38545   4.510   0.098   3.623 -0.0567  0.0295  0.1963
 8971SOL    HW138546   4.431   0.074   3.671 -0.5105  1.6842  0.2892
 8971SOL    HW238547   4.489   0.187   3.595  1.9154  0.3855 -0.0890
 8972SOL     OW38548   0.592   3.744  13.129 -0.1429  0.2721  0.5366
 8972SOL    HW138549   0.624   3.654  13.126  3.0531  1.4426  0.2980
 8972SOL    HW238550   0.570   3.738  13.222 -0.1511  1.3271  0.6033
 8973SOL     OW38551   3.344   0.789  12.671  0.1077 -0.4140 -0.0080
 8973SOL    HW138552   3.351   0.882  12.651 -1.4201 -0.0011  1.4033
 8973SOL    HW238553   3.428   0.756  12.637  2.2442  2.2574  2.7024
 8974SOL     OW38554   2.328   1.253   7.194 -0.1612  0.0779  0.1800
 8974SOL    HW138555   2.374   1.305   7.129  1.3938 -2.3002 -0.6357
 8974SOL    HW238556   2.330   1.166   7.155 -0.6120 -0.2596  0.9200
 8975SOL     OW38557   3.915   3.879  12.970  0.4835  0.2316  0.2715
 8975SOL    HW138558   3.877   3.906  13.054  1.9797 -3.2406  2.0611
 8975SOL    HW238559   3.979   3.951  12.973 -0.4479  1.0611  0.2771
 8976SOL     OW38560   1.169   0.462   0.589  0.6229  0.0819  0.6181
 8976SOL    HW138561   1.258   0.489   0.609  0.8525  0.0300 -0.3403
 8976SOL    HW238562   1.193   0.389   0.531  2.0347  0.2328  1.0210
 8977SOL     OW38563   0.049   0.724   9.574 -0.5669  0.4522  0.5400
 8977SOL    HW138564   0.046   0.659   9.505 -1.9584  0.7956  0.2716
 8977SOL    HW238565   0.083   0.667   9.643 -0.8500  0.6272  0.8256
 8978SOL     OW38566   1.829   1.430   8.944 -0.1950 -0.0490 -0.3229
 8978SOL    HW138567   1.808   1.352   8.893 -2.1416  0.0830  0.2520
 8978SOL    HW238568   1.907   1.401   8.990 -1.3161 -2.2732  0.1764
 8979SOL     OW38569   0.733   1.750   7.594 -0.9183  0.2659 -0.0028
 8979SOL    HW138570   0.656   1.693   7.600 -0.7165 -0.1498 -1.3707
 8979SOL    HW238571   0.692   1.828   7.557  0.9991  0.8863 -0.8356
 8980SOL     OW38572   3.769   1.211   4.136 -0.5840 -0.6876 -0.1205
 8980SOL    HW138573   3.692   1.245   4.182  1.2914  1.6259  1.3342
 8980SOL    HW238574   3.776   1.123   4.172 -1.1779 -0.5285  0.3884
 8981SOL     OW38575   0.083   1.135  10.275  0.3298 -0.1182 -0.2006
 8981SOL    HW138576   0.041   1.054  10.246  1.7274 -0.2825 -1.7273
 8981SOL    HW238577   0.174   1.115  10.294  0.5542 -0.7079 -1.8714
 8982SOL     OW38578   4.654   1.770  12.906 -0.1798  0.4696  0.6830
 8982SOL    HW138579   4.712   1.839  12.875 -2.1494  1.4878 -0.7567
 8982SOL    HW238580   4.691   1.688  12.874 -0.1516  1.1386 -0.9636
 8983SOL     OW38581   0.315   0.846   3.380  0.2277 -0.1173  0.0062
 8983SOL    HW138582   0.363   0.775   3.337  0.4804 -0.3739  0.7224
 8983SOL    HW238583   0.336   0.929   3.336 -1.5871  0.6934  0.6691
 8984SOL     OW38584   4.668   2.031   4.170 -0.2273 -0.7632  0.6672
 8984SOL    HW138585   4.642   1.941   4.151  1.2901 -1.0163 -0.2352
 8984SOL    HW238586   4.699   2.035   4.260  0.2376 -1.7695  0.5437
 8985SOL     OW38587   2.472   0.306   2.220  0.0511 -0.2047  0.3160
 8985SOL    HW138588   2.422   0.314   2.301  1.6970 -0.0047  1.3186
 8985SOL    HW238589   2.521   0.389   2.224 -0.0780 -0.0864 -0.5670
 8986SOL     OW38590   3.279   2.188  11.215  0.2910 -0.1649  0.1363
 8986SOL    HW138591   3.323   2.240  11.148 -2.3458  1.2984 -0.4765
 8986SOL    HW238592   3.310   2.237  11.292 -0.4917  0.9512 -0.2526
 8987SOL     OW38593   4.312   2.763   1.702 -0.3258  0.4069 -0.4185
 8987SOL    HW138594   4.248   2.831   1.723 -2.3174 -1.7754  0.6567
 8987SOL    HW238595   4.378   2.777   1.770 -1.7269 -0.3264  1.1062
 8988SOL     OW38596   2.513   1.886  15.376  0.1685 -0.0584 -0.7043
 8988SOL    HW138597   2.581   1.941  15.338 -0.5724  0.8393 -0.7363
 8988SOL    HW238598   2.463   1.849  15.303  0.6722 -0.6212 -0.7631
 8989SOL     OW38599   0.767   1.190  13.798  0.1883 -0.0204  0.4537
 8989SOL    HW138600   0.680   1.155  13.818 -0.5134 -0.1064 -2.8072
 8989SOL    HW238601   0.805   1.111  13.758 -0.4391 -0.6133  1.0233
 8990SOL     OW38602   0.786   2.074  13.022  0.0216  0.2311 -0.2511
 8990SOL    HW138603   0.828   2.045  13.103  0.2959 -0.0882 -0.5108
 8990SOL    HW238604   0.750   2.156  13.056 -0.0046  0.3872 -0.6590
 8991SOL     OW38605   3.020   0.669   4.928  0.4436  0.0493  0.1801
 8991SOL    HW138606   2.957   0.650   4.997 -1.7210  1.2132 -1.4868
 8991SOL    HW238607   3.000   0.594   4.871  0.7415 -1.1984  1.7242
 8992SOL     OW38608   3.198   0.689   3.778  0.3433  0.3110  0.3488
 8992SOL    HW138609   3.173   0.741   3.855  0.1783  1.5206 -0.5153
 8992SOL    HW238610   3.207   0.601   3.813  1.4417  0.7463  1.1441
 8993SOL     OW38611   2.877   3.861  11.425 -0.0808  0.0295 -0.7381
 8993SOL    HW138612   2.865   3.767  11.434 -2.3976  0.5836  1.9264
 8993SOL    HW238613   2.848   3.887  11.337 -1.2285  0.5824 -0.1993
 8994SOL     OW38614   3.549   3.672   0.151  0.3688  0.0059 -0.3681
 8994SOL    HW138615   3.531   3.599   0.091 -1.7729 -0.5489  0.9471
 8994SOL    HW238616   3.643   3.680   0.136  0.1535  0.1701 -1.7113
 8995SOL     OW38617   3.322   0.295  12.083 -0.1196 -0.0543 -0.3055
 8995SOL    HW138618   3.383   0.348  12.031  0.9703 -0.5571  0.4594
 8995SOL    HW238619   3.304   0.221  12.025  2.8660 -0.2836 -0.9469
 8996SOL     OW38620   1.986   2.371  12.337 -0.3720  0.1297 -0.0913
 8996SOL    HW138621   2.060   2.402  12.285  0.3017 -0.8042  0.3014
 8996SOL    HW238622   2.034   2.355  12.418  0.1314  0.8293 -0.2567
 8997SOL     OW38623   3.811   2.708   8.932 -0.4556 -0.0743  0.0839
 8997SOL    HW138624   3.808   2.613   8.924 -0.2576 -0.3290  3.2569
 8997SOL    HW238625   3.770   2.723   9.017  0.9441  2.9352  0.2490
 8998SOL     OW38626   2.457   2.301   8.502  0.1222  0.2696 -0.2402
 8998SOL    HW138627   2.462   2.221   8.554 -1.7961  0.9382  0.9798
 8998SOL    HW238628   2.517   2.285   8.429  0.3648  1.7768 -0.3564
 8999SOL     OW38629   0.421   1.338   2.711  0.4196  0.6055 -0.3342
 8999SOL    HW138630   0.351   1.404   2.714 -2.4141 -2.3434 -0.7103
 8999SOL    HW238631   0.384   1.269   2.766  1.2620 -0.9640 -1.7265
 9000SOL     OW38632   3.895   1.922   0.255 -0.4825  0.1539  0.0023
 9000SOL    HW138633   3.940   1.844   0.222 -0.1170  1.0122 -1.5459
 9000SOL    HW238634   3.961   1.989   0.273  1.3500 -1.3630 -1.0227
 9001SOL     OW38635   4.609   1.776   1.084 -0.1121  0.6117 -0.5428
 9001SOL    HW138636   4.563   1.854   1.114  0.8693  0.8576  0.3257
 9001SOL    HW238637   4.540   1.726   1.042 -0.0148 -0.8581  1.0340
 9002SOL     OW38638   4.048   0.219   0.870  0.8606 -1.1615 -0.1377
 9002SOL    HW138639   4.112   0.165   0.823  2.3911  0.1684  0.4616
 9002SOL    HW238640   4.100   0.292   0.903  2.2909 -1.2776 -2.1252
 9003SOL     OW38641   0.679   3.823   3.910 -0.2558 -0.0436 -0.1925
 9003SOL    HW138642   0.748   3.760   3.930  0.0500  0.3719  0.0650
 9003SOL    HW238643   0.676   3.872   3.992  0.8861 -2.1707  1.1310
 9004SOL     OW38644   0.930   2.002   2.149  0.2637  0.0332 -0.1145
 9004SOL    HW138645   0.835   2.006   2.164  0.3869 -2.7209  1.4960
 9004SOL    HW238646   0.934   1.910   2.124 -1.2482 -0.0685 -0.0365
 9005SOL     OW38647   4.731   0.520  16.443 -0.1586 -0.7423 -0.1025
 9005SOL    HW138648   0.057   0.452  16.476 -0.8773 -1.7489 -0.8845
 9005SOL    HW238649   4.667   0.518  16.514 -0.7096 -3.9543 -0.6599
 9006SOL     OW38650   3.966   1.247   8.346 -0.0794  0.3284 -0.6554
 9006SOL    HW138651   3.965   1.341   8.332  0.5082  0.3162 -0.7731
 9006SOL    HW238652   3.920   1.225   8.265 -0.5691 -1.4823  0.0955
 9007SOL     OW38653   3.142   3.475  15.168 -0.8616  0.8066  0.0859
 9007SOL    HW138654   3.054   3.439  15.180 -0.6495  0.5722  0.9420
 9007SOL    HW238655   3.173   3.506  15.253 -2.5790  1.4951  0.4616
 9008SOL     OW38656   2.380   2.259  11.963  0.3889  0.0359  0.1868
 9008SOL    HW138657   2.383   2.277  11.869  1.9816  1.9213  0.5916
 9008SOL    HW238658   2.308   2.311  11.997 -1.9849 -0.9552 -3.3091
 9009SOL     OW38659   1.382   1.570  14.081  0.0606  0.8528  0.2288
 9009SOL    HW138660   1.439   1.493  14.073 -0.8616  0.2437 -0.6092
 9009SOL    HW238661   1.337   1.562  13.997  1.0337  0.1890 -0.2225
 9010SOL     OW38662   3.311   3.233  11.414  0.1667 -0.4658  0.3639
 9010SOL    HW138663   3.308   3.224  11.319 -1.4663 -0.2840  0.3919
 9010SOL    HW238664   3.266   3.317  11.427  0.1134 -0.2765 -1.1060
 9011SOL     OW38665   0.529   3.027   7.351  0.1004  0.4000  0.6039
 9011SOL    HW138666   0.547   2.985   7.267 -1.2657 -0.0399  0.5483
 9011SOL    HW238667   0.548   2.951   7.405  0.4779 -0.1124 -0.2480
 9012SOL     OW38668   3.822   1.696   9.515  0.1483  0.0273  0.1113
 9012SOL    HW138669   3.733   1.730   9.506  0.2257  0.9583  3.0225
 9012SOL    HW238670   3.815   1.644   9.595 -1.3245  1.5650  0.9737
 9013SOL     OW38671   3.098   4.692   4.474  0.1434  0.7016  0.2164
 9013SOL    HW138672   3.095   0.014   4.552 -0.0047  1.0622 -0.0453
 9013SOL    HW238673   3.109   0.021   4.402 -1.9041  1.3533  0.4670
 9014SOL     OW38674   0.165   2.637  11.448 -0.2805 -0.2312  0.0827
 9014SOL    HW138675   0.093   2.647  11.386 -1.2260  1.3831  1.4421
 9014SOL    HW238676   0.232   2.691  11.405  1.5472 -1.8566  0.8619
 9015SOL     OW38677   0.569   0.307   6.502 -0.1015 -0.7570  0.5720
 9015SOL    HW138678   0.516   0.277   6.576  0.4890 -0.3057  1.1807
 9015SOL    HW238679   0.590   0.397   6.528 -2.8201  0.3536 -1.0686
 9016SOL     OW38680   3.010   1.933   7.677  0.1861  0.2361  0.2868
 9016SOL    HW138681   2.944   1.993   7.644  1.7183  1.7837  0.0205
 9016SOL    HW238682   2.995   1.868   7.609 -3.7994  1.4466  0.0091
 9017SOL     OW38683   0.846   2.330  14.286 -0.4069  0.3457  0.2395
 9017SOL    HW138684   0.754   2.349  14.266 -0.2463  0.9099  0.0335
 9017SOL    HW238685   0.843   2.332  14.382  2.2268 -0.5688  0.3535
 9018SOL     OW38686   3.835   1.945  11.675  0.6294 -0.0620 -0.2410
 9018SOL    HW138687   3.789   1.981  11.751  0.7624 -1.1829  0.3767
 9018SOL    HW238688   3.878   2.020  11.635  0.6557 -0.0641 -0.2164
 9019SOL     OW38689   0.195   0.328   4.830 -0.0167  0.4429 -0.0019
 9019SOL    HW138690   0.178   0.373   4.748  1.4377 -1.0464 -1.1238
 9019SOL    HW238691   0.174   0.394   4.896  2.3156  1.1732  0.0192
 9020SOL     OW38692   1.439   3.885   4.218  0.5125 -0.6889 -0.1720
 9020SOL    HW138693   1.466   3.835   4.295 -1.9306 -0.1604  1.0227
 9020SOL    HW238694   1.515   3.942   4.202  0.5076 -0.5738  0.2099
 9021SOL     OW38695   0.667   3.619   7.302  0.3866  0.2758 -0.7503
 9021SOL    HW138696   0.654   3.527   7.324  0.6747  0.7506  1.4216
 9021SOL    HW238697   0.757   3.625   7.333 -0.6006 -2.5548  2.6643
 9022SOL     OW38698   1.604   1.071   4.724  0.1002  0.1865 -1.0878
 9022SOL    HW138699   1.612   1.166   4.734  2.0897 -0.3013  1.8118
 9022SOL    HW238700   1.544   1.039   4.791 -1.3034  0.9843 -1.9625
 9023SOL     OW38701   3.714   0.997   8.395  0.1130 -0.6668 -0.6434
 9023SOL    HW138702   3.618   0.993   8.392  0.0231  1.4634 -0.6226
 9023SOL    HW238703   3.737   1.047   8.473 -1.6378 -2.0305  0.7562
 9024SOL     OW38704   3.739   0.553  14.610  0.3576 -0.1023  0.0510
 9024SOL    HW138705   3.811   0.614  14.625  0.6997 -0.8471  1.4599
 9024SOL    HW238706   3.740   0.552  14.515 -1.2032 -0.0283  0.0232
 9025SOL     OW38707   2.117   0.593   8.515 -0.3493 -0.1954 -0.6515
 9025SOL    HW138708   2.134   0.503   8.544 -0.6692 -0.5709 -1.6509
 9025SOL    HW238709   2.148   0.643   8.591  0.4700  0.8642 -1.6659
 9026SOL     OW38710   4.020   2.487   6.465 -0.0540 -0.3898  0.4069
 9026SOL    HW138711   4.076   2.510   6.391  1.7763 -0.4626  1.7625
 9026SOL    HW238712   4.007   2.573   6.505  1.8657  0.2076 -0.2525
 9027SOL     OW38713   1.469   0.801   6.120  0.4235 -0.3858  0.1120
 9027SOL    HW138714   1.401   0.849   6.168 -1.9709 -2.4330 -1.1824
 9027SOL    HW238715   1.427   0.777   6.037 -1.3554  0.6814  0.7085
 9028SOL     OW38716   1.964   3.044  14.106 -0.3314  0.7282  0.5253
 9028SOL    HW138717   2.052   3.044  14.145 -0.1938 -2.9960  0.2046
 9028SOL    HW238718   1.965   2.964  14.053  0.4750  0.8726  0.3130
 9029SOL     OW38719   0.256   2.063   7.823  0.4177  0.5264  0.0900
 9029SOL    HW138720   0.256   2.002   7.897 -1.3337 -0.0147 -0.3640
 9029SOL    HW238721   0.314   2.131   7.860  0.7565  1.0835 -1.4844
 9030SOL     OW38722   1.550   1.972   5.538 -0.3002  0.7916  0.0054
 9030SOL    HW138723   1.466   1.970   5.583  0.9731  2.5010  2.4389
 9030SOL    HW238724   1.528   1.916   5.463 -0.3104  0.6904  0.0842
 9031SOL     OW38725   3.108   2.823   9.251 -0.2734  0.3820 -0.8104
 9031SOL    HW138726   3.172   2.880   9.293 -1.2296  0.4122  0.6028
 9031SOL    HW238727   3.094   2.754   9.315  0.1923  1.3930  0.3614
 9032SOL     OW38728   2.329   1.857   7.841  0.4162 -0.1134  0.1268
 9032SOL    HW138729   2.318   1.938   7.889  1.2160  0.1062 -0.0577
 9032SOL    HW238730   2.251   1.846   7.787 -0.4863 -0.6339  1.5491
 9033SOL     OW38731   0.436   0.660   5.724  0.4630 -0.2345  0.0597
 9033SOL    HW138732   0.343   0.672   5.744  0.2625 -0.3949 -0.7827
 9033SOL    HW238733   0.435   0.569   5.694 -2.2964  0.5121 -2.1071
 9034SOL     OW38734   3.177   4.541   7.033  0.7026  0.0305  0.0778
 9034SOL    HW138735   3.185   4.460   6.983 -0.5301 -1.2208  1.9153
 9034SOL    HW238736   3.083   4.532   7.048  0.0141  2.9722 -2.4384
 9035SOL     OW38737   0.329   0.464   6.624 -0.5928  0.9292  0.0294
 9035SOL    HW138738   0.388   0.531   6.660  3.0651 -1.1928 -2.1175
 9035SOL    HW238739   0.360   0.376   6.643 -0.5224  0.8247 -0.5876
 9036SOL     OW38740   0.909   2.559   7.043 -0.4014 -0.3275  0.3672
 9036SOL    HW138741   0.840   2.536   6.981  0.4971 -1.0823 -0.3362
 9036SOL    HW238742   0.987   2.517   7.009  0.3512  0.1810  1.4633
 9037SOL     OW38743   2.521   3.771   6.504 -0.3819  0.0021 -0.3771
 9037SOL    HW138744   2.519   3.846   6.445 -2.6176 -0.6135 -1.0647
 9037SOL    HW238745   2.610   3.784   6.537 -0.7773 -2.9142  1.8091
 9038SOL     OW38746   1.056   1.286   3.274  0.6111  0.6443 -0.4616
 9038SOL    HW138747   0.986   1.288   3.339  0.4195 -3.1116 -0.5535
 9038SOL    HW238748   1.091   1.371   3.299 -1.5706  1.0775  1.1315
 9039SOL     OW38749   3.989   2.808   2.861  0.6405 -0.0177 -0.0607
 9039SOL    HW138750   3.971   2.827   2.953  0.1671 -0.4029 -0.0694
 9039SOL    HW238751   3.967   2.889   2.815  0.0460 -0.7151 -1.0223
 9040SOL     OW38752   1.462   0.235   4.937  0.4520  0.2014 -0.4604
 9040SOL    HW138753   1.505   0.161   4.981  0.8259 -0.5079 -2.0404
 9040SOL    HW238754   1.402   0.209   4.868  1.3360 -1.4064 -0.6282
 9041SOL     OW38755   1.565   3.342  13.331 -0.1344  0.3411  0.6085
 9041SOL    HW138756   1.524   3.415  13.377  0.3966  0.4164  0.9648
 9041SOL    HW238757   1.620   3.388  13.267 -0.8723 -1.6756 -1.4945
 9042SOL     OW38758   1.569   3.035   8.857 -0.0004 -0.0103  0.2002
 9042SOL    HW138759   1.619   3.111   8.828  0.9780 -1.3290 -1.5644
 9042SOL    HW238760   1.629   3.012   8.928  1.0435  0.7072 -0.4459
 9043SOL     OW38761   4.260   1.741   9.066  0.1353 -0.2482  0.1462
 9043SOL    HW138762   4.208   1.790   9.130  0.0733 -1.2754  0.8934
 9043SOL    HW238763   4.346   1.783   9.067  0.4100 -0.7642 -2.5779
 9044SOL     OW38764   0.359   2.401   8.040 -0.1552 -0.2284  0.0091
 9044SOL    HW138765   0.422   2.346   7.994 -0.7861 -1.0256  0.0981
 9044SOL    HW238766   0.278   2.370   7.999  1.1225 -1.8289 -1.2812
 9045SOL     OW38767   3.442   0.229   1.503  0.0616  0.4101  0.4719
 9045SOL    HW138768   3.491   0.225   1.421 -0.5902  1.6714  0.0267
 9045SOL    HW238769   3.361   0.275   1.479  0.2555  0.5667  0.1214
 9046SOL     OW38770   0.915   4.416  15.003 -0.0092 -0.0476  0.4069
 9046SOL    HW138771   0.850   4.371  14.950  1.1620 -0.1879 -0.8937
 9046SOL    HW238772   0.924   4.496  14.952 -1.4524 -2.0650 -2.9738
 9047SOL     OW38773   2.996   1.470  10.626 -0.0561  0.6211 -0.0841
 9047SOL    HW138774   2.994   1.533  10.554  0.0118 -0.3256 -0.9085
 9047SOL    HW238775   3.026   1.526  10.698 -1.1584 -0.5288  1.2749
 9048SOL     OW38776   3.249   4.104  14.682  0.2386 -0.4118  0.1311
 9048SOL    HW138777   3.217   4.079  14.596  0.9794  1.2852 -0.6276
 9048SOL    HW238778   3.342   4.081  14.684  0.1789 -0.5357  2.5038
 9049SOL     OW38779   1.445   1.611  16.070  0.1450 -0.5704 -0.1489
 9049SOL    HW138780   1.477   1.541  16.013  3.2169  0.1291  0.7497
 9049SOL    HW238781   1.489   1.692  16.043 -1.2623  0.7107  1.4528
 9050SOL     OW38782   3.141   2.162  16.683 -0.2380 -0.0496  0.1687
 9050SOL    HW138783   3.079   2.230  16.655  1.2043  1.2544  0.1449
 9050SOL    HW238784   3.206   2.204  16.739 -0.6338 -1.3790  1.5964
 9051SOL     OW38785   1.719   1.836   5.876 -0.3679 -0.1052  0.4039
 9051SOL    HW138786   1.794   1.779   5.896 -1.5581 -1.8647 -0.1878
 9051SOL    HW238787   1.697   1.796   5.792 -1.6659  1.1912  0.1342
 9052SOL     OW38788   1.878   0.960   4.725 -0.0438 -0.7883  0.2783
 9052SOL    HW138789   1.798   0.987   4.678 -0.9982 -0.4421  2.1151
 9052SOL    HW238790   1.930   0.944   4.646  1.8592  1.4549  1.0878
 9053SOL     OW38791   4.006   3.449  12.496 -0.2296  0.0700 -0.2219
 9053SOL    HW138792   3.950   3.499  12.555  1.0754  2.3924 -0.9670
 9053SOL    HW238793   4.077   3.418  12.552  1.7046  0.9403 -2.2061
 9054SOL     OW38794   3.758   4.540   5.476 -0.1116  0.0084  0.2267
 9054SOL    HW138795   3.785   4.626   5.446 -0.5684  0.4805  1.1498
 9054SOL    HW238796   3.768   4.553   5.571  0.3539  1.4412 -0.0265
 9055SOL     OW38797   0.699   3.735   4.580 -0.3694  0.6565 -0.1722
 9055SOL    HW138798   0.767   3.729   4.512  0.0005  0.3301  0.2321
 9055SOL    HW238799   0.697   3.831   4.588 -0.1328  0.7303 -0.9674
 9056SOL     OW38800   0.425   1.804   6.919 -0.1913  0.0200  0.3968
 9056SOL    HW138801   0.387   1.885   6.952 -2.2635  0.1834 -2.3452
 9056SOL    HW238802   0.515   1.830   6.899 -0.7254  3.0491  2.0794
 9057SOL     OW38803   3.545   3.601   9.850  0.2714  0.1478 -0.7563
 9057SOL    HW138804   3.625   3.632   9.807  0.0326 -0.9370 -1.9790
 9057SOL    HW238805   3.568   3.509   9.861  1.7929  0.4834 -1.1040
 9058SOL     OW38806   2.967   1.517   1.932 -0.2390  0.2959 -0.1990
 9058SOL    HW138807   2.996   1.481   1.848  0.5438 -1.2937  0.7587
 9058SOL    HW238808   2.929   1.437   1.968 -0.0633  0.1264 -0.3890
 9059SOL     OW38809   3.782   1.701   5.745  0.4079  0.4546  0.7746
 9059SOL    HW138810   3.730   1.635   5.699 -1.5790  1.0675  2.1336
 9059SOL    HW238811   3.859   1.720   5.691 -0.2855 -0.0141 -0.3885
 9060SOL     OW38812   3.178   4.037  14.066 -0.2738 -0.0893 -0.5207
 9060SOL    HW138813   3.214   4.035  13.978  0.9597 -0.8060 -0.0002
 9060SOL    HW238814   3.259   4.013  14.111 -0.7061  0.5202  0.6012
 9061SOL     OW38815   0.544   4.488  10.520  0.2672 -0.6648  0.3430
 9061SOL    HW138816   0.613   4.490  10.454 -0.6367 -2.4487 -0.6427
 9061SOL    HW238817   0.602   4.474  10.595  1.2359  0.8224 -0.1218
 9062SOL     OW38818   0.894   3.110   8.172  0.3460  0.0862  0.1637
 9062SOL    HW138819   0.867   3.045   8.237 -2.3367 -0.2337 -1.3085
 9062SOL    HW238820   0.981   3.076   8.150  1.5008  1.4879  2.5876
 9063SOL     OW38821   0.608   0.548  10.165 -0.1904  0.1238 -0.4614
 9063SOL    HW138822   0.529   0.600  10.158 -0.5874 -0.4216 -0.0286
 9063SOL    HW238823   0.614   0.528  10.258 -0.3508  1.0054 -0.2673
 9064SOL     OW38824   0.633   4.713   3.995  0.2165 -0.0984 -0.2441
 9064SOL    HW138825   0.587   0.042   3.940  0.6489  2.9772  2.8865
 9064SOL    HW238826   0.701   0.034   4.036 -0.4298 -1.2632  2.3788
 9065SOL     OW38827   2.630   2.988   6.509  0.2569 -0.8830 -0.3247
 9065SOL    HW138828   2.614   2.897   6.484 -0.0571 -0.9920  0.2802
 9065SOL    HW238829   2.723   2.987   6.533 -0.4379 -0.9120  2.4195
 9066SOL     OW38830   2.775   3.234   3.874  0.4222  0.0936  0.1722
 9066SOL    HW138831   2.789   3.293   3.948 -0.4974  2.4913 -1.5449
 9066SOL    HW238832   2.756   3.157   3.928 -1.0036  1.0505  1.0280
 9067SOL     OW38833   3.969   2.280   3.112 -0.4647 -0.1121  0.1056
 9067SOL    HW138834   3.895   2.243   3.160 -1.1308 -0.3970 -1.1420
 9067SOL    HW238835   3.974   2.223   3.036 -1.6401  0.2653 -0.2465
 9068SOL     OW38836   2.265   4.237  10.473  0.4760  0.2288  0.1636
 9068SOL    HW138837   2.292   4.317  10.519 -0.7222 -1.0244  3.0109
 9068SOL    HW238838   2.272   4.182  10.551  0.9590 -0.1946 -0.1826
 9069SOL     OW38839   3.173   3.012   6.964 -0.2902  0.0060  0.3595
 9069SOL    HW138840   3.248   3.030   7.019  0.7575 -0.8165 -0.8061
 9069SOL    HW238841   3.177   2.917   6.964  1.7323  0.1171  2.9503
 9070SOL     OW38842   1.760   2.095   7.479 -0.2207  0.0824 -0.2315
 9070SOL    HW138843   1.725   2.017   7.436  4.4227 -0.7870 -2.4702
 9070SOL    HW238844   1.845   2.124   7.444  0.7785  0.0912  2.2045
 9071SOL     OW38845   0.914   2.761   5.256 -0.1727  0.3428  0.4682
 9071SOL    HW138846   0.896   2.696   5.324 -1.3582 -2.9588 -3.0088
 9071SOL    HW238847   0.829   2.764   5.213 -0.2607  2.9555  0.8276
 9072SOL     OW38848   2.343   1.773   3.150 -0.0482  0.1891 -0.0562
 9072SOL    HW138849   2.371   1.705   3.089  2.3668  2.1424 -1.1272
 9072SOL    HW238850   2.414   1.833   3.128  1.5558 -1.0013  1.9898
 9073SOL     OW38851   1.160   4.434   2.326 -0.4528 -0.2891  0.0079
 9073SOL    HW138852   1.108   4.360   2.293  0.2087  0.2393 -2.1711
 9073SOL    HW238853   1.226   4.390   2.379 -0.2206  2.8404  2.2719
 9074SOL     OW38854   1.873   3.509   3.241  0.1587 -0.5597  0.5302
 9074SOL    HW138855   1.902   3.561   3.166 -2.5397 -0.2955 -0.2984
 9074SOL    HW238856   1.795   3.554   3.272 -0.4413 -1.0226 -0.3207
 9075SOL     OW38857   0.688   2.378   1.772  0.5618  0.2248  0.0313
 9075SOL    HW138858   0.745   2.302   1.783  1.7531  0.9191 -1.3974
 9075SOL    HW238859   0.743   2.448   1.740  0.2602  0.1312 -0.6881
 9076SOL     OW38860   4.581   3.918   3.617 -0.2333 -0.1594 -0.2270
 9076SOL    HW138861   4.633   3.911   3.537 -1.4118  1.3474 -1.1311
 9076SOL    HW238862   4.537   3.833   3.612 -0.1119 -0.2645  0.4753
 9077SOL     OW38863   1.084   3.417   4.781  0.7199  0.0600  0.1278
 9077SOL    HW138864   1.014   3.469   4.743  0.8702  0.0577 -0.1460
 9077SOL    HW238865   1.035   3.381   4.856  2.5817 -1.2478  0.7050
 9078SOL     OW38866   4.705   0.451  10.093 -0.6508 -0.0452  0.6627
 9078SOL    HW138867   4.627   0.398  10.110 -1.4901  0.6944 -0.9183
 9078SOL    HW238868   4.716   0.419  10.004  0.9760 -1.9239  1.5398
 9079SOL     OW38869   2.129   1.332   6.851 -0.3906  0.0143 -0.6156
 9079SOL    HW138870   2.078   1.309   6.929  1.7829 -2.3539  0.0963
 9079SOL    HW238871   2.216   1.308   6.882 -1.0279 -1.2839  0.1661
 9080SOL     OW38872   0.722   2.975  10.592  0.1845  0.1855  0.0987
 9080SOL    HW138873   0.768   2.992  10.510 -0.2294  0.2391 -0.1234
 9080SOL    HW238874   0.785   2.995  10.661 -0.1705  1.8590 -0.0625
 9081SOL     OW38875   0.265   2.039  10.006  0.5732 -0.3161  0.1408
 9081SOL    HW138876   0.188   2.091  10.029 -0.2153 -0.6766 -1.7194
 9081SOL    HW238877   0.229   2.007   9.923  1.7091  1.5468 -1.0835
 9082SOL     OW38878   2.573   1.048   0.677 -0.6130 -0.2904  0.5811
 9082SOL    HW138879   2.561   1.140   0.702  1.5281  0.3628 -0.7993
 9082SOL    HW238880   2.551   1.008   0.761  0.1426 -0.5541  0.6506
 9083SOL     OW38881   0.328   4.659  15.700  0.7482  0.4199  0.3263
 9083SOL    HW138882   0.242   4.616  15.694  1.2366 -0.5750  0.3923
 9083SOL    HW238883   0.332   4.683  15.608 -0.3930 -0.8297 -0.0528
 9084SOL     OW38884   1.591   0.156   2.536 -0.6301 -0.0642  0.2645
 9084SOL    HW138885   1.624   0.239   2.502  2.0943 -2.0463 -2.0209
 9084SOL    HW238886   1.605   0.095   2.463 -0.1866  2.3478 -1.6542
 9085SOL     OW38887   2.544   2.905  13.504 -0.1587  0.3563  0.7318
 9085SOL    HW138888   2.478   2.836  13.504 -1.6870  1.7954 -0.5033
 9085SOL    HW238889   2.632   2.868  13.509  0.4856  1.9784  1.4684
 9086SOL     OW38890   3.230   1.504   9.103  0.2374  0.6090  0.1326
 9086SOL    HW138891   3.253   1.511   9.196 -1.0253  1.6222  0.3698
 9086SOL    HW238892   3.237   1.596   9.076  2.6581  1.0452  2.1656
 9087SOL     OW38893   0.059   1.157   7.840 -0.2849  0.2097  0.5306
 9087SOL    HW138894   0.137   1.191   7.795 -2.4261 -0.4737 -3.6623
 9087SOL    HW238895   4.725   1.161   7.773  0.6982 -0.3691 -0.5118
 9088SOL     OW38896   3.116   2.982   4.232  0.5481  0.1392 -0.4080
 9088SOL    HW138897   3.045   3.046   4.239  0.1023 -0.5147  1.1124
 9088SOL    HW238898   3.088   2.929   4.157 -1.1474 -1.0105  1.0527
 9089SOL     OW38899   2.063   0.799   3.595 -0.3092 -0.0313 -0.0406
 9089SOL    HW138900   2.119   0.790   3.518 -0.9445 -1.6237 -0.3097
 9089SOL    HW238901   2.045   0.893   3.593 -1.5142 -0.3501 -3.0917
 9090SOL     OW38902   4.530   4.316   5.054  0.1527  0.6362 -0.1428
 9090SOL    HW138903   4.603   4.366   5.017  0.3998 -0.1624 -0.7402
 9090SOL    HW238904   4.458   4.375   5.073 -1.1859 -0.8675 -0.5292
 9091SOL     OW38905   3.351   3.652   9.652  0.1394  0.1321 -0.3373
 9091SOL    HW138906   3.384   3.634   9.740 -1.7680 -0.5597  0.2406
 9091SOL    HW238907   3.393   3.735   9.631  1.9842 -0.5428  0.7045
 9092SOL     OW38908   3.045   4.682   9.122  0.0608 -0.1086 -0.0934
 9092SOL    HW138909   3.080   4.628   9.050  0.2727 -1.8198  1.2951
 9092SOL    HW238910   3.031   0.028   9.070 -3.1880 -0.5872  0.0542
 9093SOL     OW38911   1.211   1.893  10.760 -0.2853  0.0660  0.2281
 9093SOL    HW138912   1.273   1.890  10.834  0.2126  0.6530 -0.1696
 9093SOL    HW238913   1.235   1.976  10.721  3.5424 -0.9004  0.4391
 9094SOL     OW38914   2.302   1.886   1.941  0.3396 -0.0880  0.0683
 9094SOL    HW138915   2.220   1.839   1.954  0.3047 -0.0116  0.1218
 9094SOL    HW238916   2.364   1.832   1.990  1.5840  0.0516 -1.3578
 9095SOL     OW38917   3.741   1.774  11.504  0.6576  0.5938  0.3838
 9095SOL    HW138918   3.786   1.812  11.579  2.1356 -1.3374  0.4790
 9095SOL    HW238919   3.736   1.848  11.444 -0.6608 -0.5256 -0.9027
 9096SOL     OW38920   0.993   3.207   4.163  0.3431 -0.1170 -0.3751
 9096SOL    HW138921   1.072   3.163   4.194  0.5345 -0.7950 -1.8402
 9096SOL    HW238922   0.938   3.201   4.241 -1.8598 -0.4300 -1.9405
 9097SOL     OW38923   3.727   1.183  13.218 -0.0155 -0.3166  0.1487
 9097SOL    HW138924   3.671   1.125  13.165  1.0510  0.5577 -1.9278
 9097SOL    HW238925   3.663   1.214  13.282  0.1308 -0.0561  0.1656
 9098SOL     OW38926   0.544   1.831  12.150 -0.5265  0.6631 -0.0035
 9098SOL    HW138927   0.634   1.819  12.182 -0.7795  1.5616  1.0339
 9098SOL    HW238928   0.507   1.743  12.146  0.3559  0.2606  0.7871
 9099SOL     OW38929   2.688   1.956   7.180 -0.2186  0.0550  0.0295
 9099SOL    HW138930   2.689   1.979   7.273  2.8660  0.6924 -0.1734
 9099SOL    HW238931   2.741   2.031   7.152  0.4938 -1.0386 -1.5597
 9100SOL     OW38932   0.891   0.846   2.674  0.1354 -0.8048 -0.3426
 9100SOL    HW138933   0.953   0.796   2.621  0.6082 -0.6763  0.0846
 9100SOL    HW238934   0.882   0.804   2.759  0.4173  2.4074  1.2985
 9101SOL     OW38935   2.490   1.490   6.471  0.3380  0.3570 -0.3579
 9101SOL    HW138936   2.516   1.573   6.510 -2.0210  1.5387 -1.3007
 9101SOL    HW238937   2.404   1.463   6.503  1.1054 -2.2917 -0.5606
 9102SOL     OW38938   1.773   2.234  14.126  0.0373  0.3269  0.5660
 9102SOL    HW138939   1.868   2.221  14.119 -0.1312 -0.3442 -0.3710
 9102SOL    HW238940   1.745   2.226  14.035  2.0707  3.6354 -0.3810
 9103SOL     OW38941   4.218   0.418   6.806  0.2216  0.4387  0.0861
 9103SOL    HW138942   4.266   0.441   6.886  0.8544 -1.7396  0.3305
 9103SOL    HW238943   4.286   0.390   6.745 -0.1515  1.1382 -0.6628
 9104SOL     OW38944   2.083   2.565  15.216  0.2518 -0.1424 -0.1434
 9104SOL    HW138945   2.085   2.508  15.292  0.9599  1.5644  1.0998
 9104SOL    HW238946   2.165   2.613  15.223  0.7483 -0.8823 -0.9214
 9105SOL     OW38947   2.308   0.139   4.721  0.4491  0.1704 -0.1231
 9105SOL    HW138948   2.331   0.165   4.810  0.2102 -1.5784  0.4424
 9105SOL    HW238949   2.379   0.079   4.699 -1.3420 -1.7985 -0.5238
 9106SOL     OW38950   1.304   2.111   0.236 -0.2177 -0.4838  0.3114
 9106SOL    HW138951   1.257   2.033   0.206 -2.2447  0.1219  1.8995
 9106SOL    HW238952   1.263   2.167   0.171 -0.2541  0.8053  1.4440
 9107SOL     OW38953   0.968   0.472   9.827  0.5900 -0.7779  0.4014
 9107SOL    HW138954   0.874   0.470   9.849  0.6169 -0.5563  0.5388
 9107SOL    HW238955   1.001   0.559   9.846  0.6800 -0.8528  0.5843
 9108SOL     OW38956   2.574   2.746   9.387 -0.6526 -0.2211  0.2015
 9108SOL    HW138957   2.516   2.822   9.395 -0.1464  0.4862 -2.7934
 9108SOL    HW238958   2.652   2.790   9.421 -1.0127  1.9229 -1.6904
 9109SOL     OW38959   0.215   2.508   1.076 -0.4952 -0.3959 -0.1917
 9109SOL    HW138960   0.226   2.602   1.087  0.5826 -0.0757 -3.9303
 9109SOL    HW238961   0.305   2.482   1.053 -0.7761 -1.4506 -0.0995
 9110SOL     OW38962   3.174   1.447  16.553  0.3761 -0.0175  0.4992
 9110SOL    HW138963   3.221   1.371  16.520  2.0386  1.1583  0.1229
 9110SOL    HW238964   3.089   1.421  16.588  0.3672  2.5538  2.4201
 9111SOL     OW38965   1.400   4.227   4.826  0.1564  0.1407  0.5086
 9111SOL    HW138966   1.440   4.141   4.832  0.0440  0.1915  1.9233
 9111SOL    HW238967   1.419   4.245   4.734 -1.2019  1.2917  0.4443
 9112SOL     OW38968   2.500   1.592  14.928  0.5114  0.0220 -0.0889
 9112SOL    HW138969   2.485   1.527  14.997 -1.1156  2.0365  1.4884
 9112SOL    HW238970   2.446   1.562  14.855 -0.2302 -0.3993  0.6330
 9113SOL     OW38971   2.789   0.498   9.659  0.5990 -0.1645  0.4220
 9113SOL    HW138972   2.851   0.567   9.636 -0.2279  0.6886  0.7675
 9113SOL    HW238973   2.715   0.522   9.603  2.5880 -1.6185 -2.8481
 9114SOL     OW38974   3.645   4.317  11.182 -0.0464 -0.3016  0.0827
 9114SOL    HW138975   3.552   4.334  11.191  0.1692  0.5626  0.6376
 9114SOL    HW238976   3.676   4.297  11.270  1.7748  2.1853  0.0293
 9115SOL     OW38977   0.725   1.318   5.420  0.0212  0.2033  0.0387
 9115SOL    HW138978   0.752   1.242   5.370 -1.2705 -0.5588  0.5223
 9115SOL    HW238979   0.649   1.351   5.372 -0.1542 -2.3291 -1.3996
 9116SOL     OW38980   3.060   1.931   1.362 -0.2564 -0.2312  0.0722
 9116SOL    HW138981   2.976   1.965   1.392  0.4945  0.4146  1.3982
 9116SOL    HW238982   3.084   1.988   1.288  1.1252  0.4771  1.0686
 9117SOL     OW38983   1.879   4.682   8.481  0.4946 -0.1311  0.3578
 9117SOL    HW138984   1.789   4.701   8.457  0.2722 -0.8866  0.5844
 9117SOL    HW238985   1.900   0.019   8.543 -0.0736  0.0263  0.3669
 9118SOL     OW38986   0.941   1.112   7.430 -0.1907  0.1538  0.1361
 9118SOL    HW138987   0.947   1.207   7.429 -0.2915  0.1408 -1.4499
 9118SOL    HW238988   0.913   1.093   7.341  0.5164  1.1296 -0.2813
 9119SOL     OW38989   4.563   3.997   8.605 -0.3848  0.0113 -0.6550
 9119SOL    HW138990   4.548   3.903   8.595 -3.3494  0.0093  3.7569
 9119SOL    HW238991   4.559   4.025   8.513 -2.1607  0.5235 -0.4243
 9120SOL     OW38992   0.218   4.490   5.265  0.2059  0.3081  0.3449
 9120SOL    HW138993   0.308   4.511   5.288  0.0445  2.9435 -1.5488
 9120SOL    HW238994   0.225   4.396   5.286  3.3347  0.1512 -1.5161
 9121SOL     OW38995   2.086   3.600  11.035  0.6629 -0.2963  0.0941
 9121SOL    HW138996   2.110   3.611  10.943 -2.7510  1.7033 -0.5762
 9121SOL    HW238997   2.051   3.687  11.055 -3.6699 -1.7314 -1.1375
 9122SOL     OW38998   2.398   3.646  17.467  0.2681  0.2949 -1.0073
 9122SOL    HW138999   2.478   3.688  17.497 -0.5809  0.3689  1.1476
 9122SOL    HW239000   2.401   3.553  17.489 -0.4080  0.4566 -0.2607
 9123SOL     OW39001   4.518   1.665  11.496 -0.1032  0.2130 -0.4897
 9123SOL    HW139002   4.431   1.634  11.521 -0.8046 -0.1174 -3.4414
 9123SOL    HW239003   4.573   1.613  11.555  0.2720 -0.3011 -1.2961
 9124SOL     OW39004   1.930   2.077   8.113  0.3421  0.1537  0.4871
 9124SOL    HW139005   1.904   2.168   8.126  3.0537  1.3262 -2.1832
 9124SOL    HW239006   1.846   2.034   8.095  0.2405  1.3318 -1.9284
 9125SOL     OW39007   1.646   3.371   8.011 -0.5917  0.1613 -0.3015
 9125SOL    HW139008   1.571   3.411   7.965 -0.3414 -0.5129 -1.2720
 9125SOL    HW239009   1.616   3.370   8.102  4.6263  1.7188  1.3870
 9126SOL     OW39010   2.160   4.504   2.818  0.1821  0.3393 -0.4206
 9126SOL    HW139011   2.226   4.491   2.750  0.5680  1.1935 -0.2055
 9126SOL    HW239012   2.073   4.494   2.779  1.2469 -1.0926 -2.4393
 9127SOL     OW39013   2.719   1.868   9.062  0.0823  0.3242 -0.0544
 9127SOL    HW139014   2.778   1.935   9.028  1.0424  0.4220  1.7618
 9127SOL    HW239015   2.714   1.898   9.153 -2.0792 -0.5158  0.0919
 9128SOL     OW39016   2.775   4.711  13.760 -0.0471  0.1049  0.9040
 9128SOL    HW139017   2.681   4.695  13.757  0.0259 -0.2857  0.7002
 9128SOL    HW239018   2.806   4.625  13.789 -0.3231 -0.0226  0.8205
 9129SOL     OW39019   0.451   2.664  15.543  0.5225  0.2054 -0.1335
 9129SOL    HW139020   0.407   2.718  15.477  0.6124  2.8714  1.9896
 9129SOL    HW239021   0.455   2.575  15.510 -2.0559  0.5924 -1.4935
 9130SOL     OW39022   3.714   3.337   5.046 -0.5950 -0.2694 -0.2131
 9130SOL    HW139023   3.760   3.268   5.094 -0.8193 -0.5866 -0.4506
 9130SOL    HW239024   3.739   3.419   5.088  0.2311 -1.0190  0.7664
 9131SOL     OW39025   0.852   1.192   4.180 -0.0613  0.0350 -0.1522
 9131SOL    HW139026   0.848   1.246   4.101  0.2294  0.2176 -0.0444
 9131SOL    HW239027   0.762   1.161   4.186  0.1170 -0.6068 -0.7336
 9132SOL     OW39028   3.636   2.117   1.825  0.4165  0.8032  0.3860
 9132SOL    HW139029   3.657   2.025   1.808  0.8069  0.4251  2.9687
 9132SOL    HW239030   3.540   2.116   1.828  0.4197 -0.6640  0.2217
 9133SOL     OW39031   3.794   1.127   4.489 -0.3862  0.0260 -0.1634
 9133SOL    HW139032   3.779   1.094   4.400 -0.8124  1.3675 -0.5866
 9133SOL    HW239033   3.755   1.053   4.536 -1.8111  0.9304  0.0870
 9134SOL     OW39034   2.229   2.776   4.155 -0.6102 -0.5022  0.2734
 9134SOL    HW139035   2.225   2.825   4.073 -1.4032  1.1027  1.2758
 9134SOL    HW239036   2.251   2.692   4.116 -0.6653  1.5814 -4.2594
 9135SOL     OW39037   0.228   1.539   7.272  0.4667 -0.5583  0.2256
 9135SOL    HW139038   0.310   1.568   7.231  0.6350 -0.2678  0.7707
 9135SOL    HW239039   0.234   1.585   7.356 -1.6610  1.9793 -1.0384
 9136SOL     OW39040   0.222   3.379   4.489  0.2998  0.3299 -0.8687
 9136SOL    HW139041   0.151   3.317   4.475  1.6054 -1.3406 -0.1219
 9136SOL    HW239042   0.284   3.320   4.530  0.9354 -0.2482 -2.6545
 9137SOL     OW39043   1.082   2.514   1.458  0.3594  0.2297 -0.2650
 9137SOL    HW139044   1.115   2.446   1.516  1.9015  1.5830  0.4590
 9137SOL    HW239045   0.991   2.486   1.454  0.3173  0.5037 -1.2805
 9138SOL     OW39046   1.499   1.422  15.884  0.2077  0.6163  0.0136
 9138SOL    HW139047   1.437   1.351  15.897  0.0723  1.0767  1.8341
 9138SOL    HW239048   1.512   1.416  15.789 -1.7591 -1.5975 -0.1240
 9139SOL     OW39049   3.127   4.302   4.001  0.7193 -0.4672  0.0602
 9139SOL    HW139050   3.160   4.325   3.914 -0.1697 -0.6532 -0.3319
 9139SOL    HW239051   3.053   4.362   4.012  1.9546  0.6744  2.1820
 9140SOL     OW39052   4.659   0.247  12.909  0.0508  0.3603  0.2196
 9140SOL    HW139053   4.586   0.194  12.875  0.4894 -0.3295  0.3623
 9140SOL    HW239054   4.669   0.302  12.831 -1.5659  0.3780  0.0068
 9141SOL     OW39055   2.439   4.460   8.702  0.0370  0.0088  0.3579
 9141SOL    HW139056   2.428   4.385   8.761  0.8140  0.6789  1.3533
 9141SOL    HW239057   2.347   4.486   8.696  0.0839  0.1137  0.1000
 9142SOL     OW39058   0.446   4.429  16.717  0.5442  0.1729 -0.5880
 9142SOL    HW139059   0.421   4.509  16.672  0.0208 -0.2232 -0.9895
 9142SOL    HW239060   0.539   4.453  16.720  0.1187  1.2673  4.7399
 9143SOL     OW39061   1.375   3.418   5.144  0.5032 -0.6576 -0.0241
 9143SOL    HW139062   1.296   3.367   5.125  3.0137 -3.6923 -2.3337
 9143SOL    HW239063   1.406   3.438   5.056 -1.0588  0.4622 -0.3190
 9144SOL     OW39064   3.137   4.000   8.780  0.1513 -0.2461 -0.1839
 9144SOL    HW139065   3.152   4.072   8.841  1.2746 -1.8442  1.4044
 9144SOL    HW239066   3.049   4.026   8.751  0.6420  0.6170 -0.9146
 9145SOL     OW39067   1.127   2.471  13.356  0.0348  0.1692  0.3775
 9145SOL    HW139068   1.126   2.396  13.417  0.6409 -1.4993 -1.6640
 9145SOL    HW239069   1.076   2.528  13.413  1.7765  1.6962  0.4303
 9146SOL     OW39070   3.086   2.760  11.149 -0.3159 -0.8220  0.0045
 9146SOL    HW139071   3.160   2.731  11.096 -1.7686 -1.1887 -1.8519
 9146SOL    HW239072   3.081   2.695  11.218 -1.1009 -0.4616  0.2871
 9147SOL     OW39073   2.444   4.557   3.856  0.2174 -0.1608  0.0881
 9147SOL    HW139074   2.405   4.641   3.877  0.5748  0.0240  0.0067
 9147SOL    HW239075   2.419   4.542   3.765 -0.6152  2.4315 -0.1052
 9148SOL     OW39076   2.725   3.823  11.907  0.0929  0.2230 -0.0181
 9148SOL    HW139077   2.725   3.728  11.915  1.6701  0.1730 -0.5977
 9148SOL    HW239078   2.739   3.859  11.995 -2.1998 -0.3115  0.5581
 9149SOL     OW39079   0.550   3.882   5.340  0.4883  0.3881  0.8413
 9149SOL    HW139080   0.535   3.960   5.287  1.2015 -0.8516 -1.2027
 9149SOL    HW239081   0.646   3.876   5.341  0.4341 -0.3809  1.3705
 9150SOL     OW39082   3.392   4.652   6.487 -0.5422 -0.2631  0.5189
 9150SOL    HW139083   3.380   4.726   6.546 -2.8392 -1.2156  1.2424
 9150SOL    HW239084   3.373   4.579   6.546 -2.2416  0.9289  1.4386
 9151SOL     OW39085   3.135   1.306   1.746  0.0899 -0.2152  0.5698
 9151SOL    HW139086   3.221   1.272   1.720 -1.3976 -2.1803 -1.7261
 9151SOL    HW239087   3.120   1.260   1.828  0.6864  0.3227  0.9752
 9152SOL     OW39088   0.260   3.303   6.384 -0.5831 -0.1084  0.4073
 9152SOL    HW139089   0.331   3.345   6.335 -0.9126 -0.7536 -0.6297
 9152SOL    HW239090   0.276   3.332   6.474 -0.5002  2.2281 -0.3400
 9153SOL     OW39091   2.365   2.713  15.014  1.0913 -0.3267 -0.6137
 9153SOL    HW139092   2.334   2.683  14.929  1.5148  0.0048 -0.8842
 9153SOL    HW239093   2.382   2.632  15.063 -1.6036  0.4683  1.6244
 9154SOL     OW39094   2.253   4.397   0.478  0.4517  0.6157  0.2254
 9154SOL    HW139095   2.281   4.308   0.501  0.7720  0.3850 -1.0489
 9154SOL    HW239096   2.276   4.392   0.385 -2.2558  0.7973 -0.4527
 9155SOL     OW39097   3.074   1.812   9.316 -0.6590  0.2017  0.0095
 9155SOL    HW139098   3.083   1.770   9.401 -1.0691  1.9392  0.9153
 9155SOL    HW239099   3.003   1.874   9.335  2.0369  3.0332  1.0175
 9156SOL     OW39100   1.602   1.094   3.703 -0.0163 -0.2853 -0.5727
 9156SOL    HW139101   1.664   1.087   3.777  0.0908  0.5131 -0.5920
 9156SOL    HW239102   1.622   1.179   3.665  1.2516  0.8599  2.6270
 9157SOL     OW39103   0.373   3.037   9.608  0.4909 -0.0866  0.4679
 9157SOL    HW139104   0.286   3.001   9.591  1.3624 -1.0572 -1.9613
 9157SOL    HW239105   0.419   2.963   9.647  1.8136  0.9902  0.9656
 9158SOL     OW39106   0.187   0.616   4.319  0.3039 -0.3284  0.7416
 9158SOL    HW139107   0.109   0.615   4.264 -0.3490 -0.5000  1.6774
 9158SOL    HW239108   0.252   0.644   4.255  0.0772  0.4259  0.8432
 9159SOL     OW39109   3.585   0.897   4.885 -0.4061 -0.5868  0.2956
 9159SOL    HW139110   3.549   0.809   4.898 -0.4736 -0.5511  0.3478
 9159SOL    HW239111   3.554   0.926   4.800 -0.6166 -1.0782  0.2014
 9160SOL     OW39112   1.739   1.824   1.377 -0.4915  0.2037 -0.3474
 9160SOL    HW139113   1.671   1.819   1.445 -0.4233  4.1166  0.0231
 9160SOL    HW239114   1.751   1.730   1.370 -1.3557  0.1564 -1.2420
 9161SOL     OW39115   2.386   1.405  13.815 -0.4797  0.0558  0.4365
 9161SOL    HW139116   2.353   1.369  13.732  1.1181  1.4486 -0.7822
 9161SOL    HW239117   2.312   1.447  13.859 -0.9391 -0.4178  0.1188
 9162SOL     OW39118   1.628   1.379   4.009  0.5684 -0.4029  0.1633
 9162SOL    HW139119   1.609   1.288   3.986 -0.1390 -0.0612 -0.5987
 9162SOL    HW239120   1.540   1.413   4.021  0.7819  0.0265  0.5263
 9163SOL     OW39121   1.580   0.656  16.788  0.4149 -0.3102 -0.0254
 9163SOL    HW139122   1.585   0.690  16.699 -1.1860  0.9269  0.3582
 9163SOL    HW239123   1.671   0.659  16.817  0.7413  1.7820 -1.2400
 9164SOL     OW39124   1.557   1.109   3.998 -0.8577  0.3439 -0.2942
 9164SOL    HW139125   1.596   1.022   3.996  2.3955  1.8116 -0.9190
 9164SOL    HW239126   1.466   1.082   4.010 -0.5818  0.5398  2.3388
 9165SOL     OW39127   0.238   4.095   5.778  0.0621 -0.4830 -0.1467
 9165SOL    HW139128   0.325   4.120   5.811  0.1694 -2.7210  1.2510
 9165SOL    HW239129   0.192   4.154   5.838  0.0765 -0.2200 -0.3927
 9166SOL     OW39130   4.125   1.421   8.045 -0.1603 -0.1121 -0.3970
 9166SOL    HW139131   4.114   1.499   8.099  2.6168  2.1654 -3.0949
 9166SOL    HW239132   4.202   1.383   8.087  0.4642 -0.2849 -1.7003
 9167SOL     OW39133   4.452   1.164   6.479 -0.6501 -0.2899 -0.2372
 9167SOL    HW139134   4.472   1.245   6.432 -0.2758 -2.0845 -3.1624
 9167SOL    HW239135   4.375   1.134   6.431 -1.0692  4.0620 -2.2892
 9168SOL     OW39136   0.734   0.208   5.716  0.7155 -0.3185 -0.2847
 9168SOL    HW139137   0.653   0.174   5.756 -0.1552 -0.5046 -2.2110
 9168SOL    HW239138   0.790   0.131   5.726 -0.9487 -1.2541  2.0381
 9169SOL     OW39139   1.917   2.390  17.385 -1.1564 -0.1452 -0.1225
 9169SOL    HW139140   1.997   2.406  17.334 -1.8898 -3.4985 -2.2616
 9169SOL    HW239141   1.859   2.460  17.355  0.5927  1.2545 -0.2693
 9170SOL     OW39142   2.310   1.075   2.561  0.1772  0.2218  0.7920
 9170SOL    HW139143   2.388   1.023   2.541  1.3715  2.2969 -0.0704
 9170SOL    HW239144   2.271   1.023   2.631 -0.0004 -1.0973 -0.2781
 9171SOL     OW39145   3.414   0.773   5.324  0.1386 -0.3827  0.5942
 9171SOL    HW139146   3.436   0.825   5.247 -0.8143 -0.5845  0.1901
 9171SOL    HW239147   3.394   0.841   5.388 -3.5035  0.5625 -1.5674
 9172SOL     OW39148   3.867   2.343   8.484 -0.3537  0.2780  0.1556
 9172SOL    HW139149   3.953   2.322   8.449  0.3340 -0.4990  2.3124
 9172SOL    HW239150   3.880   2.436   8.503  0.0948 -0.1480  1.8820
 9173SOL     OW39151   1.207   4.260   7.983 -0.0391 -0.2914  0.3351
 9173SOL    HW139152   1.122   4.272   8.025 -0.6840  0.3270 -1.1576
 9173SOL    HW239153   1.209   4.323   7.911 -0.9629 -0.6334  0.0161
 9174SOL     OW39154   0.735   0.845   5.294 -0.1761  0.0917 -0.5987
 9174SOL    HW139155   0.657   0.802   5.259  0.9714 -0.2129 -2.7883
 9174SOL    HW239156   0.765   0.779   5.356 -1.5491  0.5922  0.6238
 9175SOL     OW39157   1.343   2.921   7.589 -0.4608  0.3939 -0.1062
 9175SOL    HW139158   1.382   2.961   7.511  4.2009 -2.4424  0.7935
 9175SOL    HW239159   1.330   2.832   7.556 -0.0059  0.1289  0.4404
 9176SOL     OW39160   0.130   4.109   9.185  0.0963  0.1323 -0.2418
 9176SOL    HW139161   0.108   4.049   9.114 -3.3883 -0.3431  1.2656
 9176SOL    HW239162   0.155   4.186   9.133 -1.0068  1.0808  0.6265
 9177SOL     OW39163   2.027   0.149  13.539  0.6765 -0.1719 -0.3216
 9177SOL    HW139164   2.023   0.218  13.473  0.7451  0.2756  0.1486
 9177SOL    HW239165   1.974   0.178  13.613  2.6115  2.8065 -0.0956
 9178SOL     OW39166   1.897   0.257   6.044 -0.4367  0.2504  0.2960
 9178SOL    HW139167   1.958   0.331   6.043  0.1247 -0.1952  2.7353
 9178SOL    HW239168   1.876   0.254   6.137  1.9816  0.4065  0.8364
 9179SOL     OW39169   2.368   3.606   3.403 -0.1389 -0.0157 -0.5126
 9179SOL    HW139170   2.293   3.623   3.460 -0.2816 -1.6394 -0.1989
 9179SOL    HW239171   2.441   3.640   3.454  0.2667 -0.0358 -1.0826
 9180SOL     OW39172   0.059   3.146   0.205 -0.6411 -0.4340  0.0668
 9180SOL    HW139173   0.016   3.204   0.267 -0.9083 -0.2330 -0.3091
 9180SOL    HW239174   0.132   3.199   0.172 -2.4393  1.9532 -0.0608
 9181SOL     OW39175   0.553   4.290   8.011 -0.0011  0.4806  0.0902
 9181SOL    HW139176   0.576   4.242   8.090 -1.8133  2.9004  2.0636
 9181SOL    HW239177   0.534   4.215   7.955 -0.0063 -0.6454  1.6000
 9182SOL     OW39178   2.248   3.781   2.590 -0.5624  0.4321  0.2465
 9182SOL    HW139179   2.206   3.760   2.507  0.4728 -0.2101 -0.0978
 9182SOL    HW239180   2.166   3.792   2.639  0.0929  0.7366  1.2780
 9183SOL     OW39181   0.482   1.491  16.592 -0.2311 -0.5296  0.3311
 9183SOL    HW139182   0.450   1.508  16.504 -1.0141  1.3765  0.9809
 9183SOL    HW239183   0.438   1.407  16.606 -1.6798  0.2969  0.7613
 9184SOL     OW39184   4.357   1.048   7.611  0.1295 -0.1959 -0.0305
 9184SOL    HW139185   4.296   1.074   7.680 -2.4182 -0.6310 -2.1113
 9184SOL    HW239186   4.309   0.979   7.567  2.3772 -1.7730 -0.0166
 9185SOL     OW39187   4.667   3.434   4.620  0.3186  0.1594 -0.2142
 9185SOL    HW139188   4.616   3.503   4.663 -0.8165 -0.0574 -1.2218
 9185SOL    HW239189   4.606   3.382   4.568  1.3149 -0.9343 -0.2978
 9186SOL     OW39190   0.520   0.989   3.207 -0.4983 -0.2970  0.6859
 9186SOL    HW139191   0.535   1.031   3.122  1.6436  1.4812  1.9506
 9186SOL    HW239192   0.552   0.900   3.191 -0.8742 -0.1558 -0.8363
 9187SOL     OW39193   3.494   1.859   5.157 -0.6955  0.2209  0.0009
 9187SOL    HW139194   3.417   1.822   5.201 -0.1004  0.0928  0.9249
 9187SOL    HW239195   3.485   1.954   5.171  0.1870  0.5924 -1.9449
 9188SOL     OW39196   4.582   0.124   9.128 -0.2490 -0.4268 -0.4175
 9188SOL    HW139197   4.506   0.101   9.075 -0.2964 -3.2469  0.8861
 9188SOL    HW239198   4.625   0.040   9.115 -1.3827 -1.4036  2.1443
 9189SOL     OW39199   1.324   4.059   3.480  0.1933 -0.1167 -0.6694
 9189SOL    HW139200   1.307   3.994   3.412 -0.1243  1.6299 -2.2470
 9189SOL    HW239201   1.256   4.125   3.465 -1.0591 -0.9263  1.3433
 9190SOL     OW39202   0.530   0.430   5.437  0.4815 -0.1191  0.1286
 9190SOL    HW139203   0.470   0.434   5.511 -1.5215  1.2056 -1.5783
 9190SOL    HW239204   0.502   0.510   5.392  0.0772  0.8016  2.0511
 9191SOL     OW39205   4.537   4.257  16.483  0.4007  0.3040  0.5410
 9191SOL    HW139206   4.610   4.197  16.496 -0.0447  0.5872  4.3087
 9191SOL    HW239207   4.560   4.294  16.397  2.9790 -1.5806  0.4274
 9192SOL     OW39208   1.633   4.156   5.159 -0.1173 -0.6559  0.4855
 9192SOL    HW139209   1.603   4.237   5.118  2.4724 -0.1696 -0.4036
 9192SOL    HW239210   1.710   4.189   5.204  0.3203  2.3109 -2.4254
 9193SOL     OW39211   0.437   2.339   3.910  0.7444 -0.5673 -0.6841
 9193SOL    HW139212   0.509   2.385   3.953  0.8003 -1.4662  0.1777
 9193SOL    HW239213   0.384   2.418   3.895 -0.7205 -1.4702 -0.1715
 9194SOL     OW39214   3.591   3.966  16.582  0.1096 -0.6962  0.6755
 9194SOL    HW139215   3.617   4.014  16.503  0.6960  0.6686  1.6970
 9194SOL    HW239216   3.611   4.032  16.648 -1.8149 -0.9996  1.5639
 9195SOL     OW39217   0.141   3.589   5.403  0.2002  0.4136 -0.5704
 9195SOL    HW139218   0.121   3.525   5.335 -1.5714 -0.4866  0.7739
 9195SOL    HW239219   0.211   3.641   5.365  2.0905 -2.8329 -1.4928
 9196SOL     OW39220   2.738   2.088   5.541  0.2764 -0.1517  0.2489
 9196SOL    HW139221   2.785   2.050   5.467  0.4532 -2.7431  1.6985
 9196SOL    HW239222   2.711   2.173   5.506  0.2384  0.9698  2.9686
 9197SOL     OW39223   3.805   3.741   7.141  0.3941 -0.2675  0.5968
 9197SOL    HW139224   3.721   3.745   7.187  0.3197  1.8747  0.2878
 9197SOL    HW239225   3.773   3.764   7.054 -0.9384  0.7334  1.3365
 9198SOL     OW39226   2.513   2.901  13.930 -0.0876  0.2134 -0.6491
 9198SOL    HW139227   2.445   2.954  13.970  0.6260  0.6709 -0.0439
 9198SOL    HW239228   2.590   2.955  13.947 -2.6266  3.7644 -0.5121
 9199SOL     OW39229   4.517   2.480   7.680 -0.8229 -0.3193  0.5494
 9199SOL    HW139230   4.511   2.506   7.772  0.3137  0.8914  0.2826
 9199SOL    HW239231   4.517   2.384   7.677 -2.4086 -0.3095  0.3894
 9200SOL     OW39232   0.607   2.928   4.765  0.7468 -0.2623  0.0246
 9200SOL    HW139233   0.551   2.930   4.687  1.5017  2.1626 -0.4568
 9200SOL    HW239234   0.545   2.916   4.837  0.9080 -1.5616 -0.0568
 9201SOL     OW39235   4.003   1.687   0.736  0.3821  0.3129  0.0656
 9201SOL    HW139236   4.015   1.597   0.703  0.7898 -0.0744  1.2658
 9201SOL    HW239237   4.041   1.724   0.656  0.7706 -0.6172 -0.1833
 9202SOL     OW39238   2.101   2.697   9.828  0.5144  0.6031  0.3598
 9202SOL    HW139239   2.028   2.677   9.888  0.0634  0.5881 -0.1964
 9202SOL    HW239240   2.119   2.780   9.872  2.7389 -0.0536  0.6794
 9203SOL     OW39241   0.443   2.373   4.456 -0.2415  0.6320  0.4198
 9203SOL    HW139242   0.396   2.387   4.373  2.4159  0.0935 -1.1608
 9203SOL    HW239243   0.491   2.292   4.442  0.7325  1.5221 -1.2971
 9204SOL     OW39244   1.718   2.344  10.510  0.0730  0.5851 -0.1079
 9204SOL    HW139245   1.634   2.382  10.484  0.4144  0.0880 -1.9346
 9204SOL    HW239246   1.759   2.409  10.567  2.2829  0.6297 -1.7794
 9205SOL     OW39247   0.305   2.122   8.859 -0.2138 -0.6134 -0.0550
 9205SOL    HW139248   0.235   2.186   8.868  1.0006  0.5788  0.9337
 9205SOL    HW239249   0.276   2.079   8.778  1.0781 -0.3611 -0.6457
 9206SOL     OW39250   2.901   1.981   9.420  0.0192  0.2973  0.4127
 9206SOL    HW139251   2.809   2.001   9.401  0.7351  3.1947 -0.0115
 9206SOL    HW239252   2.934   2.071   9.423  1.4107 -0.2126  0.4200
 9207SOL     OW39253   0.160   4.015  13.098  0.1627  0.2544 -0.1983
 9207SOL    HW139254   0.078   3.992  13.143  1.2044 -2.6397  0.2435
 9207SOL    HW239255   0.215   3.944  13.132  0.2503  0.8312  0.8323
 9208SOL     OW39256   0.307   0.344   7.348  0.1128 -0.1132  0.5462
 9208SOL    HW139257   0.326   0.351   7.442 -0.5525 -1.0599  0.7523
 9208SOL    HW239258   0.392   0.316   7.315  0.6599  3.4627 -1.0234
 9209SOL     OW39259   3.111   0.361  12.263 -0.0263 -0.6401 -0.2597
 9209SOL    HW139260   3.065   0.412  12.196 -0.5918  0.6874  1.1595
 9209SOL    HW239261   3.185   0.328  12.212  0.5519 -0.4097  0.4300
 9210SOL     OW39262   1.597   4.633   4.047 -0.4210  0.1670 -0.4877
 9210SOL    HW139263   1.530   4.671   4.103 -1.8865 -0.6437 -1.7019
 9210SOL    HW239264   1.667   4.699   4.050  1.1487 -1.6368  2.0501
 9211SOL     OW39265   1.409   4.658   4.851  0.3146 -0.5276  0.0646
 9211SOL    HW139266   1.399   4.593   4.781 -1.1115  0.6410 -0.8090
 9211SOL    HW239267   1.352   4.727   4.820  1.2268  0.6471  0.9965
 9212SOL     OW39268   3.094   0.189  11.748 -0.0510 -0.1270  0.6949
 9212SOL    HW139269   3.101   0.119  11.813  1.4000  1.4162  2.2004
 9212SOL    HW239270   3.075   0.264  11.804  0.4363  0.8071 -0.3944
 9213SOL     OW39271   3.568   0.714   4.247 -0.4353 -0.4675  0.1503
 9213SOL    HW139272   3.582   0.650   4.177 -1.1059 -0.2286 -0.2012
 9213SOL    HW239273   3.607   0.788   4.199 -1.1553  0.9612  1.7553
 9214SOL     OW39274   2.413   3.430   3.616 -0.1635  0.2639 -0.0670
 9214SOL    HW139275   2.501   3.464   3.636 -0.1629  0.2294 -0.0104
 9214SOL    HW239276   2.367   3.486   3.553  1.4025  1.0235 -0.5587
 9215SOL     OW39277   4.185   3.032   8.762 -0.2349 -0.2355  0.0217
 9215SOL    HW139278   4.235   3.056   8.684 -1.8885  0.2440 -0.8973
 9215SOL    HW239279   4.140   2.960   8.719 -0.3359  0.9067 -1.7753
 9216SOL     OW39280   3.284   1.347   2.477 -0.8402  0.9484  0.4507
 9216SOL    HW139281   3.375   1.374   2.490 -0.6497 -0.3953  1.8411
 9216SOL    HW239282   3.247   1.360   2.565  1.5836  2.0393  1.3050
 9217SOL     OW39283   4.238   3.178   2.280 -0.0914  0.0199  0.5591
 9217SOL    HW139284   4.236   3.143   2.191  1.6616 -0.8440  0.8641
 9217SOL    HW239285   4.330   3.202   2.293 -0.0460  0.0596  0.1616
 9218SOL     OW39286   4.275   2.796   2.891 -0.7126 -0.2591 -0.6758
 9218SOL    HW139287   4.182   2.785   2.870 -1.1833 -1.3251  1.9473
 9218SOL    HW239288   4.299   2.706   2.871 -1.9779 -0.6486 -0.4708
 9219SOL     OW39289   2.385   2.263   3.810 -0.1962 -0.3172  0.0488
 9219SOL    HW139290   2.454   2.196   3.809 -0.9428 -1.0629 -1.7976
 9219SOL    HW239291   2.442   2.329   3.849  0.5134 -0.6623 -0.3861
 9220SOL     OW39292   0.006   2.831   2.516  0.0166  0.2034 -0.4799
 9220SOL    HW139293   0.004   2.735   2.520 -2.0373  0.2014 -1.3284
 9220SOL    HW239294   0.096   2.834   2.484  0.4732 -1.1812  0.7093
 9221SOL     OW39295   4.655   0.650   8.721  0.3190  0.2870  0.2510
 9221SOL    HW139296   0.010   0.614   8.723 -0.2177 -1.0856 -0.6638
 9221SOL    HW239297   4.680   0.739   8.745 -1.0858  0.3876  1.3551
 9222SOL     OW39298   3.647   1.428   9.444 -0.3363  0.5841 -0.0538
 9222SOL    HW139299   3.586   1.498   9.465  0.3286  0.5930  1.8479
 9222SOL    HW239300   3.642   1.413   9.349 -3.1020  0.0965  0.1849
 9223SOL     OW39301   0.011   2.579   3.419 -0.0742 -0.6434 -0.5666
 9223SOL    HW139302   4.700   2.495   3.431 -0.2549 -0.2615  1.4763
 9223SOL    HW239303   0.079   2.560   3.354  0.3936  3.7843 -1.3597
 9224SOL     OW39304   3.805   2.400  11.260  0.0109  0.0457 -0.2978
 9224SOL    HW139305   3.835   2.487  11.231 -0.2720 -1.6320 -5.5863
 9224SOL    HW239306   3.863   2.349  11.204 -0.6638  0.3839 -1.3138
 9225SOL     OW39307   4.509   0.367  11.964  0.1225  0.1697  0.5007
 9225SOL    HW139308   4.509   0.463  11.959 -0.8233  0.0140 -2.2601
 9225SOL    HW239309   4.538   0.343  12.052 -2.2816  0.1815  1.2922
 9226SOL     OW39310   1.982   3.120   6.703  0.2378 -0.1568  0.3142
 9226SOL    HW139311   2.023   3.173   6.772 -1.2186 -0.2757  1.2751
 9226SOL    HW239312   1.890   3.133   6.726  0.5946  0.2770  1.5255
 9227SOL     OW39313   3.296   4.171   8.929 -0.4222 -0.1489  0.3036
 9227SOL    HW139314   3.340   4.250   8.897 -2.5055 -0.0729 -2.4050
 9227SOL    HW239315   3.369   4.114   8.905 -0.2206 -0.4961  1.7643
 9228SOL     OW39316   2.642   3.916   2.705 -0.3761  0.0594 -0.3583
 9228SOL    HW139317   2.726   3.878   2.733  0.5256  2.9193  0.7673
 9228SOL    HW239318   2.668   4.005   2.683 -0.4320  0.3963  0.9287
 9229SOL     OW39319   0.243   3.429  10.859  0.6203  0.3993 -0.5072
 9229SOL    HW139320   0.229   3.372  10.935  1.2731 -1.5773 -1.8599
 9229SOL    HW239321   0.277   3.369  10.793 -0.9403 -1.3795  0.2893
 9230SOL     OW39322   1.880   3.871   7.507 -0.2081  0.1388 -0.2005
 9230SOL    HW139323   1.836   3.786   7.515  1.3461 -0.6371 -0.0273
 9230SOL    HW239324   1.803   3.925   7.491  0.4295  1.1602  0.2256
 9231SOL     OW39325   3.108   3.325   4.643 -0.0938 -0.3319  0.5177
 9231SOL    HW139326   3.044   3.254   4.640 -0.0651 -0.2630 -1.4213
 9231SOL    HW239327   3.085   3.356   4.731 -0.1599 -1.2330  0.8197
 9232SOL     OW39328   1.136   3.955  16.019 -0.0491  0.0167 -0.6836
 9232SOL    HW139329   1.065   3.890  16.023  2.5113 -2.8047 -1.1133
 9232SOL    HW239330   1.168   3.938  16.108 -0.4790 -0.4106 -0.6091
 9233SOL     OW39331   0.129   3.903   9.571  0.0438  0.0508 -0.2142
 9233SOL    HW139332   0.038   3.915   9.546 -1.0144 -1.2538  2.9095
 9233SOL    HW239333   0.120   3.809   9.558 -0.2381  0.0188  0.1926
 9234SOL     OW39334   2.637   1.492   2.743  0.2947  1.0170  0.0652
 9234SOL    HW139335   2.562   1.450   2.701  0.8007 -0.5705  0.7739
 9234SOL    HW239336   2.668   1.552   2.675  0.7058  1.5109  0.6858
 9235SOL     OW39337   1.922   2.849   7.431 -0.1038 -0.2298  0.2863
 9235SOL    HW139338   2.008   2.836   7.471  0.1629  1.0410  0.1291
 9235SOL    HW239339   1.883   2.762   7.437 -0.8615  0.0756 -0.2286
 9236SOL     OW39340   0.570   4.385   8.487 -0.3417  0.1719 -0.5322
 9236SOL    HW139341   0.506   4.315   8.502  0.0655 -0.2519 -0.7366
 9236SOL    HW239342   0.639   4.367   8.550  1.0972  0.5352 -1.9949
 9237SOL     OW39343   1.986   0.684   5.901  0.5271 -0.8270  0.0270
 9237SOL    HW139344   1.901   0.720   5.876  0.9432  0.2885  0.2078
 9237SOL    HW239345   2.044   0.748   5.859 -0.4285  0.5255  0.7716
 9238SOL     OW39346   4.365   2.444   6.068  0.3554  0.4782  0.2680
 9238SOL    HW139347   4.354   2.355   6.034 -4.1701  1.6413 -1.2970
 9238SOL    HW239348   4.455   2.463   6.043 -0.2183  0.6029 -1.6499
 9239SOL     OW39349   0.975   2.643   4.910 -0.3465 -0.6948 -0.1366
 9239SOL    HW139350   0.937   2.725   4.878  1.6620 -1.3666 -4.2733
 9239SOL    HW239351   0.962   2.583   4.836 -0.3795  0.5360 -1.1228
 9240SOL     OW39352   2.074   0.592   8.233  0.1305  0.2595  0.5077
 9240SOL    HW139353   2.095   0.499   8.224 -0.5215  0.3008 -1.4670
 9240SOL    HW239354   2.139   0.616   8.300  1.1864  1.1958 -0.8298
 9241SOL     OW39355   4.159   2.422   7.126 -0.5492  0.0961  0.1321
 9241SOL    HW139356   4.103   2.392   7.197 -1.5422 -1.2573 -1.2432
 9241SOL    HW239357   4.132   2.514   7.122 -0.7717  0.0673  1.1655
 9242SOL     OW39358   3.703   0.209   6.673 -0.2171 -0.0804  0.5041
 9242SOL    HW139359   3.775   0.233   6.614  2.0188  0.0147  3.2693
 9242SOL    HW239360   3.753   0.161   6.740 -0.4014  0.4763  1.0389
 9243SOL     OW39361   3.656   0.049   5.346  0.2879 -0.0342 -0.0716
 9243SOL    HW139362   3.658   0.139   5.380 -0.8295 -0.1350  0.2555
 9243SOL    HW239363   3.588   0.004   5.397 -0.5182  0.2890 -0.8725
 9244SOL     OW39364   3.073   3.289   8.569 -0.3268 -0.2989 -0.2168
 9244SOL    HW139365   2.989   3.281   8.614  0.2024  0.8883  0.9828
 9244SOL    HW239366   3.095   3.378   8.597 -3.2800 -0.5543  2.9665
 9245SOL     OW39367   3.123   0.958   1.095 -0.6560  0.3829  0.3124
 9245SOL    HW139368   3.058   0.924   1.156  0.9068  1.4031  2.5331
 9245SOL    HW239369   3.181   0.990   1.164 -1.0977  0.1106  0.8032
 9246SOL     OW39370   4.241   4.331  13.560 -0.0377  0.5147 -0.4517
 9246SOL    HW139371   4.246   4.285  13.476 -0.9202 -1.7029  0.7001
 9246SOL    HW239372   4.146   4.329  13.573 -0.1963  0.7989 -1.5430
 9247SOL     OW39373   0.416   0.507   3.852 -0.5206  0.2690  0.2062
 9247SOL    HW139374   0.371   0.561   3.787  1.9019  0.2377 -1.4918
 9247SOL    HW239375   0.357   0.431   3.847  0.4702 -0.5718  1.3357
 9248SOL     OW39376   4.386   1.738  12.103  0.0516 -0.2959 -0.4044
 9248SOL    HW139377   4.341   1.798  12.163 -2.4902  0.1536 -2.7560
 9248SOL    HW239378   4.447   1.704  12.169  0.3281 -2.6969 -1.8950
 9249SOL     OW39379   0.755   3.631   8.347  0.3497 -0.3418 -0.4070
 9249SOL    HW139380   0.741   3.590   8.433  2.1819  1.9622  0.9594
 9249SOL    HW239381   0.792   3.552   8.308  0.6888  0.0483 -0.8647
 9250SOL     OW39382   0.622   2.836  10.924  0.2980  0.4178  0.1282
 9250SOL    HW139383   0.659   2.830  11.012 -1.3176  1.6544  0.8876
 9250SOL    HW239384   0.703   2.856  10.876  1.0743  0.7614  1.5890
 9251SOL     OW39385   2.225   3.649   0.692 -0.6076 -0.3332  0.1559
 9251SOL    HW139386   2.281   3.699   0.751  0.3903  0.2980 -1.2979
 9251SOL    HW239387   2.286   3.579   0.669 -1.2747 -0.6289 -0.7164
 9252SOL     OW39388   2.447   4.698   8.523  0.8668 -0.1241 -0.2239
 9252SOL    HW139389   2.505   4.626   8.549  2.7460  2.2628  2.1632
 9252SOL    HW239390   2.362   4.661   8.546  0.5117 -0.1504 -1.6142
 9253SOL     OW39391   0.788   2.847  11.873  0.3079  0.1719 -0.0075
 9253SOL    HW139392   0.773   2.764  11.920 -2.4959  0.2386 -0.7783
 9253SOL    HW239393   0.755   2.913  11.933 -1.7307  0.4127 -1.4004
 9254SOL     OW39394   3.348   3.187   2.642 -0.4153 -0.5129 -0.3850
 9254SOL    HW139395   3.393   3.208   2.724  0.8427 -2.3023 -0.6048
 9254SOL    HW239396   3.270   3.147   2.681 -0.8028  0.8087  0.1772
 9255SOL     OW39397   0.850   2.084  15.622  0.3449  0.6516 -0.0698
 9255SOL    HW139398   0.885   2.007  15.578 -0.7372 -1.9844  3.7124
 9255SOL    HW239399   0.927   2.116  15.670  0.0242  1.5054 -0.1144
 9256SOL     OW39400   1.328   4.452   4.020  0.2216 -0.0879  0.4790
 9256SOL    HW139401   1.276   4.371   4.021 -0.9333  0.6429 -1.9638
 9256SOL    HW239402   1.390   4.423   4.087  0.1624  0.8557  0.9423
 9257SOL     OW39403   2.704   1.401  14.816 -0.2262  0.4073 -0.0065
 9257SOL    HW139404   2.770   1.465  14.791  0.3197  0.9182  2.6723
 9257SOL    HW239405   2.648   1.454  14.873 -0.9144  0.4795 -0.7588
 9258SOL     OW39406   3.722   3.601  17.475  0.1607  0.7163  0.0825
 9258SOL    HW139407   3.790   3.590  17.542  1.5089  2.6483 -0.9647
 9258SOL    HW239408   3.666   3.524  17.483 -0.0470  0.6958 -1.5713
 9259SOL     OW39409   2.624   3.086   2.350 -0.2836 -0.0446 -0.0691
 9259SOL    HW139410   2.705   3.132   2.371  0.2409 -0.7193 -0.6359
 9259SOL    HW239411   2.583   3.060   2.432  0.4978  0.8665  0.6056
 9260SOL     OW39412   0.881   0.819   2.100  0.0622 -0.5065  0.0969
 9260SOL    HW139413   0.826   0.786   2.172  0.3536 -0.7613  0.2030
 9260SOL    HW239414   0.963   0.783   2.135  0.7447 -1.7868 -2.8689
 9261SOL     OW39415   2.968   1.058   2.450  0.0993  0.7071 -0.0432
 9261SOL    HW139416   3.035   1.000   2.488 -0.1263 -1.2409 -2.5557
 9261SOL    HW239417   2.942   1.116   2.521 -1.3588 -1.0060  0.8177
 9262SOL     OW39418   0.711   0.427   2.108 -0.2399 -0.0215 -0.3981
 9262SOL    HW139419   0.664   0.368   2.048  3.7051 -2.9267 -0.6165
 9262SOL    HW239420   0.734   0.497   2.047 -0.4568 -2.8638 -3.7534
 9263SOL     OW39421   1.667   2.029  11.415  0.2991 -0.3687 -0.0294
 9263SOL    HW139422   1.626   2.032  11.502  0.2321 -0.2612 -0.0642
 9263SOL    HW239423   1.587   2.020  11.362  1.0250  0.6620 -1.2885
 9264SOL     OW39424   0.850   1.012   7.181 -0.4673 -0.0158 -0.1829
 9264SOL    HW139425   0.775   0.985   7.234 -0.1576 -1.6551 -0.5688
 9264SOL    HW239426   0.859   0.941   7.116 -1.1633  0.9645 -1.3521
 9265SOL     OW39427   0.274   4.733  13.801  0.2963  0.1156 -0.0485
 9265SOL    HW139428   0.248   0.070  13.743  1.0574  0.2604 -0.2156
 9265SOL    HW239429   0.366   0.004  13.775 -0.6530 -2.1762 -3.8068
 9266SOL     OW39430   3.353   0.957   1.970  0.6411 -0.0617 -0.4592
 9266SOL    HW139431   3.274   1.012   1.975  1.0453  0.5728 -0.9694
 9266SOL    HW239432   3.406   1.004   2.034  1.8880 -1.7564 -0.2554
 9267SOL     OW39433   0.229   1.649   4.315  0.4189 -0.0830 -0.0927
 9267SOL    HW139434   0.151   1.596   4.295 -0.3993  1.0284  0.1308
 9267SOL    HW239435   0.225   1.704   4.237 -1.9001  0.8814  0.7057
 9268SOL     OW39436   2.470   1.088   6.042  0.2791 -0.8156  0.2312
 9268SOL    HW139437   2.430   1.174   6.061  0.7731 -0.5948  0.2636
 9268SOL    HW239438   2.470   1.047   6.129 -1.4360  1.2000  1.2067
 9269SOL     OW39439   1.287   3.152   2.719  0.5609  0.2047 -0.6851
 9269SOL    HW139440   1.256   3.231   2.676 -0.3829 -1.2352 -2.6642
 9269SOL    HW239441   1.337   3.195   2.788 -0.7068  1.2549 -0.4319
 9270SOL     OW39442   1.678   1.712   5.625  0.4264 -0.1432 -0.5825
 9270SOL    HW139443   1.678   1.803   5.596  0.4374  1.4937  4.4164
 9270SOL    HW239444   1.744   1.690   5.559  0.1015 -2.3608 -0.1737
 9271SOL     OW39445   1.335   3.460   1.034  0.0363  0.3259 -0.4635
 9271SOL    HW139446   1.327   3.406   1.112 -1.7564  0.3492 -0.6229
 9271SOL    HW239447   1.418   3.507   1.040  0.1941  0.2596 -1.9694
 9272SOL     OW39448   1.060   4.359   7.531 -0.6272  0.0899 -0.2436
 9272SOL    HW139449   1.012   4.439   7.508  1.5660  0.8899 -1.9983
 9272SOL    HW239450   1.138   4.365   7.476 -0.4944  1.0642  0.0489
 9273SOL     OW39451   3.402   3.580   5.993 -0.3891  0.6958 -0.1473
 9273SOL    HW139452   3.476   3.555   6.048 -0.3238  0.2118 -0.4541
 9273SOL    HW239453   3.360   3.495   6.002 -0.2480  0.5382 -0.9542
 9274SOL     OW39454   1.601   3.619   3.292 -0.1442 -0.5679  0.6902
 9274SOL    HW139455   1.577   3.687   3.229  0.0968 -0.6144  0.5514
 9274SOL    HW239456   1.524   3.600   3.347  0.4616 -1.3858  1.2536
 9275SOL     OW39457   1.499   2.357   5.195 -0.0849  0.3550  0.4288
 9275SOL    HW139458   1.408   2.354   5.225 -0.2038 -2.3718 -0.1499
 9275SOL    HW239459   1.485   2.355   5.100 -0.4574 -2.4446  0.5262
 9276SOL     OW39460   0.126   2.919   5.230  0.6019  0.4148 -0.2033
 9276SOL    HW139461   0.192   2.964   5.176  2.5976 -1.2765  0.8392
 9276SOL    HW239462   0.047   2.963   5.200  1.0122  0.6818 -0.9066
 9277SOL     OW39463   1.942   1.671   5.945 -0.2439 -0.1719  0.1776
 9277SOL    HW139464   1.944   1.684   6.040 -2.2267  0.8830  0.0669
 9277SOL    HW239465   1.933   1.576   5.947 -1.3310 -0.0968 -1.3188
 9278SOL     OW39466   0.429   2.922   7.715 -0.3941 -0.3959  0.0275
 9278SOL    HW139467   0.390   2.969   7.641  0.6349 -0.2819 -0.4329
 9278SOL    HW239468   0.521   2.946   7.712  0.2454 -2.7608  0.5431
 9279SOL     OW39469   0.387   0.449   9.814 -0.0238 -0.0936 -0.0032
 9279SOL    HW139470   0.417   0.538   9.834 -0.3081  0.0904 -0.3857
 9279SOL    HW239471   0.305   0.469   9.768 -0.0494 -0.5832 -0.1692
 9280SOL     OW39472   3.772   4.337  12.002 -0.2891 -0.1836  0.0275
 9280SOL    HW139473   3.695   4.280  12.000 -1.2674  1.1897 -1.8604
 9280SOL    HW239474   3.739   4.412  11.953 -0.5123  1.7731  3.2462
 9281SOL     OW39475   2.386   3.275  10.027  0.3623 -0.3468  0.6281
 9281SOL    HW139476   2.402   3.359   9.984  2.0704 -2.1484 -2.2135
 9281SOL    HW239477   2.353   3.299  10.114  0.4685 -4.6504  1.8598
 9282SOL     OW39478   3.799   1.103   4.978  0.1512 -0.3437 -0.7274
 9282SOL    HW139479   3.839   1.189   4.990  2.6285 -1.5984  0.0291
 9282SOL    HW239480   3.707   1.123   4.962 -0.3667 -1.1443  1.3347
 9283SOL     OW39481   4.454   0.470  15.863 -0.3246 -0.3365 -0.5433
 9283SOL    HW139482   4.365   0.505  15.865  0.6717  1.9685  2.1321
 9283SOL    HW239483   4.474   0.435  15.950  1.8881  0.0374 -0.9174
 9284SOL     OW39484   0.909   3.998  17.412 -1.0363 -0.1361  0.6936
 9284SOL    HW139485   0.870   3.916  17.440  1.8599 -0.9757  2.2282
 9284SOL    HW239486   0.891   4.058  17.485 -2.1099 -0.6926  0.8802
 9285SOL     OW39487   1.331   0.993   4.109 -0.0969 -0.4073 -0.4184
 9285SOL    HW139488   1.332   0.900   4.135 -0.0878 -0.4161 -0.4506
 9285SOL    HW239489   1.252   1.017   4.159 -0.1873  1.8242 -1.6569
 9286SOL     OW39490   4.508   0.092   7.461  0.2107  0.6314  0.5994
 9286SOL    HW139491   4.480   0.139   7.539 -0.5475  0.0705  0.6644
 9286SOL    HW239492   4.530   0.164   7.401  0.7907 -0.5646 -0.6301
 9287SOL     OW39493   1.169   2.519   6.927 -0.4005  0.2985 -0.3374
 9287SOL    HW139494   1.249   2.480   6.963 -0.2355  0.2480 -0.7584
 9287SOL    HW239495   1.199   2.592   6.872  3.8746 -0.8729  0.4599
 9288SOL     OW39496   0.293   3.799  13.188  0.1519 -0.2580 -0.2229
 9288SOL    HW139497   0.279   3.750  13.269 -1.4656  0.2089 -0.2131
 9288SOL    HW239498   0.384   3.780  13.166 -0.1818 -0.7815 -1.1855
 9289SOL     OW39499   2.967   0.896   4.513 -0.1964 -0.0875 -0.1650
 9289SOL    HW139500   3.034   0.887   4.580  0.3710  1.7110 -0.4781
 9289SOL    HW239501   2.915   0.963   4.558 -2.5410 -2.5627  0.8084
 9290SOL     OW39502   0.246   0.955   4.725  0.1447 -0.0291  0.1523
 9290SOL    HW139503   0.204   0.876   4.760  0.3285 -0.4685 -0.6274
 9290SOL    HW239504   0.209   1.027   4.777  1.7485  1.5707 -0.9287
 9291SOL     OW39505   4.291   0.013   0.445 -0.3744  0.4781  0.2186
 9291SOL    HW139506   4.350   0.079   0.409 -1.1701  0.5330 -1.0073
 9291SOL    HW239507   4.363   4.705   0.493 -1.9629 -3.6420 -0.9255
 9292SOL     OW39508   4.622   0.329  13.432 -0.5740  0.1675 -0.1726
 9292SOL    HW139509   4.532   0.314  13.402  0.3434 -0.9688 -2.4055
 9292SOL    HW239510   4.644   0.370  13.348  0.4846 -0.3483 -0.1445
 9293SOL     OW39511   3.531   1.733   8.813 -1.1880  0.1928 -0.1621
 9293SOL    HW139512   3.489   1.650   8.836  0.1564 -0.0805  1.2920
 9293SOL    HW239513   3.460   1.755   8.752 -0.8864  1.0389 -0.2057
 9294SOL     OW39514   2.879   0.584   1.746  0.3218  0.3169  0.1855
 9294SOL    HW139515   2.789   0.555   1.756  0.2267  0.3790 -0.4913
 9294SOL    HW239516   2.904   0.604   1.836  0.4141  2.2254 -0.2684
 9295SOL     OW39517   4.212   0.549  10.258  0.4934  0.3059 -0.6806
 9295SOL    HW139518   4.176   0.581  10.340 -0.9710 -2.2850 -0.2889
 9295SOL    HW239519   4.264   0.623  10.228  0.8361 -0.4597 -1.9975
 9296SOL     OW39520   3.717   2.639   4.647  0.3363 -0.2140  0.2384
 9296SOL    HW139521   3.760   2.646   4.562  3.2410 -2.1296  1.5756
 9296SOL    HW239522   3.690   2.731   4.657  1.6690  0.2205 -0.2092
 9297SOL     OW39523   1.423   3.473   7.115 -0.3533  0.0354 -0.0939
 9297SOL    HW139524   1.368   3.538   7.158  2.6381  1.8961  0.9250
 9297SOL    HW239525   1.385   3.387   7.135 -0.3801 -0.1505 -0.9427
 9298SOL     OW39526   3.495   4.011   2.867  0.0299 -0.1900  0.6883
 9298SOL    HW139527   3.471   4.070   2.795 -1.9533  1.3320  2.6009
 9298SOL    HW239528   3.502   3.934   2.810  0.2032  0.3577 -0.0290
 9299SOL     OW39529   3.620   4.106   5.931 -0.2090 -0.2707 -0.1588
 9299SOL    HW139530   3.551   4.041   5.950  1.5290 -1.7497  1.0457
 9299SOL    HW239531   3.568   4.156   5.868 -0.3768  1.2693  1.2034
 9300SOL     OW39532   1.278   2.291  15.934  0.0941  0.2963 -0.5417
 9300SOL    HW139533   1.329   2.279  16.014  0.7739  0.3571 -0.9650
 9300SOL    HW239534   1.259   2.385  15.932 -3.3984 -0.4168 -0.6001
 9301SOL     OW39535   4.714   2.404   5.236 -0.5772  0.1431 -0.5245
 9301SOL    HW139536   0.011   2.323   5.194 -3.2816 -0.3958 -1.3926
 9301SOL    HW239537   4.691   2.376   5.325 -2.7205  1.4705 -0.6646
 9302SOL     OW39538   1.872   2.613  11.987 -0.3468  0.1794 -0.1484
 9302SOL    HW139539   1.839   2.598  12.075 -1.4492 -0.8231 -0.7277
 9302SOL    HW239540   1.801   2.663  11.947  0.1412  0.5833 -0.5066
 9303SOL     OW39541   3.847   4.697   2.956  0.1540  0.5383  0.0353
 9303SOL    HW139542   3.836   0.025   2.884 -0.5711  0.9935  0.5300
 9303SOL    HW239543   3.774   4.639   2.933 -0.0457  0.7247  0.1929
 9304SOL     OW39544   3.411   0.341   3.642  0.1217  0.1350  0.4845
 9304SOL    HW139545   3.428   0.429   3.609  2.4889 -0.9864 -1.3403
 9304SOL    HW239546   3.499   0.302   3.646 -0.0897 -0.5613 -1.4341
 9305SOL     OW39547   0.261   4.272   3.334  0.1002 -0.2061 -0.0115
 9305SOL    HW139548   0.276   4.238   3.423 -0.3082  1.5155  0.7119
 9305SOL    HW239549   0.315   4.351   3.331  0.3158 -0.3389  0.3519
 9306SOL     OW39550   4.008   0.028   5.515  0.2488 -0.0615 -0.1349
 9306SOL    HW139551   3.947   0.076   5.571 -0.0682  0.0706 -0.6002
 9306SOL    HW239552   4.051   4.687   5.557 -1.7122 -1.9183 -1.4409
 9307SOL     OW39553   1.149   1.668   3.046 -0.7181  0.2869 -0.1936
 9307SOL    HW139554   1.071   1.699   3.092 -0.9252 -0.4611 -0.0325
 9307SOL    HW239555   1.191   1.608   3.108 -1.4628  0.1860  0.2184
 9308SOL     OW39556   1.146   3.655   8.592 -0.2026  0.5747 -0.3172
 9308SOL    HW139557   1.129   3.602   8.514 -0.4289  0.2898 -0.0768
 9308SOL    HW239558   1.107   3.598   8.659 -0.2934  0.1339 -0.7414
 9309SOL     OW39559   2.151   0.036  10.296 -0.5736 -0.5454 -0.5697
 9309SOL    HW139560   2.106   0.017  10.214 -0.0888 -1.3304 -0.6533
 9309SOL    HW239561   2.198   4.686  10.300  1.7062  0.8481  1.3893
 9310SOL     OW39562   3.245   4.197   0.050  0.2423  0.0032 -0.3785
 9310SOL    HW139563   3.188   4.178   0.124  0.4203  1.3686  0.1269
 9310SOL    HW239564   3.218   4.284   0.020  1.6017  0.3336 -0.6485
 9311SOL     OW39565   2.417   3.373   0.478 -0.6206 -0.3242 -0.3425
 9311SOL    HW139566   2.326   3.387   0.451 -1.4278  1.2909  3.1245
 9311SOL    HW239567   2.414   3.430   0.555  1.3003 -1.9006  0.8990
 9312SOL     OW39568   3.776   3.776  16.670 -0.0780  0.3892  0.1217
 9312SOL    HW139569   3.709   3.842  16.651 -0.3248  0.3271  0.7359
 9312SOL    HW239570   3.733   3.731  16.744 -0.3735 -1.2347 -1.0518
 9313SOL     OW39571   0.458   0.856  13.339  0.0307  0.3216 -0.3177
 9313SOL    HW139572   0.472   0.871  13.245 -1.0384  1.1418 -0.3487
 9313SOL    HW239573   0.475   0.762  13.344  0.4460  0.3760 -0.7356
 9314SOL     OW39574   0.697   1.400   2.680  0.2558 -0.5180 -0.5732
 9314SOL    HW139575   0.610   1.363   2.693  0.3907 -0.1133  1.4948
 9314SOL    HW239576   0.686   1.492   2.706  2.0014 -0.0972 -1.3165
 9315SOL     OW39577   1.971   2.243   3.755  0.6342  0.2017 -0.0078
 9315SOL    HW139578   1.913   2.239   3.679 -0.2117 -0.6313  0.6939
 9315SOL    HW239579   2.006   2.332   3.749 -0.1682  0.6094  1.4006
 9316SOL     OW39580   4.413   4.573   4.548 -0.1778 -0.2694  0.0844
 9316SOL    HW139581   4.460   4.648   4.512  0.4891 -0.4549  0.5738
 9316SOL    HW239582   4.397   4.518   4.471  0.4346  0.3356 -0.4837
 9317SOL     OW39583   2.738   3.786  15.808 -0.0577  0.3645  0.0872
 9317SOL    HW139584   2.719   3.866  15.759 -1.8310 -0.4874 -0.6070
 9317SOL    HW239585   2.758   3.720  15.742  0.4891 -1.7619  2.3902
 9318SOL     OW39586   3.501   4.122   9.475 -0.4967 -0.5943  0.2328
 9318SOL    HW139587   3.517   4.216   9.477 -1.1667 -0.5220  2.2309
 9318SOL    HW239588   3.576   4.093   9.527 -0.8916  1.3507  1.8893
 9319SOL     OW39589   2.858   3.414  17.015  0.4428 -0.3331 -0.0892
 9319SOL    HW139590   2.838   3.321  17.005  1.5340 -0.5168 -0.5783
 9319SOL    HW239591   2.942   3.408  17.061  0.5411  0.1403 -0.1981
 9320SOL     OW39592   3.273   0.740   1.551 -0.0276 -0.2418  0.2628
 9320SOL    HW139593   3.347   0.680   1.550 -0.2457 -0.5152  0.4631
 9320SOL    HW239594   3.322   0.820   1.570 -2.7354  1.7318 -1.0126
 9321SOL     OW39595   4.422   4.430   1.173  0.5851 -0.0632  0.0262
 9321SOL    HW139596   4.367   4.490   1.224  0.7240  0.4584 -0.4365
 9321SOL    HW239597   4.376   4.348   1.189 -1.5408  0.6273 -2.6683
 9322SOL     OW39598   1.077   1.492  13.507  0.1358 -0.0051 -0.2020
 9322SOL    HW139599   1.040   1.528  13.587 -2.2946  0.6328 -1.5932
 9322SOL    HW239600   1.037   1.551  13.443 -2.0592  1.5077  2.5788
 9323SOL     OW39601   3.477   3.739  14.584  0.3527 -0.3493 -0.1778
 9323SOL    HW139602   3.431   3.751  14.667  1.2954 -2.1227  0.6036
 9323SOL    HW239603   3.424   3.678  14.532  1.1065 -2.3167  1.3728
 9324SOL     OW39604   2.183   1.299   8.477 -0.1562 -0.5355  0.4663
 9324SOL    HW139605   2.194   1.392   8.456 -0.4962 -0.0180  2.6329
 9324SOL    HW239606   2.205   1.276   8.387  0.1201  0.8166  0.1791
 9325SOL     OW39607   1.617   3.267   4.585  0.3294  0.5189 -0.3543
 9325SOL    HW139608   1.607   3.360   4.565 -0.4810 -0.1455 -2.9992
 9325SOL    HW239609   1.535   3.242   4.628  0.2643  1.4026  0.0276
 9326SOL     OW39610   1.021   0.246   5.382 -0.1504 -0.4073  0.5076
 9326SOL    HW139611   0.948   0.308   5.395  0.0766 -0.3165  1.3651
 9326SOL    HW239612   0.980   0.175   5.332  1.8336 -2.0067  1.1788
 9327SOL     OW39613   1.404   1.814   3.099  0.1488 -0.1026 -0.3142
 9327SOL    HW139614   1.389   1.837   3.007 -0.3896  1.1358  0.0796
 9327SOL    HW239615   1.398   1.896   3.148 -1.2220  0.6734 -1.7653
 9328SOL     OW39616   0.152   0.289   2.864 -0.6887  0.1149  0.3517
 9328SOL    HW139617   0.138   0.249   2.778 -0.4741 -1.8431  1.2318
 9328SOL    HW239618   0.067   0.313   2.902 -0.0940  0.2680  1.5628
 9329SOL     OW39619   1.737   3.246  15.526  0.3799  0.4136  0.0059
 9329SOL    HW139620   1.658   3.298  15.541 -0.1161  0.4858 -2.8673
 9329SOL    HW239621   1.749   3.204  15.611  1.2157 -1.7873 -1.1843
 9330SOL     OW39622   0.723   3.165  15.106  0.3970 -0.1453 -0.6953
 9330SOL    HW139623   0.810   3.131  15.089 -0.2087 -1.3904 -1.3318
 9330SOL    HW239624   0.700   3.172  15.199  0.2760  2.2802 -0.8969
 9331SOL     OW39625   1.255   3.485   8.087  0.3171  0.4582  0.0547
 9331SOL    HW139626   1.265   3.441   8.171  0.6165  0.3368 -0.0453
 9331SOL    HW239627   1.199   3.561   8.106 -0.2502  0.1930 -0.5645
 9332SOL     OW39628   4.086   2.990   5.899 -0.1643  0.2896 -0.1154
 9332SOL    HW139629   4.045   2.908   5.926 -0.4255  0.3289 -0.3942
 9332SOL    HW239630   4.116   2.963   5.812  0.9772  1.0895  0.0210
 9333SOL     OW39631   0.398   3.458  12.966  0.3653 -0.5949 -0.3685
 9333SOL    HW139632   0.483   3.415  12.973  0.5093  0.0291  1.6147
 9333SOL    HW239633   0.404   3.517  13.040 -0.0953 -3.1654  1.6989
 9334SOL     OW39634   0.599   0.208   8.484  0.0724  0.1696 -0.1371
 9334SOL    HW139635   0.562   0.193   8.571  0.6379  1.0517  0.2671
 9334SOL    HW239636   0.556   0.291   8.464  1.5421  1.2290  1.0555
 9335SOL     OW39637   3.589   1.837   3.579  0.0366 -0.0514  0.2804
 9335SOL    HW139638   3.512   1.878   3.620 -1.0627  0.3334 -2.1391
 9335SOL    HW239639   3.631   1.809   3.660  0.2270  1.0886  0.5806
 9336SOL     OW39640   2.770   4.091   9.017  0.0497  0.0482 -0.5312
 9336SOL    HW139641   2.807   4.003   9.020 -3.2638 -1.2759  1.0860
 9336SOL    HW239642   2.696   4.089   9.077  1.2889  1.6668  1.0695
 9337SOL     OW39643   2.170   1.035  10.834 -0.4428  0.3272 -0.1280
 9337SOL    HW139644   2.239   1.096  10.858 -3.1186  2.6873  1.6210
 9337SOL    HW239645   2.146   1.063  10.745 -0.6989 -1.9543 -0.7751
 9338SOL     OW39646   2.845   3.415  10.457 -0.1869  0.2362  0.2289
 9338SOL    HW139647   2.935   3.430  10.428 -0.7325  2.4098 -0.3303
 9338SOL    HW239648   2.854   3.341  10.518 -0.5599 -2.3066 -2.7838
 9339SOL     OW39649   2.379   0.196   2.937 -0.0622 -0.7258  0.1820
 9339SOL    HW139650   2.414   0.123   2.886 -0.6411  2.3261 -4.5255
 9339SOL    HW239651   2.298   0.219   2.891  0.7609 -0.1435 -0.9726
 9340SOL     OW39652   3.050   4.083  10.143 -0.0932 -0.0509  0.1668
 9340SOL    HW139653   3.010   4.077  10.056  2.6268 -0.0537 -1.1110
 9340SOL    HW239654   2.985   4.146  10.175  0.2012  0.7248 -0.7625
 9341SOL     OW39655   0.406   1.034  14.549  0.3327  0.7259 -0.0987
 9341SOL    HW139656   0.357   1.108  14.513  0.1159  0.2572 -0.7701
 9341SOL    HW239657   0.429   0.980  14.473 -1.2166 -0.0962  0.0136
 9342SOL     OW39658   2.395   3.771  16.674  0.3538 -0.4797 -0.5594
 9342SOL    HW139659   2.483   3.799  16.699 -0.5005  0.8807  0.9046
 9342SOL    HW239660   2.398   3.773  16.579  1.4554  1.1814 -0.4949
 9343SOL     OW39661   1.114   3.779   8.066  0.0879 -0.2029 -0.4637
 9343SOL    HW139662   1.031   3.755   8.025 -1.6835  1.3300  2.2030
 9343SOL    HW239663   1.094   3.856   8.120 -0.3653 -1.3803  1.0527
 9344SOL     OW39664   3.232   1.236   3.126 -0.5534  0.0938  0.2350
 9344SOL    HW139665   3.176   1.290   3.183  1.8772  0.0376  2.7001
 9344SOL    HW239666   3.288   1.303   3.087 -0.8046  0.1182 -0.0819
 9345SOL     OW39667   0.178   2.913  13.018 -0.4594 -0.9997  0.5412
 9345SOL    HW139668   0.169   2.992  12.966 -0.6757 -1.7193 -0.5008
 9345SOL    HW239669   0.261   2.882  12.983 -0.7426 -0.7550 -0.3514
 9346SOL     OW39670   4.336   0.392  12.602 -0.3860 -0.5173 -0.3693
 9346SOL    HW139671   4.352   0.449  12.677  2.2598 -0.3815 -1.0321
 9346SOL    HW239672   4.258   0.344  12.628  0.1462 -1.3533 -0.2955
 9347SOL     OW39673   0.634   0.261   7.512 -0.4131  1.1423  0.1362
 9347SOL    HW139674   0.604   0.350   7.493 -1.7657  0.7762  0.5557
 9347SOL    HW239675   0.609   0.266   7.605 -2.7159 -2.9435 -0.2878
 9348SOL     OW39676   1.747   4.019   7.133 -0.3212 -0.4765 -0.7433
 9348SOL    HW139677   1.707   3.932   7.140 -0.1437 -0.5613 -0.7833
 9348SOL    HW239678   1.817   4.004   7.069 -0.5969  1.7287 -1.5697
 9349SOL     OW39679   0.285   2.543   2.957  0.1427  0.3251  0.4176
 9349SOL    HW139680   0.217   2.582   2.902  2.0811  1.4528 -1.1810
 9349SOL    HW239681   0.279   2.606   3.028  0.0504 -1.8321  2.3387
 9350SOL     OW39682   4.356   4.211   7.853 -0.0909 -0.2693 -0.0629
 9350SOL    HW139683   4.439   4.166   7.835 -0.2231 -0.9469  1.0010
 9350SOL    HW239684   4.377   4.300   7.825 -1.9392 -0.0750 -0.8038
 9351SOL     OW39685   4.164   0.864   9.503 -0.5293  0.3727 -0.3679
 9351SOL    HW139686   4.099   0.912   9.555  1.0804  0.0673  1.9309
 9351SOL    HW239687   4.207   0.934   9.454 -0.9268  0.0605 -1.1654
 9352SOL     OW39688   3.327   1.588   6.280 -0.8273  0.5415 -0.1759
 9352SOL    HW139689   3.407   1.554   6.319 -0.1067  0.2392 -1.9155
 9352SOL    HW239690   3.261   1.542   6.332  0.5602  0.0645  1.1425
 9353SOL     OW39691   2.323   1.823   5.163 -0.1841  0.3489 -0.0057
 9353SOL    HW139692   2.404   1.870   5.145 -1.4523  2.0967 -1.1852
 9353SOL    HW239693   2.363   1.742   5.195 -0.7943  0.1420  0.2330
 9354SOL     OW39694   3.006   1.245   7.440  0.9638 -0.4595  0.3427
 9354SOL    HW139695   3.062   1.266   7.516  0.6080  3.3221 -0.4078
 9354SOL    HW239696   2.957   1.324   7.417  0.3511 -1.6328 -2.2956
 9355SOL     OW39697   3.229   3.439   3.796 -0.4561  0.2943 -0.9499
 9355SOL    HW139698   3.183   3.500   3.738 -1.5397  0.5644  0.1831
 9355SOL    HW239699   3.319   3.473   3.795  0.2943 -1.5702  1.5933
 9356SOL     OW39700   4.237   2.602   9.236 -0.0454 -0.3687  0.1513
 9356SOL    HW139701   4.246   2.689   9.273 -0.0314 -0.8443  1.2694
 9356SOL    HW239702   4.188   2.626   9.158 -1.8902 -0.0824  1.4071
 9357SOL     OW39703   3.082   2.289  16.194  0.1842 -0.2820  0.2916
 9357SOL    HW139704   3.010   2.336  16.236 -0.6287 -1.3706  0.1440
 9357SOL    HW239705   3.055   2.197  16.200 -1.8951  0.2515 -0.9726
 9358SOL     OW39706   0.735   0.825  12.742 -0.0651 -0.2328  0.2778
 9358SOL    HW139707   0.822   0.803  12.710  0.2156 -0.8714  1.5024
 9358SOL    HW239708   0.739   0.920  12.731 -1.8897 -0.1621  0.1606
 9359SOL     OW39709   3.110   4.065   9.165 -0.1241  0.4197  0.2683
 9359SOL    HW139710   3.187   4.065   9.108 -0.9173 -0.3092 -0.7960
 9359SOL    HW239711   3.141   4.119   9.238  1.0362 -1.2703  1.0126
 9360SOL     OW39712   0.633   0.635   0.724  0.1520  0.2566  0.1098
 9360SOL    HW139713   0.647   0.677   0.639  0.7999  0.6410  0.4156
 9360SOL    HW239714   0.714   0.585   0.722 -0.9037 -1.4706 -0.4403
 9361SOL     OW39715   3.187   0.034  10.149 -0.2908 -0.2249  0.0256
 9361SOL    HW139716   3.202   4.709  10.074  1.7038  0.6483 -0.2689
 9361SOL    HW239717   3.091   0.031  10.150 -0.2808 -0.1604  1.0258
 9362SOL     OW39718   1.381   3.151   9.228  0.1744  0.3312  0.1482
 9362SOL    HW139719   1.379   3.079   9.290 -2.6641  1.1536  1.0145
 9362SOL    HW239720   1.368   3.113   9.141  3.2941 -0.9535  0.2169
 9363SOL     OW39721   0.558   1.916   2.442  0.2654 -0.0778 -0.0275
 9363SOL    HW139722   0.489   1.860   2.407 -1.1092  1.0796  0.8324
 9363SOL    HW239723   0.628   1.851   2.437 -0.2667 -0.7936  1.9023
 9364SOL     OW39724   2.791   3.110   3.216  0.2512  0.3146  0.4789
 9364SOL    HW139725   2.869   3.146   3.259  0.7168 -0.9317  0.6865
 9364SOL    HW239726   2.717   3.164   3.245 -1.1184 -0.2173 -2.0377
 9365SOL     OW39727   3.849   1.542   2.843  0.2437  0.2166  0.1102
 9365SOL    HW139728   3.859   1.480   2.916  2.8082 -0.7060 -1.0179
 9365SOL    HW239729   3.783   1.605   2.873  1.0456  0.8148  0.6422
 9366SOL     OW39730   0.261   2.050  15.235  0.0342 -0.1485 -0.5402
 9366SOL    HW139731   0.301   1.993  15.300  2.3053  1.2686 -0.7063
 9366SOL    HW239732   0.335   2.056  15.176  0.6804 -1.6886  0.1377
 9367SOL     OW39733   2.894   1.605   9.227 -0.0541 -0.1316  0.8453
 9367SOL    HW139734   2.949   1.666   9.276 -0.1672 -0.1004  0.9310
 9367SOL    HW239735   2.854   1.552   9.296  0.7243 -5.2315 -2.5974
 9368SOL     OW39736   4.256   1.553   5.791 -0.1091 -0.1112  0.3247
 9368SOL    HW139737   4.213   1.567   5.876 -0.9720 -1.5251  0.1199
 9368SOL    HW239738   4.190   1.500   5.747  0.9771 -0.7751 -0.4816
 9369SOL     OW39739   2.079   2.208   8.722 -0.1923  0.8234  0.1828
 9369SOL    HW139740   2.161   2.160   8.735  0.5336  0.9145 -3.9362
 9369SOL    HW239741   2.081   2.274   8.791  0.0483  1.0126 -0.0058
 9370SOL     OW39742   2.947   0.733   1.967  0.4605  0.0621  0.0160
 9370SOL    HW139743   2.921   0.819   2.002  0.1609 -0.4843  1.1439
 9370SOL    HW239744   3.022   0.753   1.912  0.8545 -0.1961  0.4608
 9371SOL     OW39745   2.303   0.254   6.711 -0.3303  0.4031  0.7258
 9371SOL    HW139746   2.259   0.250   6.796 -1.1713 -2.2593  0.1577
 9371SOL    HW239747   2.248   0.313   6.660 -0.8021 -0.6969 -0.0423
 9372SOL     OW39748   3.517   3.099  15.164  0.0089 -0.4428 -0.0438
 9372SOL    HW139749   3.558   3.025  15.118  0.6338  0.7578 -1.4123
 9372SOL    HW239750   3.596   3.152  15.175 -0.6784  1.2032 -2.9061
 9373SOL     OW39751   2.167   4.414   5.459 -0.2519 -0.8212 -0.1817
 9373SOL    HW139752   2.077   4.446   5.464 -0.1050 -0.4134 -0.1211
 9373SOL    HW239753   2.212   4.495   5.485 -0.7788 -0.2446 -1.0480
 9374SOL     OW39754   0.680   0.926   1.685  0.4995 -0.3753 -0.1580
 9374SOL    HW139755   0.613   0.914   1.753  0.3968  1.1607  0.0321
 9374SOL    HW239756   0.758   0.928   1.741  0.7292  0.1376 -0.4922
 9375SOL     OW39757   0.109   4.158   4.499  0.3352  0.1866 -0.6667
 9375SOL    HW139758   0.118   4.092   4.569  0.6111  0.1888 -0.7025
 9375SOL    HW239759   0.059   4.099   4.443 -1.3304  1.3405 -0.3968
 9376SOL     OW39760   4.205   2.516   6.272  0.2475 -0.3796  0.4708
 9376SOL    HW139761   4.231   2.607   6.288 -0.2433 -0.1174 -0.2183
 9376SOL    HW239762   4.253   2.498   6.192 -0.6059  1.6353 -0.4957
 9377SOL     OW39763   1.751   2.368   5.757 -0.2875  0.1844 -0.4331
 9377SOL    HW139764   1.656   2.373   5.747 -0.5923 -1.1565  1.9262
 9377SOL    HW239765   1.772   2.310   5.684 -4.0551 -2.2944  0.5135
 9378SOL     OW39766   1.803   2.006  15.079 -0.2567  0.4088  0.1863
 9378SOL    HW139767   1.766   1.999  15.167 -2.2010  4.0239 -0.3493
 9378SOL    HW239768   1.756   2.078  15.038  1.2085  1.0977 -0.2842
 9379SOL     OW39769   2.174   1.241   4.587  0.3404 -0.2068  0.1431
 9379SOL    HW139770   2.150   1.288   4.667  1.4236  0.0097  0.3504
 9379SOL    HW239771   2.090   1.225   4.546 -0.1299 -0.4293  1.1892
 9380SOL     OW39772   2.045   3.814   2.961 -0.1740  0.2785  0.0903
 9380SOL    HW139773   1.958   3.778   2.946  1.3671 -2.8218 -1.4162
 9380SOL    HW239774   2.101   3.748   2.921  0.6478  1.3551 -0.5292
 9381SOL     OW39775   3.259   4.523  11.501 -0.0004 -0.0482 -0.2290
 9381SOL    HW139776   3.214   4.450  11.543  1.3927  0.4416  2.1173
 9381SOL    HW239777   3.312   4.532  11.580  0.9899 -2.6081 -0.6286
 9382SOL     OW39778   2.722   0.089   7.032 -0.4459  0.2235 -0.2567
 9382SOL    HW139779   2.695   0.025   7.098 -1.7020  0.2424 -0.7562
 9382SOL    HW239780   2.804   0.123   7.068  0.1849 -1.9830  0.3945
 9383SOL     OW39781   1.744   2.636   5.818  0.1099 -0.2351 -0.5314
 9383SOL    HW139782   1.695   2.590   5.886 -0.9299  2.3384  0.4492
 9383SOL    HW239783   1.787   2.563   5.772 -0.3490 -0.5329 -0.4825
 9384SOL     OW39784   3.094   1.967   8.317 -0.3166  0.1396 -0.3151
 9384SOL    HW139785   3.046   2.032   8.369  0.6572  1.5977 -1.2310
 9384SOL    HW239786   3.068   1.891   8.368 -0.3687  0.5827  0.3240
 9385SOL     OW39787   4.034   1.231   4.487 -0.2312  0.0046 -0.4180
 9385SOL    HW139788   3.940   1.222   4.470 -0.4959  0.8630  0.5517
 9385SOL    HW239789   4.038   1.202   4.579  0.5671 -0.7877 -0.7011
 9386SOL     OW39790   4.523   1.696   2.960  0.4703 -0.1730 -0.0193
 9386SOL    HW139791   4.445   1.661   2.917  1.9612 -1.1340 -1.9029
 9386SOL    HW239792   4.530   1.769   2.899  0.0443  0.0034  0.1396
 9387SOL     OW39793   1.871   1.806  17.669 -0.2874  0.9035 -0.1408
 9387SOL    HW139794   1.806   1.871  17.643 -2.8870 -1.3680  0.7280
 9387SOL    HW239795   1.822   1.725  17.679  0.7554  0.4977  1.7093
 9388SOL     OW39796   2.790   1.558   8.606 -0.6109 -0.0168  0.7829
 9388SOL    HW139797   2.836   1.525   8.529 -1.0028  1.5621 -0.1425
 9388SOL    HW239798   2.714   1.592   8.559 -0.7962  1.4549  2.1235
 9389SOL     OW39799   1.319   4.412   5.233  0.1133  0.5060 -0.1340
 9389SOL    HW139800   1.239   4.393   5.282 -1.0663  0.3598 -2.1495
 9389SOL    HW239801   1.310   4.360   5.154  2.2260  0.7557 -0.5553
 9390SOL     OW39802   1.980   0.707   9.021  0.0994 -0.7119  0.3250
 9390SOL    HW139803   1.885   0.694   9.028  0.0355 -1.3468 -1.6716
 9390SOL    HW239804   1.986   0.798   8.992  0.0405 -0.8934 -0.2780
 9391SOL     OW39805   3.357   0.124   4.850 -0.9094 -0.2465  0.6330
 9391SOL    HW139806   3.416   0.056   4.818 -0.4168  0.0878  0.8362
 9391SOL    HW239807   3.279   0.069   4.861 -1.1518 -0.6640 -2.9947
 9392SOL     OW39808   2.612   1.887   8.793  0.4420  0.0954 -0.4582
 9392SOL    HW139809   2.580   1.802   8.764  0.2064  0.2265 -0.5868
 9392SOL    HW239810   2.666   1.857   8.866  1.5937  3.0072 -0.1214
 9393SOL     OW39811   0.249   2.897   2.368  0.5181 -0.1456 -0.1428
 9393SOL    HW139812   0.247   2.976   2.314  0.1209 -0.7287 -0.9852
 9393SOL    HW239813   0.329   2.848   2.346  0.7844  0.3691 -0.3169
 9394SOL     OW39814   2.887   2.097   5.761 -0.0294 -0.1765 -0.3026
 9394SOL    HW139815   2.840   2.096   5.677  1.2692 -0.0427 -1.0244
 9394SOL    HW239816   2.948   2.168   5.743 -0.8504  0.4895 -0.4387
 9395SOL     OW39817   4.325   3.611   2.425  0.1220  0.1109 -0.1253
 9395SOL    HW139818   4.292   3.535   2.378  0.5183 -0.2845  0.2444
 9395SOL    HW239819   4.292   3.595   2.513  0.0982 -1.3282 -0.3967
 9396SOL     OW39820   4.332   1.158   7.895 -0.3328 -0.7477 -0.6056
 9396SOL    HW139821   4.345   1.242   7.851 -0.5625 -0.9853 -1.1253
 9396SOL    HW239822   4.336   1.191   7.985  0.9991  0.7592 -1.2291
 9397SOL     OW39823   3.099   0.899   4.266 -0.1118  0.3500  0.2213
 9397SOL    HW139824   3.035   0.897   4.336 -0.1751  1.9880  0.2240
 9397SOL    HW239825   3.169   0.852   4.311 -1.4322 -0.9695  0.8754
 9398SOL     OW39826   0.685   4.603   5.006 -0.4371  0.5216 -0.4693
 9398SOL    HW139827   0.745   4.661   4.959 -0.8097  0.7852 -0.6146
 9398SOL    HW239828   0.673   4.539   4.935 -0.7402  0.2302 -0.1558
 9399SOL     OW39829   4.407   3.364   8.292 -0.1586 -0.4758 -0.7460
 9399SOL    HW139830   4.411   3.348   8.386 -0.6146 -0.3844 -0.7098
 9399SOL    HW239831   4.502   3.370   8.284 -0.1817  3.0676  1.7800
 9400SOL     OW39832   3.051   3.985   2.426 -0.2400 -0.2295 -0.2379
 9400SOL    HW139833   2.999   3.905   2.435  1.3392 -0.9447  2.4793
 9400SOL    HW239834   3.128   3.956   2.475  0.4693 -0.2263 -1.3589
 9401SOL     OW39835   0.190   3.018   4.219  0.0294 -0.2839 -0.0654
 9401SOL    HW139836   0.120   2.953   4.225  0.3061 -0.6645 -0.9944
 9401SOL    HW239837   0.140   3.084   4.267 -0.5799  0.3243 -1.5491
 9402SOL     OW39838   4.366   1.223   1.859 -0.0536 -0.0066  0.3566
 9402SOL    HW139839   4.374   1.318   1.861  0.9742 -0.0561 -1.8058
 9402SOL    HW239840   4.456   1.195   1.843 -0.5436 -0.4848 -1.6194
 9403SOL     OW39841   3.945   2.064   2.933  0.1313  0.3577  0.3066
 9403SOL    HW139842   3.851   2.079   2.945  0.1361  0.4549  0.2267
 9403SOL    HW239843   3.949   1.973   2.907 -0.9327  0.9212 -1.8226
 9404SOL     OW39844   1.977   0.732   7.384  0.1787  0.3675  0.0635
 9404SOL    HW139845   2.005   0.661   7.443  1.6408  1.0817  0.2309
 9404SOL    HW239846   1.893   0.756   7.424 -0.0036  3.3722 -2.1513
 9405SOL     OW39847   2.370   2.856   6.805 -0.3246  0.0701  0.3573
 9405SOL    HW139848   2.352   2.943   6.771 -2.4272 -0.4039  0.2648
 9405SOL    HW239849   2.388   2.807   6.725  1.1072  2.1582 -0.5935
 9406SOL     OW39850   3.940   0.418   4.811 -0.1443  0.6704  0.4675
 9406SOL    HW139851   3.943   0.501   4.859 -2.2228  0.5375  0.8199
 9406SOL    HW239852   3.936   0.461   4.725 -1.2032 -1.4717 -0.5540
 9407SOL     OW39853   3.444   0.158   6.694 -0.3611  0.1330 -0.2508
 9407SOL    HW139854   3.438   0.114   6.779  0.6255 -2.1651 -1.3524
 9407SOL    HW239855   3.538   0.176   6.690 -0.6347  1.8624  1.2494
 9408SOL     OW39856   4.433   2.756   7.616  0.6151  0.3829 -0.1393
 9408SOL    HW139857   4.455   2.774   7.524 -1.2819  2.0817 -0.2351
 9408SOL    HW239858   4.464   2.665   7.625 -1.0191 -0.0670  0.8710
 9409SOL     OW39859   1.711   3.021  17.612 -0.2308 -0.1249  0.2762
 9409SOL    HW139860   1.703   2.956  17.543  0.4059 -1.5839  1.5927
 9409SOL    HW239861   1.636   3.079  17.599 -1.5189 -2.1701 -1.3520
 9410SOL     OW39862   3.058   4.453   9.634 -0.3125 -0.1552  0.5828
 9410SOL    HW139863   3.061   4.361   9.607  1.3095 -0.3439  1.4035
 9410SOL    HW239864   3.152   4.461   9.645 -0.2991 -0.1438  0.4588
 9411SOL     OW39865   1.067   3.956   3.727 -0.3877  0.1414 -0.6253
 9411SOL    HW139866   0.989   4.011   3.722  0.0867  0.6855 -1.9532
 9411SOL    HW239867   1.060   3.912   3.642  0.2229 -0.7457 -0.2125
 9412SOL     OW39868   0.244   3.332   3.832 -0.0709  0.5534 -0.3490
 9412SOL    HW139869   0.240   3.259   3.769  0.1851  0.1527  0.0963
 9412SOL    HW239870   0.280   3.405   3.782 -0.5639  0.6958 -0.4991
 9413SOL     OW39871   2.665   4.312   1.925 -0.2207 -0.4032 -0.2489
 9413SOL    HW139872   2.693   4.233   1.971  2.7981  0.0850 -1.2210
 9413SOL    HW239873   2.605   4.358   1.984 -0.3462 -0.0440 -0.6519
 9414SOL     OW39874   3.167   0.349   8.058 -0.4601 -0.1457 -0.0299
 9414SOL    HW139875   3.183   0.440   8.033 -2.0946  0.1225 -0.1088
 9414SOL    HW239876   3.159   0.340   8.153 -0.3309  0.5613  0.0544
 9415SOL     OW39877   1.591   3.022   9.557 -0.4276 -0.6975  0.1452
 9415SOL    HW139878   1.591   3.112   9.589 -1.7777  0.1018 -2.1044
 9415SOL    HW239879   1.518   3.026   9.495 -0.2566  0.4753  0.0137
 9416SOL     OW39880   1.620   3.300   9.281  0.3990  0.2931 -0.2152
 9416SOL    HW139881   1.543   3.243   9.274  2.6265 -2.8884  0.7024
 9416SOL    HW239882   1.688   3.253   9.233  0.3760  1.7370 -1.6465
 9417SOL     OW39883   4.181   4.271   3.208 -0.5906  0.1381 -0.3785
 9417SOL    HW139884   4.269   4.287   3.242 -0.8953  1.3117 -0.1466
 9417SOL    HW239885   4.210   4.217   3.135  0.0456 -0.4852  0.3350
 9418SOL     OW39886   4.609   1.365   5.761 -0.0217 -0.7300 -0.6552
 9418SOL    HW139887   4.555   1.285   5.764 -2.7682  1.1630  0.8251
 9418SOL    HW239888   4.694   1.331   5.786 -1.0961 -0.9943  2.6442
 9419SOL     OW39889   4.244   3.945   1.937 -0.8431  0.0275 -0.3026
 9419SOL    HW139890   4.226   3.853   1.956  1.2509 -0.5194 -0.9996
 9419SOL    HW239891   4.155   3.979   1.931 -0.5261  0.7262 -1.1063
 9420SOL     OW39892   1.349   3.639   2.822  0.4469 -0.1438 -0.5642
 9420SOL    HW139893   1.332   3.629   2.728 -1.2935  1.3444 -0.4208
 9420SOL    HW239894   1.264   3.608   2.853  0.4387  1.3924  1.0147
 9421SOL     OW39895   4.203   4.530   3.397  0.4041  0.1416 -0.0664
 9421SOL    HW139896   4.218   4.606   3.453 -1.3826  1.7368 -1.7174
 9421SOL    HW239897   4.142   4.573   3.337  0.2245  3.4146  2.4945
 9422SOL     OW39898   3.140   3.565   8.704 -0.3059  0.3389 -0.1036
 9422SOL    HW139899   3.156   3.659   8.708 -0.6566  0.4125 -0.4465
 9422SOL    HW239900   3.219   3.536   8.659  1.0903  0.3556  2.3446
 9423SOL     OW39901   4.063   2.542   6.856  0.4964 -0.5467 -0.3849
 9423SOL    HW139902   4.136   2.594   6.825  1.2255 -1.2421  0.1687
 9423SOL    HW239903   4.083   2.456   6.821 -0.4288 -0.4527 -1.1389
 9424SOL     OW39904   0.643   2.664   9.810  0.0251 -0.2544  0.6638
 9424SOL    HW139905   0.568   2.723   9.805  1.0822  1.0305  0.0339
 9424SOL    HW239906   0.620   2.607   9.736  1.3698  1.1253 -0.8237
 9425SOL     OW39907   3.331   3.250  12.608 -0.0040 -0.6043  0.1981
 9425SOL    HW139908   3.400   3.310  12.635 -0.8834  0.1753  0.6760
 9425SOL    HW239909   3.373   3.164  12.610  1.1781 -0.0953 -2.6743
 9426SOL     OW39910   0.506   0.496  17.725 -0.3560  0.2059  0.3596
 9426SOL    HW139911   0.491   0.403   0.012  0.8511 -0.0900 -0.1142
 9426SOL    HW239912   0.418   0.509  17.691 -0.9796 -5.7525 -0.3628
 9427SOL     OW39913   3.672   1.509   1.950 -0.3611  0.0809  0.1413
 9427SOL    HW139914   3.687   1.481   1.860  0.2841 -1.4580  0.7368
 9427SOL    HW239915   3.752   1.503   2.002 -0.7843 -0.7732  0.6912
 9428SOL     OW39916   1.040   2.607   2.807  0.3649 -0.1947 -0.2347
 9428SOL    HW139917   1.048   2.542   2.877 -0.9227  0.2160  0.2896
 9428SOL    HW239918   0.951   2.590   2.774 -0.3349  0.1407  1.4781
 9429SOL     OW39919   2.834   2.008   3.377 -0.3715  0.1970 -0.1597
 9429SOL    HW139920   2.826   1.969   3.464 -1.2805 -1.4566 -0.9746
 9429SOL    HW239921   2.746   1.996   3.340 -0.8360  0.0085  1.0014
 9430SOL     OW39922   2.726   1.348   6.649  0.0913 -0.3966  0.6405
 9430SOL    HW139923   2.691   1.408   6.715  0.2482  0.7365 -0.3119
 9430SOL    HW239924   2.796   1.405   6.618 -2.5439  2.3515 -0.2639
 9431SOL     OW39925   0.940   1.315   2.663 -0.0309  0.1208  0.1634
 9431SOL    HW139926   0.922   1.254   2.591 -1.2822  1.2117 -0.4306
 9431SOL    HW239927   0.850   1.339   2.685  0.4182  2.5936 -0.6882
 9432SOL     OW39928   0.560   1.852   4.031 -0.1172 -0.0247  0.4336
 9432SOL    HW139929   0.608   1.929   4.060  0.1012  0.4590 -1.2409
 9432SOL    HW239930   0.533   1.811   4.113  1.6400 -0.7052  0.6872
 9433SOL     OW39931   1.150   1.682   9.118  0.0667 -0.0613  0.0081
 9433SOL    HW139932   1.234   1.682   9.072 -0.8356  0.6835 -1.6168
 9433SOL    HW239933   1.158   1.769   9.157  0.0361 -0.9588  2.0407
 9434SOL     OW39934   0.119   1.456   4.826  0.3691 -0.0676  0.5557
 9434SOL    HW139935   0.214   1.457   4.810  0.2702  2.4639  0.1523
 9434SOL    HW239936   0.076   1.459   4.741 -0.6588 -0.2238  1.0750
 9435SOL     OW39937   0.125   0.829   4.506 -0.2094  0.3497  0.6974
 9435SOL    HW139938   0.167   0.783   4.433  0.5480  1.9290  0.1281
 9435SOL    HW239939   0.195   0.855   4.567  0.7962  1.0114 -0.7261
 9436SOL     OW39940   3.840   0.796   9.153  0.0942  0.2863 -0.3779
 9436SOL    HW139941   3.794   0.782   9.237  1.8702  0.8234  0.6768
 9436SOL    HW239942   3.932   0.809   9.173 -0.1275  2.1065 -0.5626
 9437SOL     OW39943   4.201   0.353   7.472  0.9377 -0.2101  0.5861
 9437SOL    HW139944   4.164   0.346   7.560  1.7338  0.5402  0.9795
 9437SOL    HW239945   4.290   0.386   7.485  0.9432 -0.0929  0.2525
 9438SOL     OW39946   3.983   4.389  13.594  0.4267  0.2678  0.1831
 9438SOL    HW139947   3.987   4.483  13.575 -1.5255  0.7512  2.1467
 9438SOL    HW239948   3.895   4.373  13.561  0.6064 -1.1732  0.4148
 9439SOL     OW39949   4.436   1.308   8.472  1.0274 -0.5771  0.6054
 9439SOL    HW139950   4.350   1.348   8.455  0.0615 -1.5112  3.3880
 9439SOL    HW239951   4.432   1.255   8.551  3.4416  1.0665  1.8172
 9440SOL     OW39952   4.130   2.278   8.636  0.4948  0.5310  0.6581
 9440SOL    HW139953   4.157   2.203   8.583 -0.0344  2.5101 -2.4264
 9440SOL    HW239954   4.116   2.232   8.719 -0.1151  0.8991  0.7588
 9441SOL     OW39955   0.002   2.584   8.205 -0.1659 -0.6646 -0.7803
 9441SOL    HW139956   0.028   2.657   8.149 -0.4043 -0.6794 -0.9087
 9441SOL    HW239957   0.089   2.549   8.226  0.2623  0.0222 -1.4278
 9442SOL     OW39958   4.716   0.667  11.354 -0.2095  0.3742 -0.0753
 9442SOL    HW139959   0.072   0.633  11.345 -0.0224  1.1301 -1.0893
 9442SOL    HW239960   4.693   0.669  11.261  2.2347 -2.7970 -0.7668
 9443SOL     OW39961   0.686   2.264   5.051  0.0424  0.0627 -0.6175
 9443SOL    HW139962   0.642   2.347   5.031  0.5896  0.8879  1.5845
 9443SOL    HW239963   0.689   2.223   4.965  0.0462 -1.2476  0.0099
 9444SOL     OW39964   4.159   0.962   3.539 -0.5318  0.2885  0.2446
 9444SOL    HW139965   4.137   0.876   3.576  0.8729 -0.1758  0.0107
 9444SOL    HW239966   4.209   0.998   3.612  2.1186  1.2635 -2.0391
 9445SOL     OW39967   2.327   0.603   9.596 -0.4869  0.4077 -0.3825
 9445SOL    HW139968   2.253   0.591   9.536 -2.3419  1.8935  1.6170
 9445SOL    HW239969   2.389   0.657   9.547  0.1713  1.5055  1.6781
 9446SOL     OW39970   0.096   2.127   5.907 -0.4914  0.3903 -0.4382
 9446SOL    HW139971   0.039   2.069   5.958  2.5061 -0.1878  2.2199
 9446SOL    HW239972   0.186   2.097   5.918 -0.1597  1.2480 -0.7696
 9447SOL     OW39973   4.217   1.583   0.495  0.2686  0.1102 -0.2996
 9447SOL    HW139974   4.248   1.526   0.566 -0.4740 -1.0382 -0.9015
 9447SOL    HW239975   4.289   1.646   0.489 -1.0945  1.6456 -0.3986
 9448SOL     OW39976   3.681   0.034   3.160 -0.3171 -0.2866  0.1351
 9448SOL    HW139977   3.659   0.096   3.090 -0.3100  1.3383  1.5819
 9448SOL    HW239978   3.764   4.726   3.135  1.2195  2.1853  1.1794
 9449SOL     OW39979   3.244   0.150   2.142 -0.6464  0.1518 -0.1843
 9449SOL    HW139980   3.208   0.237   2.123 -1.3993 -0.2068 -0.3710
 9449SOL    HW239981   3.301   0.168   2.217  0.0276 -1.1722 -0.3916
 9450SOL     OW39982   2.979   1.366   3.830 -0.4092 -0.6305 -0.5508
 9450SOL    HW139983   2.930   1.285   3.844 -1.0736 -0.0245  0.5972
 9450SOL    HW239984   2.953   1.418   3.905 -1.3938 -3.4574  1.0520
 9451SOL     OW39985   3.380   3.915  15.086  0.7927 -0.2477  0.0259
 9451SOL    HW139986   3.451   3.851  15.088  0.7225 -0.3972 -3.2987
 9451SOL    HW239987   3.418   3.985  15.033  0.0770  0.2873  0.2154
 9452SOL     OW39988   1.988   1.864   3.547  0.2215  0.6153  0.2323
 9452SOL    HW139989   1.935   1.844   3.624 -0.6167 -1.6402 -0.9202
 9452SOL    HW239990   1.931   1.906   3.482 -0.5015 -0.5465  0.1244
 9453SOL     OW39991   2.202   1.367   6.482  0.5300 -0.2543  0.9145
 9453SOL    HW139992   2.153   1.404   6.556 -1.4923 -0.0977 -0.5093
 9453SOL    HW239993   2.171   1.277   6.488  0.5735 -0.1971  2.0523
 9454SOL     OW39994   1.395   3.768   8.025  0.2354 -0.1157  0.1645
 9454SOL    HW139995   1.300   3.758   8.036 -0.0336 -0.9478 -2.7375
 9454SOL    HW239996   1.398   3.847   7.971 -0.4505 -0.4351 -0.3428
 9455SOL     OW39997   0.598   3.996   4.116  0.3572  0.1935 -0.5937
 9455SOL    HW139998   0.584   4.011   4.209  1.4803  1.0479 -0.5611
 9455SOL    HW239999   0.518   3.955   4.083  1.2376 -2.4833  0.6380
 9456SOL     OW40000   0.879   1.566   0.373  0.5688 -0.1300 -0.7611
 9456SOL    HW140001   0.848   1.508   0.303 -0.6206 -1.7596  1.1242
 9456SOL    HW240002   0.848   1.524   0.453 -0.6079  0.3359 -0.9642
 9457SOL     OW40003   2.435   0.831   2.394  0.2746  0.4593  0.1083
 9457SOL    HW140004   2.479   0.790   2.469 -3.3442 -3.0233  0.3212
 9457SOL    HW240005   2.502   0.826   2.326  0.2484 -0.0047  0.1122
 9458SOL     OW40006   2.965   1.177   8.439 -0.0918  0.0178  0.4940
 9458SOL    HW140007   2.966   1.222   8.354 -0.5810  1.1199  1.0624
 9458SOL    HW240008   3.021   1.236   8.489 -1.6673  1.1003  1.0033
 9459SOL     OW40009   2.674   3.237  12.113 -0.1093  0.6940 -0.1389
 9459SOL    HW140010   2.761   3.219  12.149  0.0002  1.9523  0.1916
 9459SOL    HW240011   2.701   3.255  12.022 -1.7985 -0.7238 -0.9204
 9460SOL     OW40012   1.595   2.291   0.476 -0.8546  0.3387 -0.0854
 9460SOL    HW140013   1.622   2.302   0.568 -2.1046  1.3874  0.1697
 9460SOL    HW240014   1.536   2.216   0.483 -0.7125  0.2251 -0.1143
 9461SOL     OW40015   3.144   4.451  17.686 -0.0352 -0.2675  0.0132
 9461SOL    HW140016   3.174   4.530  17.730 -1.8098  1.2636 -1.5163
 9461SOL    HW240017   3.128   4.487  17.599 -0.7439  1.6518  0.9497
 9462SOL     OW40018   3.723   0.949   7.680  0.5056 -0.4175  0.7372
 9462SOL    HW140019   3.753   0.957   7.590  1.5381  0.8629  1.1940
 9462SOL    HW240020   3.731   1.041   7.707 -1.5217  0.6561 -2.3409
 9463SOL     OW40021   3.612   1.386   7.881  0.3987  0.2295 -0.5169
 9463SOL    HW140022   3.520   1.412   7.885  0.5187  0.7397 -1.0555
 9463SOL    HW240023   3.627   1.402   7.974 -0.1764 -1.2356 -0.1801
 9464SOL     OW40024   2.433   1.598   2.960  0.0189  0.3720 -0.5518
 9464SOL    HW140025   2.522   1.588   2.928  0.6312 -2.2207  2.0000
 9464SOL    HW240026   2.399   1.509   2.952 -0.1632  0.2803  1.2226
 9465SOL     OW40027   4.715   1.120  17.293 -0.3426  0.5873 -0.0091
 9465SOL    HW140028   4.631   1.140  17.252 -1.9335 -0.5454  2.6795
 9465SOL    HW240029   0.032   1.085  17.220 -0.0785 -1.5820  1.2042
 9466SOL     OW40030   2.863   4.584   0.158 -0.0810  0.8039 -0.6031
 9466SOL    HW140031   2.808   4.656   0.190  1.3424  0.5499  2.3907
 9466SOL    HW240032   2.921   4.625   0.094 -1.6833 -0.1288 -2.6741
 9467SOL     OW40033   4.408   3.648   6.822 -0.2617  0.1396 -0.4118
 9467SOL    HW140034   4.343   3.623   6.757 -0.0459 -2.7199  0.4448
 9467SOL    HW240035   4.382   3.740   6.830  3.0262  0.9894  0.4498
 9468SOL     OW40036   1.301   2.073  16.859 -0.0064 -0.1128  0.6448
 9468SOL    HW140037   1.395   2.083  16.872 -0.4943  0.7174  3.5332
 9468SOL    HW240038   1.296   2.030  16.773 -1.3645  0.8567  0.2116
 9469SOL     OW40039   3.932   3.434   9.221  0.0388 -0.2589  0.0905
 9469SOL    HW140040   3.889   3.385   9.290  1.3388 -1.0506  0.3298
 9469SOL    HW240041   4.006   3.376   9.208 -0.0001  0.0148 -1.4343
 9470SOL     OW40042   3.600   3.124   5.829 -0.2529 -0.4337 -0.2099
 9470SOL    HW140043   3.690   3.134   5.797  0.3826 -2.8553  0.8749
 9470SOL    HW240044   3.566   3.115   5.739  0.4777  1.9524 -0.7152
 9471SOL     OW40045   1.860   3.353  10.484  0.5473  0.2548  0.4915
 9471SOL    HW140046   1.766   3.359  10.499  0.3862 -0.6738 -0.1412
 9471SOL    HW240047   1.902   3.369  10.569 -0.7901 -2.3582  1.6557
 9472SOL     OW40048   3.111   0.955   5.408 -0.7329  0.1154  0.1350
 9472SOL    HW140049   3.119   0.997   5.323 -0.4213  0.5287  0.3694
 9472SOL    HW240050   3.076   0.871   5.378  0.4247  0.2140 -1.4611
 9473SOL     OW40051   3.510   0.480   7.337 -0.4485 -0.0701  0.2216
 9473SOL    HW140052   3.450   0.441   7.401  2.1473  0.2502  2.8469
 9473SOL    HW240053   3.530   0.414   7.271  0.8842  0.0281  0.5228
 9474SOL     OW40054   3.797   2.138   2.561 -0.1861  0.4180 -0.1041
 9474SOL    HW140055   3.830   2.215   2.514  0.4234  1.4815  2.0895
 9474SOL    HW240056   3.703   2.152   2.557 -0.1001  1.0255 -0.0583
 9475SOL     OW40057   2.802   2.152   7.675  0.2208  0.0021 -0.0494
 9475SOL    HW140058   2.797   2.244   7.698 -3.4819 -0.0659 -0.5392
 9475SOL    HW240059   2.754   2.119   7.751 -1.2940 -1.0329 -1.4394
 9476SOL     OW40060   0.487   2.518   9.637  0.1569  0.3330  0.8294
 9476SOL    HW140061   0.434   2.590   9.603 -1.0437 -1.3755 -0.8788
 9476SOL    HW240062   0.439   2.443   9.603  0.8009  0.0016  0.6369
 9477SOL     OW40063   1.520   3.141   5.964 -0.0926 -0.1373 -0.2364
 9477SOL    HW140064   1.556   3.158   6.051 -0.9121  0.9162 -0.1078
 9477SOL    HW240065   1.534   3.046   5.954  0.8826 -0.2789  2.6281
 9478SOL     OW40066   1.981   3.245  15.847 -0.3002  0.0171 -0.2976
 9478SOL    HW140067   1.980   3.165  15.901  1.1341  1.7363  2.3039
 9478SOL    HW240068   2.064   3.239  15.800 -2.0919 -1.8947 -3.2149
 9479SOL     OW40069   1.217   2.927   9.706  0.4159  0.4675  0.0131
 9479SOL    HW140070   1.175   2.989   9.646 -1.4824 -0.3077  0.5436
 9479SOL    HW240071   1.227   2.849   9.652  1.6191  1.5328 -1.3116
 9480SOL     OW40072   4.697   3.465   2.976 -0.1284 -0.0731 -0.0838
 9480SOL    HW140073   4.670   3.490   3.065  0.0673  4.0812 -1.1868
 9480SOL    HW240074   4.625   3.404   2.961  1.0270 -1.1011 -1.3977
 9481SOL     OW40075   3.673   3.903   1.399 -0.3532  0.0094  0.2655
 9481SOL    HW140076   3.651   3.995   1.411 -0.1853  0.1737 -0.6582
 9481SOL    HW240077   3.586   3.868   1.380 -0.8381 -0.4323  3.3268
 9482SOL     OW40078   2.731   0.077   3.374  0.5719  0.1778  0.2260
 9482SOL    HW140079   2.821   0.079   3.343  0.5955  0.7214  0.3313
 9482SOL    HW240080   2.739   0.069   3.469  3.6095 -2.4547 -0.2320
 9483SOL     OW40081   4.442   3.897   1.172  0.6099 -0.5443 -0.4565
 9483SOL    HW140082   4.359   3.937   1.147  1.7345  0.7391 -2.2443
 9483SOL    HW240083   4.411   3.869   1.258  2.2198 -0.8676  0.0281
 9484SOL     OW40084   1.202   3.676   6.352 -0.1928  0.1272  0.0785
 9484SOL    HW140085   1.298   3.676   6.356 -0.1867 -0.5236 -0.1086
 9484SOL    HW240086   1.177   3.609   6.415 -0.3720  1.5676  1.5125
 9485SOL     OW40087   1.432   3.879   8.276  0.0752 -0.7527  0.0203
 9485SOL    HW140088   1.421   3.842   8.189 -2.5727 -2.9157  1.2409
 9485SOL    HW240089   1.430   3.799   8.329 -1.6035 -0.1599  0.8719
 9486SOL     OW40090   4.583   1.507   8.949  0.1839  0.4513 -0.1730
 9486SOL    HW140091   4.650   1.440   8.963  0.1164  0.5990  0.9153
 9486SOL    HW240092   4.615   1.541   8.866 -1.3217 -0.5766 -1.1725
 9487SOL     OW40093   3.749   3.134  13.567 -0.1902 -0.1790  0.2664
 9487SOL    HW140094   3.841   3.123  13.543  0.0412  0.7182  0.7626
 9487SOL    HW240095   3.755   3.189  13.645  0.4412  0.0370  0.0689
 9488SOL     OW40096   0.635   1.922  10.161  0.4531  0.7834  0.0786
 9488SOL    HW140097   0.671   1.951  10.244 -0.1520  0.5931  0.4118
 9488SOL    HW240098   0.606   2.005  10.122 -0.9641  0.2361 -0.0621
 9489SOL     OW40099   1.452   2.068  10.754  0.0313  0.1454  0.2961
 9489SOL    HW140100   1.414   2.059  10.667  2.2002  1.1456 -0.7494
 9489SOL    HW240101   1.430   2.160  10.763  2.9562  0.7455  1.0527
 9490SOL     OW40102   2.058   0.456   0.645 -0.1925 -0.2952  0.1446
 9490SOL    HW140103   2.079   0.363   0.658  0.4827 -0.0753  0.6341
 9490SOL    HW240104   2.102   0.467   0.560  1.7252 -0.5196  1.0972
 9491SOL     OW40105   2.361   1.172  12.477 -0.2559 -0.6614  0.4902
 9491SOL    HW140106   2.326   1.241  12.422  0.7308 -1.0219 -0.5915
 9491SOL    HW240107   2.448   1.170  12.438 -0.1522 -0.3244  0.7058
 9492SOL     OW40108   0.187   0.624   6.031  0.2287  0.1628  1.0008
 9492SOL    HW140109   0.142   0.649   5.950  1.2284  2.2026  1.0810
 9492SOL    HW240110   0.124   0.609   6.101 -0.2415 -3.0531 -0.1081
 9493SOL     OW40111   1.595   3.992  13.627 -0.2916  0.4891 -0.0010
 9493SOL    HW140112   1.558   3.904  13.628  0.6220  0.1089  0.9825
 9493SOL    HW240113   1.674   3.984  13.574 -0.1211 -0.3226  0.3710
 9494SOL     OW40114   2.404   3.140   2.156 -0.2127  0.2970 -0.7970
 9494SOL    HW140115   2.483   3.120   2.208 -1.8567  1.4716  2.1282
 9494SOL    HW240116   2.435   3.170   2.070 -1.9061 -1.3829 -1.9971
 9495SOL     OW40117   3.975   1.624   1.071 -0.1405 -0.4433  0.0787
 9495SOL    HW140118   3.905   1.591   1.014  0.3154  0.7340 -1.1422
 9495SOL    HW240119   4.001   1.543   1.116 -2.3055 -1.1556  0.0490
 9496SOL     OW40120   1.373   4.073   6.134  0.1342 -0.0871 -0.0820
 9496SOL    HW140121   1.430   4.033   6.069 -0.4796 -0.3496 -0.4581
 9496SOL    HW240122   1.382   4.012   6.206  0.4676  0.4715  0.3512
 9497SOL     OW40123   2.873   1.806   6.317  0.2791 -0.0891  0.2623
 9497SOL    HW140124   2.881   1.790   6.411  0.4506  0.9434  0.4167
 9497SOL    HW240125   2.960   1.780   6.287  0.8301  0.4015  1.4572
 9498SOL     OW40126   4.657   2.653   4.417  0.5493 -0.4186  0.1011
 9498SOL    HW140127   4.719   2.580   4.421  1.8551  0.5374 -2.4941
 9498SOL    HW240128   4.575   2.626   4.459 -0.2418 -0.2353 -1.3420
 9499SOL     OW40129   1.431   4.212   8.614 -0.3018 -0.0462 -0.0404
 9499SOL    HW140130   1.353   4.197   8.561  0.3258  0.8819 -1.2315
 9499SOL    HW240131   1.466   4.280   8.556 -0.7791  0.4580  0.2556
 9500SOL     OW40132   2.242   1.063   3.652 -0.5245 -0.1529 -0.6112
 9500SOL    HW140133   2.150   1.082   3.634 -0.8701  0.7111  2.0381
 9500SOL    HW240134   2.270   0.992   3.595 -1.4526  0.0137 -1.2867
 9501SOL     OW40135   0.498   0.153   1.903 -0.4944 -0.1432  0.1003
 9501SOL    HW140136   0.513   0.225   1.841 -1.8821 -2.8535 -3.4013
 9501SOL    HW240137   0.434   0.104   1.850  0.6691 -1.3273 -0.2179
 9502SOL     OW40138   0.404   2.002   2.029  0.3096  0.2878 -0.0144
 9502SOL    HW140139   0.340   1.931   2.026  0.6653 -0.0209 -0.2362
 9502SOL    HW240140   0.342   2.076   2.034 -0.7065 -0.7825  3.6577
 9503SOL     OW40141   1.682   1.874   4.860 -0.4449 -0.2219 -0.4744
 9503SOL    HW140142   1.713   1.785   4.840  1.0741  0.5299 -1.4769
 9503SOL    HW240143   1.661   1.884   4.953  0.4659 -1.1117 -0.1722
 9504SOL     OW40144   1.080   4.054  12.428  0.4489 -0.2443 -0.1258
 9504SOL    HW140145   1.093   4.125  12.366  0.2924  1.6064  1.9545
 9504SOL    HW240146   0.992   4.026  12.401  0.2703 -0.7589  0.9715
 9505SOL     OW40147   1.857   0.481   1.393 -0.1955  0.4384 -0.8589
 9505SOL    HW140148   1.777   0.432   1.409  1.6114 -2.2391  0.0159
 9505SOL    HW240149   1.882   0.497   1.484  0.7536  3.1115 -1.5737
 9506SOL     OW40150   3.874   3.284   5.424 -0.1245 -0.2623 -0.2912
 9506SOL    HW140151   3.840   3.206   5.380  0.7846 -0.2190 -1.0493
 9506SOL    HW240152   3.939   3.249   5.485 -1.6825 -0.8765  1.0457
 9507SOL     OW40153   0.815   1.519   8.392 -0.1700 -0.1742  0.6140
 9507SOL    HW140154   0.860   1.575   8.455  0.0561  0.8209 -0.4460
 9507SOL    HW240155   0.881   1.504   8.323 -0.8533  0.7144 -0.2193
 9508SOL     OW40156   0.664   3.094   6.155  0.6190 -0.1166  0.1423
 9508SOL    HW140157   0.642   3.149   6.229  0.9276 -0.1198  0.2364
 9508SOL    HW240158   0.662   3.150   6.078 -2.8633  1.4820  1.3807
 9509SOL     OW40159   1.427   3.807   2.011  0.3219  0.2930  0.4860
 9509SOL    HW140160   1.473   3.754   1.945 -1.0964  0.9835 -1.0563
 9509SOL    HW240161   1.458   3.894   1.987  0.3907 -0.7069 -3.1503
 9510SOL     OW40162   3.701   1.739  14.535 -0.0332 -0.1743 -0.3180
 9510SOL    HW140163   3.660   1.799  14.473 -0.4798 -0.8675 -0.6908
 9510SOL    HW240164   3.677   1.778  14.619  0.9259 -0.4169  0.0618
 9511SOL     OW40165   0.869   1.892   4.294 -0.5658  0.1918 -0.1377
 9511SOL    HW140166   0.899   1.809   4.331  1.4358  0.1526 -1.9081
 9511SOL    HW240167   0.848   1.936   4.377  3.5478 -0.1506  1.0572
 9512SOL     OW40168   1.769   2.129   2.727  0.0678 -0.0804  0.1303
 9512SOL    HW140169   1.847   2.107   2.677  0.3213 -2.0591  1.3754
 9512SOL    HW240170   1.786   2.066   2.797 -2.2147 -0.3324  0.4648
 9513SOL     OW40171   4.242   2.073   5.785 -0.1070 -0.1865  0.0956
 9513SOL    HW140172   4.328   2.083   5.826  0.8926  2.8647 -2.7611
 9513SOL    HW240173   4.254   1.980   5.768 -0.7568 -0.0085 -1.2951
 9514SOL     OW40174   1.579   3.645   4.932 -0.0795  0.6787 -0.0385
 9514SOL    HW140175   1.582   3.714   4.999 -1.9588  1.2000 -0.4766
 9514SOL    HW240176   1.605   3.567   4.980  0.8619  1.4235  0.6701
 9515SOL     OW40177   0.651   1.964   1.622  0.0931  0.4830 -0.3042
 9515SOL    HW140178   0.624   1.946   1.712  0.6770  1.1538  0.0115
 9515SOL    HW240179   0.656   1.877   1.584  1.8615  0.0335  0.9753
 9516SOL     OW40180   1.903   2.886  11.627 -0.3299 -0.0631  0.0737
 9516SOL    HW140181   1.982   2.922  11.586 -1.2224  0.6286 -1.0243
 9516SOL    HW240182   1.939   2.840  11.703  3.0467  0.6553 -1.1061
 9517SOL     OW40183   2.408   2.526   2.574 -0.4468 -0.4979  0.1769
 9517SOL    HW140184   2.412   2.557   2.665 -0.8049  1.0642 -0.3269
 9517SOL    HW240185   2.313   2.527   2.565 -0.4202  0.0894 -0.1053
 9518SOL     OW40186   0.379   1.032   4.967  0.5648 -0.4260  0.4977
 9518SOL    HW140187   0.316   1.091   4.926  0.5544 -0.9934 -0.3015
 9518SOL    HW240188   0.444   1.006   4.902 -2.0917  0.9320 -2.6881
 9519SOL     OW40189   4.513   3.270  12.187 -0.0925 -0.1538 -0.2710
 9519SOL    HW140190   4.433   3.282  12.239 -0.3218 -0.5910 -0.5222
 9519SOL    HW240191   4.567   3.231  12.256  0.6246  1.9370  0.3315
 9520SOL     OW40192   2.342   3.206   6.443  0.1395  0.4234  0.1829
 9520SOL    HW140193   2.250   3.218   6.463  0.6800  1.4406  2.0500
 9520SOL    HW240194   2.357   3.284   6.390 -1.7657  0.9457  0.4290
 9521SOL     OW40195   1.254   1.715  14.289  0.2089  0.0001  0.4411
 9521SOL    HW140196   1.290   1.667  14.215 -2.0251 -0.5296 -0.2926
 9521SOL    HW240197   1.164   1.732  14.261  0.3476  0.0870  0.0448
 9522SOL     OW40198   3.914   3.697   7.508  0.5142 -0.2194  0.6130
 9522SOL    HW140199   3.913   3.762   7.578 -1.2942 -0.1133  0.4869
 9522SOL    HW240200   3.954   3.748   7.438 -1.0822 -1.2862 -1.0593
 9523SOL     OW40201   0.600   4.471   0.241  0.1312  0.3040  0.3201
 9523SOL    HW140202   0.516   4.437   0.271  0.0505 -1.0270 -1.4673
 9523SOL    HW240203   0.666   4.420   0.287  2.7447  2.1662 -1.3934
 9524SOL     OW40204   1.217   3.580   4.511 -0.2751  0.7829  0.3880
 9524SOL    HW140205   1.201   3.498   4.558  0.5799 -0.4170 -1.3843
 9524SOL    HW240206   1.302   3.571   4.468 -0.9534  1.6693 -1.1467
 9525SOL     OW40207   0.110   2.644   8.523  0.5001  0.5802  0.4918
 9525SOL    HW140208   0.193   2.690   8.514  1.1970 -0.5600  1.1280
 9525SOL    HW240209   0.099   2.589   8.445 -0.7469  0.3728  0.8066
 9526SOL     OW40210   1.479   3.646   1.795  0.1091  0.0150 -0.3344
 9526SOL    HW140211   1.441   3.718   1.745 -1.2776 -1.5732 -1.5693
 9526SOL    HW240212   1.432   3.567   1.769  0.0963  0.5032 -1.8213
 9527SOL     OW40213   4.130   0.376   7.218  0.7044 -0.5156  0.4296
 9527SOL    HW140214   4.142   0.356   7.311  0.2659  1.5640  0.9456
 9527SOL    HW240215   4.036   0.362   7.206  0.7133  0.1588 -0.4719
 9528SOL     OW40216   4.697   1.961   2.298 -0.4232  0.7518  0.6622
 9528SOL    HW140217   4.615   2.000   2.326 -0.8497 -0.5511  1.2404
 9528SOL    HW240218   4.672   1.934   2.210 -1.4913  0.2269  1.1352
 9529SOL     OW40219   3.789   3.095   1.949  0.1739 -0.4734 -0.7620
 9529SOL    HW140220   3.811   3.135   1.865 -0.4572 -0.0993 -0.7474
 9529SOL    HW240221   3.736   3.161   1.994 -1.1684 -2.1049  0.0140
 9530SOL     OW40222   4.206   1.220   7.184 -0.2507  0.2023 -0.4037
 9530SOL    HW140223   4.160   1.241   7.265  2.8336  0.3032  1.2973
 9530SOL    HW240224   4.268   1.154   7.214 -1.0097  0.6739  2.1354
 9531SOL     OW40225   3.238   4.583   1.848 -0.2028 -0.3481 -1.0839
 9531SOL    HW140226   3.216   4.569   1.756 -2.7358  0.3817 -0.5688
 9531SOL    HW240227   3.252   4.678   1.848  0.8177 -0.4956 -1.3311
 9532SOL     OW40228   1.536   1.254  13.525  0.1252 -0.0284  0.4684
 9532SOL    HW140229   1.444   1.266  13.501  0.1360  1.0965  0.9911
 9532SOL    HW240230   1.568   1.340  13.553  2.9822 -1.7883  2.5706
 9533SOL     OW40231   4.686   0.875  10.198  0.0432 -0.9083  0.1584
 9533SOL    HW140232   4.697   0.825  10.117 -0.4800  0.1554 -0.5740
 9533SOL    HW240233   4.651   0.808  10.257  1.1201 -0.1184  1.7021
 9534SOL     OW40234   3.391   2.737   6.293 -0.0670 -0.3030 -0.0438
 9534SOL    HW140235   3.343   2.665   6.253  1.5022 -1.5497  0.3297
 9534SOL    HW240236   3.479   2.728   6.256 -0.4807 -0.9515 -0.8757
 9535SOL     OW40237   2.708   3.341  17.348 -0.2316 -0.6049 -0.2461
 9535SOL    HW140238   2.663   3.256  17.350  0.2727 -0.7652  3.1199
 9535SOL    HW240239   2.759   3.339  17.267 -1.5468  2.3076 -1.1393
 9536SOL     OW40240   1.472   4.363   3.749  0.3527  0.0797  0.0864
 9536SOL    HW140241   1.445   4.401   3.833 -2.0720 -0.0655 -0.6168
 9536SOL    HW240242   1.422   4.421   3.692 -0.3638  1.1345  1.7906
 9537SOL     OW40243   1.479   1.302   5.125 -0.1208 -0.3415  0.1987
 9537SOL    HW140244   1.541   1.320   5.054  1.8697 -0.8834  1.8243
 9537SOL    HW240245   1.497   1.379   5.179 -0.5736 -0.2439  0.2152
 9538SOL     OW40246   4.589   0.025   1.754  0.4297 -0.5088  0.4294
 9538SOL    HW140247   4.587   0.024   1.850 -0.6372  0.8153  0.4161
 9538SOL    HW240248   4.680   0.051   1.740  0.4503  0.1305  1.6958
 9539SOL     OW40249   1.617   4.179   2.121  0.8320  0.0226  0.3838
 9539SOL    HW140250   1.581   4.132   2.046 -0.4751  1.7931 -0.0882
 9539SOL    HW240251   1.692   4.223   2.081  2.0527 -1.9025  0.5331
 9540SOL     OW40252   2.315   4.481  10.555 -0.5245 -0.3384  0.0910
 9540SOL    HW140253   2.407   4.507  10.546 -0.2704 -1.6896 -1.1932
 9540SOL    HW240254   2.266   4.558  10.585  0.6554 -0.2801  1.8787
 9541SOL     OW40255   1.815   2.624   4.721  0.1622  0.1494 -0.1719
 9541SOL    HW140256   1.751   2.619   4.651 -1.4762 -1.5437  1.4427
 9541SOL    HW240257   1.893   2.643   4.670 -0.2059  0.2882 -0.6816
 9542SOL     OW40258   2.387   0.477   0.243 -0.7899 -1.0010 -0.1827
 9542SOL    HW140259   2.394   0.562   0.287  3.1063 -1.1244 -0.5528
 9542SOL    HW240260   2.316   0.444   0.298 -0.7068  0.5911  0.9033
 9543SOL     OW40261   2.123   1.861   4.163 -0.4245 -0.3721  0.1426
 9543SOL    HW140262   2.048   1.921   4.160  0.5817  0.8215 -1.9427
 9543SOL    HW240263   2.184   1.894   4.096  0.1015  1.6209  1.6052
 9544SOL     OW40264   2.666   0.493  16.369 -0.3439  0.7586  0.3130
 9544SOL    HW140265   2.709   0.417  16.407 -0.4902  0.4804 -0.0819
 9544SOL    HW240266   2.595   0.514  16.429 -0.1663  3.1815 -0.3130
 9545SOL     OW40267   4.535   4.161   8.363  0.4573 -0.3096 -0.0236
 9545SOL    HW140268   4.526   4.188   8.272  2.7639 -0.4321 -0.2905
 9545SOL    HW240269   4.447   4.171   8.397 -0.3162  0.1424 -2.1779
 9546SOL     OW40270   0.258   0.607   7.524  0.5787 -0.4518 -0.4550
 9546SOL    HW140271   0.242   0.695   7.559  0.0433 -1.7273  2.4669
 9546SOL    HW240272   0.279   0.569   7.609  2.1260  0.5610 -0.3873
 9547SOL     OW40273   1.990   3.624  13.246 -0.1232  0.0141  0.3439
 9547SOL    HW140274   2.027   3.541  13.217  1.8073  0.9540  0.0530
 9547SOL    HW240275   1.919   3.593  13.302 -0.0472  1.6440  1.3605
 9548SOL     OW40276   4.005   3.549   9.603  0.4054  0.8092  0.1429
 9548SOL    HW140277   3.985   3.562   9.510  0.3307  1.4513  0.2483
 9548SOL    HW240278   4.096   3.520   9.594  0.4311  0.0877  2.8345
 9549SOL     OW40279   1.120   2.359   2.935  0.1599  0.1375 -0.4391
 9549SOL    HW140280   1.177   2.323   2.867  1.6147 -0.2476  0.9949
 9549SOL    HW240281   1.176   2.375   3.011 -0.4678 -2.6615  0.6198
 9550SOL     OW40282   4.524   4.544   7.465 -0.1442 -0.1228  0.1348
 9550SOL    HW140283   4.460   4.544   7.537  0.0119 -1.9185  0.2775
 9550SOL    HW240284   4.525   4.638   7.450 -1.8955 -0.3358 -1.3063
 9551SOL     OW40285   0.817   1.965   0.514  0.1870  0.0720 -0.0667
 9551SOL    HW140286   0.800   2.059   0.512 -1.2608 -0.2084 -1.0709
 9551SOL    HW240287   0.727   1.935   0.530 -0.2221  1.5256  0.3068
 9552SOL     OW40288   3.327   1.703  16.594  0.5645 -0.2708 -0.4030
 9552SOL    HW140289   3.342   1.656  16.676  2.3529  0.5235 -0.2948
 9552SOL    HW240290   3.232   1.690  16.587  0.9368 -1.9163 -2.4493
 9553SOL     OW40291   0.418   4.099   0.524 -0.5357  0.0086  0.9503
 9553SOL    HW140292   0.494   4.154   0.504 -1.1821  0.6880  0.3931
 9553SOL    HW240293   0.397   4.055   0.441 -1.3856  4.0188 -0.9621
 9554SOL     OW40294   0.247   1.715  14.493 -0.5473 -0.1281 -0.0410
 9554SOL    HW140295   0.178   1.780  14.503 -1.6230 -1.1049 -1.1422
 9554SOL    HW240296   0.257   1.678  14.581 -0.0726 -0.7388 -0.3550
 9555SOL     OW40297   3.645   2.716  12.020 -0.2013  0.0686  0.3723
 9555SOL    HW140298   3.553   2.737  12.003 -0.2108 -0.6544 -0.4722
 9555SOL    HW240299   3.653   2.761  12.104  2.8091  1.5532 -0.7186
 9556SOL     OW40300   1.559   1.692  16.542 -0.4981 -0.3121  0.0846
 9556SOL    HW140301   1.574   1.607  16.501 -0.1242 -0.6999  1.0305
 9556SOL    HW240302   1.644   1.735  16.527 -0.0584 -0.4892  2.0868
 9557SOL     OW40303   1.146   0.358  14.486  0.7189  0.0751 -0.2589
 9557SOL    HW140304   1.231   0.333  14.451  0.2213  0.5856 -1.7976
 9557SOL    HW240305   1.163   0.366  14.580 -0.1977 -1.6774  0.0614
 9558SOL     OW40306   1.497   1.852  12.933 -0.2945 -0.4126 -0.6054
 9558SOL    HW140307   1.551   1.873  12.858 -3.1483 -1.1264 -2.8759
 9558SOL    HW240308   1.414   1.893  12.909 -0.3086 -0.4490 -0.6192
 9559SOL     OW40309   0.536   0.621   6.429 -1.0268  0.2348 -0.3274
 9559SOL    HW140310   0.480   0.692   6.460 -0.7512 -0.3467  1.4973
 9559SOL    HW240311   0.546   0.650   6.338  0.6562 -0.9728 -0.5276
 9560SOL     OW40312   0.479   4.425   6.204  0.0780 -0.7934  0.0043
 9560SOL    HW140313   0.457   4.335   6.228 -1.7443  0.3535  2.6215
 9560SOL    HW240314   0.575   4.425   6.205  0.1093 -1.2333 -3.1606
 9561SOL     OW40315   0.849   1.420  13.694  1.0847 -0.0936  0.0439
 9561SOL    HW140316   0.847   1.372  13.777 -0.0766 -0.4157 -0.1611
 9561SOL    HW240317   0.820   1.349  13.636 -1.8721  3.1301 -2.4532
 9562SOL     OW40318   2.338   0.474   9.290  0.2916  0.4629  0.0278
 9562SOL    HW140319   2.247   0.474   9.322 -0.7920 -1.4752 -2.9951
 9562SOL    HW240320   2.349   0.379   9.288  1.2835  0.5782  0.5375
 9563SOL     OW40321   3.681   3.114   9.566 -0.2770 -0.4899  0.4244
 9563SOL    HW140322   3.602   3.060   9.566 -1.0985  0.6629 -4.1455
 9563SOL    HW240323   3.725   3.065   9.636  0.2517 -0.6364 -0.0079
 9564SOL     OW40324   4.598   1.037   4.132  0.8369  0.1594  0.0244
 9564SOL    HW140325   4.663   0.966   4.130 -1.3315 -1.8601  1.3443
 9564SOL    HW240326   4.631   1.083   4.054 -1.9227  0.7538 -0.7997
 9565SOL     OW40327   2.861   4.295   6.113  0.1090 -0.0521  0.3454
 9565SOL    HW140328   2.808   4.216   6.118  2.2147 -1.4201  0.8081
 9565SOL    HW240329   2.889   4.299   6.204 -1.1236  1.8780  0.6516
 9566SOL     OW40330   4.205   2.152   2.835 -0.9794 -0.2424  0.2583
 9566SOL    HW140331   4.122   2.117   2.867 -0.6370 -0.6587  0.7133
 9566SOL    HW240332   4.181   2.183   2.748 -1.9634  2.5883  1.5496
 9567SOL     OW40333   3.618   1.375   9.173 -0.4179 -1.0009 -0.1799
 9567SOL    HW140334   3.706   1.370   9.136  1.0749 -0.9830  3.3935
 9567SOL    HW240335   3.588   1.457   9.133 -0.6238 -0.6329  0.7185
 9568SOL     OW40336   1.968   3.238   1.821 -0.3245 -0.0789  0.2415
 9568SOL    HW140337   1.976   3.328   1.790  0.3488  0.3821  1.7911
 9568SOL    HW240338   2.038   3.242   1.886  2.4342  0.3335 -2.7515
 9569SOL     OW40339   1.224   0.426   5.860 -0.0405  0.3124  0.2804
 9569SOL    HW140340   1.213   0.390   5.772  2.3845 -0.3292  0.2240
 9569SOL    HW240341   1.263   0.351   5.906  0.0279  1.6146  2.3626
 9570SOL     OW40342   1.808   0.797  17.538 -0.0641 -0.4304  0.3636
 9570SOL    HW140343   1.730   0.772  17.588 -1.1392  0.3987 -0.9419
 9570SOL    HW240344   1.854   0.714  17.522 -0.3586 -0.4447 -0.4008
 9571SOL     OW40345   2.295   2.924   6.398 -0.0917 -0.1746  0.4729
 9571SOL    HW140346   2.340   3.007   6.415  1.6597 -1.3710  1.6741
 9571SOL    HW240347   2.330   2.912   6.310 -1.0858 -0.3129  0.0983
   4.73325   4.73325  17.73232
