Membrane in water
40347
    1TMC1    C1    1   2.634   4.450  11.824  0.5167 -0.5497 -0.1218
    1TMC1    C2    2   2.678   4.425  11.695 -0.1207  0.7015  0.2401
    1TMC1    C3    3   2.721   4.533  11.615  0.7765  0.0929 -0.3514
    1TMC1    C4    4   2.623   4.579  11.876 -0.0481 -0.6449  0.3037
    1TMC1    C5    5   2.664   4.682  11.786  0.8700  0.0319  0.5259
    1TMC1    C6    6   2.721   4.660  11.661 -0.2817  0.6378 -0.2257
    1TMC1     C    7   2.573   4.345  11.908  0.0419 -0.0259  0.2658
    1TMC1     O    8   2.505   4.380  12.002  0.2874  0.6693 -0.2808
    1TMC1     H    9   2.673   4.329  11.646 -0.5055  0.7561  0.1646
    1TMC1    H1   10   2.576   4.592  11.972 -0.3005 -0.4838  0.1590
    1TMC1    H2   11   2.769   0.005  11.608  1.5239  2.0935  3.6342
    1TMC1    C7   12   2.665   0.076  11.826 -0.1816 -0.5502  0.2081
    1TMC1    C8   13   2.768   4.503  11.478 -0.5588 -0.4964 -0.5018
    1TMC1    O1   14   2.649   0.114  11.941 -0.1092  0.1278 -0.4703
    1TMC1    O2   15   2.815   4.391  11.449  0.2238 -0.5768  0.0888
    1TMC1    O3   16   2.623   0.149  11.722 -0.0712  0.0766 -0.1981
    1TMC1    H3   17   2.610   0.101  11.637  1.1159  0.8672 -0.8161
    1TMC1    O5   18   2.680   4.561  11.403 -0.0480 -0.0907 -0.2155
    1TMC1    H5   19   2.634   4.636  11.445  1.4754 -0.3629  1.9252
    2MPD2     C   20   2.505   3.855  12.056 -0.0936  0.7037  1.0620
    2MPD2    C1   21   2.435   3.970  12.099 -0.3823 -0.5797 -0.2558
    2MPD2    C2   22   2.469   4.086  12.037  0.2364 -0.6991  0.1709
    2MPD2    C3   23   2.575   4.101  11.953 -0.5042 -0.0979 -0.3007
    2MPD2    C4   24   2.643   3.986  11.911  0.0958 -0.0290  0.8218
    2MPD2    C5   25   2.592   3.866  11.955  0.6467  0.1424 -0.0394
    2MPD2     H   26   2.416   4.174  12.071  2.8887  0.6359  0.8442
    2MPD2    H1   27   2.721   3.997  11.836 -1.2249 -1.5847 -0.7789
    2MPD2    H2   28   2.476   3.752  12.078 -0.6973  0.6910  0.1996
    2MPD2    H3   29   2.644   3.781  11.911  1.8013  2.4518 -3.1654
    2MPD2     N   30   2.615   4.220  11.883 -0.2493 -0.6517 -0.4075
    2MPD2    H5   31   2.681   4.196  11.809 -0.6897  0.5102 -1.1705
    2MPD2    N1   32   2.325   3.968  12.191  0.6116 -0.3261  0.1938
    2MPD2    H7   33   2.272   4.054  12.202  1.6419  0.4010 -0.5776
    3TMC1    C1   34   1.477   0.166  10.693  0.0007 -0.6040  0.1824
    3TMC1    C2   35   1.454   0.062  10.614  0.0949 -0.2912 -0.0112
    3TMC1    C3   36   1.480   0.074  10.481  0.2646  0.0143  0.1539
    3TMC1    C4   37   1.524   0.282  10.649  0.4075  0.0299  0.0985
    3TMC1    C5   38   1.549   0.297  10.515  0.7518 -0.0837  0.2774
    3TMC1    C6   39   1.521   0.192  10.426 -0.9567  0.0392  0.5814
    3TMC1     C   40   1.417   0.156  10.829 -0.4175  0.4678 -0.1639
    3TMC1     O   41   1.355   0.054  10.859 -0.2028 -0.0608 -0.2151
    3TMC1     H   42   1.412   4.707  10.653 -1.8156 -0.1496 -1.7361
    3TMC1    H1   43   1.546   0.369  10.709  1.4420  0.3230 -0.7009
    3TMC1    H2   44   1.516   0.207  10.319 -0.0982 -1.5305  0.3209
    3TMC1    C7   45   1.593   0.423  10.460  0.1311  0.7550  0.3692
    3TMC1    C8   46   1.485   4.684  10.405  0.4747  0.9424 -0.4120
    3TMC1    O1   47   1.583   0.534  10.511  0.1903  0.6973 -0.2857
    3TMC1    O2   48   1.430   4.582  10.437  0.2869  0.3644 -0.1060
    3TMC1    O3   49   1.667   0.385  10.349 -0.1949  0.2445 -0.2917
    3TMC1    H3   50   1.670   0.291  10.320  1.9091  1.0777 -2.7984
    3TMC1    O5   51   1.599   4.688  10.332 -0.0536 -0.3797 -0.3654
    3TMC1    H5   52   1.651   0.034  10.319 -0.9402  0.2620  0.1310
    4MPD2     C   53   1.229   0.346  11.265 -0.5042  0.1099  0.7149
    4MPD2    C1   54   1.283   0.452  11.191  0.0291 -0.1855 -0.1279
    4MPD2    C2   55   1.342   0.427  11.067 -0.1333 -0.1437 -0.3998
    4MPD2    C3   56   1.347   0.294  11.021 -0.1171  0.2582 -0.4990
    4MPD2    C4   57   1.287   0.194  11.092 -0.4794 -0.1237 -0.9956
    4MPD2    C5   58   1.226   0.224  11.213 -0.0718 -0.2143 -0.1094
    4MPD2     H   59   1.400   0.508  11.023  1.8038 -0.9332  0.6840
    4MPD2    H1   60   1.298   0.089  11.067 -3.9201 -0.6044 -0.4421
    4MPD2    H2   61   1.177   0.353  11.360 -1.3164 -3.5347  0.5391
    4MPD2    H3   62   1.192   0.139  11.270 -0.6578 -0.3600 -0.6750
    4MPD2     N   63   1.411   0.279  10.894  0.4661 -0.0994  0.0523
    4MPD2    H5   64   1.461   0.359  10.857 -2.4479  1.8913  0.4713
    4MPD2    N1   65   1.286   0.586  11.241 -0.4797  0.2359 -0.2758
    4MPD2    H7   66   1.337   0.653  11.184  0.2080 -0.0114  0.0516
    5TCq1    O1   67   2.779   1.832  12.212  0.0814 -0.1712 -0.4658
    5TCq1    C1   68   2.771   1.773  12.329  0.0314 -0.7100 -0.4641
    5TCq1    O2   69   2.861   1.731  12.398 -0.1344  0.5074 -0.2538
    5TCq1    C2   70   2.626   1.764  12.358 -0.0690  0.2244 -0.2339
    5TCq1    C3   71   2.587   1.761  12.489  0.3446  0.4101 -0.1096
    5TCq1    C4   72   2.464   1.746  12.518  0.1719 -0.6030 -0.5511
    5TCq1    C5   73   2.365   1.713  12.427 -0.3602 -0.5158  0.4268
    5TCq1    C6   74   2.406   1.707  12.300 -0.1404 -0.1854 -0.4050
    5TCq1    C7   75   2.536   1.744  12.258 -0.1417 -0.2966 -0.9166
    5TCq1    C8   76   2.314   1.664  12.190  0.0603  0.8205 -0.3561
    5TCq1    O4   77   2.358   1.674  12.078 -0.5085  0.1651 -0.4746
    5TCq1    C9   78   2.418   1.765  12.656  0.8131  0.8675  0.7874
    5TCq1    O5   79   2.292   1.757  12.678  0.1792 -0.4538 -0.2803
    5TCq1    O6   80   2.499   1.797  12.744 -0.5085  0.3169  0.2523
    5TCq1    H1   81   2.698   1.885  12.194 -0.1233  0.6111  2.7561
    5TCq1    H2   82   2.659   1.784  12.567  1.7273  0.4255 -1.3807
    5TCq1    H3   83   2.266   1.680  12.456 -1.5485  0.3887 -2.6416
    5TCq1    H4   84   2.570   1.736  12.155  2.8097 -1.1545  0.1394
    6MPD2     C   85   1.933   1.707  12.178 -0.4292 -0.0336 -0.3436
    6MPD2    C1   86   2.065   1.701  12.129 -0.2267 -0.1557  0.0049
    6MPD2    C2   87   2.078   1.706  11.995  0.3294 -0.1140 -0.4471
    6MPD2    C3   88   1.979   1.725  11.905  0.1658 -0.5255  0.1570
    6MPD2    C4   89   1.855   1.727  11.961  0.2833 -0.3757 -0.7681
    6MPD2    C5   90   1.827   1.723  12.095  0.5951 -0.2589  1.0550
    6MPD2     H   91   2.178   1.702  11.953  1.1180 -1.6207  1.6113
    6MPD2    H1   92   1.762   1.746  11.908 -0.1405 -0.2458  0.0228
    6MPD2    H2   93   1.925   1.679  12.283  0.1265 -0.2580 -0.3595
    6MPD2    H3   94   1.724   1.718  12.128  0.4781  0.5132  0.8083
    6MPD2     N   95   2.008   1.747  11.767 -0.2846  0.0874  0.9110
    6MPD2    H5   96   2.105   1.745  11.738 -0.3465  1.2062  0.6203
    6MPD2    N1   97   2.176   1.672  12.223  0.2780 -0.1600 -0.5138
    6MPD2    H7   98   2.152   1.676  12.321  1.9907  1.3915 -0.1544
    7TCq1    O1   99   4.535   1.532  13.588 -0.1771 -0.1999 -0.3593
    7TCq1    C1  100   4.481   1.412  13.612  0.1812 -0.5567 -0.0744
    7TCq1    O2  101   4.496   1.306  13.558 -0.4126  0.3520  0.3644
    7TCq1    C2  102   4.397   1.423  13.733  0.3708 -0.3103  0.0385
    7TCq1    C3  103   4.415   1.513  13.842  0.0733 -0.3563 -0.2118
    7TCq1    C4  104   4.353   1.487  13.963  0.0722  0.3663 -0.0760
    7TCq1    C5  105   4.264   1.387  13.976 -0.0688 -0.3937  0.3704
    7TCq1    C6  106   4.252   1.301  13.869 -0.4078  0.3736 -0.2434
    7TCq1    C7  107   4.317   1.315  13.747 -0.1324  0.0356  0.2583
    7TCq1    C8  108   4.177   1.174  13.877  0.4519 -0.1580  0.5987
    7TCq1    O4  109   4.194   1.094  13.790 -0.5471  0.0456 -0.0110
    7TCq1    C9  110   4.361   1.583  14.073 -0.2701  0.6245  0.5214
    7TCq1    O5  111   4.441   1.680  14.050  0.1500 -0.9559 -0.0312
    7TCq1    O6  112   4.279   1.566  14.167  1.0049  0.6620  0.3607
    7TCq1    H1  113   4.484   1.602  13.634  0.1306 -0.5671  0.5423
    7TCq1    H2  114   4.494   1.587  13.831  2.3472 -2.7598  0.0649
    7TCq1    H3  115   4.208   1.384  14.068  1.7214 -0.0236  1.4712
    7TCq1    H4  116   4.291   1.253  13.662  1.2107  0.2588 -0.3145
    8MPD2     C  117   3.957   0.811  14.188 -0.6394 -0.0954 -0.0816
    8MPD2    C1  118   4.051   0.800  14.087 -0.2259 -0.0914 -0.0657
    8MPD2    C2  119   4.092   0.917  14.021 -0.0967 -0.1041 -0.4099
    8MPD2    C3  120   4.047   1.043  14.050 -0.0466 -0.1613 -0.0322
    8MPD2    C4  121   3.956   1.052  14.150  0.3888  0.1350  0.1917
    8MPD2    C5  122   3.914   0.937  14.218  0.4361  0.1780  0.7330
    8MPD2     H  123   4.157   0.901  13.936  0.2053 -0.6870 -0.0715
    8MPD2    H1  124   3.923   1.149  14.187  3.5623  1.7135 -1.1742
    8MPD2    H2  125   3.919   0.726  14.243 -2.4583 -0.1233 -1.3990
    8MPD2    H3  126   3.847   0.953  14.302  1.2931  4.5917  0.5823
    8MPD2     N  127   4.098   1.163  13.991  0.3979 -0.3953 -0.4664
    8MPD2    H5  128   4.066   1.250  14.034  1.0132 -2.0305  3.3126
    8MPD2    N1  129   4.121   0.683  14.047  0.5800 -0.4330 -0.0618
    8MPD2    H7  130   4.173   0.702  13.962  0.8962  1.3894  0.5365
    9TMC1    C1  131   1.892   4.617  11.259  0.0206  0.4907 -0.7928
    9TMC1    C2  132   1.840   4.500  11.313  0.0979 -0.2720  0.4960
    9TMC1    C3  133   1.863   4.387  11.236 -0.5355 -0.0116 -0.1487
    9TMC1    C4  134   1.973   4.628  11.151 -0.7038 -0.4993 -0.2635
    9TMC1    C5  135   2.001   4.509  11.092 -0.2815 -0.2094 -0.9045
    9TMC1    C6  136   1.943   4.386  11.125 -0.6812  0.2898 -0.6460
    9TMC1     C  137   1.869   0.009  11.332  0.2874 -0.2515 -0.2536
    9TMC1     O  138   1.907   0.112  11.271  0.1763  0.4402  0.2222
    9TMC1     H  139   1.763   4.495  11.389 -2.4410 -0.4526 -2.0880
    9TMC1    H1  140   1.998   4.725  11.110  3.3230  0.6094  4.9704
    9TMC1    H2  141   1.950   4.309  11.049  1.5946  0.6286 -0.7762
    9TMC1    C7  142   2.051   4.515  10.964 -0.1786 -0.1988 -0.2974
    9TMC1    C8  143   1.785   4.266  11.265  0.5358 -0.8982 -0.1338
    9TMC1    O1  144   2.008   4.454  10.869 -0.6816  0.7944  0.5910
    9TMC1    O2  145   1.724   4.254  11.372  0.1183  0.0477  0.3267
    9TMC1    O3  146   2.139   4.613  10.964 -0.2291 -0.4012 -0.2720
    9TMC1    H3  147   2.172   4.632  11.055 -0.1394 -2.7201  0.1846
    9TMC1    O5  148   1.851   4.166  11.202 -0.0205  0.3482  0.2316
    9TMC1    H5  149   1.921   4.199  11.142 -0.4376 -1.3173 -1.1802
   10MPD2     C  150   1.831   0.261  11.503  0.1108 -0.4688  0.0824
   10MPD2    C1  151   1.802   0.122  11.536  0.4968  0.0043 -0.5282
   10MPD2    C2  152   1.765   0.112  11.671 -0.4659 -0.4082 -0.3366
   10MPD2    C3  153   1.736   0.222  11.760 -0.3630  0.3997 -0.2104
   10MPD2    C4  154   1.772   0.348  11.724 -0.0237  0.2411  0.3211
   10MPD2    C5  155   1.816   0.364  11.593 -0.2093 -0.2631 -0.4106
   10MPD2     H  156   1.748   0.013  11.712  3.0776 -0.4533  1.0970
   10MPD2    H1  157   1.770   0.437  11.785 -0.8135 -0.2136  0.9495
   10MPD2    H2  158   1.866   0.298  11.408 -0.6685  0.5774  0.1962
   10MPD2    H3  159   1.830   0.466  11.562 -1.0509  0.1058  0.4283
   10MPD2     N  160   1.685   0.213  11.893  0.3414  0.0976 -0.6324
   10MPD2    H5  161   1.688   0.292  11.957  0.8245 -0.9789  0.6675
   10MPD2    N1  162   1.813   0.004  11.460  0.1033  0.0161 -0.8011
   10MPD2    H7  163   1.810   4.652  11.510  1.2377  1.2890  1.5024
   11TCq1    O1  164   3.051   0.551  14.265 -0.0913 -0.5991  0.4549
   11TCq1    C1  165   2.926   0.523  14.295 -0.3216 -0.5524 -0.9250
   11TCq1    O2  166   2.863   0.558  14.389  0.1760  0.2985 -0.2829
   11TCq1    C2  167   2.867   0.441  14.198  0.0413 -0.2155  0.3855
   11TCq1    C3  168   2.952   0.342  14.151  0.3503  0.0606  0.2005
   11TCq1    C4  169   2.906   0.226  14.091  1.1522  0.0812 -0.1188
   11TCq1    C5  170   2.772   0.202  14.083 -0.5224  0.1310  0.0715
   11TCq1    C6  171   2.687   0.301  14.127 -0.2328  0.2124  0.8177
   11TCq1    C7  172   2.732   0.415  14.196 -0.2368 -0.2351  0.2060
   11TCq1    C8  173   2.550   0.265  14.149 -0.1565  0.5515  0.8535
   11TCq1    O4  174   2.478   0.353  14.203  0.1209 -0.7395  0.1060
   11TCq1    C9  175   3.001   0.124  14.052 -0.5194 -0.5526  0.9850
   11TCq1    O5  176   2.953   0.011  14.020  0.4476  0.0139  0.1595
   11TCq1    O6  177   3.121   0.158  14.031  0.1240  0.0459  0.9059
   11TCq1    H1  178   3.081   0.521  14.177 -2.3149  0.8127 -0.8080
   11TCq1    H2  179   3.057   0.354  14.172  0.4982 -0.8438 -0.0333
   11TCq1    H3  180   2.744   0.117  14.021 -0.4295 -0.1203  0.3708
   11TCq1    H4  181   2.664   0.478  14.253  1.3215 -0.7323  2.5842
   12MPD2     C  182   2.281   0.157  14.175 -0.2273  0.5481 -0.2217
   12MPD2    C1  183   2.386   0.092  14.113 -0.2996  0.2851 -0.3836
   12MPD2    C2  184   2.374   4.705  14.055  0.3017  0.3399 -0.4882
   12MPD2    C3  185   2.251   4.641  14.051  0.1860 -0.7774  0.1741
   12MPD2    C4  186   2.150   4.717  14.099 -0.2062 -0.2403 -0.5440
   12MPD2    C5  187   2.163   0.098  14.174 -0.3485  0.3319  0.1112
   12MPD2     H  188   2.462   4.666  14.006 -1.8233 -2.5636 -1.9552
   12MPD2    H1  189   2.047   4.682  14.098  0.8285 -3.3477  0.1085
   12MPD2    H2  190   2.280   0.256  14.219  0.2914  0.6514 -0.4487
   12MPD2    H3  191   2.076   0.140  14.223 -0.0680 -0.1459  1.0195
   12MPD2     N  192   2.226   4.523  13.989 -0.2897  0.3598 -0.0928
   12MPD2    H5  193   2.126   4.503  13.987 -0.4756  1.3501 -0.7381
   12MPD2    N1  194   2.523   0.138  14.123  0.2568  1.2654 -0.0863
   12MPD2    H7  195   2.596   0.072  14.097 -0.7817  0.2282 -0.3419
   13TCq1    O1  196   2.236   0.441  10.531  0.7246 -0.0728 -0.3237
   13TCq1    C1  197   2.244   0.356  10.629 -0.3017 -0.2243  0.4118
   13TCq1    O2  198   2.344   0.298  10.678 -0.0965  0.2723 -0.5433
   13TCq1    C2  199   2.116   0.284  10.611  0.8859 -0.5589 -0.6372
   13TCq1    C3  200   2.068   0.264  10.480 -0.6156  0.4160  0.4492
   13TCq1    C4  201   1.946   0.198  10.475 -0.1099 -0.7331  0.8833
   13TCq1    C5  202   1.879   0.161  10.588 -0.0351 -0.1089 -0.5411
   13TCq1    C6  203   1.926   0.180  10.707 -0.5017  0.2816 -0.3933
   13TCq1    C7  204   2.045   0.240  10.722 -0.4502 -0.3351  0.1073
   13TCq1    C8  205   1.860   0.132  10.826  0.1616  0.0306 -0.1019
   13TCq1    O4  206   1.886   0.207  10.918 -0.8734 -0.6160  0.1876
   13TCq1    C9  207   1.903   0.140  10.352 -0.6283 -0.1010  0.0453
   13TCq1    O5  208   1.777   0.139  10.330  0.3948 -0.1176  0.0109
   13TCq1    O6  209   1.992   0.128  10.269  0.2047  0.4081 -0.0725
   13TCq1    H1  210   2.146   0.480  10.534  1.0031  0.5496  0.0259
   13TCq1    H2  211   2.116   0.294  10.388  2.2339  0.6773  2.0278
   13TCq1    H3  212   1.795   0.094  10.575 -0.9634  0.6747  1.4823
   13TCq1    H4  213   2.094   0.246  10.818 -0.8354 -2.6873  0.4432
   14MPD2     C  214   1.686   4.541  10.876  0.1963  0.5490 -0.0087
   14MPD2    C1  215   1.724   4.673  10.903 -0.2197  0.5131 -0.3013
   14MPD2    C2  216   1.682   4.733  11.022 -0.2521 -0.0250  0.1505
   14MPD2    C3  217   1.593   4.664  11.106 -0.7240 -0.5090 -0.0559
   14MPD2    C4  218   1.561   4.535  11.072 -0.4188 -0.6906  0.3384
   14MPD2    C5  219   1.609   4.471  10.964 -0.5079  0.5893 -0.4591
   14MPD2     H  220   1.720   0.091  11.058 -0.7090  0.4091 -0.5303
   14MPD2    H1  221   1.495   4.472  11.130 -3.2641  3.1773  1.3398
   14MPD2    H2  222   1.721   4.487  10.789  0.9783  0.6452  0.2503
   14MPD2    H3  223   1.587   4.366  10.956 -2.8120  1.0663 -0.3730
   14MPD2     N  224   1.551   4.727  11.225  0.3143 -0.1050  0.2642
   14MPD2    H5  225   1.569   0.089  11.239 -0.3478  0.0148  0.2577
   14MPD2    N1  226   1.794   0.011  10.807  0.4619  0.4402 -0.7605
   14MPD2    H7  227   1.796   4.710  10.713 -0.8514 -0.7349 -0.3166
   15TCq1    O1  228   4.574   3.589   2.029  0.3429 -0.0390  0.1985
   15TCq1    C1  229   4.518   3.475   1.985  0.7953  0.0891  0.2953
   15TCq1    O2  230   4.397   3.465   1.979 -0.1442  0.2977  0.2451
   15TCq1    C2  231   4.612   3.421   1.899 -1.2534  0.2751  0.1073
   15TCq1    C3  232   0.009   3.443   1.913  0.4871  0.5712  0.2490
   15TCq1    C4  233   0.094   3.391   1.817 -0.2281 -0.4485  0.5464
   15TCq1    C5  234   0.046   3.311   1.714  0.0354 -0.2372  0.1437
   15TCq1    C6  235   4.647   3.285   1.710  0.0313  0.0022 -0.2942
   15TCq1    C7  236   4.557   3.339   1.802 -0.0298 -0.1373 -0.0651
   15TCq1    C8  237   4.598   3.198   1.603  0.3370 -0.2969  0.3557
   15TCq1    O4  238   4.693   3.136   1.550 -0.4636  0.5023 -0.0458
   15TCq1    C9  239   0.236   3.394   1.827  0.4371 -0.0502 -0.2409
   15TCq1    O5  240   0.291   3.489   1.895  0.2273  0.1279 -0.1236
   15TCq1    O6  241   0.299   3.287   1.790 -0.1730 -0.4136 -0.6598
   15TCq1    H1  242   4.660   3.577   2.074  0.7251  0.5375 -0.3730
   15TCq1    H2  243   0.054   3.491   1.998  1.7375 -2.0343  1.0577
   15TCq1    H3  244   0.109   3.273   1.634  0.8989  2.6191 -0.5518
   15TCq1    H4  245   4.449   3.331   1.803  0.0013 -0.4388  0.7913
   16MPD2     C  246   4.260   3.084   1.496  0.4010  0.1491  0.3499
   16MPD2    C1  247   4.398   3.087   1.512  0.0713 -0.0154  0.1018
   16MPD2    C2  248   4.462   2.988   1.439 -0.1790 -0.7330  0.6185
   16MPD2    C3  249   4.408   2.890   1.353 -0.2159 -0.6492  0.3315
   16MPD2    C4  250   4.269   2.881   1.350 -0.3291  0.2280  0.2935
   16MPD2    C5  251   4.196   2.976   1.421  0.4996  0.3804  0.1946
   16MPD2     H  252   4.570   2.990   1.450 -0.0821 -0.3246 -0.4174
   16MPD2    H1  253   4.207   2.816   1.289  1.3378  1.0627 -2.3057
   16MPD2    H2  254   4.209   3.169   1.539  1.8998  1.5213 -0.5566
   16MPD2    H3  255   4.088   2.981   1.420  0.3689 -2.4887 -1.5337
   16MPD2     N  256   4.496   2.803   1.286 -0.3914  0.1323  0.0834
   16MPD2    H5  257   4.594   2.806   1.312 -0.3862 -3.0950  0.4502
   16MPD2    N1  258   4.461   3.190   1.592  0.3172  0.4171  0.3059
   16MPD2    H7  259   4.403   3.253   1.646 -1.6956  0.3949 -1.8429
   17TMC1    C1  260   1.897   4.182  11.929  0.0597 -0.6056  0.4509
   17TMC1    C2  261   1.939   4.313  11.948 -0.4459  0.1505  0.8065
   17TMC1    C3  262   1.845   4.393  11.997 -0.1306  0.3585 -0.3460
   17TMC1    C4  263   1.775   4.135  11.969  0.4170 -0.6097  0.5267
   17TMC1    C5  264   1.681   4.226  12.003 -0.4638 -0.2425 -0.8732
   17TMC1    C6  265   1.715   4.359  12.009 -0.5286 -1.0931  0.1545
   17TMC1     C  266   2.003   4.080  11.922  0.4147  0.3536 -0.9093
   17TMC1     O  267   1.959   3.964  11.937  0.3268 -0.0280 -0.2733
   17TMC1     H  268   2.040   4.350  11.967  0.6025 -2.5170  0.4088
   17TMC1    H1  269   1.743   4.032  11.958  2.1132 -1.2655  1.8310
   17TMC1    H2  270   1.643   4.437  12.029  1.3592  0.4633  0.7949
   17TMC1    C7  271   1.550   4.176  12.047  0.3589  0.0919  0.5528
   17TMC1    C8  272   1.897   4.507  12.067  0.6786 -0.0901 -0.1663
   17TMC1    O1  273   1.518   4.062  12.080  0.0390  0.0569 -0.2609
   17TMC1    O2  274   1.830   4.557  12.155  0.1854  0.3649 -0.4381
   17TMC1    O3  275   1.467   4.264  12.000  0.3988 -0.5652 -0.0185
   17TMC1    H3  276   1.512   4.324  11.937  1.8117 -2.5747 -0.9080
   17TMC1    O5  277   1.962   4.579  11.975  0.0378 -0.4677  0.5881
   17TMC1    H5  278   2.011   4.534  11.904  2.6227  0.3064  1.8592
   18MPD2     C  279   2.217   3.900  11.847  0.2139 -0.1031 -0.0825
   18MPD2    C1  280   2.204   4.033  11.799  0.2173 -0.1432 -0.6218
   18MPD2    C2  281   2.294   4.076  11.705  0.2412 -0.0923  0.2289
   18MPD2    C3  282   2.387   4.000  11.644 -0.6753  0.1042  0.3913
   18MPD2    C4  283   2.393   3.863  11.680 -0.5691  0.4852 -0.4901
   18MPD2    C5  284   2.317   3.822  11.789 -0.2562  0.3611  0.8085
   18MPD2     H  285   2.295   4.177  11.668  0.0838 -0.4353 -0.7064
   18MPD2    H1  286   2.453   3.794  11.622 -0.6702 -1.9250  2.2511
   18MPD2    H2  287   2.160   3.854  11.927 -1.9241  2.5217 -0.1047
   18MPD2    H3  288   2.322   3.716  11.810  1.0982  0.5594  1.5269
   18MPD2     N  289   2.479   4.038  11.544 -0.3330  0.6116 -0.5351
   18MPD2    H5  290   2.543   3.968  11.506  0.0263  0.2708  0.6687
   18MPD2    N1  291   2.114   4.125  11.861  0.2187 -0.1336 -0.2995
   18MPD2    H7  292   2.113   4.221  11.830 -0.8070  0.1496  0.6072
   19TMC2    C1  293   3.728   4.557  14.159 -0.2733 -0.5637  0.6627
   19TMC2    C2  294   3.692   4.613  14.036 -0.1612 -0.6080  0.3467
   19TMC2    C3  295   3.569   4.576  13.986  0.5927  0.0807  0.7237
   19TMC2    C4  296   3.654   4.461  14.225  0.1534 -0.4373 -0.0238
   19TMC2    C5  297   3.530   4.447  14.176 -0.4524 -0.0068 -0.6888
   19TMC2    C6  298   3.479   4.502  14.061  0.7161  0.7255  0.3760
   19TMC2     C  299   3.869   4.564  14.186 -0.1032 -0.0928 -0.4035
   19TMC2     O  300   3.943   4.636  14.120 -0.6760  0.2130  0.0183
   19TMC2     H  301   3.764   4.660  13.971 -0.0530 -1.5990 -0.2568
   19TMC2    H1  302   3.689   4.398  14.306 -3.2443 -1.6886  0.4680
   19TMC2    H2  303   3.385   4.477  14.015  0.6631  3.8702 -1.2613
   19TMC2    C7  304   3.449   4.336  14.221 -0.6790  0.1939 -0.2568
   19TMC2    C8  305   3.523   4.639  13.864  0.0880  0.4236  0.1205
   19TMC2    O1  306   3.358   4.297  14.148 -0.4397  0.1455  0.0634
   19TMC2    O2  307   3.493   4.580  13.762  0.2910 -0.3994 -0.3288
   19TMC2    O5  308   3.558   0.039  13.873  0.1938 -0.4831  0.5732
   19TMC2    H5  309   3.558   0.078  13.963 -0.3347 -0.0755  0.3907
   20MPD2     C  310   4.132   4.552  14.313  0.2479 -0.2858 -0.1018
   20MPD2    C1  311   4.016   4.516  14.373 -0.1589 -0.9619  0.6707
   20MPD2    C2  312   4.023   4.470  14.503  0.3070  0.0114  0.6304
   20MPD2    C3  313   4.142   4.456  14.577  0.1969 -0.2076  0.4962
   20MPD2    C4  314   4.259   4.503  14.521 -0.0487  0.7381 -0.6550
   20MPD2    C5  315   4.247   4.547  14.392  0.0181  0.3013  0.0956
   20MPD2     H  316   3.932   4.428  14.546 -0.0418  0.1361  0.0066
   20MPD2    H1  317   4.360   4.496  14.559  0.0818  1.3102 -0.8852
   20MPD2    H2  318   4.156   4.576  14.210 -3.1236 -1.4969 -1.1551
   20MPD2    H3  319   4.341   4.572  14.345 -2.1703  0.7657 -4.1030
   20MPD2     N  320   4.150   4.400  14.710 -0.1245  0.0360  0.5196
   20MPD2    H5  321   4.241   4.396  14.755 -0.5312 -2.6304  1.1017
   20MPD2    N1  322   3.890   4.509  14.310  0.4238  0.2613  0.0338
   20MPD2    H7  323   3.808   4.486  14.365  0.0640  0.3824 -0.4537
   21TMC2    C1  324   1.558   4.613  14.546  0.4253  0.0991  0.4621
   21TMC2    C2  325   1.658   4.545  14.619  0.1682 -0.2044 -0.5341
   21TMC2    C3  326   1.615   4.451  14.710 -0.2959 -0.4098  0.3471
   21TMC2    C4  327   1.421   4.590  14.575  0.6664  0.6510  0.0134
   21TMC2    C5  328   1.389   4.509  14.674  0.2567  0.0433  0.3256
   21TMC2    C6  329   1.482   4.430  14.726  0.7109 -0.2597 -0.5031
   21TMC2     C  330   1.604   4.733  14.470 -0.3862 -0.1362  0.7393
   21TMC2     O  331   1.714   4.723  14.425  0.4967  0.0411 -0.3650
   21TMC2     H  332   1.763   4.565  14.601  0.1796 -0.0510 -0.2994
   21TMC2    H1  333   1.343   4.649  14.528 -1.9381 -2.1336  0.8937
   21TMC2    H2  334   1.454   4.355  14.799  0.3784  1.5488  1.2048
   21TMC2    C7  335   1.270   4.533  14.752  0.0528  0.4755  1.1874
   21TMC2    C8  336   1.708   4.388  14.806 -0.2353  0.3970  0.0689
   21TMC2    O1  337   1.271   4.480  14.859 -0.2664  0.1458  0.4349
   21TMC2    O2  338   1.668   4.347  14.919  0.1503  0.2740  0.9698
   21TMC2    O5  339   1.827   4.421  14.757  0.0658  0.2484 -0.1248
   21TMC2    H5  340   1.829   4.412  14.659  1.4215  2.5742 -0.3258
   22MPD2     C  341   1.330   0.213  14.846 -0.0691 -0.1769 -0.2057
   22MPD2    C1  342   1.444   0.137  14.845  0.2164  0.4794  0.2585
   22MPD2    C2  343   1.518   0.112  14.732  0.0927  0.5541  0.7755
   22MPD2    C3  344   1.472   0.152  14.611 -0.3045  0.0688 -0.2964
   22MPD2    C4  345   1.351   0.224  14.611  0.0963 -0.1456  0.2015
   22MPD2    C5  346   1.288   0.258  14.724  0.2721 -0.4524  0.5483
   22MPD2     H  347   1.606   0.049  14.745 -0.8732 -1.2563 -1.2711
   22MPD2    H1  348   1.310   0.262  14.518  3.7680  2.1133 -0.5064
   22MPD2    H2  349   1.265   0.242  14.927 -0.7974  0.0793 -0.8781
   22MPD2    H3  350   1.199   0.319  14.717  1.9064  1.7751 -1.0534
   22MPD2     N  351   1.534   0.114  14.488  0.1936  0.0465 -0.7328
   22MPD2    H5  352   1.515   0.175  14.409  2.7465  1.7058 -0.0409
   22MPD2    N1  353   1.491   0.081  14.966  0.0664  0.4825 -0.5874
   22MPD2    H7  354   1.584   0.041  14.964  0.5347  1.5588 -0.2374
   23TMC2    C1  355   2.363   1.001  14.729 -0.7024 -0.7534 -0.2976
   23TMC2    C2  356   2.276   0.897  14.737 -0.2826  0.2383  0.0217
   23TMC2    C3  357   2.158   0.908  14.675  0.1105 -0.2142 -0.3802
   23TMC2    C4  358   2.319   1.123  14.686 -0.3767 -0.6648 -0.0908
   23TMC2    C5  359   2.202   1.130  14.615 -0.1835  0.4660  0.6592
   23TMC2    C6  360   2.120   1.020  14.609  0.5967  0.9160  0.2693
   23TMC2     C  361   2.479   0.985  14.808  0.0736 -1.0567  0.3261
   23TMC2     O  362   2.467   0.912  14.905 -0.6348  0.1632  0.1489
   23TMC2     H  363   2.308   0.808  14.790  2.6382  2.4362  1.9550
   23TMC2    H1  364   2.379   1.213  14.697 -0.9227 -0.3608  0.4303
   23TMC2    H2  365   2.024   1.022  14.558  1.4217  0.6382 -1.2923
   23TMC2    C7  366   2.133   1.255  14.638 -1.2644 -0.5218 -0.2881
   23TMC2    C8  367   2.058   0.799  14.674  0.7861 -1.0509  0.3610
   23TMC2    O1  368   2.191   1.330  14.718  0.4439 -0.6520 -0.1655
   23TMC2    O2  369   1.973   0.778  14.587 -0.3149 -0.0082 -0.4420
   23TMC2    O5  370   2.045   0.777  14.800  0.0970 -0.4115  0.5747
   23TMC2    H5  371   2.096   0.825  14.868 -1.5795  1.8251  0.2365
   24MPD2     C  372   2.974   1.095  14.891  0.1208  0.6264 -0.0758
   24MPD2    C1  373   2.897   1.003  14.957 -0.4587  0.0554 -1.2118
   24MPD2    C2  374   2.766   0.993  14.922 -0.3716  0.0478  0.0248
   24MPD2    C3  375   2.708   1.079  14.834  0.2223  0.1185  0.1635
   24MPD2    C4  376   2.785   1.183  14.785  0.1997 -0.0062 -0.3488
   24MPD2    C5  377   2.921   1.182  14.802 -0.5487  0.2727  0.1616
   24MPD2     H  378   2.711   0.912  14.967  0.1171 -0.2055  0.1663
   24MPD2    H1  379   2.734   1.247  14.714  1.9960  3.0837  1.1486
   24MPD2    H2  380   3.080   1.108  14.910 -0.9143  5.2187  2.4114
   24MPD2    H3  381   2.988   1.251  14.754 -0.4692 -0.2665 -0.4986
   24MPD2     N  382   2.578   1.076  14.775 -0.6836  0.3817  0.3594
   24MPD2    H5  383   2.563   1.134  14.693  0.9388  2.3638  1.4447
   24MPD2    N1  384   2.950   0.904  15.047  0.3404 -0.5337  0.1025
   24MPD2    H7  385   2.890   0.829  15.080 -1.9279  1.0960 -0.3731
   25TMC2    C1  386   1.801   2.969  11.846 -0.2721 -0.1718  0.2312
   25TMC2    C2  387   1.938   2.968  11.835 -0.5525  0.2298 -0.7754
   25TMC2    C3  388   1.991   3.091  11.856 -0.0623  0.0682  1.3473
   25TMC2    C4  389   1.722   3.071  11.889 -0.1735 -0.0586 -0.2464
   25TMC2    C5  390   1.780   3.191  11.908  0.0322 -0.3329 -0.4876
   25TMC2    C6  391   1.915   3.204  11.885 -0.7969  0.5532  0.4427
   25TMC2     C  392   1.750   2.828  11.847 -0.5800  0.3951  0.7677
   25TMC2     O  393   1.837   2.741  11.846  0.8370  0.3225 -0.4978
   25TMC2     H  394   1.998   2.885  11.801 -1.8924 -0.4895 -1.4046
   25TMC2    H1  395   1.615   3.060  11.900 -0.3025  1.2885 -0.2554
   25TMC2    H2  396   1.968   3.297  11.903  0.9609 -0.5989  1.1644
   25TMC2    C7  397   1.699   3.297  11.954  0.7777 -0.2591 -0.3538
   25TMC2    C8  398   2.131   3.111  11.846  0.1216  0.7479  0.5066
   25TMC2    O1  399   1.580   3.281  11.970 -0.4549 -0.1978  0.7111
   25TMC2    O2  400   2.180   3.220  11.865  0.0076  0.2915 -0.1030
   25TMC2    O5  401   2.192   3.010  11.911  0.5923  0.1936 -0.1803
   25TMC2    H5  402   2.131   2.935  11.929 -0.6713  1.1568 -0.4435
   26MPD2     C  403   1.384   2.473  11.875  0.2823  0.1109  0.1813
   26MPD2    C1  404   1.323   2.594  11.840  0.5164 -0.4429  0.7073
   26MPD2    C2  405   1.401   2.702  11.812  0.5862  0.6156  0.1273
   26MPD2    C3  406   1.536   2.696  11.835  0.5275  0.1040 -0.3731
   26MPD2    C4  407   1.596   2.571  11.847 -0.5815 -0.3660 -0.0788
   26MPD2    C5  408   1.517   2.459  11.871 -0.0535 -0.0877  0.9108
   26MPD2     H  409   1.348   2.797  11.804  0.9697  0.8507  0.4165
   26MPD2    H1  410   1.702   2.552  11.853 -0.6591  0.4260  3.5847
   26MPD2    H2  411   1.320   2.392  11.908 -1.9451  2.3684  1.4102
   26MPD2    H3  412   1.568   2.366  11.892 -1.1581 -0.4971  1.7832
   26MPD2     N  413   1.616   2.817  11.830 -0.6193  0.2871 -0.4903
   26MPD2    H5  414   1.561   2.900  11.810  0.4129  1.4368  1.4348
   26MPD2    N1  415   1.182   2.605  11.850 -0.9067  0.3662  0.6703
   26MPD2    H7  416   1.135   2.520  11.878 -1.5073  0.2742 -0.6127
   27TMC2    C1  417   0.459   0.701  12.125  0.7280  0.2193 -0.6664
   27TMC2    C2  418   0.419   0.766  12.011  0.4236 -0.2333  0.6416
   27TMC2    C3  419   0.393   0.903  12.018  0.3455  0.0027 -0.2833
   27TMC2    C4  420   0.481   0.777  12.235  0.3193  0.0565 -0.1306
   27TMC2    C5  421   0.455   0.913  12.248 -0.7390  0.0085  0.2021
   27TMC2    C6  422   0.409   0.975  12.134 -0.1084  0.3365  0.0969
   27TMC2     C  423   0.389   0.580  12.161  0.2200  0.1503 -0.9192
   27TMC2     O  424   0.389   0.485  12.086  0.7370  1.2786  0.0347
   27TMC2     H  425   0.387   0.710  11.923 -0.9554  0.4641  0.6945
   27TMC2    H1  426   0.515   0.726  12.325  1.1712  0.4203 -0.2507
   27TMC2    H2  427   0.411   1.084  12.127  0.0989  0.2269 -1.7529
   27TMC2    C7  428   0.388   0.942  12.372  0.2372 -0.6409 -0.6694
   27TMC2    C8  429   0.410   0.979  11.896  0.0004  0.0433  0.2624
   27TMC2    O1  430   0.404   0.864  12.464  0.1246  0.2192 -0.1273
   27TMC2    O2  431   0.457   1.095  11.899  0.2169  0.3577 -0.0333
   27TMC2    O5  432   0.382   0.906  11.787  0.1760 -0.1553  0.3345
   27TMC2    H5  433   0.320   0.837  11.819 -1.9080  1.6791  0.2305
   28MPD2     C  434   0.059   0.336  12.463 -0.0760  0.7572 -0.3395
   28MPD2    C1  435   0.069   0.464  12.505 -0.7523  0.0360  0.1306
   28MPD2    C2  436   0.156   0.549  12.435  0.4237  0.4991  0.8661
   28MPD2    C3  437   0.241   0.505  12.338 -0.6553  0.4550  0.0416
   28MPD2    C4  438   0.225   0.375  12.294  0.6707 -0.2378 -0.2810
   28MPD2    C5  439   0.132   0.294  12.352  0.2657 -0.7584 -0.3260
   28MPD2     H  440   0.169   0.649  12.475  1.9692  0.1644  1.2038
   28MPD2    H1  441   0.281   0.342  12.207 -0.3269 -1.0442 -0.6067
   28MPD2    H2  442   4.733   0.268  12.519 -0.1827  1.6673  0.6282
   28MPD2    H3  443   0.122   0.191  12.319 -1.8785 -0.4812 -0.5423
   28MPD2     N  444   0.324   0.598  12.278 -0.0886  0.7468 -0.7087
   28MPD2    H5  445   0.332   0.695  12.306  0.3660  0.8028 -1.0182
   28MPD2    N1  446   4.721   0.506  12.604 -0.8062 -0.0398  0.2236
   28MPD2    H7  447   4.661   0.437  12.648 -0.7620 -0.8325 -0.9463
   29TMC2    C1  448   4.625   3.107  15.113 -0.1177 -0.6311 -0.6816
   29TMC2    C2  449   4.627   3.044  15.237  0.1308 -0.0635  0.2420
   29TMC2    C3  450   4.570   3.117  15.336  0.0412  0.2755 -0.4728
   29TMC2    C4  451   4.546   3.215  15.082  0.5978 -0.6005 -0.5548
   29TMC2    C5  452   4.485   3.272  15.185  0.7093 -0.1503 -0.3582
   29TMC2    C6  453   4.488   3.226  15.316  0.0064 -0.1783  0.3587
   29TMC2     C  454   4.683   3.018  15.007  0.1070 -0.0452 -1.0225
   29TMC2     O  455   0.027   2.931  15.041  0.3682  0.6628 -0.2491
   29TMC2     H  456   4.677   2.953  15.266  1.9757  0.7233 -0.4987
   29TMC2    H1  457   4.551   3.262  14.984 -0.4453 -0.0561 -0.3481
   29TMC2    H2  458   4.427   3.270  15.393 -1.7095  1.4896 -1.9644
   29TMC2    C7  459   4.452   3.409  15.165  0.5309  0.4486 -0.3005
   29TMC2    C8  460   4.582   3.064  15.469 -0.0770  0.0323  0.1886
   29TMC2    O1  461   4.338   3.456  15.186 -0.2751  0.3054 -0.2573
   29TMC2    O2  462   4.587   2.943  15.493 -0.6072  0.2046  0.0859
   29TMC2    O5  463   4.583   3.158  15.561 -0.1545 -0.3789 -0.4523
   29TMC2    H5  464   4.594   3.249  15.526 -0.8999 -0.0394  0.1750
   30MPD2     C  465   4.615   2.781  14.547  0.2603 -0.1840 -0.5577
   30MPD2    C1  466   4.701   2.747  14.653 -0.2622  0.0667  0.3328
   30MPD2    C2  467   4.719   2.825  14.761  0.5496  0.3862  0.4206
   30MPD2    C3  468   4.645   2.947  14.773 -0.1525 -0.4755 -0.5247
   30MPD2    C4  469   4.577   2.984  14.653 -0.1746  1.3287  0.6176
   30MPD2    C5  470   4.559   2.904  14.549  0.1402 -0.6377 -0.5218
   30MPD2     H  471   0.049   2.795  14.841 -0.9006 -0.4324  1.3387
   30MPD2    H1  472   4.516   3.073  14.649 -0.3443  1.1541 -0.9582
   30MPD2    H2  473   4.610   2.729  14.452  1.2154 -0.4001 -0.4890
   30MPD2    H3  474   4.505   2.946  14.466 -0.4658  0.8845  0.6363
   30MPD2     N  475   4.622   3.026  14.884 -0.4507 -0.2693  0.2768
   30MPD2    H5  476   4.553   3.101  14.877  1.3602  1.4933  1.2837
   30MPD2    N1  477   0.031   2.619  14.650 -0.3536 -0.1609  0.2615
   30MPD2    H7  478   0.107   2.607  14.717  1.1701  2.0643 -1.0469
   31TMC2    C1  479   2.525   1.389  15.385  0.3287 -0.0139  0.1658
   31TMC2    C2  480   2.430   1.335  15.304 -0.4654 -0.2312  0.2627
   31TMC2    C3  481   2.396   1.200  15.327 -0.3446  0.1876 -0.0879
   31TMC2    C4  482   2.586   1.328  15.490  0.5037 -0.8074 -0.0722
   31TMC2    C5  483   2.554   1.196  15.502 -0.0367  0.3733 -0.1056
   31TMC2    C6  484   2.461   1.124  15.425 -0.3869 -0.0165  0.1483
   31TMC2     C  485   2.563   1.520  15.345 -0.0936 -0.4272  0.5727
   31TMC2     O  486   2.498   1.568  15.252  0.0476  0.6566 -0.1031
   31TMC2     H  487   2.376   1.387  15.226  2.4062 -0.5274 -1.9334
   31TMC2    H1  488   2.663   1.375  15.549 -1.7000  0.7943  1.5431
   31TMC2    H2  489   2.452   1.017  15.437  0.3047 -0.3077 -1.9663
   31TMC2    C7  490   2.593   1.125  15.621 -0.3721 -0.4509  0.5215
   31TMC2    C8  491   2.293   1.136  15.245  0.5215 -0.2946 -0.0504
   31TMC2    O1  492   2.636   1.010  15.601  0.0841  0.2083  0.2641
   31TMC2    O2  493   2.204   1.197  15.184 -0.5348  0.0279 -0.2431
   31TMC2    O5  494   2.347   1.026  15.198 -0.3000  0.1485 -0.4868
   31TMC2    H5  495   2.437   1.005  15.231  0.2094  0.9933 -1.3369
   32MPD2     C  496   2.884   1.913  15.312 -0.8782  0.6520 -0.0847
   32MPD2    C1  497   2.774   1.883  15.240  0.0360 -0.8694 -0.3921
   32MPD2    C2  498   2.702   1.769  15.270  0.0828 -0.1057 -0.5624
   32MPD2    C3  499   2.744   1.679  15.361  0.3764  0.2534 -0.2823
   32MPD2    C4  500   2.863   1.698  15.417 -0.2142  0.4697  0.4871
   32MPD2    C5  501   2.933   1.816  15.396 -0.5508  0.7516 -0.3325
   32MPD2     H  502   2.614   1.747  15.210 -1.1687  0.2162  1.1812
   32MPD2    H1  503   2.907   1.626  15.485 -0.8439  0.1226  0.5290
   32MPD2    H2  504   2.937   2.008  15.305  0.6324 -0.3209 -1.7609
   32MPD2    H3  505   3.014   1.844  15.462 -0.1407  0.9255 -0.9052
   32MPD2     N  506   2.673   1.567  15.401  0.4442  0.7812  0.1795
   32MPD2    H5  507   2.711   1.515  15.479 -2.8069  0.9376  1.8372
   32MPD2    N1  508   2.744   1.972  15.136  0.7932  0.3101 -0.6578
   32MPD2    H7  509   2.809   2.050  15.126 -0.1108  0.9112 -1.8107
   33TMC2    C1  510   2.395   4.736  10.552 -0.1100  0.1899  0.4824
   33TMC2    C2  511   2.286   4.667  10.495 -0.0087 -0.6328  0.3604
   33TMC2    C3  512   2.243   4.718  10.371 -0.3965  0.5250  0.0518
   33TMC2    C4  513   2.462   0.102  10.491  0.0860 -0.1276 -0.8697
   33TMC2    C5  514   2.418   0.136  10.365  0.1633  0.2545 -0.3099
   33TMC2    C6  515   2.304   0.085  10.311 -0.5040  0.2180 -0.4930
   33TMC2     C  516   2.448   4.673  10.667  0.2746 -0.0422 -0.1149
   33TMC2     O  517   2.425   4.554  10.676  0.7435 -0.2997  0.1908
   33TMC2     H  518   2.242   4.578  10.539  1.4479 -3.3344 -3.6759
   33TMC2    H1  519   2.540   0.157  10.542 -0.3278 -1.1529  0.8548
   33TMC2    H2  520   2.262   0.123  10.219 -0.3614  3.0534  0.6319
   33TMC2    C7  521   2.476   0.261  10.314 -0.7987 -0.4091  0.9639
   33TMC2    C8  522   2.184   4.612  10.287 -0.2629 -0.9783  1.1142
   33TMC2    O1  523   2.594   0.268  10.340 -0.2350  0.1580 -0.4855
   33TMC2    O2  524   2.209   4.492  10.302 -0.1025 -0.4961  0.1912
   33TMC2    O5  525   2.125   4.672  10.179 -0.2867  0.1884  0.2698
   33TMC2    H5  526   2.101   0.024  10.215  0.0781  0.0544  0.8554
   34MPD2     C  527   2.654   4.719  11.132 -1.2815  0.1754  0.7018
   34MPD2    C1  528   2.623   4.603  11.064  0.2843  0.1863 -0.0199
   34MPD2    C2  529   2.560   4.618  10.936 -0.0142 -0.2950 -0.6923
   34MPD2    C3  530   2.550   0.013  10.878  0.5201  0.0802 -0.1682
   34MPD2    C4  531   2.597   0.125  10.954  0.2774  0.0599 -0.3471
   34MPD2    C5  532   2.646   0.105  11.080 -0.1614  0.0699  0.4619
   34MPD2     H  533   2.537   4.529  10.880  0.5411 -1.2333  0.5656
   34MPD2    H1  534   2.598   0.224  10.911  2.2937 -0.9935 -2.7080
   34MPD2    H2  535   2.705   4.707  11.227  0.1978 -0.1414 -0.1285
   34MPD2    H3  536   2.683   0.187  11.139  0.4671 -0.3376  0.6324
   34MPD2     N  537   2.494   0.029  10.754  0.9363  0.1238  0.1221
   34MPD2    H5  538   2.491   0.122  10.711  2.0092  0.0425 -0.1220
   34MPD2    N1  539   2.648   4.478  11.125  0.1472  0.3927  0.3953
   34MPD2    H7  540   2.674   4.482  11.222  1.1516 -1.7731  0.2074
   35TMC2    C1  541   3.764   0.799  11.464  0.5640 -0.2151  0.8944
   35TMC2    C2  542   3.703   0.831  11.349 -0.6235 -0.8740 -0.7566
   35TMC2    C3  543   3.568   0.838  11.351 -0.1844 -0.2345  0.1695
   35TMC2    C4  544   3.696   0.779  11.586 -0.0650  0.2783  0.2103
   35TMC2    C5  545   3.555   0.790  11.585  0.1760  0.4533  0.1669
   35TMC2    C6  546   3.495   0.830  11.469  0.7988  0.0211 -0.6064
   35TMC2     C  547   3.911   0.800  11.465 -0.6185  0.1677  0.1850
   35TMC2     O  548   3.964   0.849  11.364 -0.0351  0.2388 -0.1417
   35TMC2     H  549   3.756   0.849  11.256 -0.6128 -0.1122 -0.6010
   35TMC2    H1  550   3.752   0.751  11.675 -0.9991 -1.0672  0.3657
   35TMC2    H2  551   3.388   0.814  11.476  0.6747  0.3669 -1.7410
   35TMC2    C7  552   3.476   0.738  11.699 -0.5417 -0.3998 -0.1655
   35TMC2    C8  553   3.502   0.856  11.221  0.1637 -0.2323 -0.2250
   35TMC2    O1  554   3.541   0.658  11.764  0.2350  0.0250 -0.4350
   35TMC2    O2  555   3.543   0.799  11.117 -0.3211  0.0851 -0.1343
   35TMC2    O5  556   3.384   0.913  11.240  1.0980 -0.4945  0.1022
   35TMC2    H5  557   3.380   0.962  11.325 -0.4158 -2.9641  1.4487
   36MPD2     C  558   4.364   0.771  11.711 -0.5255 -0.1252 -0.1895
   36MPD2    C1  559   4.281   0.692  11.782 -0.2348  0.1804  0.3307
   36MPD2    C2  560   4.154   0.675  11.724 -0.1227  0.1865 -0.2540
   36MPD2    C3  561   4.109   0.749  11.610 -0.4562 -0.2174  0.5865
   36MPD2    C4  562   4.197   0.828  11.539  0.4996 -0.2567 -0.1828
   36MPD2    C5  563   4.324   0.834  11.591  0.2982  0.3323  0.1074
   36MPD2     H  564   4.077   0.623  11.781  0.3225 -0.2686 -0.0625
   36MPD2    H1  565   4.174   0.885  11.450 -1.8578  2.1379  1.9488
   36MPD2    H2  566   4.464   0.790  11.748 -0.1002 -0.5946 -1.0908
   36MPD2    H3  567   4.398   0.891  11.536  1.4281  0.1323  1.4286
   36MPD2     N  568   3.971   0.739  11.571  0.4408  0.3308 -0.1918
   36MPD2    H5  569   3.921   0.678  11.635  0.7564  1.1507  0.8390
   36MPD2    N1  570   4.315   0.654  11.913  0.5252  0.1903 -0.0095
   36MPD2    H7  571   4.403   0.696  11.943  0.1209  1.0403 -0.0010
   37TMC2    C1  572   1.700   1.052  11.992  0.2140  0.4724 -0.0554
   37TMC2    C2  573   1.715   1.076  11.856 -0.8829  0.8962  0.6536
   37TMC2    C3  574   1.831   1.036  11.797  0.2171  0.1163 -0.2409
   37TMC2    C4  575   1.812   1.019  12.072  0.5183  0.1633  0.4769
   37TMC2    C5  576   1.927   0.972  12.001  0.6381 -0.4620  0.2872
   37TMC2    C6  577   1.940   0.978  11.866  0.1304 -0.0616  0.2416
   37TMC2     C  578   1.563   1.079  12.042  0.2372  0.3203 -0.0853
   37TMC2     O  579   1.472   1.096  11.956  0.7855  0.1706 -0.1155
   37TMC2     H  580   1.629   1.103  11.795 -0.6526  0.5649  0.1841
   37TMC2    H1  581   1.801   1.015  12.180  0.0104 -3.1650  0.2821
   37TMC2    H2  582   2.026   0.925  11.828 -0.6774  0.2256 -1.9815
   37TMC2    C7  583   2.053   0.989  12.075 -0.0284 -0.5911 -0.1209
   37TMC2    C8  584   1.840   1.063  11.656  0.3645  0.7157  0.3495
   37TMC2    O1  585   2.031   0.973  12.193 -0.4375  0.4653 -0.0404
   37TMC2    O2  586   1.746   1.117  11.600 -0.4319 -0.2439  0.0197
   37TMC2    O5  587   1.971   1.090  11.630 -0.0741 -0.4132 -0.0983
   37TMC2    H5  588   2.036   1.036  11.680  1.3938  0.3955 -1.1112
   38MPD2     C  589   1.245   1.182  12.426  0.1108  0.5641 -0.0214
   38MPD2    C1  590   1.363   1.142  12.476  0.6439  0.2601 -0.2696
   38MPD2    C2  591   1.468   1.115  12.395 -0.5495  0.0649 -0.0799
   38MPD2    C3  592   1.450   1.130  12.258 -0.2793 -0.3639  0.1138
   38MPD2    C4  593   1.333   1.183  12.206 -0.2453 -0.2238  0.1795
   38MPD2    C5  594   1.230   1.203  12.294 -0.2838  0.4385 -0.8755
   38MPD2     H  595   1.565   1.082  12.431 -0.8423 -0.6700  0.0493
   38MPD2    H1  596   1.314   1.175  12.100  0.7356  1.6625 -0.1434
   38MPD2    H2  597   1.161   1.207  12.489  0.7156  0.2030  0.9274
   38MPD2    H3  598   1.134   1.242  12.262 -0.3565  0.8013 -0.2137
   38MPD2     N  599   1.558   1.093  12.180  0.0561 -0.0917  0.6233
   38MPD2    H5  600   1.642   1.066  12.230 -1.1419  0.6797  3.0168
   38MPD2    N1  601   1.388   1.131  12.616  0.0351  0.0923 -0.6953
   38MPD2    H7  602   1.482   1.125  12.653 -1.1012 -1.1340  2.0412
   39TMC2    C1  603   0.074   2.870   1.637 -0.2441 -1.2823  0.2233
   39TMC2    C2  604   0.052   2.935   1.755  0.3571  0.4256  0.3637
   39TMC2    C3  605   0.157   3.003   1.804 -0.1346  0.1087  0.4544
   39TMC2    C4  606   0.183   2.877   1.560  0.4992 -0.8924  0.1161
   39TMC2    C5  607   0.281   2.966   1.605  0.2531 -1.0792 -0.3384
   39TMC2    C6  608   0.267   3.022   1.729 -0.2107 -0.1204 -0.6164
   39TMC2     C  609   4.715   2.765   1.596  0.5969  0.0131  0.4809
   39TMC2     O  610   4.596   2.790   1.628  0.1116  0.1396 -0.0591
   39TMC2     H  611   4.696   2.924   1.811 -0.0762 -0.7960 -0.5836
   39TMC2    H1  612   0.197   2.828   1.464  2.4242  1.0450 -0.6074
   39TMC2    H2  613   0.355   3.074   1.766 -0.1521 -0.3550 -0.4278
   39TMC2    C7  614   0.339   3.047   1.499  0.2473 -0.2273  0.0141
   39TMC2    C8  615   0.160   3.012   1.951 -0.0812 -0.0826  0.4304
   39TMC2    O1  616   0.323   3.017   1.377  0.4866 -0.0572 -0.1714
   39TMC2    O2  617   0.113   2.925   2.023  0.2035  0.1476 -0.0167
   39TMC2    O5  618   0.251   3.109   1.980  0.0344 -0.2895 -0.0654
   39TMC2    H5  619   0.261   3.165   1.900 -1.7203  1.5083  0.9581
   40MPD2     C  620   0.040   2.424   1.501 -0.4288  0.4681  0.5652
   40MPD2    C1  621   4.700   2.532   1.518 -1.2680  0.8428 -0.0736
   40MPD2    C2  622   4.566   2.522   1.492  0.4209 -0.1030 -0.0324
   40MPD2    C3  623   4.506   2.401   1.466  0.0121 -0.1041 -0.5497
   40MPD2    C4  624   4.590   2.289   1.451 -0.5574 -0.2059  0.1478
   40MPD2    C5  625   4.724   2.303   1.468  0.0680 -0.1183 -0.2558
   40MPD2     H  626   4.503   2.609   1.510  0.7626  0.8089 -3.2538
   40MPD2    H1  627   4.546   2.189   1.456  1.2296 -1.0318 -0.9441
   40MPD2    H2  628   0.148   2.426   1.507 -0.3456  0.1614 -0.8439
   40MPD2    H3  629   0.051   2.217   1.488 -1.4149 -0.8347  1.4721
   40MPD2     N  630   4.367   2.369   1.461 -0.6968  0.2001 -0.4311
   40MPD2    H5  631   4.349   2.281   1.414 -1.1939  0.2896 -0.4148
   40MPD2    N1  632   0.032   2.650   1.548  0.2527 -0.0679 -0.0778
   40MPD2    H7  633   0.132   2.641   1.534  0.3077 -2.5389  1.9249
   41TMC2    C1  634   3.546   1.239  14.182  0.2379  0.6991  0.4759
   41TMC2    C2  635   3.442   1.227  14.095  0.5602 -0.0182 -0.0698
   41TMC2    C3  636   3.455   1.268  13.967 -0.5810  0.0426  0.4765
   41TMC2    C4  637   3.670   1.284  14.138  0.2501 -0.1817 -0.3116
   41TMC2    C5  638   3.680   1.329  14.012  0.1889  0.1214  0.7664
   41TMC2    C6  639   3.573   1.333  13.927  0.4229  0.4052  0.9946
   41TMC2     C  640   3.534   1.193  14.319  0.0691  0.4269 -0.1803
   41TMC2     O  641   3.632   1.146  14.377  0.3015 -0.1458  0.7042
   41TMC2     H  642   3.348   1.183  14.126  0.2996  1.6731  1.4786
   41TMC2    H1  643   3.757   1.257  14.198  0.1089  0.0807  0.0138
   41TMC2    H2  644   3.579   1.400  13.842  0.0478  0.8685  1.3284
   41TMC2    C7  645   3.810   1.374  13.961  0.3771 -0.3420  0.0491
   41TMC2    C8  646   3.338   1.301  13.888  0.1470  0.3669  0.1422
   41TMC2    O1  647   3.895   1.403  14.042  0.3277 -0.1112  0.4418
   41TMC2    O2  648   3.232   1.279  13.934  0.1917 -0.1038  0.2361
   41TMC2    O5  649   3.382   1.245  13.771  0.2400  0.2988 -0.2320
   41TMC2    H5  650   3.480   1.237  13.759  0.0560 -0.0276 -1.6083
   42MPD2     C  651   3.453   1.095  14.578 -0.2018  0.4132  0.0365
   42MPD2    C1  652   3.398   1.205  14.516 -1.0314  1.0767 -0.4543
   42MPD2    C2  653   3.313   1.289  14.585  0.4958  0.1779  0.8090
   42MPD2    C3  654   3.287   1.271  14.723  0.0492 -0.4832  0.5209
   42MPD2    C4  655   3.355   1.162  14.787  0.2411 -0.4773 -0.5207
   42MPD2    C5  656   3.428   1.072  14.709 -0.3423  0.3320 -0.7599
   42MPD2     H  657   3.275   1.375  14.530  1.3351  1.4633  2.2337
   42MPD2    H1  658   3.342   1.132  14.890 -1.0717  0.5895 -0.3769
   42MPD2    H2  659   3.508   1.017  14.528 -1.6309 -0.7521  0.3039
   42MPD2    H3  660   3.465   0.979  14.749 -2.7184  0.1619  1.0473
   42MPD2     N  661   3.215   1.372  14.796  0.7914  0.0100 -0.1591
   42MPD2    H5  662   3.217   1.354  14.896 -2.3842  0.3390 -0.0226
   42MPD2    N1  663   3.421   1.236  14.381 -0.2050 -0.3376  0.2078
   42MPD2    H7  664   3.367   1.304  14.327  0.3053 -0.4248 -0.4175
   43TMC2    C1  665   0.165   2.978   0.535 -0.2021 -0.1601  0.2964
   43TMC2    C2  666   0.041   3.016   0.577  0.5890  0.1497 -0.3376
   43TMC2    C3  667   0.035   3.135   0.653  0.3290 -0.3394  0.2081
   43TMC2    C4  668   0.278   3.051   0.569 -0.0315 -1.0157  0.1619
   43TMC2    C5  669   0.263   3.171   0.624  0.5516  0.2320  0.3191
   43TMC2    C6  670   0.145   3.215   0.676  0.0996  0.7785  0.5946
   43TMC2     C  671   0.183   2.856   0.463 -0.0494 -0.4832 -0.2886
   43TMC2     O  672   0.300   2.836   0.440 -0.2363 -0.4333 -0.1822
   43TMC2     H  673   4.685   2.963   0.557 -1.0837  3.4696 -1.5221
   43TMC2    H1  674   0.379   3.028   0.536 -0.7772 -1.5202 -1.7195
   43TMC2    H2  675   0.133   3.322   0.694 -0.1265  1.0211 -0.9937
   43TMC2    C7  676   0.382   3.253   0.622  0.3616  0.2694  0.4301
   43TMC2    C8  677   4.641   3.190   0.677  0.3671 -0.0537 -0.0566
   43TMC2    O1  678   0.454   3.249   0.524  0.1823  0.1872  0.7861
   43TMC2    O2  679   4.539   3.167   0.617  0.0532  0.0451 -0.1110
   43TMC2    O5  680   4.655   3.273   0.784 -1.1105 -0.3611  0.4949
   43TMC2    H5  681   0.000   3.254   0.834 -1.8359 -0.9601  1.4444
   44MPD2     C  682   0.087   2.399   0.282  0.0085 -0.1986 -0.8410
   44MPD2    C1  683   0.203   2.473   0.269 -0.0227  0.3915 -0.0399
   44MPD2    C2  684   0.190   2.605   0.306 -0.8579  0.4176 -0.5875
   44MPD2    C3  685   0.077   2.650   0.371  0.3007 -0.3188 -0.2624
   44MPD2    C4  686   4.709   2.567   0.392 -0.5932  1.0760 -0.7988
   44MPD2    C5  687   4.707   2.445   0.343 -0.4950  0.5697  0.2054
   44MPD2     H  688   0.286   2.656   0.302  0.1435 -1.5681 -2.0830
   44MPD2    H1  689   4.619   2.606   0.439 -0.5712 -1.5053  1.3920
   44MPD2    H2  690   0.070   2.298   0.245  0.4546  0.0585 -1.7389
   44MPD2    H3  691   4.614   2.391   0.323  0.2149 -0.1121 -1.3210
   44MPD2     N  692   0.072   2.781   0.428 -0.2727 -0.5692  0.4651
   44MPD2    H5  693   4.724   2.812   0.475 -0.5212 -1.8909  0.8830
   44MPD2    N1  694   0.334   2.423   0.223 -0.0890  0.0297 -0.3600
   44MPD2    H7  695   0.413   2.487   0.224 -0.8083  0.8510  2.2141
   45TMC2    C1  696   1.345   2.697   9.894  0.5094  0.1635 -0.4421
   45TMC2    C2  697   1.465   2.760   9.882  0.5748  0.2790  0.1157
   45TMC2    C3  698   1.479   2.878   9.943 -0.2948  0.1681  0.2999
   45TMC2    C4  699   1.247   2.760   9.957 -0.3894  0.5428 -0.1430
   45TMC2    C5  700   1.256   2.890   9.998 -0.1731  0.2523  0.2830
   45TMC2    C6  701   1.376   2.951  10.000  0.4799 -0.5658  0.0790
   45TMC2     C  702   1.334   2.563   9.851 -0.3661  0.3489  0.2230
   45TMC2     O  703   1.418   2.524   9.768 -0.1559  0.2781 -0.3406
   45TMC2     H  704   1.538   2.715   9.816  1.9342 -0.3326  2.0445
   45TMC2    H1  705   1.149   2.715   9.959 -0.4757  0.5915 -2.4371
   45TMC2    H2  706   1.389   3.051  10.040  2.1608 -1.6410  2.1923
   45TMC2    C7  707   1.141   2.948  10.062 -1.0878  0.1320  0.1927
   45TMC2    C8  708   1.590   2.964   9.911  0.1957 -0.7547  0.5513
   45TMC2    O1  709   1.041   2.882  10.075 -0.7688  0.3432 -0.0975
   45TMC2    O2  710   1.592   3.083   9.937  0.2751 -1.0126  0.2528
   45TMC2    O5  711   1.694   2.880   9.875  0.1840  0.1851 -0.4064
   45TMC2    H5  712   1.686   2.784   9.894  0.8325  0.2287  0.1175
   46MPD2     C  713   1.241   2.305   9.753 -0.2648  0.1219  0.2936
   46MPD2    C1  714   1.202   2.356   9.870  0.5801  0.3904  0.3701
   46MPD2    C2  715   1.109   2.283   9.940  0.4307  0.0563  0.5131
   46MPD2    C3  716   1.073   2.148   9.911 -0.8420 -0.0331 -0.4219
   46MPD2    C4  717   1.140   2.091   9.804 -0.2684 -0.0300 -0.2746
   46MPD2    C5  718   1.215   2.175   9.717  0.1140  0.0819 -0.5489
   46MPD2     H  719   1.070   2.342  10.022 -0.1075  1.3923 -0.6905
   46MPD2    H1  720   1.124   1.988   9.775 -0.4309  0.1774 -0.9153
   46MPD2    H2  721   1.291   2.367   9.679  2.0897 -2.0769  0.0194
   46MPD2    H3  722   1.265   2.126   9.634  2.4991 -2.7634  2.5772
   46MPD2     N  723   0.989   2.079   9.998 -0.2801 -0.3296 -0.2168
   46MPD2    H5  724   0.944   2.134  10.070  1.4536 -0.5653  1.0289
   46MPD2    N1  725   1.238   2.484   9.905 -0.0473 -0.3839  0.2483
   46MPD2    H7  726   1.191   2.532   9.981 -1.3851  1.6658 -1.8581
   47TMC2    C1  727   3.371   2.616   9.499 -0.0148  0.4930  0.0085
   47TMC2    C2  728   3.290   2.547   9.592  0.2943 -0.6503 -0.0698
   47TMC2    C3  729   3.174   2.599   9.623 -0.1895  0.0320 -0.1941
   47TMC2    C4  730   3.334   2.744   9.457  0.0543  0.4962 -0.5981
   47TMC2    C5  731   3.213   2.794   9.501 -0.3175 -0.0359 -0.0618
   47TMC2    C6  732   3.129   2.722   9.579  0.1919  0.2155  0.6918
   47TMC2     C  733   3.506   2.565   9.481 -0.0314 -0.1451 -0.0882
   47TMC2     O  734   3.592   2.646   9.446  0.0005  0.4411  0.4047
   47TMC2     H  735   3.329   2.462   9.648  0.0674 -1.4782 -1.1792
   47TMC2    H1  736   3.411   2.801   9.407  1.6828 -2.9964 -2.0324
   47TMC2    H2  737   3.038   2.761   9.622  1.1836  0.0538  2.9766
   47TMC2    C7  738   3.201   2.943   9.512 -0.1481 -0.2390  0.9733
   47TMC2    C8  739   3.095   2.517   9.718  0.2469  0.2304 -0.3173
   47TMC2    O1  740   3.093   2.990   9.538  0.4235  0.0299  0.3080
   47TMC2    O2  741   3.012   2.560   9.789  0.6855 -0.0462 -0.0106
   47TMC2    O5  742   3.099   2.393   9.664 -0.3044  0.1479 -0.2181
   47TMC2    H5  743   3.153   2.372   9.585 -0.7762 -1.9986  0.0376
   48MPD2     C  744   3.759   2.418   9.481 -0.6016 -0.1309 -0.0203
   48MPD2    C1  745   3.638   2.359   9.509  0.4058 -0.1953  0.0092
   48MPD2    C2  746   3.630   2.228   9.556  0.3111  1.0221 -0.4316
   48MPD2    C3  747   3.743   2.154   9.584  0.2646  0.1332  0.7477
   48MPD2    C4  748   3.868   2.216   9.584 -0.3664 -0.2515 -0.0516
   48MPD2    C5  749   3.868   2.342   9.517 -0.3120  0.4439  1.1728
   48MPD2     H  750   3.527   2.197   9.571  0.8571 -0.7799 -0.4697
   48MPD2    H1  751   3.960   2.168   9.617 -0.6105 -0.5912  0.1259
   48MPD2    H2  752   3.778   2.519   9.444 -0.3722  0.5458  1.9480
   48MPD2    H3  753   3.964   2.388   9.497  0.6426 -1.6242  1.0102
   48MPD2     N  754   3.723   2.022   9.633  0.3043  0.6701  0.1951
   48MPD2    H5  755   3.624   2.002   9.644  0.6758  0.2398  2.6691
   48MPD2    N1  756   3.517   2.429   9.494 -0.3126 -0.4093  0.2182
   48MPD2    H7  757   3.435   2.370   9.505  0.5339 -2.1257 -2.6645
   49TMC2    C1  758   1.021   4.584   9.985  0.1931  0.5712  0.2182
   49TMC2    C2  759   1.048   4.670   9.888  0.0435 -0.6240 -0.5562
   49TMC2    C3  760   0.987   4.653   9.769 -0.2793  0.4916 -0.2054
   49TMC2    C4  761   0.915   4.499   9.968  0.0293 -0.1405 -0.1714
   49TMC2    C5  762   0.843   4.487   9.852  0.5606  0.0219 -0.4092
   49TMC2    C6  763   0.883   4.567   9.747 -0.5200 -0.1717  0.4797
   49TMC2     C  764   1.092   4.591  10.106  0.2293  0.7525  0.0595
   49TMC2     O  765   1.148   4.695  10.133  0.3265  0.7183  0.0379
   49TMC2     H  766   1.120   0.010   9.914  1.2275 -2.0367  0.2923
   49TMC2    H1  767   0.868   4.451  10.054  1.7731 -0.1511  0.7821
   49TMC2    H2  768   0.849   4.536   9.649 -1.2791  0.5237  0.5232
   49TMC2    C7  769   0.719   4.401   9.850  0.6055 -0.1556  0.1653
   49TMC2    C8  770   1.007   0.023   9.672  0.3290  0.3910 -0.5344
   49TMC2    O1  771   0.685   4.341   9.950  0.2340 -0.1120  0.5463
   49TMC2    O2  772   0.914   0.083   9.615  0.7534 -0.1512  1.0260
   49TMC2    O5  773   1.134   0.064   9.682 -0.5005 -0.1694  0.2700
   49TMC2    H5  774   1.189   4.731   9.724  2.2920  1.8665  0.0214
   50MPD2     C  775   1.136   4.577  10.403  0.2644  0.0818  0.2644
   50MPD2    C1  776   1.093   4.472  10.323  0.7199 -0.2133  0.1340
   50MPD2    C2  777   1.052   4.360  10.395 -0.1190 -0.7188 -0.6489
   50MPD2    C3  778   1.034   4.351  10.532  0.0389  0.0519 -0.9500
   50MPD2    C4  779   1.067   4.466  10.607  0.1021 -0.9290  0.5211
   50MPD2    C5  780   1.124   4.570  10.547 -0.6668 -0.6592 -0.4095
   50MPD2     H  781   0.996   4.288  10.338  0.4517 -1.6653 -0.0118
   50MPD2    H1  782   1.059   4.465  10.715  2.4054  0.4571  0.7036
   50MPD2    H2  783   1.178   4.666  10.358  0.1925 -0.4141 -0.7843
   50MPD2    H3  784   1.146   4.655  10.611 -0.2147 -0.6214 -0.6166
   50MPD2     N  785   0.986   4.243  10.605  0.1985  0.3490  0.8011
   50MPD2    H5  786   0.966   4.258  10.704 -0.3139 -0.7822  0.8801
   50MPD2    N1  787   1.074   4.478  10.182  0.4892 -0.1830  0.4354
   50MPD2    H7  788   1.042   4.393  10.138  0.3744  0.5660 -0.9098
   51TMC2    C1  789   1.374   1.926   0.938  0.2894  0.6221 -0.2867
   51TMC2    C2  790   1.310   2.040   0.891  0.4429  0.1917 -0.9979
   51TMC2    C3  791   1.391   2.137   0.837 -0.4871 -0.5812  0.0977
   51TMC2    C4  792   1.508   1.912   0.938  0.5534  0.1364 -0.2664
   51TMC2    C5  793   1.587   2.013   0.885 -1.3100 -0.9438  0.1906
   51TMC2    C6  794   1.528   2.123   0.823 -0.1899  0.0792  0.1171
   51TMC2     C  795   1.314   1.879   1.064  0.1038 -0.1507  0.3914
   51TMC2     O  796   1.366   1.779   1.104  0.3730 -0.4618  0.4749
   51TMC2     H  797   1.204   2.062   0.882  0.6383  0.7046 -2.0682
   51TMC2    H1  798   1.561   1.846   1.006  0.5233  0.0696 -0.3075
   51TMC2    H2  799   1.587   2.210   0.796 -0.8045  0.8433  1.2474
   51TMC2    C7  800   1.715   2.029   0.945  0.6887  0.2651  0.0855
   51TMC2    C8  801   1.331   2.258   0.777 -0.3701 -0.3346 -0.1871
   51TMC2    O1  802   1.742   1.962   1.042 -0.3750  0.9436 -0.3880
   51TMC2    O2  803   1.235   2.262   0.702 -0.2191 -0.0736 -0.5755
   51TMC2    O5  804   1.386   2.371   0.820  0.3916 -0.7710 -0.0798
   51TMC2    H5  805   1.457   2.342   0.882 -0.2952 -1.4576  0.3928
   52MPD2     C  806   1.142   1.968   1.540  0.1500 -0.2048  0.0848
   52MPD2    C1  807   1.216   1.866   1.490 -0.3645 -0.4474  0.3678
   52MPD2    C2  808   1.248   1.861   1.354  0.4338  0.7825 -0.2352
   52MPD2    C3  809   1.215   1.968   1.267  0.0526 -0.5215  0.2213
   52MPD2    C4  810   1.146   2.076   1.319  0.4390  0.3480 -0.2828
   52MPD2    C5  811   1.112   2.074   1.452 -0.1097 -0.1729 -0.7002
   52MPD2     H  812   1.295   1.770   1.319  0.3395  1.1091 -1.2098
   52MPD2    H1  813   1.112   2.154   1.251  0.4217  0.4110 -0.2021
   52MPD2    H2  814   1.102   1.979   1.640 -0.6880 -0.7607 -0.1896
   52MPD2    H3  815   1.061   2.163   1.487  0.1269 -0.7470  1.1276
   52MPD2     N  816   1.244   1.974   1.129  0.1149 -0.1796 -0.3773
   52MPD2    H5  817   1.217   2.057   1.078 -0.6213 -0.3718 -0.2960
   52MPD2    N1  818   1.265   1.759   1.569  0.0806 -0.1256 -0.0942
   52MPD2    H7  819   1.331   1.703   1.516  2.9697 -0.0048  3.3669
   53TMC2    C1  820   2.520   1.008  12.615 -0.2918  0.0536  0.3610
   53TMC2    C2  821   2.616   1.057  12.705  0.2966 -0.4633  0.0026
   53TMC2    C3  822   2.566   1.099  12.825 -0.3874  0.0942  0.8464
   53TMC2    C4  823   2.387   0.995  12.650  0.2998 -0.4429 -0.3375
   53TMC2    C5  824   2.347   1.042  12.773  0.1582  0.4135  0.1087
   53TMC2    C6  825   2.438   1.093  12.862 -0.0985  0.0260 -0.2932
   53TMC2     C  826   2.553   1.006  12.469 -0.1651  0.1304  0.3404
   53TMC2     O  827   2.669   1.010  12.438 -0.2764  0.7308 -0.2352
   53TMC2     H  828   2.721   1.056  12.676 -0.2959  1.6900 -2.3126
   53TMC2    H1  829   2.306   0.962  12.586 -0.6019  1.9633 -0.4318
   53TMC2    H2  830   2.413   1.130  12.961  1.5135 -1.3286  0.6210
   53TMC2    C7  831   2.225   1.119  12.762  0.3177  0.0243 -0.0285
   53TMC2    C8  832   2.659   1.141  12.930 -0.2648 -0.1880  0.1370
   53TMC2    O1  833   2.178   1.128  12.653  0.2231 -0.3387 -0.3744
   53TMC2    O2  834   2.617   1.166  13.047  0.7131  0.5171  0.4752
   53TMC2    O5  835   2.771   1.196  12.879 -0.3279  0.1423 -0.5772
   53TMC2    H5  836   2.786   1.167  12.786 -0.2621  0.7402 -0.7571
   54MPD2     C  837   2.560   0.988  12.173  0.2185 -0.3768 -0.0107
   54MPD2    C1  838   2.446   0.999  12.250  0.0529  0.1121 -0.8410
   54MPD2    C2  839   2.316   0.996  12.203  0.1245  0.0567 -0.1461
   54MPD2    C3  840   2.300   0.998  12.065  0.7130  0.4032 -0.3608
   54MPD2    C4  841   2.410   0.994  11.981 -0.3050  0.7665  0.0588
   54MPD2    C5  842   2.535   0.983  12.038  0.8819 -0.4288 -0.1578
   54MPD2     H  843   2.236   0.998  12.276  1.7160  0.0733  1.5990
   54MPD2    H1  844   2.400   0.981  11.873 -4.1089  1.2265  0.3551
   54MPD2    H2  845   2.659   0.966  12.210 -0.9794 -1.8228  2.3286
   54MPD2    H3  846   2.623   0.972  11.976  1.8991  4.8882  0.3337
   54MPD2     N  847   2.173   0.995  12.001 -0.3501  0.3398 -0.4511
   54MPD2    H5  848   2.178   0.984  11.900  0.1536  0.3416 -0.4270
   54MPD2    N1  849   2.447   0.993  12.388 -0.6241  0.2567  0.6879
   54MPD2    H7  850   2.365   0.976  12.446 -1.7542 -1.1294 -1.3138
   55TMC2    C1  851   3.351   2.881   0.573 -0.2369  0.5354  0.1069
   55TMC2    C2  852   3.386   2.807   0.461  0.8261 -0.5205  0.2107
   55TMC2    C3  853   3.452   2.690   0.485 -0.1887 -0.5163  0.5158
   55TMC2    C4  854   3.358   2.828   0.698  0.2046  0.2734  0.7796
   55TMC2    C5  855   3.410   2.709   0.720  0.2953 -0.5134  0.7310
   55TMC2    C6  856   3.460   2.635   0.614  0.1827 -0.0956  0.3297
   55TMC2     C  857   3.272   3.002   0.557 -0.2921 -0.3643 -0.2276
   55TMC2     O  858   3.186   3.018   0.645 -0.1139 -0.0019 -0.5249
   55TMC2     H  859   3.385   2.850   0.362  2.0580  0.5934  0.6793
   55TMC2    H1  860   3.335   2.893   0.782 -1.6730 -0.7896  1.0774
   55TMC2    H2  861   3.504   2.537   0.625  0.6461  0.0727 -0.0147
   55TMC2    C7  862   3.396   2.648   0.849 -0.1634  0.3861  0.0864
   55TMC2    C8  863   3.484   2.604   0.376 -0.2410  0.3164 -0.2559
   55TMC2    O1  864   3.465   2.548   0.877  0.0390 -0.0854  0.1970
   55TMC2    O2  865   3.414   2.606   0.279 -0.6134  0.1683  0.1327
   55TMC2    O5  866   3.586   2.522   0.399  0.1678 -0.1580 -0.2977
   55TMC2    H5  867   3.628   2.536   0.487  1.1954 -1.1572 -0.6217
   56MPD2     C  868   3.303   3.251   0.284  0.6983  0.3298  0.4840
   56MPD2    C1  869   3.247   3.190   0.395 -0.9021  0.1041  0.1074
   56MPD2    C2  870   3.137   3.248   0.452  0.0109 -0.1148 -0.7993
   56MPD2    C3  871   3.081   3.364   0.397 -0.1463  0.7115 -0.2076
   56MPD2    C4  872   3.143   3.432   0.292  0.0567  0.8004 -0.2896
   56MPD2    C5  873   3.253   3.366   0.239  0.3631 -0.1720  0.0313
   56MPD2     H  874   3.088   3.203   0.537 -0.8404  1.1439 -0.6200
   56MPD2    H1  875   3.102   3.525   0.253  4.4581  2.3479 -1.2031
   56MPD2    H2  876   3.387   3.209   0.229  2.3748  0.9002  2.5975
   56MPD2    H3  877   3.302   3.417   0.156 -0.3118 -2.2262 -1.6238
   56MPD2     N  878   2.971   3.418   0.470 -0.0243  0.0503  0.0934
   56MPD2    H5  879   2.956   3.381   0.563 -0.7257 -2.3960 -0.9935
   56MPD2    N1  880   3.305   3.073   0.442  0.3839 -0.1267 -0.3073
   56MPD2    H7  881   3.393   3.041   0.403  0.3800  0.5854 -0.8982
   57TMC2    C1  882   1.573   0.150  13.665  0.2946 -0.1481  0.0436
   57TMC2    C2  883   1.497   0.044  13.621  0.5653  0.6621  0.0532
   57TMC2    C3  884   1.548   4.688  13.531 -0.7113  0.7050  0.1089
   57TMC2    C4  885   1.709   0.152  13.635  0.9343 -0.0158 -0.2090
   57TMC2    C5  886   1.759   0.058  13.547 -0.2351 -0.4943  0.0220
   57TMC2    C6  887   1.683   4.692  13.499 -0.2292  0.0805  0.2274
   57TMC2     C  888   1.544   0.188  13.802 -0.4158 -0.2173 -0.6337
   57TMC2     O  889   1.428   0.207  13.832  0.0117 -0.2537  0.2317
   57TMC2     H  890   1.399   0.034  13.666  0.0782 -2.0785 -1.6334
   57TMC2    H1  891   1.778   0.225  13.676  0.6569 -0.3942  0.9463
   57TMC2    H2  892   1.735   4.610  13.451 -1.2441  0.0853 -0.8871
   57TMC2    C7  893   1.905   0.051  13.543  0.0174 -0.5641  0.9160
   57TMC2    C8  894   1.485   4.558  13.516 -0.5449  0.1922  0.7279
   57TMC2    O1  895   1.959   0.160  13.541 -0.4716 -0.2716 -0.2107
   57TMC2    O2  896   1.554   4.458  13.521  0.5206 -0.3379 -0.4864
   57TMC2    O5  897   1.355   4.577  13.536 -0.5135 -0.0489 -0.4412
   57TMC2    H5  898   1.326   4.666  13.507 -0.1584  0.2245  0.0354
   58MPD2     C  899   1.668   0.347  14.270  0.6626  0.0765  0.2803
   58MPD2    C1  900   1.556   0.367  14.185 -0.0652  0.4224 -0.7321
   58MPD2    C2  901   1.560   0.328  14.053  0.6040 -1.0973 -0.9097
   58MPD2    C3  902   1.660   0.245  14.007 -0.4697 -0.2296  0.7086
   58MPD2    C4  903   1.767   0.214  14.090  0.4185  0.8411 -0.0769
   58MPD2    C5  904   1.769   0.268  14.216  0.0076  0.2675 -0.6161
   58MPD2     H  905   1.485   0.369  13.986  1.1181 -1.0277 -1.4433
   58MPD2    H1  906   1.845   0.141  14.072  1.1665  1.4653  0.6510
   58MPD2    H2  907   1.668   0.374  14.375  1.3982  0.0423  0.2928
   58MPD2    H3  908   1.859   0.255  14.275  0.5492  0.0351 -1.4771
   58MPD2     N  909   1.660   0.193  13.875 -0.4412 -0.1517 -0.4445
   58MPD2    H5  910   1.743   0.144  13.845 -1.2672 -0.0978 -2.7974
   58MPD2    N1  911   1.439   0.425  14.227  0.1801  0.3824 -0.7178
   58MPD2    H7  912   1.362   0.439  14.163 -0.2125 -1.6616 -0.6923
   59TMC2    C1  913   4.418   0.100  13.224 -1.0234 -0.1719 -0.3160
   59TMC2    C2  914   4.339   0.007  13.278  0.2702 -0.0690  0.4258
   59TMC2    C3  915   4.332   4.621  13.216  0.5657 -0.6430  0.6666
   59TMC2    C4  916   4.484   0.082  13.102 -0.9224  0.2799 -0.1483
   59TMC2    C5  917   4.459   4.693  13.037  0.5504  0.2963 -0.0277
   59TMC2    C6  918   4.389   4.592  13.093 -0.8326  0.2443 -0.2391
   59TMC2     C  919   4.414   0.229  13.288  0.0074 -0.4160  0.1336
   59TMC2     O  920   4.301   0.270  13.321 -0.3856 -0.9019  0.1053
   59TMC2     H  921   4.288   0.028  13.372  0.0047  0.1020  0.2450
   59TMC2    H1  922   4.543   0.163  13.061  0.7917 -1.0035 -0.2456
   59TMC2    H2  923   4.368   4.497  13.046  0.8361 -0.0426 -0.4151
   59TMC2    C7  924   4.479   4.675  12.889 -0.1068  0.9469 -0.8873
   59TMC2    C8  925   4.223   4.530  13.252 -0.3523 -0.3284  0.1673
   59TMC2    O1  926   4.491   4.559  12.853  0.2242 -0.1380  0.1611
   59TMC2    O2  927   4.124   4.582  13.308 -0.3682  0.2847  0.4844
   59TMC2    O5  928   4.271   4.405  13.263 -0.0235  0.1751 -0.1675
   59TMC2    H5  929   4.360   4.397  13.222 -1.1046 -1.6133 -2.1323
   60MPD2     C  930   4.479   0.402  13.521 -0.4601  0.3508 -0.0304
   60MPD2    C1  931   4.563   0.381  13.417  0.4418 -0.4242 -0.8556
   60MPD2    C2  932   4.689   0.444  13.412 -0.0502  0.0691  0.3929
   60MPD2    C3  933   4.716   0.545  13.509  0.0667  0.1170  0.2231
   60MPD2    C4  934   4.621   0.574  13.609  0.2219 -0.9228  0.1514
   60MPD2    C5  935   4.502   0.495  13.614  0.1842 -0.1895 -0.0785
   60MPD2     H  936   0.024   0.425  13.332 -0.9835  0.9000 -0.6365
   60MPD2    H1  937   4.633   0.642  13.693 -3.1200  1.8730 -1.6298
   60MPD2    H2  938   4.384   0.351  13.525 -0.4159  0.2238 -0.6668
   60MPD2    H3  939   4.436   0.496  13.700 -0.4561 -0.2185 -0.5697
   60MPD2     N  940   0.102   0.607  13.526  0.2457  0.3220 -0.9626
   60MPD2    H5  941   0.108   0.673  13.602 -0.5746  0.4859 -1.0422
   60MPD2    N1  942   4.541   0.279  13.323 -0.1266  0.4326 -0.6059
   60MPD2    H7  943   4.617   0.245  13.266 -0.7619 -1.0165 -0.5762
   61TMC2    C1  944   3.652   1.191  15.758 -0.0834 -0.3369 -0.4054
   61TMC2    C2  945   3.578   1.131  15.856 -0.2907  0.1382  0.2976
   61TMC2    C3  946   3.525   1.212  15.958 -0.4776  0.5890 -0.4696
   61TMC2    C4  947   3.657   1.325  15.749  0.0618 -0.4384 -0.2740
   61TMC2    C5  948   3.588   1.401  15.849 -0.0330  0.0081 -0.2505
   61TMC2    C6  949   3.517   1.347  15.949 -0.0949 -0.3413 -0.3752
   61TMC2     C  950   3.717   1.103  15.669  0.3989 -0.0974 -0.2663
   61TMC2     O  951   3.752   0.995  15.722 -0.5204 -0.7938 -0.1144
   61TMC2     H  952   3.575   1.023  15.860 -1.1759  0.1612  0.1475
   61TMC2    H1  953   3.703   1.383  15.669 -1.4573  0.9307 -0.1641
   61TMC2    H2  954   3.471   1.405  16.028  1.8403  0.9318 -0.1944
   61TMC2    C7  955   3.635   1.539  15.860 -0.9179 -0.4804 -0.5553
   61TMC2    C8  956   3.487   1.162  16.088 -0.7162  0.0291 -0.3485
   61TMC2    O1  957   3.752   1.562  15.830 -0.0351  0.0724 -0.4878
   61TMC2    O2  958   3.521   1.219  16.190 -0.1978 -0.1063  0.1977
   61TMC2    O5  959   3.451   1.035  16.060  0.2586 -0.1142  0.5482
   61TMC2    H5  960   3.404   1.035  15.974 -1.4243 -3.3486  1.4643
   62MPD2     C  961   3.960   1.027  15.513  1.0979 -0.0538 -0.1022
   62MPD2    C1  962   3.880   1.135  15.480 -0.6953 -0.7725 -0.4556
   62MPD2    C2  963   3.897   1.200  15.360  0.8337 -0.0143 -0.4916
   62MPD2    C3  964   4.007   1.161  15.281  0.0979  0.3884  0.6648
   62MPD2    C4  965   4.096   1.069  15.326 -0.2405 -0.5361 -0.3747
   62MPD2    C5  966   4.058   0.994  15.433 -0.2618  0.3579  0.5420
   62MPD2     H  967   3.825   1.274  15.328 -1.5646 -0.7589  3.1862
   62MPD2    H1  968   4.186   1.047  15.271  0.3995  0.3377  0.3114
   62MPD2    H2  969   3.963   0.974  15.607 -0.2929  0.3508  0.1732
   62MPD2    H3  970   4.123   0.914  15.468  0.9336  1.1968  0.2239
   62MPD2     N  971   4.037   1.230  15.161  0.0472 -0.0552 -0.2879
   62MPD2    H5  972   4.131   1.207  15.130  0.1239 -0.0288 -0.0785
   62MPD2    N1  973   3.765   1.171  15.557 -0.5466 -0.4513 -0.0353
   62MPD2    H7  974   3.708   1.250  15.530 -0.3332  0.5442  2.4409
   63TMC2    C1  975   3.752   1.789  11.258  0.3199  0.4519  0.1503
   63TMC2    C2  976   3.842   1.848  11.348  0.2066 -0.3393  0.7001
   63TMC2    C3  977   3.935   1.935  11.290 -0.1680  0.0811 -0.0519
   63TMC2    C4  978   3.759   1.819  11.129  0.7957 -0.2377 -0.5743
   63TMC2    C5  979   3.851   1.906  11.077 -0.1942  0.4875 -0.3777
   63TMC2    C6  980   3.939   1.971  11.160  0.6355  0.0779 -0.2838
   63TMC2     C  981   3.645   1.701  11.311  0.1466  0.3083 -0.3350
   63TMC2     O  982   3.647   1.701  11.437  0.0518  0.7044  0.3828
   63TMC2     H  983   3.831   1.837  11.455  1.6256  1.7722  1.0644
   63TMC2    H1  984   3.689   1.777  11.058  1.6585 -0.0001 -1.5660
   63TMC2    H2  985   4.011   2.046  11.128  2.5533 -1.4263  0.4919
   63TMC2    C7  986   3.824   1.942  10.936  0.2542 -0.2065 -0.5183
   63TMC2    C8  987   4.012   2.032  11.365  0.6777 -0.6953  0.5735
   63TMC2    O1  988   3.744   1.875  10.881 -0.0704  0.3733  0.3847
   63TMC2    O2  989   4.110   1.999  11.429 -0.4486 -0.2278 -0.1892
   63TMC2    O5  990   3.929   2.135  11.379 -0.2557 -0.0360 -0.0878
   63TMC2    H5  991   3.845   2.109  11.336 -0.2865  0.5060 -0.3498
   64MPD2     C  992   3.264   1.353  11.323 -0.2212  1.1423  0.3407
   64MPD2    C1  993   3.324   1.356  11.201  0.9973 -0.1448  0.8971
   64MPD2    C2  994   3.417   1.450  11.169  0.0060 -0.2613  0.1778
   64MPD2    C3  995   3.471   1.535  11.263  0.0812  0.0859 -0.8766
   64MPD2    C4  996   3.417   1.532  11.382  0.0720  0.2436  0.3877
   64MPD2    C5  997   3.316   1.441  11.417  0.8836  0.0546 -0.0437
   64MPD2     H  998   3.463   1.434  11.072  2.5013  1.6774  1.0128
   64MPD2    H1  999   3.458   1.590  11.464 -0.1705 -0.6274  1.1155
   64MPD2    H2 1000   3.181   1.297  11.366  0.3145 -0.1148 -0.2622
   64MPD2    H3 1001   3.293   1.437  11.523 -1.8019  2.1779 -0.5499
   64MPD2     N 1002   3.573   1.626  11.226  0.3078  0.3023 -0.4389
   64MPD2    H5 1003   3.594   1.624  11.126 -0.0546  0.7764 -0.5227
   64MPD2    N1 1004   3.284   1.258  11.100 -0.3490  0.3110 -0.4759
   64MPD2    H7 1005   3.326   1.263  11.008 -2.1932 -1.2863 -1.4134
   65TMC2    C1 1006   0.029   1.209  15.815  0.1521  0.1767  0.4167
   65TMC2    C2 1007   0.119   1.317  15.796  0.0329  0.3475  0.2780
   65TMC2    C3 1008   0.093   1.402  15.691  0.1375 -0.0051  0.0596
   65TMC2    C4 1009   4.658   1.191  15.735 -0.6080 -0.4933 -0.3165
   65TMC2    C5 1010   4.640   1.272  15.630  0.5022  0.1504 -0.0609
   65TMC2    C6 1011   4.729   1.374  15.603 -0.2608  0.6726  0.2031
   65TMC2     C 1012   0.053   1.120  15.934  0.2718  0.4556  0.1600
   65TMC2     O 1013   0.098   1.177  16.032 -0.2901 -0.0020 -0.3552
   65TMC2     H 1014   0.206   1.326  15.859 -0.6615  0.3423  1.2275
   65TMC2    H1 1015   4.589   1.112  15.763  0.7707 -1.3310  0.7283
   65TMC2    H2 1016   4.713   1.442  15.520 -0.6489  0.5153  0.1496
   65TMC2    C7 1017   4.508   1.284  15.581 -0.2065  0.3365  0.5928
   65TMC2    C8 1018   0.178   1.521  15.671  1.0650  0.1155 -0.0309
   65TMC2    O1 1019   4.502   1.289  15.460 -0.2498 -0.5599 -0.2120
   65TMC2    O2 1020   0.237   1.567  15.764 -0.4693 -0.0042  0.2536
   65TMC2    O5 1021   0.245   1.490  15.555 -0.7878 -0.1422  0.1041
   65TMC2    H5 1022   0.196   1.430  15.495  0.6945 -1.6832  0.4087
   66MPD2     C 1023   0.042   0.893  16.123  0.4360  0.0741 -0.3556
   66MPD2    C1 1024   0.010   0.877  15.994 -0.2880  0.1992 -0.0184
   66MPD2    C2 1025   4.705   0.750  15.951 -0.3792  0.3874 -0.5552
   66MPD2    C3 1026   4.700   0.638  16.030 -0.0823 -0.1178 -0.2093
   66MPD2    C4 1027   0.003   0.652  16.160 -0.8240  0.7822 -0.4131
   66MPD2    C5 1028   0.034   0.779  16.209  0.5186 -0.0588  0.1817
   66MPD2     H 1029   4.668   0.753  15.849  1.6588 -0.7200 -1.3086
   66MPD2    H1 1030   0.003   0.568  16.229 -1.3238  1.5743  0.5326
   66MPD2    H2 1031   0.075   0.985  16.170 -1.8143 -1.2854  3.9349
   66MPD2    H3 1032   0.065   0.790  16.312 -0.6287 -2.6405  0.7939
   66MPD2     N 1033   4.647   0.512  15.983 -0.1561 -0.0602  0.3067
   66MPD2    H5 1034   4.644   0.432  16.045  1.9133  0.1486  0.6645
   66MPD2    N1 1035   0.015   0.985  15.903  0.3107 -0.1789  0.5172
   66MPD2    H7 1036   4.736   0.951  15.809  0.4192 -0.0406  0.4490
   67TMC2    C1 1037   0.173   0.313  14.580 -0.4723  0.0071  0.0786
   67TMC2    C2 1038   0.094   0.420  14.612  0.2339  0.5336  0.0036
   67TMC2    C3 1039   0.128   0.488  14.724 -0.2162  0.1348 -0.4658
   67TMC2    C4 1040   0.255   0.259  14.666  0.2256  0.7293 -0.3073
   67TMC2    C5 1041   0.270   0.315  14.788 -0.2651 -0.4621  0.0409
   67TMC2    C6 1042   0.219   0.440  14.816  0.1965  0.5465 -0.0186
   67TMC2     C 1043   0.134   0.235  14.467  0.2566  0.5017 -0.3601
   67TMC2     O 1044   0.194   0.131  14.448  0.0211 -0.0986 -0.7965
   67TMC2     H 1045   0.050   0.480  14.533 -0.0939 -1.1493 -1.0903
   67TMC2    H1 1046   0.305   0.163  14.657  0.3905  0.9207 -1.4422
   67TMC2    H2 1047   0.246   0.505  14.897 -0.6064  0.5953  0.2063
   67TMC2    C7 1048   0.390   0.280  14.860 -0.4224  0.1942 -0.2346
   67TMC2    C8 1049   0.078   0.618  14.748  0.3277  0.5953  0.6005
   67TMC2    O1 1050   0.470   0.207  14.798 -0.3303 -0.4687  0.2544
   67TMC2    O2 1051   0.128   0.691  14.827  0.5386  0.1663  1.1109
   67TMC2    O5 1052   4.684   0.615  14.719  0.2257  0.4317  0.0031
   67TMC2    H5 1053   4.658   0.534  14.670 -1.1153  0.9023 -0.0564
   68MPD2     C 1054   4.727   0.124  14.220 -0.2876  0.1687  0.0740
   68MPD2    C1 1055   4.664   0.191  14.324 -0.0977 -0.8471  0.2264
   68MPD2    C2 1056   4.525   0.202  14.318  0.2914  0.2238 -0.2189
   68MPD2    C3 1057   4.444   0.149  14.215  0.0733 -0.5672  0.0347
   68MPD2    C4 1058   4.520   0.107  14.101  0.2639  0.3305 -0.1427
   68MPD2    C5 1059   4.658   0.093  14.103  0.3034 -0.6075  0.2458
   68MPD2     H 1060   4.479   0.248  14.405 -2.6211 -0.9720 -1.1180
   68MPD2    H1 1061   4.466   0.078  14.011  1.2985 -1.5394 -0.1589
   68MPD2    H2 1062   0.094   0.096  14.237 -0.9602 -2.2542  0.2260
   68MPD2    H3 1063   4.710   0.053  14.017 -1.3358 -1.1647 -0.4643
   68MPD2     N 1064   4.307   0.142  14.219  0.1732 -0.0307  0.0363
   68MPD2    H5 1065   4.258   0.114  14.135 -0.4252 -0.2351  0.4548
   68MPD2    N1 1066   4.731   0.243  14.440 -0.0227  0.0965  0.5883
   68MPD2    H7 1067   4.675   0.310  14.493 -0.5843 -0.4079  0.6342
   69TMC2    C1 1068   2.513   1.494  13.048  0.0747 -0.0438  0.2321
   69TMC2    C2 1069   2.582   1.595  13.098 -0.7329  0.5822  0.1647
   69TMC2    C3 1070   2.657   1.661  13.011 -0.2771 -0.3155  0.0224
   69TMC2    C4 1071   2.521   1.462  12.914 -0.1236  0.1182  0.0646
   69TMC2    C5 1072   2.604   1.530  12.832 -0.2170  0.0724 -0.3847
   69TMC2    C6 1073   2.674   1.634  12.879  0.2664  0.3482 -1.2520
   69TMC2     C 1074   2.426   1.426  13.134  0.3000  0.1614 -0.7624
   69TMC2     O 1075   2.335   1.365  13.078 -0.4493 -0.7133  0.8452
   69TMC2     H 1076   2.586   1.631  13.200  0.2170  0.8048  0.0552
   69TMC2    H1 1077   2.464   1.376  12.882 -1.4440  1.1049 -0.1969
   69TMC2    H2 1078   2.739   1.699  12.822 -1.3188  0.2150 -3.1886
   69TMC2    C7 1079   2.634   1.474  12.708  0.2937  0.0128  0.3292
   69TMC2    C8 1080   2.687   1.800  13.055 -0.2742 -0.1712 -0.0583
   69TMC2    O1 1081   2.751   1.488  12.673 -0.8688  0.8698  0.2450
   69TMC2    O2 1082   2.685   1.844  13.172  0.0968 -0.0201  0.3032
   69TMC2    O5 1083   2.643   1.870  12.949  0.4441 -0.3233 -0.0730
   69TMC2    H5 1084   2.582   1.822  12.889 -0.7844  0.7895  0.2683
   70MPD2     C 1085   2.488   1.320  13.474  1.3372 -0.1628 -0.2280
   70MPD2    C1 1086   2.416   1.349  13.360  0.8782  0.5096 -0.1895
   70MPD2    C2 1087   2.274   1.323  13.367  0.9800  0.2916  0.3141
   70MPD2    C3 1088   2.222   1.251  13.473  0.2359  0.5645  0.3086
   70MPD2    C4 1089   2.304   1.206  13.575 -0.9191  0.3038 -0.4890
   70MPD2    C5 1090   2.436   1.249  13.572  0.1045 -0.0182 -0.6170
   70MPD2     H 1091   2.218   1.374  13.290  1.9688  4.4242  2.3104
   70MPD2    H1 1092   2.256   1.168  13.664  2.1986 -1.9626  0.2066
   70MPD2    H2 1093   2.595   1.339  13.481  1.3355 -0.3457  0.2744
   70MPD2    H3 1094   2.491   1.202  13.653 -0.6829 -0.9699 -0.6300
   70MPD2     N 1095   2.087   1.221  13.490  0.0353 -1.0221 -0.2892
   70MPD2    H5 1096   2.068   1.166  13.573 -2.0440 -1.8450 -1.3003
   70MPD2    N1 1097   2.487   1.413  13.257  0.0162 -0.1054  0.1914
   70MPD2    H7 1098   2.581   1.447  13.272 -0.1933  1.0771 -1.2101
   71TMC2    C1 1099   3.643   2.189   1.786  0.1703 -0.3884 -0.2149
   71TMC2    C2 1100   3.742   2.250   1.860  0.2144 -0.1363 -0.1188
   71TMC2    C3 1101   3.703   2.314   1.977  0.3536  0.2908  0.4249
   71TMC2    C4 1102   3.508   2.198   1.817 -0.5626  0.3400 -0.5924
   71TMC2    C5 1103   3.478   2.267   1.930  0.7955  0.2289  0.0145
   71TMC2    C6 1104   3.573   2.323   2.017  0.8070  0.4642 -0.2068
   71TMC2     C 1105   3.686   2.108   1.668 -0.1235 -0.2881  0.1837
   71TMC2     O 1106   3.802   2.064   1.670 -0.1973  0.7614  0.0559
   71TMC2     H 1107   3.845   2.227   1.832  0.1617 -0.4582 -0.0525
   71TMC2    H1 1108   3.437   2.152   1.749 -0.6837 -1.2833  0.6157
   71TMC2    H2 1109   3.547   2.363   2.115 -1.2860 -1.2864 -0.0658
   71TMC2    C7 1110   3.331   2.301   1.948 -0.0938 -0.6723  0.2684
   71TMC2    C8 1111   3.803   2.354   2.077 -0.3329  0.1552  0.1230
   71TMC2    O1 1112   3.302   2.351   2.061 -0.0415 -0.4797  0.2018
   71TMC2    O2 1113   3.765   2.422   2.172 -0.1281  0.4130 -0.5852
   71TMC2    O5 1114   3.892   2.252   2.089  0.4877  0.2409 -0.1764
   71TMC2    H5 1115   3.861   2.183   2.027  1.4407  0.8022 -1.2724
   72MPD2     C 1116   3.622   1.933   1.196 -0.3223  0.2502  0.5778
   72MPD2    C1 1117   3.729   1.913   1.286  0.7366  0.6473 -0.1172
   72MPD2    C2 1118   3.714   1.973   1.409  0.1015 -0.1411 -0.1568
   72MPD2    C3 1119   3.607   2.046   1.451  0.3320 -0.4283 -0.3542
   72MPD2    C4 1120   3.508   2.069   1.356  0.3111 -0.2770  0.4573
   72MPD2    C5 1121   3.524   2.017   1.230  0.1651 -0.1234 -1.2714
   72MPD2     H 1122   3.787   1.947   1.486  1.3126 -0.1633 -1.3227
   72MPD2    H1 1123   3.418   2.124   1.382  1.2833  0.4319  2.3011
   72MPD2    H2 1124   3.626   1.898   1.094  3.0392 -1.0068  1.1408
   72MPD2    H3 1125   3.446   2.036   1.158  0.9061  2.1081 -1.5066
   72MPD2     N 1126   3.594   2.104   1.576 -0.2367 -0.4280  0.1090
   72MPD2    H5 1127   3.508   2.157   1.584 -0.1782 -0.5299  1.4202
   72MPD2    N1 1128   3.846   1.838   1.248  0.3587  0.4448  0.2727
   72MPD2    H7 1129   3.923   1.828   1.313 -0.4185 -3.5897  0.5603
   73TMC2    C1 1130   3.539   3.903  14.200 -0.1211  0.1805  0.2897
   73TMC2    C2 1131   3.516   3.811  14.097  0.0005  0.4733 -1.1143
   73TMC2    C3 1132   3.554   3.682  14.108 -0.7147  0.1900  0.2779
   73TMC2    C4 1133   3.607   3.849  14.309 -0.3584 -0.4151 -0.4204
   73TMC2    C5 1134   3.646   3.717  14.315 -0.7659 -0.8640 -0.3472
   73TMC2    C6 1135   3.606   3.623  14.222  0.0655  0.0238 -0.0524
   73TMC2     C 1136   3.616   4.012  14.154  0.5879 -0.1859  0.0141
   73TMC2     O 1137   3.716   4.019  14.222  0.1285  0.3745  0.7137
   73TMC2     H 1138   3.489   3.854  14.001 -1.1624  1.8688 -0.1703
   73TMC2    H1 1139   3.638   3.915  14.389  0.7087 -2.4837  0.8844
   73TMC2    H2 1140   3.634   3.519  14.227 -2.6027 -0.6193  1.5382
   73TMC2    C7 1141   3.770   3.681  14.371 -0.1414 -0.4423  0.3323
   73TMC2    C8 1142   3.542   3.614  13.983  0.2943  0.0623 -0.7769
   73TMC2    O1 1143   3.797   3.564  14.399  0.2997 -0.0349  0.3670
   73TMC2    O2 1144   3.545   3.670  13.873 -0.0663  0.3693 -0.9870
   73TMC2    O5 1145   3.523   3.483  14.003 -0.0730 -0.6860 -0.3743
   73TMC2    H5 1146   3.499   3.470  14.097  1.0229  1.0466  0.1443
   74MPD2     C 1147   3.791   4.356  13.812 -0.0591  0.0671 -0.2851
   74MPD2    C1 1148   3.857   4.301  13.921  0.6193  0.2724  0.1915
   74MPD2    C2 1149   3.784   4.208  13.997  0.4370  0.1434  0.1693
   74MPD2    C3 1150   3.652   4.166  13.964  0.0927  0.0640 -0.0899
   74MPD2    C4 1151   3.586   4.224  13.854  0.0877 -0.3477 -0.2226
   74MPD2    C5 1152   3.662   4.316  13.775  0.2959 -0.2928  0.1795
   74MPD2     H 1153   3.834   4.164  14.082 -1.2715 -0.2948  0.9586
   74MPD2    H1 1154   3.487   4.189  13.829 -0.6698  0.7027  1.3117
   74MPD2    H2 1155   3.836   4.426  13.743  1.3624 -1.2839 -0.7257
   74MPD2    H3 1156   3.601   4.367  13.702  2.9087  0.5786 -1.3956
   74MPD2     N 1157   3.586   4.074  14.036 -0.1503 -0.2090  0.0648
   74MPD2    H5 1158   3.494   4.056  13.996  0.2257 -2.1058  0.0728
   74MPD2    N1 1159   3.995   4.341  13.948 -0.4419  0.0350  0.5123
   74MPD2    H7 1160   4.034   4.410  13.884  0.9165  0.0152  1.3051
   75TMC2    C1 1161   4.081   0.177  14.303  0.3176  0.2272  0.1992
   75TMC2    C2 1162   4.010   0.168  14.414  0.4127 -0.1397  0.3399
   75TMC2    C3 1163   3.874   0.190  14.403 -0.2330  0.4959 -0.0414
   75TMC2    C4 1164   4.021   0.206  14.182 -0.1579 -0.4462 -0.1881
   75TMC2    C5 1165   3.890   0.221  14.185  0.1618 -0.5588 -0.4209
   75TMC2    C6 1166   3.807   0.218  14.290 -0.1527 -0.1573  0.3840
   75TMC2     C 1167   4.226   0.156  14.328 -0.1277  0.5868 -0.1132
   75TMC2     O 1168   4.269   0.167  14.442 -0.1981 -0.4258 -0.6632
   75TMC2     H 1169   4.057   0.158  14.511 -0.2839 -0.5667  0.6289
   75TMC2    H1 1170   4.077   0.213  14.089 -2.1751 -0.1306 -1.3643
   75TMC2    H2 1171   3.699   0.224  14.283 -0.0137  0.3617 -1.2482
   75TMC2    C7 1172   3.831   0.259  14.064  0.0090 -0.1381  0.0157
   75TMC2    C8 1173   3.780   0.144  14.511 -0.0174 -0.3293 -0.1072
   75TMC2    O1 1174   3.892   0.231  13.962 -0.3590  0.1065 -0.7578
   75TMC2    O2 1175   3.710   0.050  14.486  0.0153  0.0016  0.9762
   75TMC2    O5 1176   3.829   0.176  14.631 -0.0549  0.8737 -0.6335
   75TMC2    H5 1177   3.876   0.262  14.635  2.0632 -0.1982 -2.2870
   76TMC2    C1 1178   3.571   0.784  12.208 -0.1815 -0.0808  1.1363
   76TMC2    C2 1179   3.589   0.686  12.120 -0.5412 -0.2346  0.2979
   76TMC2    C3 1180   3.631   0.566  12.175 -0.1903  0.5437 -0.3783
   76TMC2    C4 1181   3.600   0.777  12.337  0.6506 -0.3889  0.2761
   76TMC2    C5 1182   3.653   0.653  12.385  0.1649 -0.3213 -0.0421
   76TMC2    C6 1183   3.671   0.548  12.302 -0.3658  0.3600 -0.2388
   76TMC2     C 1184   3.506   0.905  12.154  0.3407  0.0406  0.3226
   76TMC2     O 1185   3.438   0.972  12.228  0.0914  0.1236 -0.5669
   76TMC2     H 1186   3.549   0.694  12.020 -1.5636 -1.6438  0.5920
   76TMC2    H1 1187   3.570   0.855  12.406 -0.4024 -1.3230  0.8837
   76TMC2    H2 1188   3.710   0.450  12.325 -0.5685  0.2741 -0.2669
   76TMC2    C7 1189   3.665   0.611  12.519  0.6695 -0.6841 -0.4095
   76TMC2    C8 1190   3.656   0.452  12.086 -0.1520 -0.1210  0.3214
   76TMC2    O1 1191   3.628   0.497  12.549 -0.0863  0.0115  0.3361
   76TMC2    O2 1192   3.626   0.339  12.120  0.2517 -0.5846  0.1264
   76TMC2    O5 1193   3.755   0.498  12.004  0.0827 -0.1591 -0.2875
   76TMC2    H5 1194   3.751   0.596  12.013 -1.5540 -0.2496  0.0198
   77MPD2     C 1195   3.380   1.214  11.766 -0.2876  0.6926 -0.0294
   77MPD2    C1 1196   3.313   1.181  11.880  0.7165 -0.3180 -0.7976
   77MPD2    C2 1197   3.360   1.090  11.973 -0.2560  0.2181  0.1810
   77MPD2    C3 1198   3.478   1.027  11.940  0.0025  0.2524  0.4703
   77MPD2    C4 1199   3.552   1.059  11.827  0.5642 -0.2151 -0.0281
   77MPD2    C5 1200   3.501   1.158  11.745  0.0384  0.0579 -0.0726
   77MPD2     H 1201   3.302   1.075  12.064  0.2439  0.7462  0.5903
   77MPD2    H1 1202   3.653   1.027  11.807  0.1002 -2.4133  1.0670
   77MPD2    H2 1203   3.339   1.278  11.689  0.6108  0.6978 -0.5031
   77MPD2    H3 1204   3.565   1.191  11.665  0.3150 -0.6266 -0.1325
   77MPD2     N 1205   3.538   0.925  12.020  0.0109 -0.6175 -0.2004
   77MPD2    H5 1206   3.613   0.877  11.973  1.1449 -1.0494  2.0325
   77MPD2    N1 1207   3.193   1.242  11.924  0.3637  0.5285  0.6106
   77MPD2    H7 1208   3.153   1.215  12.013  1.1250 -1.1148  0.4485
   78TMC2    C1 1209   4.230   1.904   1.526 -0.7355  0.4676 -0.4335
   78TMC2    C2 1210   4.157   1.997   1.595  0.6130 -0.4208 -0.0687
   78TMC2    C3 1211   4.223   2.080   1.680  0.3015 -0.2024  0.1671
   78TMC2    C4 1212   4.370   1.893   1.536  0.2248 -0.7255 -0.2545
   78TMC2    C5 1213   4.431   1.994   1.607 -0.8405 -0.2274 -0.1831
   78TMC2    C6 1214   4.357   2.093   1.674 -0.1928  0.0713  0.2360
   78TMC2     C 1215   4.158   1.796   1.466  0.0813 -0.3600  0.3963
   78TMC2     O 1216   4.037   1.809   1.460 -0.1364  0.2137  0.0959
   78TMC2     H 1217   4.049   1.991   1.603  0.4338  0.1155 -2.0610
   78TMC2    H1 1218   4.426   1.818   1.482  1.4321  0.0579 -0.0736
   78TMC2    H2 1219   4.404   2.164   1.741 -2.9114  2.7723 -0.7239
   78TMC2    C7 1220   4.573   1.966   1.635  0.9005  0.0450  0.1835
   78TMC2    C8 1221   4.140   2.177   1.758  0.3607  0.4508  0.3694
   78TMC2    O1 1222   4.630   1.911   1.542  0.1937  0.2884 -0.8142
   78TMC2    O2 1223   4.193   2.282   1.787 -0.5052  0.0384 -0.1089
   78TMC2    O5 1224   4.044   2.114   1.827 -0.1714  0.2246  0.0174
   78TMC2    H5 1225   4.025   2.020   1.807  1.8994 -0.3531  0.7316
   79MPD1     C 1226   4.145   1.319   1.258  1.0777 -0.2119  1.2396
   79MPD1    C1 1227   4.042   1.399   1.298 -0.1976 -0.5931 -0.4419
   79MPD1    C2 1228   4.071   1.514   1.366  0.0457  0.1811 -0.2911
   79MPD1    C3 1229   4.200   1.557   1.387 -0.4354 -0.3150  0.0476
   79MPD1    C4 1230   4.302   1.471   1.348 -0.1994 -0.4686 -0.2837
   79MPD1    C5 1231   4.275   1.355   1.293  0.1870 -0.2476  0.3730
   79MPD1     H 1232   3.986   1.566   1.409  1.6216  1.3430  1.4037
   79MPD1    H1 1233   4.405   1.500   1.363  0.1897 -1.2412 -1.4877
   79MPD1    H2 1234   4.131   1.216   1.227  0.3718  0.4597 -0.7048
   79MPD1    H3 1235   4.343   1.280   1.254  1.1319  1.0100 -0.3934
   79MPD1     N 1236   4.235   1.685   1.429 -0.2026 -0.3638  0.7499
   79MPD1    H5 1237   4.334   1.706   1.436  0.2142 -2.1033  0.1773
   79MPD1    N1 1238   3.909   1.355   1.296  0.2566 -0.6870  0.3772
   79MPD1    H6 1239   3.892   1.292   1.217  1.6448 -1.5126  0.7490
   79MPD1    H7 1240   3.842   1.431   1.306 -0.7184 -1.4477 -0.3146
   80TMC2    C1 1241   2.074   0.696  12.280  0.6001  0.5434  0.7984
   80TMC2    C2 1242   2.167   0.687  12.181  0.5389 -0.0681  0.0225
   80TMC2    C3 1243   2.133   0.613  12.074 -0.3626 -0.4596 -0.1386
   80TMC2    C4 1244   1.950   0.637  12.277 -0.4838  0.9342  0.0662
   80TMC2    C5 1245   1.918   0.572  12.168  0.3489 -0.8724 -0.3250
   80TMC2    C6 1246   2.011   0.550  12.071 -0.2690  0.4710  0.4932
   80TMC2     C 1247   2.113   0.739  12.414  0.1109 -0.3191  0.7657
   80TMC2     O 1248   2.232   0.734  12.443  0.0839  0.0468  0.0770
   80TMC2     H 1249   2.262   0.740  12.174  0.5012 -0.0281 -0.2008
   80TMC2    H1 1250   1.875   0.656  12.353  0.3321  0.2202  1.0578
   80TMC2    H2 1251   1.981   0.495  11.983  1.6239  0.0769  0.0966
   80TMC2    C7 1252   1.792   0.502  12.158 -0.0577  0.3784  0.6513
   80TMC2    C8 1253   2.208   0.608  11.948 -0.0394  0.2553 -0.1225
   80TMC2    O1 1254   1.765   0.469  12.045  0.1372  0.1976  0.0789
   80TMC2    O2 1255   2.143   0.589  11.848 -0.4180  0.3222  0.4316
   80TMC2    O5 1256   2.339   0.648  11.950  0.4350  0.2660  0.6794
   80TMC2    H5 1257   2.379   0.660  12.039  0.9399  3.3352  0.0506
   81MPD2     C 1258   2.126   0.798  12.705  0.2909  0.0927  0.1105
   81MPD2    C1 1259   2.025   0.837  12.620  0.6987  0.2576  0.7032
   81MPD2    C2 1260   1.920   0.914  12.663  0.1022 -0.6616  0.3827
   81MPD2    C3 1261   1.911   0.946  12.795 -0.8971 -0.2587  0.8427
   81MPD2    C4 1262   2.000   0.896  12.883 -0.0907  0.4835  0.4217
   81MPD2    C5 1263   2.107   0.821  12.839  0.2650  0.0817  0.3876
   81MPD2     H 1264   1.843   0.941  12.592  0.6312  1.7481  0.7349
   81MPD2    H1 1265   1.988   0.916  12.988  0.1312 -5.2627  1.5318
   81MPD2    H2 1266   2.213   0.745  12.668 -0.3122 -0.1668 -0.9414
   81MPD2    H3 1267   2.169   0.763  12.906  1.5955  1.2372  0.1474
   81MPD2     N 1268   1.814   1.021  12.848 -0.1781  0.1796 -0.2474
   81MPD2    H5 1269   1.822   1.030  12.949 -1.4412  0.3811 -0.1693
   81MPD2    N1 1270   2.019   0.798  12.484  0.1512  0.0483 -0.1724
   81MPD2    H7 1271   1.928   0.809  12.440 -0.0191  1.2568  0.4914
   82TMC2    C1 1272   0.101   4.364  11.497  0.3526  0.5323 -0.1718
   82TMC2    C2 1273   0.236   4.356  11.510  0.0416 -0.5429 -0.2210
   82TMC2    C3 1274   0.272   4.263  11.596 -0.2230  0.2063  0.1330
   82TMC2    C4 1275   0.010   4.275  11.542 -0.2080 -0.0560  0.0808
   82TMC2    C5 1276   0.060   4.174  11.617 -0.0082 -0.1589 -0.2968
   82TMC2    C6 1277   0.195   4.161  11.643 -0.2013  0.1000  0.3568
   82TMC2     C 1278   0.042   4.479  11.434  0.2456 -0.2515  0.1884
   82TMC2     O 1279   4.669   4.463  11.387  0.0387 -0.4251  0.8256
   82TMC2     H 1280   0.311   4.427  11.475  0.1551  0.5788  2.2638
   82TMC2    H1 1281   4.642   4.297  11.524 -0.2319  0.3624  0.7362
   82TMC2    H2 1282   0.233   4.087  11.711 -0.0480  0.1194  0.2924
   82TMC2    C7 1283   4.710   4.080  11.687  0.6592  0.2171  1.1010
   82TMC2    C8 1284   0.409   4.267  11.648 -0.5745 -0.5013  0.2642
   82TMC2    O1 1285   0.009   3.997  11.771 -0.5715  0.2999 -0.0317
   82TMC2    O2 1286   0.507   4.300  11.580 -0.0294 -0.0607 -0.1782
   82TMC2    O5 1287   0.408   4.229  11.778 -0.5985  0.1692  0.1802
   82TMC2    H5 1288   0.317   4.214  11.811  0.2822 -3.7166  0.8776
   83MPD2     C 1289   0.038   0.243  11.313  0.4908  0.4765 -0.1424
   83MPD2    C1 1290   4.697   0.138  11.273 -0.0924  0.7914 -0.0330
   83MPD2    C2 1291   4.720   0.012  11.318  0.3751  0.6716 -0.2061
   83MPD2    C3 1292   0.088   4.725  11.409 -0.7226 -0.2677  0.3228
   83MPD2    C4 1293   0.173   0.093  11.455  0.1675 -0.6393 -0.9322
   83MPD2    C5 1294   0.144   0.216  11.403 -0.1764 -0.1202  0.3627
   83MPD2     H 1295   4.655   4.670  11.282  1.3443 -0.9606  1.5851
   83MPD2    H1 1296   0.251   0.072  11.527 -0.1025 -1.1388 -0.7860
   83MPD2    H2 1297   0.027   0.349  11.289 -1.8967  0.6210  1.5349
   83MPD2    H3 1298   0.202   0.300  11.439  1.4324 -1.2732  0.4768
   83MPD2     N 1299   0.114   4.598  11.459 -0.6424  0.0628  0.3793
   83MPD2    H5 1300   0.192   4.594  11.524 -1.9919 -2.7706  1.8292
   83MPD2    N1 1301   4.589   0.171  11.191  0.6760 -0.3319 -0.5893
   83MPD2    H7 1302   4.590   0.266  11.155 -0.3229 -1.2208 -2.9377
   84TMC2    C1 1303   0.896   3.900  10.842  0.5715  0.6388 -0.7413
   84TMC2    C2 1304   0.798   3.822  10.797  0.0796 -0.0434 -0.7752
   84TMC2    C3 1305   0.740   3.852  10.679 -0.0055 -0.4958  0.1341
   84TMC2    C4 1306   0.934   4.012  10.768  0.9580  0.4480 -0.0314
   84TMC2    C5 1307   0.869   4.050  10.650 -0.0015 -0.0095  0.1991
   84TMC2    C6 1308   0.784   3.955  10.598 -0.4905  0.3798  0.0261
   84TMC2     C 1309   0.923   3.904  10.987 -0.0683 -0.6359 -0.6196
   84TMC2     O 1310   0.959   4.009  11.032  0.1856  0.1920 -0.2399
   84TMC2     H 1311   0.757   3.748  10.865  2.0710 -0.8615 -0.4658
   84TMC2    H1 1312   1.020   4.072  10.796  0.1660  2.2274 -1.3916
   84TMC2    H2 1313   0.744   3.979  10.500 -1.1746  0.3303  0.2951
   84TMC2    C7 1314   0.928   4.129  10.551  0.7341  0.0509  0.6406
   84TMC2    C8 1315   0.618   3.792  10.633  0.2299 -0.7575 -0.2756
   84TMC2    O1 1316   0.925   4.092  10.434  0.3278  0.3782 -0.5889
   84TMC2    O2 1317   0.566   3.830  10.526 -0.6788  0.0709  0.4335
   84TMC2    O5 1318   0.613   3.666  10.683 -0.0172 -0.0822 -0.6028
   84TMC2    H5 1319   0.690   3.650  10.741 -0.1997 -2.1071 -0.9027
   85TMC2    C1 1320   2.270   2.053  16.283  0.7614  0.2596  0.3242
   85TMC2    C2 1321   2.332   2.156  16.344  0.0927  0.5455 -0.3558
   85TMC2    C3 1322   2.319   2.280  16.288 -0.5710 -0.2555  0.1908
   85TMC2    C4 1323   2.200   2.067  16.168 -0.0223 -0.0771 -0.0100
   85TMC2    C5 1324   2.200   2.191  16.109  0.0921  0.1941 -0.0332
   85TMC2    C6 1325   2.262   2.303  16.169  0.2510  0.0779 -0.9994
   85TMC2     C 1326   2.267   1.927  16.357 -0.0601 -0.2308  0.6711
   85TMC2     O 1327   2.349   1.918  16.448 -0.0074  0.8750 -0.4217
   85TMC2     H 1328   2.383   2.140  16.438 -0.8392  0.7624  0.1927
   85TMC2    H1 1329   2.149   1.984  16.120 -0.2542 -0.9740  1.7742
   85TMC2    H2 1330   2.252   2.404  16.129  3.0718  0.8224  0.2222
   85TMC2    C7 1331   2.147   2.195  15.970  0.0035 -0.2262 -0.3575
   85TMC2    C8 1332   2.419   2.369  16.350 -0.0398  0.2713  0.2381
   85TMC2    O1 1333   2.137   2.087  15.919  0.1111 -0.7841 -0.2431
   85TMC2    O2 1334   2.466   2.337  16.456  0.1466  0.2922 -0.0586
   85TMC2    O5 1335   2.455   2.465  16.266  0.1048  0.8392 -0.0713
   85TMC2    H5 1336   2.421   2.481  16.176  0.7185  1.9547 -0.0983
   86MPD2     C 1337   2.047   1.473  16.475 -0.3363 -0.5597 -0.5185
   86MPD2    C1 1338   1.959   1.549  16.399 -0.0657  0.1372  0.2923
   86MPD2    C2 1339   1.994   1.675  16.360  0.4628  0.1896 -0.0778
   86MPD2    C3 1340   2.121   1.723  16.380 -0.3215 -0.1187 -0.0365
   86MPD2    C4 1341   2.203   1.656  16.461 -0.1010 -0.4852 -0.2491
   86MPD2    C5 1342   2.160   1.534  16.512  0.2924  0.1519 -0.5923
   86MPD2     H 1343   1.927   1.731  16.295 -0.2523  0.5491  0.9711
   86MPD2    H1 1344   2.308   1.680  16.473  0.1898 -1.8325 -0.0648
   86MPD2    H2 1345   2.023   1.377  16.518 -1.3513 -0.4158 -0.7691
   86MPD2    H3 1346   2.218   1.471  16.579  0.6515 -1.3250 -2.2789
   86MPD2     N 1347   2.157   1.847  16.324  0.3269 -0.2507  0.3863
   86MPD2    H5 1348   2.085   1.889  16.267  0.9240  1.2409  0.7222
   86MPD2    N1 1349   1.841   1.486  16.357  0.2733 -0.2113 -0.3091
   86MPD2    H7 1350   1.789   1.521  16.277  1.4798 -0.5008 -1.2359
   87TMC2    C1 1351   4.281   4.466   1.338  0.4735  0.5878 -0.0983
   87TMC2    C2 1352   4.262   4.327   1.343 -1.1577  0.5619  0.4942
   87TMC2    C3 1353   4.160   4.283   1.422 -0.7171  0.1085 -0.4158
   87TMC2    C4 1354   4.194   4.553   1.385  0.3946 -0.3795 -0.6406
   87TMC2    C5 1355   4.087   4.508   1.456 -0.2733  0.1707  0.0529
   87TMC2    C6 1356   4.069   4.371   1.472 -0.2072  0.6260 -0.6346
   87TMC2     C 1357   4.423   4.506   1.318  0.3140  0.3679  0.4418
   87TMC2     O 1358   4.500   4.432   1.255  0.0720 -0.2531  0.0938
   87TMC2     H 1359   4.340   4.258   1.313  0.7500  2.4403  1.1526
   87TMC2    H1 1360   4.211   4.659   1.370  1.6477 -0.3101  1.1735
   87TMC2    H2 1361   3.973   4.330   1.504 -0.7496  1.7149 -0.8519
   87TMC2    C7 1362   3.967   4.587   1.434  0.4447 -0.8089 -0.1448
   87TMC2    C8 1363   4.139   4.144   1.439 -0.6529  0.3076 -0.2062
   87TMC2    O1 1364   3.966   4.655   1.330 -0.2870  0.2377  0.8498
   87TMC2    O2 1365   4.076   4.105   1.536 -0.0603  0.0963  0.0976
   87TMC2    O5 1366   4.157   4.068   1.329 -0.0518 -0.2498  0.3331
   87TMC2    H5 1367   4.190   4.123   1.255 -0.6069 -1.2516 -0.6628
   88MPD2     C 1368   3.667   4.612   1.651 -0.6596 -0.1891  0.1225
   88MPD2    C1 1369   3.748   4.643   1.544 -0.0965  0.5338  0.1859
   88MPD2    C2 1370   3.700   0.005   1.456  0.1317  0.6068  0.4562
   88MPD2    C3 1371   3.579   0.067   1.468 -0.0654 -0.3959 -0.1383
   88MPD2    C4 1372   3.500   0.031   1.576  0.0313  0.9117  0.0798
   88MPD2    C5 1373   3.540   4.669   1.663 -0.0090  0.2541  0.4280
   88MPD2     H 1374   3.766   0.032   1.374 -1.1351  1.6645 -0.2187
   88MPD2    H1 1375   3.397   0.063   1.574 -0.6602 -1.1108  1.8236
   88MPD2    H2 1376   3.703   4.549   1.732  0.4126 -0.9297 -0.9350
   88MPD2    H3 1377   3.470   4.641   1.741 -1.5120 -1.8424 -1.6762
   88MPD2     N 1378   3.542   0.165   1.377  0.1906  0.1675  0.0839
   88MPD2    H5 1379   3.450   0.203   1.391 -0.1663 -1.8934  3.2382
   88MPD2    N1 1380   3.872   4.567   1.530 -0.0281  0.3213  0.3177
   88MPD2    H7 1381   3.896   4.490   1.591  1.7423  1.1860  0.7270
   89TMC2    C1 1382   0.712   3.815   1.583  0.1794  0.0155  0.4169
   89TMC2    C2 1383   0.614   3.857   1.671  0.0834  0.3415  0.5663
   89TMC2    C3 1384   0.628   3.979   1.726 -0.4247 -0.2586 -0.2459
   89TMC2    C4 1385   0.822   3.882   1.565 -0.0363  0.4649 -0.0299
   89TMC2    C5 1386   0.838   4.005   1.631 -0.4707  0.7930  0.6935
   89TMC2    C6 1387   0.737   4.057   1.709  0.2993 -0.6787 -0.4190
   89TMC2     C 1388   0.703   3.698   1.501 -0.2902  0.2542  0.1496
   89TMC2     O 1389   0.784   3.673   1.412  0.3422  0.6325  0.1187
   89TMC2     H 1390   0.516   3.812   1.667  0.0871  0.6773 -2.7799
   89TMC2    H1 1391   0.908   3.828   1.526 -0.4458 -2.9109  3.7052
   89TMC2    H2 1392   0.750   4.135   1.783  0.6197 -2.4130  1.3719
   89TMC2    C7 1393   0.957   4.081   1.631  0.3423  0.0749 -0.1297
   89TMC2    C8 1394   0.553   4.006   1.851  0.2298 -0.1038 -0.3602
   89TMC2    O1 1395   0.979   4.144   1.733  0.4268  0.2982 -0.3015
   89TMC2    O2 1396   0.549   4.118   1.906  0.8298  0.1357 -0.2265
   89TMC2    O5 1397   0.510   3.892   1.906 -0.4572  0.5401  0.1165
   89TMC2    H5 1398   0.521   3.806   1.861 -0.3900  0.4078  0.3856
   90MPD2     C 1399   0.515   3.235   1.341  0.1127  0.2152 -0.2662
   90MPD2    C1 1400   0.467   3.256   1.469 -0.0582  0.1724  0.1224
   90MPD2    C2 1401   0.503   3.377   1.532 -0.2707  0.3981  0.7462
   90MPD2    C3 1402   0.578   3.482   1.475 -0.1531  0.1533 -0.2602
   90MPD2    C4 1403   0.615   3.454   1.341  0.8343 -0.1534 -0.3625
   90MPD2    C5 1404   0.581   3.336   1.274 -0.7739 -0.1086 -0.9550
   90MPD2     H 1405   0.468   3.399   1.632 -2.2116 -1.0320  0.3879
   90MPD2    H1 1406   0.673   3.525   1.282  0.0141  0.0303 -0.9415
   90MPD2    H2 1407   0.504   3.140   1.290 -1.6232  0.9003 -1.1551
   90MPD2    H3 1408   0.615   3.318   1.172 -0.1692 -1.4446 -0.5132
   90MPD2     N 1409   0.615   3.598   1.549  0.1291 -0.2952 -0.4934
   90MPD2    H5 1410   0.576   3.601   1.643  0.2089  2.3375 -0.5611
   90MPD2    N1 1411   0.398   3.162   1.544  0.3468  0.1124  0.7502
   90MPD2    H7 1412   0.370   3.191   1.637  0.7848 -1.9469  1.5343
   91TMC2    C1 1413   1.778   2.563  16.571  0.1671  0.7826  0.1654
   91TMC2    C2 1414   1.833   2.610  16.455  0.1498 -0.0151 -0.8246
   91TMC2    C3 1415   1.752   2.634  16.352  0.4438 -0.2513  0.3305
   91TMC2    C4 1416   1.641   2.534  16.571 -0.1343 -0.3333 -0.7455
   91TMC2    C5 1417   1.565   2.567  16.462 -0.6116 -0.3126 -0.2755
   91TMC2    C6 1418   1.614   2.631  16.357  0.7501  0.3095  0.2113
   91TMC2     C 1419   1.863   2.527  16.683  0.3605  0.4316 -0.1916
   91TMC2     O 1420   1.808   2.497  16.790  0.0255  0.3783  0.2429
   91TMC2     H 1421   1.936   2.640  16.438 -0.4689  2.6495  0.0131
   91TMC2    H1 1422   1.595   2.497  16.663  0.4523  1.8088  0.4211
   91TMC2    H2 1423   1.549   2.672  16.281 -0.1017  0.5941  1.1085
   91TMC2    C7 1424   1.432   2.514  16.471 -0.3495  0.3877  0.3892
   91TMC2    C8 1425   1.811   2.703  16.241 -0.9189  0.3026  0.4604
   91TMC2    O1 1426   1.411   2.426  16.552  0.0526 -0.1619  0.6210
   91TMC2    O2 1427   1.917   2.764  16.244 -0.1947  0.1385  0.1094
   91TMC2    O5 1428   1.785   2.625  16.135  0.2977 -0.4623 -0.4776
   91TMC2    H5 1429   1.704   2.571  16.144  1.1079 -1.6460 -0.1912
   92MPD2     C 1430   2.081   2.508  16.900 -0.0262 -0.2677 -0.6913
   92MPD2    C1 1431   2.103   2.522  16.765 -0.4104 -0.2860  0.1083
   92MPD2    C2 1432   2.229   2.512  16.717 -0.3139  0.2507 -0.4240
   92MPD2    C3 1433   2.338   2.494  16.799 -0.2793  0.3605 -0.5473
   92MPD2    C4 1434   2.316   2.492  16.929 -0.1014 -0.1705 -0.3474
   92MPD2    C5 1435   2.191   2.499  16.980  0.1185  0.4048  0.4107
   92MPD2     H 1436   2.240   2.512  16.609  1.0301  0.0123 -0.2978
   92MPD2    H1 1437   2.395   2.467  16.999  0.6240  2.9137 -0.0725
   92MPD2    H2 1438   1.982   2.512  16.943 -0.3688 -2.4232 -1.2677
   92MPD2    H3 1439   2.176   2.487  17.087 -0.2569  0.6809  0.3900
   92MPD2     N 1440   2.464   2.486  16.736 -0.1674 -0.8167 -0.1669
   92MPD2    H5 1441   2.458   2.496  16.635  1.2522  0.3741 -0.1281
   92MPD2    N1 1442   1.999   2.538  16.664 -0.3544  0.4093 -0.4534
   92MPD2    H7 1443   2.031   2.541  16.567  1.3938  1.1069  0.1358
   93TMC2    C1 1444   3.949   3.165  14.853  0.9258 -0.1595 -0.3621
   93TMC2    C2 1445   3.952   3.108  14.976  0.5143 -0.0393  0.4067
   93TMC2    C3 1446   4.077   3.108  15.032 -0.1766  0.5926 -0.6386
   93TMC2    C4 1447   4.055   3.202  14.781  0.3194 -0.4472 -0.9266
   93TMC2    C5 1448   4.184   3.194  14.837  0.4707 -0.4602 -0.3874
   93TMC2    C6 1449   4.193   3.147  14.973 -0.1081 -0.6661  0.5149
   93TMC2     C 1450   3.848   3.102  14.765 -0.9774  0.1873 -0.3724
   93TMC2     O 1451   3.731   3.086  14.808  0.1848 -0.5586 -0.0431
   93TMC2     H 1452   3.859   3.074  15.020 -0.8891  1.9030 -1.0582
   93TMC2    H1 1453   4.048   3.248  14.683 -0.1836 -1.1960 -1.2384
   93TMC2    H2 1454   4.290   3.138  15.021 -0.2227  1.8635  1.1822
   93TMC2    C7 1455   4.299   3.226  14.758  0.0910  0.2547 -0.1807
   93TMC2    C8 1456   4.089   3.024  15.150 -0.8020 -0.3083 -0.5178
   93TMC2    O1 1457   4.408   3.195  14.806 -0.3326  0.3089  0.2540
   93TMC2    O2 1458   4.154   3.062  15.246 -0.4227 -0.7573  0.6392
   93TMC2    O5 1459   4.018   2.914  15.136  0.6871  0.3639 -0.1028
   93TMC2    H5 1460   3.992   2.896  15.043  1.2093  2.0257 -0.5660
   94MPD2     C 1461   3.905   2.961  14.427 -0.0973 -0.1702  0.2939
   94MPD2    C1 1462   3.836   3.001  14.539 -0.9187  0.2569 -0.1026
   94MPD2    C2 1463   3.700   2.988  14.538 -0.8937 -0.2837  0.0277
   94MPD2    C3 1464   3.634   2.931  14.431 -0.5104  0.0671  0.5288
   94MPD2    C4 1465   3.708   2.898  14.317 -0.8658  1.1573  0.5191
   94MPD2    C5 1466   3.847   2.916  14.316 -0.0045 -0.5394 -0.4082
   94MPD2     H 1467   3.639   3.010  14.624 -1.5859  0.4142 -0.6325
   94MPD2    H1 1468   3.664   2.862  14.225 -1.9537  0.2933  1.3767
   94MPD2    H2 1469   4.013   2.960  14.424 -0.1289  0.5769 -0.8108
   94MPD2    H3 1470   3.914   2.883  14.237  0.5161  2.5829 -1.2564
   94MPD2     N 1471   3.496   2.924  14.416  0.1307  0.1447 -0.2890
   94MPD2    H5 1472   3.472   2.888  14.324  0.1644  0.8491 -0.5681
   94MPD2    N1 1473   3.904   3.059  14.649  0.5025  0.1154 -0.8751
   94MPD2    H7 1474   4.005   3.071  14.640  0.2957  1.0696 -1.8294
   95TMC2    C1 1475   3.839   0.059  16.558  0.2091  0.7233 -0.2824
   95TMC2    C2 1476   3.753   0.009  16.650  0.0873  0.2381  0.2908
   95TMC2    C3 1477   3.697   0.094  16.737  0.2473  0.2257 -0.2863
   95TMC2    C4 1478   3.883   0.191  16.551  0.4000 -0.2912  0.2090
   95TMC2    C5 1479   3.837   0.271  16.658  0.2890 -0.1962  0.6776
   95TMC2    C6 1480   3.744   0.222  16.740  0.2821 -0.6113 -0.6910
   95TMC2     C 1481   3.867   4.694  16.452 -0.0058 -0.0386 -0.1520
   95TMC2     O 1482   3.809   4.588  16.465  0.8705  0.2184 -0.0950
   95TMC2     H 1483   3.730   4.640  16.652 -0.9052  0.4162 -1.3613
   95TMC2    H1 1484   3.951   0.227  16.474 -0.6575  0.8503 -0.1934
   95TMC2    H2 1485   3.684   0.290  16.801  2.4566  0.0109  0.7431
   95TMC2    C7 1486   3.846   0.418  16.656 -0.6070  0.7102  0.0304
   95TMC2    C8 1487   3.615   0.047  16.847  0.4254  0.1699  0.3342
   95TMC2    O1 1488   3.767   0.489  16.715  0.2940 -0.3581 -0.5236
   95TMC2    O2 1489   3.586   0.121  16.941  0.0840  0.0901 -0.1825
   95TMC2    O5 1490   3.542   4.678  16.815 -0.0712 -0.0106  0.0027
   95TMC2    H5 1491   3.576   4.639  16.731  1.1271  0.5050  0.2422
   96MPD2     C 1492   4.047   4.605  15.975 -1.1816 -0.1695 -0.0730
   96MPD2    C1 1493   4.100   4.726  16.018  0.1372  0.3883  0.3331
   96MPD2    C2 1494   4.075   0.022  16.152  0.1503  0.4276 -0.4453
   96MPD2    C3 1495   3.989   4.688  16.235 -0.1841 -0.2471 -0.3057
   96MPD2    C4 1496   3.933   4.572  16.181 -0.4927 -0.8486  0.4104
   96MPD2    C5 1497   3.973   4.531  16.057  0.1516 -0.7574 -0.1209
   96MPD2     H 1498   4.123   0.110  16.194 -0.1234  0.1442  0.4686
   96MPD2    H1 1499   3.859   4.509  16.230 -1.9550 -1.2450 -2.2897
   96MPD2    H2 1500   4.057   4.559  15.878 -1.5031  0.2023 -0.2800
   96MPD2    H3 1501   3.918   4.442  16.032 -0.4679 -0.4568  0.1825
   96MPD2     N 1502   3.960   0.004  16.361 -0.4374 -0.2197  0.6432
   96MPD2    H5 1503   3.993   0.098  16.378  0.8061 -0.3378 -1.0770
   96MPD2    N1 1504   4.180   0.071  15.924  0.0159 -0.0119 -0.0516
   96MPD2    H7 1505   4.196   0.024  15.836  0.3081  1.0182 -0.5504
   97TMC2    C1 1506   1.608   1.640   0.555 -0.3841 -0.2891 -0.2341
   97TMC2    C2 1507   1.542   1.606   0.442 -0.2120  0.1883 -0.0045
   97TMC2    C3 1508   1.529   1.702   0.342 -0.1303 -0.4714 -0.2408
   97TMC2    C4 1509   1.650   1.766   0.577  0.6016 -0.0587 -0.4079
   97TMC2    C5 1510   1.621   1.863   0.485  0.6858  0.5663 -0.3496
   97TMC2    C6 1511   1.564   1.837   0.360  0.4431 -0.0676 -0.0359
   97TMC2     C 1512   1.625   1.544   0.663  0.3578  0.5891 -0.6927
   97TMC2     O 1513   1.606   1.591   0.772  0.0832  0.4043 -0.1305
   97TMC2     H 1514   1.488   1.513   0.433  1.7450 -1.1268  1.7271
   97TMC2    H1 1515   1.685   1.795   0.675 -1.7913 -0.0497  0.4455
   97TMC2    H2 1516   1.581   1.910   0.282  1.6641 -0.9091 -0.5496
   97TMC2    C7 1517   1.658   2.000   0.518 -0.5273  0.3830  0.3327
   97TMC2    C8 1518   1.491   1.661   0.206  0.3463 -0.3617  0.9918
   97TMC2    O1 1519   1.752   2.021   0.592 -0.0497 -0.4048  0.4573
   97TMC2    O2 1520   1.406   1.734   0.149  0.1587 -0.0663  0.3198
   97TMC2    O5 1521   1.525   1.534   0.195  0.3533  0.0005  0.1275
   97TMC2    H5 1522   1.597   1.500   0.253  0.3836 -0.3134 -0.0917
   98MPD2     C 1523   1.571   1.049   0.774 -0.4040  0.9074 -0.2940
   98MPD2    C1 1524   1.582   1.156   0.855 -0.1761 -0.0380  0.6748
   98MPD2    C2 1525   1.597   1.282   0.800  0.1665  0.2647  0.0921
   98MPD2    C3 1526   1.604   1.297   0.661  0.2537  0.3961 -0.1288
   98MPD2    C4 1527   1.601   1.186   0.578 -0.9783 -0.0470  0.1370
   98MPD2    C5 1528   1.582   1.068   0.640 -0.4072 -0.2481  0.3649
   98MPD2     H 1529   1.613   1.370   0.861 -2.3361  1.2247 -0.6119
   98MPD2    H1 1530   1.607   1.197   0.470 -1.9255  1.3240  0.2181
   98MPD2    H2 1531   1.569   0.946   0.807  1.5894  0.5356 -1.3171
   98MPD2    H3 1532   1.582   0.981   0.575  0.3255 -0.0508  0.1035
   98MPD2     N 1533   1.620   1.419   0.603  0.1434 -0.6734 -0.6540
   98MPD2    H5 1534   1.621   1.417   0.501  0.2016 -0.7252 -0.6526
   98MPD2    N1 1535   1.614   1.117   0.989  0.2501  0.1986 -0.3016
   98MPD2    H7 1536   1.621   1.017   1.008 -0.2441  0.3037  0.4438
   99TMC2    C1 1537   0.578   3.832   1.196 -0.3358 -0.1025  0.2385
   99TMC2    C2 1538   0.660   3.944   1.218 -0.5903 -0.2798  0.3897
   99TMC2    C3 1539   0.622   4.039   1.306  0.0273  0.9933 -0.1836
   99TMC2    C4 1540   0.474   3.804   1.279  0.5922 -0.3114  0.7270
   99TMC2    C5 1541   0.448   3.901   1.373 -0.6820  0.3833  0.4418
   99TMC2    C6 1542   0.513   4.025   1.382  0.2805  0.3208  0.4140
   99TMC2     C 1543   0.636   3.744   1.096  0.1355 -0.2155  0.8461
   99TMC2     O 1544   0.756   3.758   1.076 -0.3359  0.5122  0.6557
   99TMC2     H 1545   0.747   3.960   1.155 -1.6206  0.3489 -0.8754
   99TMC2    H1 1546   0.432   3.705   1.279 -1.8132  0.6987  0.0487
   99TMC2    H2 1547   0.495   4.097   1.460  2.6128  1.2377  0.0937
   99TMC2    C7 1548   0.335   3.881   1.465  0.0213 -0.1553 -0.4687
   99TMC2    C8 1549   0.697   4.164   1.328 -0.1813 -0.2075  0.7765
   99TMC2    O1 1550   0.331   3.955   1.565  0.3605  0.5739 -0.3533
   99TMC2    O2 1551   0.818   4.169   1.306  0.0987 -0.0257  0.3191
   99TMC2    O5 1552   0.612   4.260   1.282 -0.3866  0.0875  0.4139
   99TMC2    H5 1553   0.522   4.224   1.266 -0.7895  1.4053 -0.2140
  100MPD2     C 1554   0.695   3.575   0.870 -0.2497  0.6946  0.3690
  100MPD2    C1 1555   0.572   3.569   0.934 -0.0594  0.1246 -0.1931
  100MPD2    C2 1556   0.471   3.490   0.886 -0.3974 -0.0286 -1.1140
  100MPD2    C3 1557   0.491   3.411   0.772 -0.3588 -0.5594 -0.0540
  100MPD2    C4 1558   0.612   3.418   0.704 -0.6912 -0.0657 -0.0442
  100MPD2    C5 1559   0.708   3.501   0.761 -0.1464  0.2447  0.0409
  100MPD2     H 1560   0.376   3.491   0.937 -1.0126  0.5394 -2.2455
  100MPD2    H1 1561   0.645   3.363   0.617 -2.1804 -2.6618  1.0594
  100MPD2    H2 1562   0.778   3.641   0.890  0.1193  0.6586 -1.0163
  100MPD2    H3 1563   0.796   3.524   0.702 -0.3740  1.7875  0.3092
  100MPD2     N 1564   0.382   3.330   0.735  0.1178  0.8034  0.3555
  100MPD2    H5 1565   0.297   3.320   0.790  0.4475 -2.1060  0.3491
  100MPD2    N1 1566   0.547   3.652   1.045 -0.4322  0.2636  0.6547
  100MPD2    H7 1567   0.456   3.648   1.089 -0.0464  0.2831  1.4580
  101TMC2    C1 1568   0.528   1.100  12.719  1.0504  0.4455  0.1248
  101TMC2    C2 1569   0.443   1.201  12.740 -0.0837  0.3597 -0.2558
  101TMC2    C3 1570   0.459   1.322  12.666  1.0965 -0.0466 -0.5239
  101TMC2    C4 1571   0.635   1.125  12.639  0.1816  0.5115 -0.2330
  101TMC2    C5 1572   0.643   1.245  12.574 -0.6655  0.1879 -0.2107
  101TMC2    C6 1573   0.558   1.344  12.577  0.3467  0.8961 -0.6985
  101TMC2     C 1574   0.540   1.017  12.834 -0.1655  0.9707  0.7908
  101TMC2     O 1575   0.439   0.994  12.893  0.1533 -0.3214  0.0997
  101TMC2     H 1576   0.357   1.183  12.804 -1.4478  1.1379 -1.8781
  101TMC2    H1 1577   0.715   1.054  12.622 -0.2185  0.2925 -1.2186
  101TMC2    H2 1578   0.566   1.438  12.523 -1.7237  0.5914 -1.5315
  101TMC2    C7 1579   0.769   1.270  12.501  0.6674 -0.0446 -0.7413
  101TMC2    C8 1580   0.343   1.394  12.621  0.2992 -0.2749  0.0912
  101TMC2    O1 1581   0.875   1.221  12.541  0.3542  0.0574 -0.3322
  101TMC2    O2 1582   0.342   1.441  12.507 -0.1199 -0.1396  0.3155
  101TMC2    O5 1583   0.276   1.434  12.733 -0.0322  0.2718  0.3357
  101TMC2    H5 1584   0.311   1.369  12.797 -1.1778  0.5381  1.2148
  102MPD2     C 1585   0.850   0.851  12.945  0.6880  0.2903 -0.3011
  102MPD2    C1 1586   0.718   0.897  12.955 -0.2071  0.8810 -0.3746
  102MPD2    C2 1587   0.640   0.863  13.066 -0.2858  0.6337  0.2692
  102MPD2    C3 1588   0.695   0.784  13.167 -0.8206 -0.3241  0.5320
  102MPD2    C4 1589   0.831   0.745  13.152 -0.0775 -0.5618 -0.9443
  102MPD2    C5 1590   0.903   0.779  13.041 -0.2782  0.3786 -0.3323
  102MPD2     H 1591   0.537   0.894  13.081 -0.6921 -0.0063 -1.1302
  102MPD2    H1 1592   0.874   0.684  13.230  0.9809 -0.3241 -1.3399
  102MPD2    H2 1593   0.915   0.878  12.862  1.5408  1.8327  0.8516
  102MPD2    H3 1594   1.008   0.755  13.029 -0.5799 -0.2948 -1.6555
  102MPD2     N 1595   0.617   0.744  13.278  0.4052 -0.4483  0.0439
  102MPD2    H5 1596   0.516   0.744  13.261 -0.1884  0.5543  3.7647
  102MPD2    N1 1597   0.672   0.986  12.852 -0.3453  0.1134  0.4388
  102MPD2    H7 1598   0.737   1.040  12.795  0.6482 -0.9537  0.5628
  103TMC2    C1 1599   4.000   1.159  12.996 -0.3105 -1.0783  0.2365
  103TMC2    C2 1600   4.078   1.246  12.924 -0.1705 -0.3907  0.3250
  103TMC2    C3 1601   4.108   1.362  12.989 -0.5076  0.0213  0.1628
  103TMC2    C4 1602   3.977   1.167  13.132  0.2709 -0.1218 -0.1978
  103TMC2    C5 1603   4.008   1.283  13.193  0.7570  0.0580  0.8679
  103TMC2    C6 1604   4.072   1.380  13.122  0.5063 -0.5878 -0.2163
  103TMC2     C 1605   3.957   1.041  12.924 -0.0493  0.1722  0.3353
  103TMC2     O 1606   3.978   1.056  12.804  0.2786 -0.0300 -0.1106
  103TMC2     H 1607   4.078   1.246  12.816 -0.7787  0.7680  0.3228
  103TMC2    H1 1608   3.928   1.088  13.188  0.5484 -0.4736 -0.4569
  103TMC2    H2 1609   4.086   1.482  13.156  0.6822 -0.5233 -0.4790
  103TMC2    C7 1610   3.962   1.310  13.330 -0.5429  0.8751  0.7347
  103TMC2    C8 1611   4.160   1.477  12.911 -0.0624 -0.5932  0.0736
  103TMC2    O1 1612   3.870   1.240  13.356  0.0311 -0.4927 -0.6592
  103TMC2    O2 1613   4.141   1.595  12.952  0.1422 -0.0237  0.4396
  103TMC2    O5 1614   4.205   1.438  12.788  0.2293  0.1456  0.8333
  103TMC2    H5 1615   4.228   1.343  12.782  2.0980  0.7139 -0.9052
  104MPD2     C 1616   3.837   0.706  13.000 -0.3002  0.2801  0.6354
  104MPD2    C1 1617   3.864   0.818  12.922  0.5081 -0.0021 -0.5470
  104MPD2    C2 1618   3.820   0.813  12.790 -0.0735 -0.5061 -0.0875
  104MPD2    C3 1619   3.762   0.700  12.733  0.2223 -0.6093 -0.6791
  104MPD2    C4 1620   3.752   0.588  12.810  0.1345 -0.3035  0.1508
  104MPD2    C5 1621   3.783   0.594  12.943  0.5081 -0.0322  0.3181
  104MPD2     H 1622   3.843   0.890  12.718 -2.4081  0.9510  0.7158
  104MPD2    H1 1623   3.711   0.495  12.772 -2.8440  1.4361 -0.8651
  104MPD2    H2 1624   3.862   0.703  13.105  1.0711 -1.7132  0.2408
  104MPD2    H3 1625   3.780   0.507  13.007 -1.4655  0.8541  1.4265
  104MPD2     N 1626   3.723   0.712  12.598  0.3374  0.2741  0.0551
  104MPD2    H5 1627   3.752   0.796  12.549 -3.4798  2.1000  0.9123
  104MPD2    N1 1628   3.916   0.930  12.988 -0.0742  0.2066 -0.0259
  104MPD2    H7 1629   3.914   0.927  13.090  0.9162 -0.8047 -0.0303
  105TMC2    C1 1630   0.415   4.654   0.890 -0.2974 -0.3071 -1.0520
  105TMC2    C2 1631   0.524   4.736   0.861 -0.4072  0.1514  0.4418
  105TMC2    C3 1632   0.506   0.125   0.915 -0.3526  0.1699  0.1084
  105TMC2    C4 1633   0.306   4.682   0.974  0.0779 -0.0889  0.0566
  105TMC2    C5 1634   0.308   0.066   1.033  0.5172  0.4449 -0.4306
  105TMC2    C6 1635   0.396   0.158   0.990 -0.7844 -0.8698 -0.7176
  105TMC2     C 1636   0.407   4.532   0.815 -0.0240  0.0480 -0.0060
  105TMC2     O 1637   0.387   4.430   0.880  0.0883  0.0446  0.2025
  105TMC2     H 1638   0.612   4.710   0.804  0.8866  0.7873  2.1364
  105TMC2    H1 1639   0.234   4.607   1.002 -0.5731 -0.2019 -1.8889
  105TMC2    H2 1640   0.392   0.255   1.038 -0.6610 -1.8145  1.2129
  105TMC2    C7 1641   0.230   0.101   1.153 -1.0577 -0.7892 -0.0484
  105TMC2    C8 1642   0.555   0.222   0.818  0.0670  0.0624 -0.4558
  105TMC2    O1 1643   0.285   0.170   1.231 -0.2004 -0.0566 -0.0517
  105TMC2    O2 1644   0.584   0.186   0.705  0.4636  0.0738 -0.0303
  105TMC2    O5 1645   0.507   0.341   0.866 -0.1654 -0.1765  0.3585
  105TMC2    H5 1646   0.529   0.345   0.962  2.3259  1.7238 -0.3091
  106MPD2     C 1647   0.478   4.278   0.381 -0.4598  0.1372 -0.0227
  106MPD2    C1 1648   0.524   4.403   0.360 -0.0586 -0.4826  0.4119
  106MPD2    C2 1649   0.522   4.497   0.464  0.5503  0.4867  0.8691
  106MPD2    C3 1650   0.464   4.462   0.588  0.8528 -0.8014 -0.0228
  106MPD2    C4 1651   0.417   4.331   0.608  0.4356  0.7972  0.7139
  106MPD2    C5 1652   0.435   4.238   0.509  0.3387 -0.4142 -0.0232
  106MPD2     H 1653   0.543   4.601   0.442 -1.6764  0.8391  0.4311
  106MPD2    H1 1654   0.359   4.311   0.697 -1.6466 -0.6780 -0.9616
  106MPD2    H2 1655   0.491   4.191   0.317  0.6150  0.6702 -0.5165
  106MPD2    H3 1656   0.426   4.133   0.535 -0.3347  0.0233  1.5064
  106MPD2     N 1657   0.447   4.559   0.686  0.4143  0.0836 -0.9261
  106MPD2    H5 1658   0.450   4.660   0.673 -0.8745  0.2388  0.0064
  106MPD2    N1 1659   0.576   4.446   0.236  0.7746 -0.5372 -0.0749
  106MPD2    H7 1660   0.600   4.544   0.230 -0.1536 -0.4388 -2.2733
  107TMC2    C1 1661   1.040   4.148  11.887  0.1299  0.1756  0.0803
  107TMC2    C2 1662   1.163   4.205  11.849  0.0785  0.1523 -0.0970
  107TMC2    C3 1663   1.238   4.140  11.756  0.0188 -0.1912  0.6565
  107TMC2    C4 1664   0.999   4.030  11.833 -0.0566 -0.4235 -0.4988
  107TMC2    C5 1665   1.066   3.982  11.725  0.8148 -0.2622  0.9968
  107TMC2    C6 1666   1.187   4.037  11.686 -0.0546 -0.2393  0.2481
  107TMC2     C 1667   0.959   4.213  11.985  0.4240  0.4581 -0.3670
  107TMC2     O 1668   0.916   4.136  12.075  0.0162  0.7091  0.3374
  107TMC2     H 1669   1.206   4.290  11.901  1.9004 -1.4436  1.0353
  107TMC2    H1 1670   0.905   3.985  11.865 -0.2137  0.7714  0.6915
  107TMC2    H2 1671   1.227   4.015  11.588  0.1899 -2.1017  0.7548
  107TMC2    C7 1672   0.997   3.886  11.646 -0.1939 -0.6435 -0.2979
  107TMC2    C8 1673   1.351   4.211  11.700 -0.1139  0.5142 -0.4652
  107TMC2    O1 1674   0.911   3.819  11.696  0.4532  0.6006  0.8249
  107TMC2    O2 1675   1.348   4.310  11.633 -0.1662  0.1014 -0.1948
  107TMC2    O5 1676   1.441   4.112  11.694 -0.0720 -0.1062  0.0570
  107TMC2    H5 1677   1.422   4.038  11.755 -1.4406 -0.1680 -0.4417
  108MPD2     C 1678   0.883   4.566  12.030  0.1725  0.3505  0.2142
  108MPD2    C1 1679   0.891   4.435  12.062  1.0359 -0.5512 -0.6055
  108MPD2    C2 1680   0.831   4.388  12.175 -0.0587  0.4206 -0.2825
  108MPD2    C3 1681   0.765   4.472  12.260 -0.3813  0.0498  0.1141
  108MPD2    C4 1682   0.755   4.605  12.228  0.4966  0.4613  0.6937
  108MPD2    C5 1683   0.812   4.651  12.110  0.3797 -0.3302 -0.1509
  108MPD2     H 1684   0.834   4.285  12.208 -1.5152  0.1372 -0.9926
  108MPD2    H1 1685   0.704   4.677  12.290 -0.6073 -0.2700  0.6464
  108MPD2    H2 1686   0.939   4.609  11.947 -1.9403  1.9524 -0.3645
  108MPD2    H3 1687   0.780   0.013  12.080  1.1464 -0.3507 -1.0234
  108MPD2     N 1688   0.697   4.432  12.375 -0.5808  0.2839 -0.2794
  108MPD2    H5 1689   0.652   4.512  12.419  2.9653  1.9103  0.4243
  108MPD2    N1 1690   0.959   4.350  11.975  0.5022 -0.3814  0.1073
  108MPD2    H7 1691   0.996   4.398  11.893 -1.4853 -0.3541 -0.7839
  109TMC2    C1 1692   0.932   1.353   0.640  0.6562 -1.0527 -0.2080
  109TMC2    C2 1693   1.037   1.397   0.566  0.0019 -0.0644  0.6342
  109TMC2    C3 1694   1.145   1.322   0.555 -0.4539  0.4323  0.4487
  109TMC2    C4 1695   0.946   1.251   0.724 -0.3108  0.0462 -0.2149
  109TMC2    C5 1696   1.056   1.172   0.704  0.5047  0.5248  0.5744
  109TMC2    C6 1697   1.152   1.201   0.614  0.0963 -0.2248 -0.4663
  109TMC2     C 1698   0.836   1.455   0.672 -0.4875 -0.0394 -0.1920
  109TMC2     O 1699   0.798   1.505   0.565  0.3807  0.4410 -0.3178
  109TMC2     H 1700   1.020   1.483   0.502 -1.2850  0.4996  1.7550
  109TMC2    H1 1701   0.868   1.216   0.790  0.0572 -0.3506  0.0120
  109TMC2    H2 1702   1.252   1.159   0.614 -1.2148 -3.2918  0.3827
  109TMC2    C7 1703   1.073   1.065   0.791  0.1196  0.4680  0.1861
  109TMC2    C8 1704   1.252   1.349   0.469 -0.1798 -0.6528 -0.6581
  109TMC2    O1 1705   1.015   1.069   0.902  0.0591  0.5289  0.3669
  109TMC2    O2 1706   1.264   1.461   0.421  0.4372 -0.0257  0.3726
  109TMC2    O5 1707   1.271   1.233   0.394 -0.0210 -0.2217 -0.1131
  109TMC2    H5 1708   1.231   1.150   0.427 -0.1770  0.3048  1.0145
  110MPD2     C 1709   0.536   1.751   0.970 -1.0237 -0.3437  0.5227
  110MPD2    C1 1710   0.606   1.665   1.055 -0.1720 -0.0731  0.0623
  110MPD2    C2 1711   0.695   1.581   0.994  0.2556  0.9087 -0.3258
  110MPD2    C3 1712   0.712   1.576   0.858  0.0422 -0.8057  0.2286
  110MPD2    C4 1713   0.638   1.662   0.777 -0.0022  0.0388  0.0530
  110MPD2    C5 1714   0.562   1.754   0.836  0.2963  0.2670 -0.3283
  110MPD2     H 1715   0.742   1.503   1.054 -2.7669 -1.8055 -1.4810
  110MPD2    H1 1716   0.647   1.655   0.669 -1.1691  0.1255 -0.0473
  110MPD2    H2 1717   0.464   1.826   1.001 -2.0935 -0.8429 -0.7619
  110MPD2    H3 1718   0.521   1.830   0.770 -1.3330 -0.0391  0.3299
  110MPD2     N 1719   0.804   1.483   0.805 -0.1517  0.4295  0.0766
  110MPD2    H5 1720   0.853   1.420   0.868  1.5676 -0.2435 -1.9184
  110MPD2    N1 1721   0.576   1.661   1.188 -0.5798  0.9847 -0.1915
  110MPD2    H7 1722   0.512   1.734   1.216  0.4402  1.6157  0.5384
  111TMC2    C1 1723   1.581   1.417  11.344  0.1354  0.6714 -0.2416
  111TMC2    C2 1724   1.643   1.329  11.268 -0.7271  0.2171  0.4623
  111TMC2    C3 1725   1.768   1.299  11.315  0.5039 -0.7949 -0.0889
  111TMC2    C4 1726   1.629   1.471  11.462 -0.5855 -0.9413 -0.4285
  111TMC2    C5 1727   1.747   1.434  11.506  0.0635  0.1089 -0.3264
  111TMC2    C6 1728   1.823   1.351  11.428 -0.4917 -0.0105 -0.2140
  111TMC2     C 1729   1.458   1.473  11.301 -0.0338 -0.3581  0.2168
  111TMC2     O 1730   1.419   1.572  11.364  0.6686 -0.1459  0.1592
  111TMC2     H 1731   1.611   1.286  11.173 -1.1515 -4.5005  2.7372
  111TMC2    H1 1732   1.568   1.534  11.526  0.8830 -1.6453  1.6158
  111TMC2    H2 1733   1.911   1.305  11.472  0.1924  1.2414 -0.2800
  111TMC2    C7 1734   1.764   1.448  11.650  0.6543 -0.1341  0.1175
  111TMC2    C8 1735   1.849   1.199  11.254  0.3607 -0.3940 -0.8868
  111TMC2    O1 1736   1.666   1.463  11.721 -0.3819 -0.0449  0.1451
  111TMC2    O2 1737   1.969   1.210  11.227  0.5192  0.0316 -0.2954
  111TMC2    O5 1738   1.778   1.091  11.221 -0.5568 -0.0846  0.2776
  111TMC2    H5 1739   1.683   1.094  11.247 -0.4596  1.3420  0.4817
  112MPD2     C 1740   1.010   1.411  11.077  0.1907  0.4875  1.0172
  112MPD2    C1 1741   1.074   1.529  11.107  0.2883 -0.0041 -0.3980
  112MPD2    C2 1742   1.201   1.520  11.160  0.3359 -0.2702  0.5425
  112MPD2    C3 1743   1.266   1.403  11.159  0.3344 -0.7982  0.0640
  112MPD2    C4 1744   1.206   1.289  11.120 -0.0988 -0.4763 -0.8621
  112MPD2    C5 1745   1.077   1.291  11.076 -0.1180  0.5626  0.7352
  112MPD2     H 1746   1.253   1.612  11.185 -0.7840  0.3724  0.4922
  112MPD2    H1 1747   1.260   1.195  11.119  2.4606  0.9878  1.2623
  112MPD2    H2 1748   0.904   1.396  11.058  0.6439 -1.7326  0.2698
  112MPD2    H3 1749   1.017   1.203  11.057 -1.2711  1.3815  0.5841
  112MPD2     N 1750   1.397   1.390  11.208 -0.4654  0.0601 -0.3044
  112MPD2    H5 1751   1.429   1.293  11.204  2.4772  1.0336  0.2563
  112MPD2    N1 1752   1.011   1.659  11.095  0.4087 -0.1288 -0.1965
  112MPD2    H7 1753   1.068   1.743  11.095 -0.5274  0.5130 -1.1600
  113TMC2    C1 1754   3.430   3.634   0.614 -0.6887  0.3161 -0.3326
  113TMC2    C2 1755   3.308   3.676   0.663 -0.4341  0.5990  0.0496
  113TMC2    C3 1756   3.227   3.582   0.722 -0.0069 -0.0185  0.0460
  113TMC2    C4 1757   3.461   3.502   0.612 -0.6342 -0.5872 -0.8055
  113TMC2    C5 1758   3.376   3.414   0.691 -0.1074  0.5731 -0.3481
  113TMC2    C6 1759   3.250   3.452   0.730  1.0927 -0.2909 -0.8132
  113TMC2     C 1760   3.533   3.718   0.659  0.2705 -0.8977  0.5156
  113TMC2     O 1761   3.511   3.770   0.765 -0.3179 -0.3298  0.0580
  113TMC2     H 1762   3.276   3.780   0.658 -1.6312  0.2366  0.2009
  113TMC2    H1 1763   3.563   3.468   0.600  0.1413  0.7681  1.8264
  113TMC2    H2 1764   3.179   3.378   0.763 -1.0395  2.5304  0.8922
  113TMC2    C7 1765   3.432   3.285   0.738 -0.3912  0.1384 -0.2490
  113TMC2    C8 1766   3.126   3.636   0.817  0.0050  0.1550  0.0311
  113TMC2    O1 1767   3.537   3.249   0.686  0.6066  0.2786  0.1680
  113TMC2    O2 1768   3.038   3.572   0.869 -0.0513 -0.5849  0.1392
  113TMC2    O5 1769   3.206   3.721   0.885 -0.3162 -0.0086 -0.4133
  113TMC2    H5 1770   3.289   3.733   0.835 -0.7675  0.2393 -1.1073
  114MPD2     C 1771   4.052   3.742   0.738 -0.0739 -1.1966 -0.4484
  114MPD2    C1 1772   3.943   3.759   0.825 -0.5123  0.1601 -0.0715
  114MPD2    C2 1773   3.819   3.759   0.771  0.1095 -0.4923  0.1240
  114MPD2    C3 1774   3.785   3.729   0.638 -0.9826  0.0811 -0.2664
  114MPD2    C4 1775   3.893   3.709   0.561  0.7171 -0.3211  0.1124
  114MPD2    C5 1776   4.020   3.714   0.607  0.2021  0.8092  0.9298
  114MPD2     H 1777   3.737   3.791   0.834  0.9453 -2.5365  2.2617
  114MPD2    H1 1778   3.884   3.676   0.458 -0.9634 -0.6195  0.3467
  114MPD2    H2 1779   4.153   3.722   0.771 -0.0302  1.9799  1.3815
  114MPD2    H3 1780   4.096   3.708   0.530  1.0698  1.0505  1.7696
  114MPD2     N 1781   3.653   3.692   0.592 -0.1920  0.3819 -0.8101
  114MPD2    H5 1782   3.643   3.642   0.504 -1.1178 -0.2234 -0.3626
  114MPD2    N1 1783   3.963   3.771   0.966 -0.0735 -0.0730 -0.0810
  114MPD2    H7 1784   3.882   3.772   1.027 -1.3053  1.6901 -1.7575
  115TMC2    C1 1785   4.419   1.485   0.274  1.0523 -0.0432  0.0766
  115TMC2    C2 1786   4.552   1.460   0.297  0.6866 -0.5089  0.4995
  115TMC2    C3 1787   4.642   1.564   0.277  0.7480 -0.1233  0.1514
  115TMC2    C4 1788   4.373   1.608   0.237 -0.3275 -0.3210 -0.2946
  115TMC2    C5 1789   4.465   1.710   0.226  0.2750 -0.1084 -0.0996
  115TMC2    C6 1790   4.594   1.686   0.246 -0.5759 -0.6013  0.4189
  115TMC2     C 1791   4.339   1.371   0.229 -0.5687 -0.0670 -0.4261
  115TMC2     O 1792   4.400   1.269   0.208 -0.3507  0.0733  0.4415
  115TMC2     H 1793   4.588   1.360   0.317  0.0485 -0.6442  0.9410
  115TMC2    H1 1794   4.268   1.629   0.222 -0.7806 -1.5178  1.1329
  115TMC2    H2 1795   4.664   1.767   0.259 -0.3680 -0.5971 -0.7077
  115TMC2    C7 1796   4.417   1.841   0.212 -0.3591  0.4787  0.7642
  115TMC2    C8 1797   0.049   1.550   0.266  0.4437 -0.2605 -0.0118
  115TMC2    O1 1798   4.305   1.865   0.252 -0.3473  0.6095  0.0025
  115TMC2    O2 1799   0.137   1.622   0.305 -0.5676  0.4673  0.2308
  115TMC2    O5 1800   0.076   1.425   0.214  0.2770 -0.1522 -0.0131
  115TMC2    H5 1801   4.729   1.404   0.168 -0.4521 -1.1938  1.7903
  116MPD2     C 1802   3.894   1.130   0.138 -0.2638  0.1901  1.0924
  116MPD2    C1 1803   4.023   1.104   0.093  0.6968  0.3427 -0.6293
  116MPD2    C2 1804   4.132   1.184   0.133 -0.5817 -0.0501 -0.6552
  116MPD2    C3 1805   4.106   1.297   0.213 -0.1318  0.1938 -0.0643
  116MPD2    C4 1806   3.978   1.324   0.257 -0.2787 -0.0133  0.1132
  116MPD2    C5 1807   3.876   1.235   0.223  0.0683 -0.1556 -0.1062
  116MPD2     H 1808   4.233   1.150   0.111 -0.7801 -0.7919 -0.4269
  116MPD2    H1 1809   3.954   1.399   0.332  0.8905 -0.1463  0.6263
  116MPD2    H2 1810   3.809   1.067   0.115  1.1122 -0.6722 -1.5253
  116MPD2    H3 1811   3.776   1.250   0.261  0.2088  1.4273 -0.3525
  116MPD2     N 1812   4.204   1.393   0.243  0.4714  0.1752 -0.0511
  116MPD2    H5 1813   4.173   1.479   0.287 -1.9603  0.4587 -2.3496
  116MPD2    N1 1814   4.040   1.002  17.740 -0.3165  0.0019 -0.0078
  116MPD2    H7 1815   3.965   0.947  17.700 -2.9188  2.8515  1.0031
  117TMC2    C1 1816   2.994   3.570  14.182 -0.2338  0.1588 -0.4027
  117TMC2    C2 1817   3.078   3.468  14.218  0.3916 -0.1538 -0.6010
  117TMC2    C3 1818   3.172   3.497  14.311  0.1341  0.6420 -0.1091
  117TMC2    C4 1819   3.021   3.698  14.228 -0.3678 -0.2945 -0.4970
  117TMC2    C5 1820   3.125   3.727  14.303 -0.6059  0.5460  0.4028
  117TMC2    C6 1821   3.206   3.627  14.344 -0.3741 -0.3325 -0.1851
  117TMC2     C 1822   2.862   3.533  14.137  0.2995  0.0833 -1.4633
  117TMC2     O 1823   2.840   3.415  14.165 -0.2874  0.7583 -0.5272
  117TMC2     H 1824   3.056   3.364  14.196 -1.9130 -0.0462  1.2046
  117TMC2    H1 1825   2.953   3.779  14.203 -1.9362 -0.7433  2.2455
  117TMC2    H2 1826   3.297   3.650  14.398 -0.7244  0.0808  0.2291
  117TMC2    C7 1827   3.161   3.866  14.319  0.2915 -0.0945 -0.3633
  117TMC2    C8 1828   3.281   3.399  14.340 -0.2320  0.1776 -0.7301
  117TMC2    O1 1829   3.130   3.947  14.236  0.2102  0.5880 -0.6888
  117TMC2    O2 1830   3.350   3.414  14.436  0.3822  0.3971  0.2205
  117TMC2    O5 1831   3.331   3.400  14.213 -0.6951  0.0835 -0.4901
  117TMC2    H5 1832   3.259   3.397  14.146 -0.8620 -1.5298 -0.2451
  118MPD2     C 1833   3.322   4.019  14.610 -0.5572 -0.1695 -0.1156
  118MPD2    C1 1834   3.293   4.007  14.479 -0.1451  0.0022  0.4119
  118MPD2    C2 1835   3.329   4.110  14.395 -0.6972  0.3391 -0.0885
  118MPD2    C3 1836   3.415   4.211  14.442 -0.2185  0.2489  0.5216
  118MPD2    C4 1837   3.454   4.214  14.572  0.7163 -0.0288  0.0128
  118MPD2    C5 1838   3.398   4.123  14.660  0.5111  0.2969  0.1178
  118MPD2     H 1839   3.300   4.109  14.291 -1.0621  2.2925 -0.0056
  118MPD2    H1 1840   3.516   4.290  14.617 -1.4753  0.1534  2.7026
  118MPD2    H2 1841   3.285   3.949  14.684  0.7803 -0.8359 -0.0773
  118MPD2    H3 1842   3.418   4.140  14.765  0.0682 -0.7422  0.3673
  118MPD2     N 1843   3.467   4.315  14.357 -0.1171  0.0831  0.4398
  118MPD2    H5 1844   3.534   4.379  14.399 -0.1360 -0.6062  1.5126
  118MPD2    N1 1845   3.228   3.886  14.436 -0.1057 -0.1697 -0.2190
  118MPD2    H7 1846   3.223   3.813  14.506  0.9307  0.6924  0.7414
  119TMC2    C1 1847   1.325   0.593  13.821  0.4266 -0.0640  0.3124
  119TMC2    C2 1848   1.374   0.662  13.708 -0.4096 -0.0403  0.1907
  119TMC2    C3 1849   1.357   0.611  13.585  0.5282  0.7736 -0.1704
  119TMC2    C4 1850   1.243   0.485  13.809  0.5169  0.6007 -0.2600
  119TMC2    C5 1851   1.224   0.442  13.684  0.1943 -0.2420 -0.3503
  119TMC2    C6 1852   1.275   0.500  13.573 -0.4161 -0.6013  0.3091
  119TMC2     C 1853   1.343   0.646  13.956  0.0105 -0.0101  0.3317
  119TMC2     O 1854   1.289   0.586  14.048 -0.4880 -0.0690  0.0735
  119TMC2     H 1855   1.444   0.745  13.712 -2.9613  2.0509  1.0368
  119TMC2    H1 1856   1.207   0.426  13.892  1.1596  0.1780 -0.2855
  119TMC2    H2 1857   1.267   0.451  13.477  0.1151  0.0744 -0.0716
  119TMC2    C7 1858   1.140   0.331  13.658  0.0450 -0.7099  0.0283
  119TMC2    C8 1859   1.458   0.656  13.487 -0.6076 -0.4411 -0.1639
  119TMC2    O1 1860   1.102   0.324  13.544 -0.2461 -0.0256  0.2256
  119TMC2    O2 1861   1.497   0.773  13.486  0.1106  0.1822 -0.8328
  119TMC2    O5 1862   1.502   0.558  13.404  0.1055 -0.0679  0.2763
  119TMC2    H5 1863   1.467   0.469  13.426  0.2719  0.0964  1.2129
  120MPD2     C 1864   1.378   1.056  14.270 -0.2500 -0.3661 -0.3750
  120MPD2    C1 1865   1.282   0.951  14.258  0.1191  0.1769  0.5900
  120MPD2    C2 1866   1.305   0.851  14.164 -0.1429  0.5928  0.3965
  120MPD2    C3 1867   1.410   0.860  14.075 -0.3268  0.3864 -0.0277
  120MPD2    C4 1868   1.496   0.964  14.086  0.0189 -0.2065  0.2411
  120MPD2    C5 1869   1.487   1.055  14.185  0.6494  0.6256 -0.4493
  120MPD2     H 1870   1.230   0.777  14.139  0.9445 -0.9789  1.7773
  120MPD2    H1 1871   1.582   0.975  14.021  0.5839  2.1923  1.3747
  120MPD2    H2 1872   1.379   1.123  14.355 -0.1284  0.0233 -0.6862
  120MPD2    H3 1873   1.563   1.131  14.204  1.1075  0.8755 -3.3311
  120MPD2     N 1874   1.410   0.767  13.965 -0.5068  0.1388  0.3390
  120MPD2    H5 1875   1.487   0.786  13.902 -1.7382  0.9000 -0.9220
  120MPD2    N1 1876   1.170   0.950  14.345  0.0725 -0.1294  0.1673
  120MPD2    H7 1877   1.143   1.042  14.378  0.8920  0.5274 -1.0335
  121TMC2    C1 1878   2.738   1.710  14.768  0.3788 -0.1949  0.0779
  121TMC2    C2 1879   2.719   1.657  14.900  0.0571  0.3290 -1.5856
  121TMC2    C3 1880   2.663   1.533  14.912  0.9798 -0.0470  0.3116
  121TMC2    C4 1881   2.673   1.650  14.664 -0.7355  0.2803 -0.1435
  121TMC2    C5 1882   2.633   1.521  14.680 -0.0653 -0.5430 -0.4613
  121TMC2    C6 1883   2.627   1.459  14.801 -0.3684  0.9577 -0.9597
  121TMC2     C 1884   2.851   1.801  14.759 -0.7307  0.3462 -0.1616
  121TMC2     O 1885   2.889   1.845  14.867  0.2654  0.5614  0.2684
  121TMC2     H 1886   2.762   1.693  14.993 -0.7879 -1.4086 -0.5221
  121TMC2    H1 1887   2.672   1.686  14.562 -1.4040 -1.6836 -0.8404
  121TMC2    H2 1888   2.600   1.354  14.810 -0.6334  1.1536  0.5569
  121TMC2    C7 1889   2.561   1.457  14.577 -0.5797 -0.7621 -0.3519
  121TMC2    C8 1890   2.705   1.459  15.029 -0.5371  0.5847  0.2200
  121TMC2    O1 1891   2.558   1.337  14.585  0.2901  0.2311 -0.2359
  121TMC2    O2 1892   2.825   1.447  15.066  0.0682 -0.1313 -0.3726
  121TMC2    O5 1893   2.617   1.361  15.046 -0.1347 -0.1892  0.2243
  121TMC2    H5 1894   2.528   1.381  15.011 -0.4719  2.1351  2.3930
  122MPD2     C 1895   3.075   2.000  14.693  0.0171  0.7497 -0.7858
  122MPD2    C1 1896   3.006   1.921  14.602 -0.2880 -0.1435  0.1931
  122MPD2    C2 1897   3.050   1.938  14.471 -0.1265 -0.3414  0.5630
  122MPD2    C3 1898   3.153   2.025  14.430  0.3905 -0.1317 -0.3458
  122MPD2    C4 1899   3.229   2.080  14.533  0.3101  0.0694  0.2917
  122MPD2    C5 1900   3.183   2.079  14.658 -0.3919 -0.0701  0.4369
  122MPD2     H 1901   2.997   1.883  14.394  0.2081 -1.4883  1.1455
  122MPD2    H1 1902   3.310   2.146  14.504 -1.0859  1.5874 -0.1592
  122MPD2    H2 1903   3.045   2.010  14.797  1.4961 -2.6041 -0.0311
  122MPD2    H3 1904   3.228   2.135  14.738  0.5780  0.0345 -0.1778
  122MPD2     N 1905   3.186   2.062  14.299  0.0077 -0.1983 -0.1379
  122MPD2    H5 1906   3.259   2.131  14.279  1.5718 -1.7130  0.3438
  122MPD2    N1 1907   2.897   1.835  14.630  0.0807  0.0077  0.1392
  122MPD2    H7 1908   2.847   1.796  14.550 -0.6088  1.1880 -0.0096
  123TMC2    C1 1909   1.116   0.288  10.121 -0.1137  0.5485 -0.4579
  123TMC2    C2 1910   1.171   0.340  10.008  0.5348 -0.9153 -0.1380
  123TMC2    C3 1911   1.096   0.321   9.889  0.5427 -0.0531  0.2510
  123TMC2    C4 1912   0.992   0.233  10.133 -0.4447  0.2779 -0.2585
  123TMC2    C5 1913   0.920   0.213  10.018  0.3132 -0.7270 -0.3364
  123TMC2    C6 1914   0.967   0.264   9.893 -0.2869  0.2359  0.2519
  123TMC2     C 1915   1.181   0.339  10.238 -0.1721  0.3418  0.0067
  123TMC2     O 1916   1.276   0.412  10.224  0.4544 -0.2837  0.5543
  123TMC2     H 1917   1.249   0.415  10.012 -1.2852  1.0054 -0.5748
  123TMC2    H1 1918   0.958   0.181  10.222  1.3161  0.7732  0.7065
  123TMC2    H2 1919   0.908   0.259   9.802  1.4271  0.8608 -0.8828
  123TMC2    C7 1920   0.795   0.139  10.023 -0.5637 -0.0404 -0.2058
  123TMC2    C8 1921   1.128   0.407   9.774 -0.3185 -0.6091  0.2435
  123TMC2    O1 1922   0.795   0.060  10.115 -0.1084  0.2189 -0.2532
  123TMC2    O2 1923   1.058   0.504   9.747 -0.5051 -0.3687  0.3123
  123TMC2    O5 1924   1.267   0.406   9.771  0.1361  0.1469  0.1892
  123TMC2    H5 1925   1.308   0.324   9.808  0.7354  0.4078  0.0921
  124MPD2     C 1926   1.159   0.478  10.733  0.0104 -0.1673  0.1379
  124MPD2    C1 1927   1.068   0.377  10.713 -0.7356 -0.4607 -1.1281
  124MPD2    C2 1928   1.065   0.319  10.586 -0.3628 -0.4042  0.4344
  124MPD2    C3 1929   1.145   0.360  10.480 -0.0796 -0.7438 -0.2927
  124MPD2    C4 1930   1.238   0.463  10.505 -0.3372 -0.2646 -0.3680
  124MPD2    C5 1931   1.237   0.523  10.631  0.1891 -0.0004 -0.2514
  124MPD2     H 1932   0.997   0.235  10.576 -0.7138 -0.3535  2.5108
  124MPD2    H1 1933   1.300   0.496  10.423 -0.1662  0.7246  0.1653
  124MPD2    H2 1934   1.180   0.529  10.826 -1.6277 -0.2298  0.5373
  124MPD2    H3 1935   1.307   0.604  10.650  0.1242  0.3199 -1.3744
  124MPD2     N 1936   1.112   0.310  10.354 -0.3441  0.4519 -0.0701
  124MPD2    H5 1937   1.027   0.255  10.344 -0.0912 -0.2073  1.3345
  124MPD2    N1 1938   0.998   0.317  10.818  0.4123 -0.1170  0.3594
  124MPD2    H7 1939   0.948   0.229  10.809  0.1151  0.0006  0.8252
  125TMC2    C1 1940   2.938   3.833   9.611  0.5088 -0.4013 -0.5535
  125TMC2    C2 1941   2.825   3.765   9.575 -0.2763 -0.4784  0.0616
  125TMC2    C3 1942   2.832   3.640   9.516  0.3723  0.1112 -0.5358
  125TMC2    C4 1943   3.056   3.785   9.564 -0.6131 -0.1042  0.5869
  125TMC2    C5 1944   3.064   3.658   9.501  0.6539  0.4371 -0.4081
  125TMC2    C6 1945   2.952   3.580   9.479 -0.3053 -0.0464  1.2119
  125TMC2     C 1946   2.939   3.975   9.648 -0.3207  0.1860 -0.6486
  125TMC2     O 1947   3.047   4.023   9.675  0.6594  0.0425 -0.2940
  125TMC2     H 1948   2.724   3.804   9.581 -0.6104 -1.5710  1.6000
  125TMC2    H1 1949   3.149   3.833   9.593 -0.6218 -0.4332  1.1610
  125TMC2    H2 1950   2.951   3.489   9.420  3.3308  1.6152 -1.3850
  125TMC2    C7 1951   3.193   3.599   9.480 -0.1352  0.4181 -0.1196
  125TMC2    C8 1952   2.707   3.598   9.452  0.5343 -0.8907  0.4730
  125TMC2    O1 1953   3.297   3.669   9.463 -0.1168  0.0319  0.0633
  125TMC2    O2 1954   2.607   3.661   9.448  0.1259 -0.2601  0.0195
  125TMC2    O5 1955   2.716   3.461   9.445 -0.4691  0.4681  0.3849
  125TMC2    H5 1956   2.795   3.424   9.491 -2.1565 -1.4620  1.7156
  126MPD1     C 1957   2.738   4.434   9.750  0.7568  0.5182  0.7951
  126MPD1    C1 1958   2.642   4.335   9.780  0.2842 -0.4240  0.3436
  126MPD1    C2 1959   2.675   4.207   9.750  0.2919 -0.2324  0.8109
  126MPD1    C3 1960   2.793   4.172   9.697 -0.3645  0.7731  0.4191
  126MPD1    C4 1961   2.888   4.268   9.672 -0.6201  0.2020 -0.1704
  126MPD1    C5 1962   2.857   4.398   9.695  0.2013  0.6101 -0.0184
  126MPD1     H 1963   2.610   4.126   9.782 -0.9640  0.1799 -0.7024
  126MPD1    H1 1964   2.985   4.249   9.626  0.9376  2.2290  2.2810
  126MPD1    H2 1965   2.726   4.540   9.771  2.1686  0.4929  1.7028
  126MPD1    H3 1966   2.923   4.477   9.660 -0.4646  2.7530  3.5784
  126MPD1     N 1967   2.814   4.032   9.667  0.1710  0.2520  0.3344
  126MPD1    H5 1968   2.741   3.962   9.670 -0.6099  1.1187  1.4226
  126MPD1    N1 1969   2.517   4.377   9.825 -0.8391 -0.2113 -0.4071
  126MPD1    H6 1970   2.458   4.305   9.867  0.9868 -0.8138  1.0897
  126MPD1    H7 1971   2.525   4.450   9.895 -0.2091  0.9325 -1.6695
  127TMC2    C1 1972   3.056   1.040  10.140 -0.4070 -0.8863  0.1652
  127TMC2    C2 1973   3.087   1.013  10.268  0.4297  0.8166 -0.2012
  127TMC2    C3 1974   3.026   0.910  10.325 -0.3404  0.0104  0.1545
  127TMC2    C4 1975   2.967   0.965  10.069  0.2951 -0.1439 -0.0901
  127TMC2    C5 1976   2.906   0.860  10.134  0.2964 -0.5051 -0.7203
  127TMC2    C6 1977   2.939   0.828  10.264 -0.2194  0.4779  0.8568
  127TMC2     C 1978   3.132   1.151  10.085  0.3132  0.8395 -0.3709
  127TMC2     O 1979   3.218   1.207  10.154 -0.4945  0.3639  0.7462
  127TMC2     H 1980   3.125   1.089  10.335  0.1643  0.6793  0.1064
  127TMC2    H1 1981   2.964   0.979   9.961 -1.9529 -2.4964 -0.3389
  127TMC2    H2 1982   2.896   0.747  10.321 -0.5325  0.6178  0.8203
  127TMC2    C7 1983   2.786   0.799  10.075 -0.7498 -0.3894  0.8948
  127TMC2    C8 1984   3.063   0.862  10.453  0.7141  0.2168 -0.2425
  127TMC2    O1 1985   2.769   0.836   9.962 -0.3211  0.0670 -0.0550
  127TMC2    O2 1986   2.994   0.792  10.522  0.5093  0.3140  0.3179
  127TMC2    O5 1987   3.167   0.928  10.496  0.0822 -0.4230  0.1273
  127TMC2    H5 1988   3.224   0.970  10.428 -2.7391 -0.1864 -2.1050
  128MPD2     C 1989   3.039   1.344   9.777  0.5622 -0.2363  0.5037
  128MPD2    C1 1990   3.124   1.300   9.877  0.2704  0.0846  0.1924
  128MPD2    C2 1991   3.243   1.374   9.899  0.3802  0.1871 -0.1557
  128MPD2    C3 1992   3.266   1.493   9.834 -0.4479 -0.4268  0.8520
  128MPD2    C4 1993   3.180   1.531   9.732  0.5115 -0.6775  0.4904
  128MPD2    C5 1994   3.071   1.457   9.702  0.6248  0.2593 -0.0503
  128MPD2     H 1995   3.309   1.344   9.979 -0.3678  1.7021  1.0410
  128MPD2    H1 1996   3.186   1.629   9.687 -0.3365 -1.0506 -0.4445
  128MPD2    H2 1997   2.941   1.302   9.756  1.6219 -2.4784  0.1317
  128MPD2    H3 1998   2.998   1.504   9.637  1.6706 -0.8175 -2.0028
  128MPD2     N 1999   3.396   1.558   9.856 -0.1391 -0.1035  0.0235
  128MPD2    H5 2000   3.456   1.498   9.912  1.2643  0.6706 -0.6429
  128MPD2    N1 2001   3.077   1.187   9.960 -0.3494 -0.3139 -0.2916
  128MPD2    H7 2002   2.990   1.138   9.939 -0.5262 -0.4731  0.8413
  129TMC2    C1 2003   0.773   1.330   2.532 -0.1801 -0.0364 -1.0021
  129TMC2    C2 2004   0.718   1.398   2.428  0.2095 -0.7679 -0.2131
  129TMC2    C3 2005   0.585   1.389   2.410  0.1988  0.0633 -0.2446
  129TMC2    C4 2006   0.699   1.261   2.624 -0.1231  0.8796  0.5360
  129TMC2    C5 2007   0.568   1.250   2.599  0.2868 -0.1457  0.1272
  129TMC2    C6 2008   0.513   1.311   2.488  0.1576 -0.2569 -0.1258
  129TMC2     C 2009   0.910   1.346   2.553 -0.1436 -0.1150 -0.5662
  129TMC2     O 2010   0.951   1.336   2.665 -0.1694 -0.0837  0.1561
  129TMC2     H 2011   0.778   1.464   2.367  0.2161  2.5627  3.4311
  129TMC2    H1 2012   0.753   1.209   2.702  1.1951  0.6820 -0.4999
  129TMC2    H2 2013   0.408   1.296   2.465  0.4674 -2.8406  0.1359
  129TMC2    C7 2014   0.514   1.119   2.646 -1.0353 -0.7350  0.2487
  129TMC2    C8 2015   0.514   1.460   2.308  0.4362 -0.9272 -0.7999
  129TMC2    O1 2016   0.599   1.037   2.671  0.2004  0.2835 -0.5866
  129TMC2    O2 2017   0.397   1.500   2.313  0.7487  1.2397 -0.1045
  129TMC2    O5 2018   0.584   1.437   2.192 -0.6849  0.0990 -0.7957
  129TMC2    H5 2019   0.669   1.392   2.211 -1.0867 -1.0306 -1.7191
  130MPD2     C 2020   1.208   1.377   2.511  0.1584 -0.0726 -0.2693
  130MPD2    C1 2021   1.117   1.380   2.407  0.0014  1.3264 -0.4438
  130MPD2    C2 2022   1.163   1.421   2.285  0.3629 -0.3943 -0.3311
  130MPD2    C3 2023   1.289   1.473   2.269 -0.4036  0.2675  0.1497
  130MPD2    C4 2024   1.372   1.472   2.371  0.5977  0.1070 -0.4048
  130MPD2    C5 2025   1.336   1.421   2.490 -0.0976  0.7535 -0.3277
  130MPD2     H 2026   1.093   1.418   2.203  0.2545  0.4990 -0.2697
  130MPD2    H1 2027   1.472   1.515   2.375 -0.4032  2.3765  0.4546
  130MPD2    H2 2028   1.187   1.350   2.613 -0.9065  1.6958 -0.0284
  130MPD2    H3 2029   1.395   1.436   2.580 -0.8158  0.5632  0.1742
  130MPD2     N 2030   1.319   1.511   2.130 -0.1086 -0.1721 -0.2116
  130MPD2    H5 2031   1.238   1.499   2.070 -1.0031  3.6170  0.2642
  130MPD2    N1 2032   0.977   1.358   2.431  0.2433 -0.1482  0.3805
  130MPD2    H7 2033   0.918   1.357   2.348  1.2436  1.6281 -0.3471
  131TMC2    C1 2034   0.421   0.110  10.226 -0.9227  0.0341 -0.0228
  131TMC2    C2 2035   0.302   0.047  10.191  0.5914 -0.2189 -0.1050
  131TMC2    C3 2036   0.227   0.104  10.094  0.0015 -0.2053 -0.1244
  131TMC2    C4 2037   0.465   0.218  10.160 -0.3974 -0.3198 -0.5714
  131TMC2    C5 2038   0.380   0.280  10.067  0.3747 -0.1559 -0.4754
  131TMC2    C6 2039   0.261   0.218  10.024  0.4224  0.5029 -0.5080
  131TMC2     C 2040   0.471   0.096  10.361 -0.0054  0.1965  0.2573
  131TMC2     O 2041   0.533   0.191  10.411  0.0583  0.0015  0.0952
  131TMC2     H 2042   0.258   4.695  10.236  1.1354  0.0114  0.8793
  131TMC2    H1 2043   0.560   0.262  10.189 -0.9706  1.3200 -1.1514
  131TMC2    H2 2044   0.202   0.274   9.952 -0.1187  0.8102  0.1662
  131TMC2    C7 2045   0.411   0.410  10.013 -0.0190 -0.9871 -0.7588
  131TMC2    C8 2046   0.130   0.012  10.035 -0.8549 -0.3484 -1.5139
  131TMC2    O1 2047   0.338   0.451   9.923 -0.1922  0.1810 -0.0780
  131TMC2    O2 2048   0.092   4.642  10.082  0.2021 -0.5248  0.2676
  131TMC2    O5 2049   0.061   0.081   9.949 -0.0867 -0.2915  0.2977
  131TMC2    H5 2050   0.114   0.141   9.893  1.5235 -0.7349  1.3279
  132MPD2     C 2051   0.403   4.544  10.592 -0.1845  0.6966  0.1774
  132MPD2    C1 2052   0.461   4.661  10.552  0.0047 -0.5317  0.6925
  132MPD2    C2 2053   0.532   0.004  10.637 -0.0905  0.1946  0.0393
  132MPD2    C3 2054   0.553   4.685  10.762  0.1991 -0.9377 -0.7138
  132MPD2    C4 2055   0.494   4.570  10.812 -0.2192  0.3602 -0.4943
  132MPD2    C5 2056   0.415   4.504  10.721 -0.2498 -0.1144  0.0362
  132MPD2     H 2057   0.602   0.083  10.615  1.6289 -1.3241  0.0721
  132MPD2    H1 2058   0.504   4.537  10.915 -0.7790  1.7384 -0.0075
  132MPD2    H2 2059   0.343   4.486  10.522 -1.3787  3.6387 -1.2270
  132MPD2    H3 2060   0.366   4.413  10.754  0.3805 -1.2142 -2.0783
  132MPD2     N 2061   0.637   0.026  10.847  0.0846  0.4440  0.2254
  132MPD2    H5 2062   0.689   0.103  10.806  0.9955 -0.0289  0.4789
  132MPD2    N1 2063   0.435   4.707  10.421  0.2785  0.0775 -0.2787
  132MPD2    H7 2064   0.376   4.647  10.364  0.5347  0.8631 -1.3788
  133TMC2    C1 2065   0.407   2.546  10.651  0.7102 -0.1573  0.1334
  133TMC2    C2 2066   0.284   2.541  10.707  0.1818 -0.9331 -0.1355
  133TMC2    C3 2067   0.216   2.663  10.724  0.5501 -0.6575 -0.4577
  133TMC2    C4 2068   0.458   2.656  10.595  0.5388  0.2789  0.0467
  133TMC2    C5 2069   0.380   2.770  10.600 -0.4813 -0.8492 -0.5329
  133TMC2    C6 2070   0.257   2.777  10.663  0.1272  0.0043 -0.5409
  133TMC2     C 2071   0.477   2.423  10.623 -0.1008  0.3537  0.1861
  133TMC2     O 2072   0.573   2.425  10.543 -0.1581  0.6671 -0.3972
  133TMC2     H 2073   0.236   2.457  10.757 -0.6661  0.8992  2.1025
  133TMC2    H1 2074   0.559   2.657  10.556  0.0274 -0.1889 -1.3051
  133TMC2    H2 2075   0.182   2.851  10.637 -0.6020  0.1588  1.9988
  133TMC2    C7 2076   0.449   2.884  10.544  0.2477  0.0750  0.0198
  133TMC2    C8 2077   0.073   2.651  10.733 -0.1508  0.0393 -0.7561
  133TMC2    O1 2078   0.547   2.863  10.473 -0.2773 -0.4727 -0.2921
  133TMC2    O2 2079   0.014   2.545  10.745  0.6548  0.4784 -0.2894
  133TMC2    O5 2080   0.054   2.745  10.825 -0.0635 -0.0411  0.6045
  133TMC2    H5 2081   0.127   2.806  10.848  0.1133 -0.0181 -0.0231
  134MPD2     C 2082   0.362   2.096  10.745  0.1752  0.3381  0.0304
  134MPD2    C1 2083   0.451   2.185  10.688 -0.0121  0.0073  0.1357
  134MPD2    C2 2084   0.563   2.141  10.625  0.1359  0.1601  0.4887
  134MPD2    C3 2085   0.585   2.008  10.620 -0.0179 -0.3683  0.0049
  134MPD2    C4 2086   0.498   1.920  10.682  0.5134  1.0640 -0.1110
  134MPD2    C5 2087   0.387   1.964  10.747 -0.1193 -0.1745  0.2231
  134MPD2     H 2088   0.635   2.212  10.587  1.9361 -1.7394  0.3730
  134MPD2    H1 2089   0.512   1.812  10.675  0.6155  0.9941  1.2517
  134MPD2    H2 2090   0.288   2.138  10.811  0.2058 -1.4148  1.1908
  134MPD2    H3 2091   0.336   1.897  10.815  1.2437  1.3988  2.7849
  134MPD2     N 2092   0.690   1.940  10.543 -0.0417 -0.0367  0.0974
  134MPD2    H5 2093   0.701   1.840  10.560  0.2570  0.3872  2.3513
  134MPD2    N1 2094   0.412   2.321  10.685 -0.0010  0.4194  0.6909
  134MPD2    H7 2095   0.332   2.336  10.746 -0.6146  0.3274 -0.0973
  135TMC2    C1 2096   2.372   2.707  10.620 -0.2318 -0.7817  0.5770
  135TMC2    C2 2097   2.459   2.604  10.634  0.7603  0.2035  0.0021
  135TMC2    C3 2098   2.404   2.480  10.660  0.5998 -0.3553 -0.5449
  135TMC2    C4 2099   2.238   2.699  10.622 -0.3042 -0.2875  0.9942
  135TMC2    C5 2100   2.189   2.569  10.630 -0.4275 -0.0178  0.3294
  135TMC2    C6 2101   2.268   2.458  10.656  0.1861 -0.9639  0.3859
  135TMC2     C 2102   2.420   2.850  10.612 -0.0771  0.0449 -0.1476
  135TMC2     O 2103   2.349   2.947  10.655 -0.2034 -0.6663 -0.2464
  135TMC2     H 2104   2.557   2.625  10.676  1.1303 -3.7429  1.1513
  135TMC2    H1 2105   2.173   2.784  10.605 -1.5462 -1.1602  1.3897
  135TMC2    H2 2106   2.224   2.373  10.706 -0.2076 -1.2780 -0.4850
  135TMC2    C7 2107   2.045   2.561  10.594  0.1427  0.1292  0.6110
  135TMC2    C8 2108   2.494   2.370  10.686 -0.5455  0.8649 -0.3723
  135TMC2    O1 2109   1.975   2.665  10.591  0.4795 -0.0957 -1.0154
  135TMC2    O2 2110   2.609   2.384  10.728 -0.1063  0.4000  0.1157
  135TMC2    O5 2111   2.417   2.258  10.683 -0.0457 -0.0133  0.1800
  135TMC2    H5 2112   2.357   2.258  10.606  2.4819 -1.3827 -1.8104
  136MPD2     C 2113   2.600   3.086  10.624  0.7635 -0.5468  0.7136
  136MPD2    C1 2114   2.620   2.976  10.550 -0.0850 -0.1195 -0.0319
  136MPD2    C2 2115   2.723   2.967  10.462  0.0792 -0.9396  0.5598
  136MPD2    C3 2116   2.803   3.083  10.444  0.3996 -0.3590  0.5703
  136MPD2    C4 2117   2.789   3.184  10.535  0.3989  0.2533 -0.1544
  136MPD2    C5 2118   2.683   3.194  10.618  1.5095  0.2435 -0.2148
  136MPD2     H 2119   2.746   2.874  10.412  1.9621  0.2637 -0.8615
  136MPD2    H1 2120   2.856   3.270  10.541 -0.1345  0.4687  3.0070
  136MPD2    H2 2121   2.525   3.086  10.702 -1.5926 -4.0848 -1.5316
  136MPD2    H3 2122   2.673   3.284  10.678 -2.5420 -1.7846  2.1744
  136MPD2     N 2123   2.912   3.095  10.354  0.2640  0.2395 -0.3632
  136MPD2    H5 2124   2.972   3.174  10.375  2.1770 -1.6075  1.0114
  136MPD2    N1 2125   2.552   2.856  10.571 -0.1028 -0.3247  0.0701
  136MPD2    H7 2126   2.594   2.777  10.525 -1.1717 -0.8344 -0.0368
  137TMC2    C1 2127   2.233   0.863   9.885  0.1418 -0.1420  0.1236
  137TMC2    C2 2128   2.310   0.870   9.781  0.1453 -0.0238  0.2242
  137TMC2    C3 2129   2.273   0.798   9.669 -0.0010  0.5872  0.7945
  137TMC2    C4 2130   2.125   0.775   9.884  0.7818  0.1093 -0.2799
  137TMC2    C5 2131   2.090   0.698   9.774 -0.5365  0.5490 -0.4941
  137TMC2    C6 2132   2.167   0.701   9.664  0.4726  0.2962  0.1503
  137TMC2     C 2133   2.279   0.921  10.009 -0.8798 -0.4545 -0.0096
  137TMC2     O 2134   2.317   1.037   9.994 -0.4853  0.2035  0.1951
  137TMC2     H 2135   2.399   0.931   9.786 -0.2491  0.4196  1.7857
  137TMC2    H1 2136   2.061   0.760   9.970  0.0663 -1.0323 -0.9981
  137TMC2    H2 2137   2.167   0.629   9.584 -1.8659 -2.4001  2.5696
  137TMC2    C7 2138   1.984   0.602   9.790 -0.7683 -0.4859  0.3522
  137TMC2    C8 2139   2.361   0.789   9.556  0.3163 -0.5693  0.5449
  137TMC2    O1 2140   1.965   0.530   9.692 -0.4026 -0.2026 -0.0266
  137TMC2    O2 2141   2.479   0.818   9.569  0.1850 -0.0896  0.1593
  137TMC2    O5 2142   2.284   0.808   9.449  0.0288 -0.7559 -0.4161
  137TMC2    H5 2143   2.190   0.827   9.470  0.5076  1.2781 -0.0339
  138MPD2     C 2144   2.269   0.766  10.346  0.2245 -0.3124 -0.7072
  138MPD2    C1 2145   2.281   0.870  10.258 -0.2424 -0.1913  0.3150
  138MPD2    C2 2146   2.315   0.995  10.304 -0.4544  0.3422 -0.0249
  138MPD2    C3 2147   2.340   1.014  10.437 -0.3434  0.1648  0.0926
  138MPD2    C4 2148   2.301   0.915  10.525 -1.6793  0.1670 -0.3578
  138MPD2    C5 2149   2.275   0.789  10.482  0.4922 -0.3702  0.1271
  138MPD2     H 2150   2.344   1.071  10.233 -0.1322 -0.9409 -1.2494
  138MPD2    H1 2151   2.327   0.935  10.628  2.3701  0.7236 -1.4760
  138MPD2    H2 2152   2.249   0.665  10.314 -1.4380  0.1063 -0.9822
  138MPD2    H3 2153   2.257   0.715  10.559 -0.3563  1.0831  1.3345
  138MPD2     N 2154   2.410   1.130  10.476  0.5341  0.7472 -0.5019
  138MPD2    H5 2155   2.429   1.189  10.396 -1.4644 -0.8656 -2.1469
  138MPD2    N1 2156   2.253   0.844  10.119  0.5984 -0.6751 -0.2088
  138MPD2    H7 2157   2.217   0.752  10.097 -0.9172 -0.7223  2.4778
  139TMC2    C1 2158   2.674   4.526  13.647  1.2642 -0.4395  0.0041
  139TMC2    C2 2159   2.738   4.565  13.533  0.1846 -0.1182  0.3526
  139TMC2    C3 2160   2.742   4.695  13.500  0.7352 -0.8823  0.0385
  139TMC2    C4 2161   2.616   4.621  13.734  0.1185 -0.3009 -0.3334
  139TMC2    C5 2162   2.625   0.012  13.697  0.2596  0.4352  0.5696
  139TMC2    C6 2163   2.698   0.054  13.587  0.1812 -0.2290 -0.1137
  139TMC2     C 2164   2.701   4.392  13.689 -0.3960  0.9114 -0.0371
  139TMC2     O 2165   2.707   4.316  13.595 -0.0681  0.2701 -0.0624
  139TMC2     H 2166   2.811   4.495  13.494  1.3352 -0.4804  3.2249
  139TMC2    H1 2167   2.566   4.578  13.820  0.8351  1.4490  0.9410
  139TMC2    H2 2168   2.713   0.158  13.558 -0.9653 -0.0748 -0.1612
  139TMC2    C7 2169   2.548   0.118  13.755  0.7315 -0.4803  0.2147
  139TMC2    C8 2170   2.852   4.723  13.416  0.0478 -0.0986  0.1330
  139TMC2    O1 2171   2.613   0.212  13.801 -0.1747  0.2769 -0.1868
  139TMC2    O2 2172   2.838   4.661  13.313  0.0180 -0.4559 -0.4362
  139TMC2    O5 2173   2.950   4.698  13.507  0.8935 -0.1515 -0.0713
  139TMC2    H5 2174   2.933   0.005  13.593  2.7286  0.7088 -0.1563
  140MPD2     C 2175   2.820   4.268  14.003 -0.0585  1.0561 -0.2477
  140MPD2    C1 2176   2.778   4.258  13.881  0.6395 -0.0528 -0.0134
  140MPD2    C2 2177   2.816   4.149  13.800 -0.4555 -0.2705  0.0083
  140MPD2    C3 2178   2.887   4.043  13.858 -0.2590 -0.4296 -0.5807
  140MPD2    C4 2179   2.923   4.050  13.992 -0.3588  0.5902 -0.2337
  140MPD2    C5 2180   2.892   4.167  14.056 -0.3857 -0.4832  0.3954
  140MPD2     H 2181   2.778   4.146  13.699  2.8449 -0.2203 -1.2418
  140MPD2    H1 2182   2.982   3.970  14.036 -1.3449  0.9459  1.7240
  140MPD2    H2 2183   2.796   4.359  14.057  0.3490  0.6767  0.5804
  140MPD2    H3 2184   2.930   4.175  14.157 -0.3330 -0.9079  0.4112
  140MPD2     N 2185   2.916   3.941  13.771 -0.1241 -0.0103  0.4286
  140MPD2    H5 2186   2.894   3.957  13.673  1.0343 -2.2464 -0.2039
  140MPD2    N1 2187   2.714   4.374  13.830  0.0136  0.1952  0.0052
  140MPD2    H7 2188   2.703   4.447  13.900  1.8348  2.1408 -1.7412
  141TMC2    C1 2189   3.111   1.569  14.852  0.3206 -0.2094  0.2162
  141TMC2    C2 2190   3.088   1.531  14.982  0.0657 -0.2416  0.3303
  141TMC2    C3 2191   3.116   1.616  15.085 -0.3635  0.1847 -0.5653
  141TMC2    C4 2192   3.168   1.688  14.826  0.3632  0.2948  0.0933
  141TMC2    C5 2193   3.210   1.763  14.929  0.7234 -0.3733  0.0502
  141TMC2    C6 2194   3.183   1.729  15.054  0.5066 -0.1145 -0.8430
  141TMC2     C 2195   3.133   1.475  14.752 -0.0114  0.2081 -0.2918
  141TMC2     O 2196   3.101   1.511  14.642  0.3834 -0.1136 -0.2998
  141TMC2     H 2197   3.062   1.428  15.005  0.8850 -0.5846 -0.2800
  141TMC2    H1 2198   3.212   1.699  14.728 -2.2136  0.2013 -1.0776
  141TMC2    H2 2199   3.210   1.795  15.136  2.8046  1.6911 -3.0353
  141TMC2    C7 2200   3.338   1.836  14.912  0.4306 -0.3073  0.3166
  141TMC2    C8 2201   3.140   1.552  15.215 -0.7892 -0.1872 -0.6483
  141TMC2    O1 2202   3.414   1.818  15.007  0.5071 -0.2384  0.1902
  141TMC2    O2 2203   3.207   1.588  15.308  0.3837  0.0080  0.3638
  141TMC2    O5 2204   3.035   1.469  15.238  0.0364  0.1172 -0.4188
  141TMC2    H5 2205   2.979   1.455  15.159  1.4382  1.0098 -1.5753
  142TMC2    C1 2206   0.354   4.209  10.356  0.8621  0.2066  0.1201
  142TMC2    C2 2207   0.265   4.139  10.283 -0.2429 -0.6790  0.3748
  142TMC2    C3 2208   0.242   4.181  10.160  0.2240 -0.3790 -0.4139
  142TMC2    C4 2209   0.414   4.323  10.310  1.1101 -0.3284 -0.0671
  142TMC2    C5 2210   0.389   4.354  10.179 -0.3239  0.6427  0.2468
  142TMC2    C6 2211   0.313   4.273  10.096  0.0293 -0.6930 -0.3457
  142TMC2     C 2212   0.385   4.158  10.494 -0.3276 -0.5389  0.2930
  142TMC2     O 2213   0.294   4.095  10.541  0.4715  0.2669  0.1957
  142TMC2     H 2214   0.215   4.050  10.320 -0.3321 -0.6444  0.3377
  142TMC2    H1 2215   0.475   4.388  10.372  0.9258 -0.3175  0.1024
  142TMC2    H2 2216   0.313   4.283   9.988  0.4052 -0.7629 -0.3511
  142TMC2    C7 2217   0.453   4.477  10.133  0.1658 -0.2994  0.9817
  142TMC2    C8 2218   0.164   4.089  10.078  0.6767  0.2072  1.0478
  142TMC2    O1 2219   0.548   4.516  10.201 -0.2388  0.4504 -0.0235
  142TMC2    O2 2220   0.123   3.976  10.114  0.0042  0.1549  0.2467
  142TMC2    O5 2221   0.094   4.171   9.999 -0.4817 -0.4424 -0.0319
  142TMC2    H5 2222   0.118   4.265   9.986 -0.7811 -0.2154  1.0298
  143MPD2     C 2223   0.626   4.132  10.939 -0.2199 -0.1706 -0.2380
  143MPD2    C1 2224   0.533   4.048  10.883 -0.9090  0.6663 -0.1175
  143MPD2    C2 2225   0.488   4.077  10.756 -0.0128  0.3356  0.9991
  143MPD2    C3 2226   0.543   4.177  10.678  0.6161  0.8269  0.6570
  143MPD2    C4 2227   0.630   4.263  10.740 -0.2404 -0.1455  0.2797
  143MPD2    C5 2228   0.680   4.237  10.863 -0.4518 -0.2340 -0.0376
  143MPD2     H 2229   0.431   4.002  10.704 -1.3966  0.7398  1.9291
  143MPD2    H1 2230   0.669   4.345  10.680  1.5996  0.4411  2.2779
  143MPD2    H2 2231   0.668   4.102  11.035  0.3782  0.8342 -0.1916
  143MPD2    H3 2232   0.760   4.302  10.898  1.2814 -1.1670 -2.3522
  143MPD2     N 2233   0.501   4.206  10.547  0.5941  0.1006 -0.3810
  143MPD2    H5 2234   0.560   4.269  10.493  1.1670 -0.1317 -0.0195
  143MPD2    N1 2235   0.498   3.929  10.956 -0.5273  0.3226  0.3165
  143MPD2    H7 2236   0.549   3.912  11.043 -0.9720 -2.6963 -0.0336
  144TMC2    C1 2237   4.344   2.414   0.526 -0.4932  0.2791 -0.8467
  144TMC2    C2 2238   4.343   2.281   0.520 -0.2465 -0.9452  0.1866
  144TMC2    C3 2239   4.445   2.209   0.572  0.3939  1.0376 -0.5234
  144TMC2    C4 2240   4.433   2.485   0.606 -0.0016 -0.2365  0.5449
  144TMC2    C5 2241   4.533   2.408   0.668  0.0505  0.0784  0.3137
  144TMC2    C6 2242   4.540   2.272   0.649 -0.8723 -0.2646  0.0058
  144TMC2     C 2243   4.214   2.480   0.499  1.0229  0.1675 -0.1973
  144TMC2     O 2244   4.152   2.445   0.398  0.3623  0.6108 -0.1148
  144TMC2     H 2245   4.265   2.229   0.466  0.5159 -0.9487 -0.9142
  144TMC2    H1 2246   4.451   2.589   0.581 -1.3081  0.3584  2.0918
  144TMC2    H2 2247   4.597   2.202   0.709  0.8583 -0.0322 -1.3828
  144TMC2    C7 2248   4.655   2.481   0.718  0.4117  0.0065 -0.3011
  144TMC2    C8 2249   4.430   2.063   0.563  0.1614 -0.2638  0.3173
  144TMC2    O1 2250   0.018   2.414   0.724 -0.0877 -0.3605 -0.5696
  144TMC2    O2 2251   4.319   2.016   0.570 -0.1771  0.0045 -0.3777
  144TMC2    O5 2252   4.548   2.010   0.607  0.0831 -0.2085  0.1518
  144TMC2    H5 2253   4.617   2.060   0.559  0.8906 -0.5191  0.9750
  145MPD2     C 2254   3.862   2.842   0.593 -0.3258 -0.3050  0.0466
  145MPD2    C1 2255   3.903   2.787   0.472  0.6591  0.3641  0.0357
  145MPD2    C2 2256   4.007   2.696   0.470  0.0096 -0.3946 -0.4316
  145MPD2    C3 2257   4.075   2.659   0.587 -0.3310  0.0396  0.7671
  145MPD2    C4 2258   4.041   2.726   0.703  0.4186 -0.6444 -0.2252
  145MPD2    C5 2259   3.927   2.807   0.702 -0.2205 -0.2741 -0.3979
  145MPD2     H 2260   4.031   2.651   0.375 -1.0326 -0.1354 -0.8163
  145MPD2    H1 2261   4.084   2.702   0.799 -1.6668  2.2237  1.4184
  145MPD2    H2 2262   3.765   2.885   0.611 -0.9718 -1.2971 -1.0735
  145MPD2    H3 2263   3.881   2.834   0.796 -0.5395 -0.7303 -0.4249
  145MPD2     N 2264   4.182   2.571   0.598 -0.6410 -0.0481 -0.0671
  145MPD2    H5 2265   4.232   2.574   0.686 -1.1399 -0.4107  0.2282
  145MPD2    N1 2266   3.835   2.809   0.353 -0.3697 -0.6375  0.0373
  145MPD2    H7 2267   3.881   2.773   0.269 -1.2541  1.6918 -1.4448
  146TMC2    C1 2268   0.025   1.929  12.692  0.1105 -0.3292  0.4394
  146TMC2    C2 2269   4.706   1.809  12.698  0.0012 -0.6275 -0.5709
  146TMC2    C3 2270   0.027   1.703  12.634 -0.1682  0.1195 -0.3461
  146TMC2    C4 2271   0.147   1.946  12.627 -0.3763 -0.5962  0.3145
  146TMC2    C5 2272   0.214   1.843  12.575 -0.1968  0.3238  0.1494
  146TMC2    C6 2273   0.157   1.718  12.579 -0.3489 -0.8146  0.1497
  146TMC2     C 2274   0.004   1.996  12.818 -0.0784 -0.0417 -0.2939
  146TMC2     O 2275   4.638   1.967  12.876  0.5205 -0.0664 -0.2527
  146TMC2     H 2276   4.617   1.786  12.755  0.1865  1.7281  0.6598
  146TMC2    H1 2277   0.190   2.044  12.609 -2.5453  0.3300  0.1836
  146TMC2    H2 2278   0.202   1.630  12.534 -2.8143 -2.5265  1.0335
  146TMC2    C7 2279   0.339   1.871  12.505  0.1321 -0.1453 -0.5997
  146TMC2    C8 2280   4.690   1.581  12.621  0.7625  0.3511 -0.3830
  146TMC2    O1 2281   0.392   1.979  12.511  0.1410 -0.7659  0.6667
  146TMC2    O2 2282   4.634   1.554  12.517 -0.0574 -0.2589 -0.3300
  146TMC2    O5 2283   4.658   1.534  12.745 -0.3693 -0.0935 -0.5111
  146TMC2    H5 2284   4.706   1.580  12.817 -0.1525 -0.4081 -0.4563
  147MPD2     C 2285   0.705   1.779  12.156 -0.5681  0.4638 -0.4718
  147MPD2    C1 2286   0.714   1.842  12.285  0.1566  0.3395 -0.5244
  147MPD2    C2 2287   0.602   1.852  12.372 -0.0643 -0.1920  0.0638
  147MPD2    C3 2288   0.483   1.787  12.331 -0.6955  0.2669 -0.0057
  147MPD2    C4 2289   0.491   1.701  12.225  0.3949  0.4476 -0.0622
  147MPD2    C5 2290   0.589   1.699  12.135 -0.1200  0.4207  0.3460
  147MPD2     H 2291   0.603   1.912  12.462  0.2406  0.8750 -0.6505
  147MPD2    H1 2292   0.409   1.633  12.205  3.0484 -3.7169  3.1753
  147MPD2    H2 2293   0.788   1.779  12.086 -0.7195  2.0273 -0.6373
  147MPD2    H3 2294   0.585   1.631  12.050  0.0791  0.4083  0.3460
  147MPD2     N 2295   0.363   1.783  12.407 -0.2165 -0.2905  0.1108
  147MPD2    H5 2296   0.301   1.706  12.386  1.5500 -1.5928 -0.3592
  147MPD2    N1 2297   0.842   1.898  12.323 -0.3865  0.0217 -0.2665
  147MPD2    H7 2298   0.915   1.879  12.254  1.2955  1.3773  1.1262
  148TMC2    C1 2299   0.730   0.877  11.027 -0.0256  0.0991 -0.0277
  148TMC2    C2 2300   0.864   0.908  11.016 -0.2345 -0.0176 -0.0676
  148TMC2    C3 2301   0.964   0.823  11.069  0.3288  0.6154  0.3286
  148TMC2    C4 2302   0.695   0.756  11.075  0.1681  0.2748 -1.0323
  148TMC2    C5 2303   0.795   0.681  11.133 -0.3613 -0.0258 -0.4503
  148TMC2    C6 2304   0.928   0.711  11.143  0.0279  0.9233  0.0826
  148TMC2     C 2305   0.639   0.947  10.941  0.6263 -0.5032  0.0106
  148TMC2     O 2306   0.673   1.060  10.911 -0.4160 -0.0076 -0.1847
  148TMC2     H 2307   0.894   0.993  10.957 -3.0184  0.7241 -0.4362
  148TMC2    H1 2308   0.594   0.718  11.078 -0.7158  2.4559 -4.0402
  148TMC2    H2 2309   1.005   0.647  11.186 -1.1029 -0.9160 -0.6506
  148TMC2    C7 2310   0.747   0.584  11.228 -0.1212 -0.0138 -0.1348
  148TMC2    C8 2311   1.097   0.845  11.028  0.3646 -0.0259 -0.2827
  148TMC2    O1 2312   0.830   0.552  11.315  0.5235 -0.2303  0.2121
  148TMC2    O2 2313   1.139   0.956  11.002  0.4866 -0.3480 -0.2612
  148TMC2    O5 2314   1.136   0.732  10.968  0.4198  0.5233  0.3444
  148TMC2    H5 2315   1.070   0.660  10.975  1.0803  0.1051  2.1688
  149MPD2     C 2316   0.473   1.029  10.713  0.3609  0.5854  0.3359
  149MPD2    C1 2317   0.454   0.908  10.781  0.1387  0.2355  0.0432
  149MPD2    C2 2318   0.360   0.816  10.733  0.8057  0.2227 -0.3132
  149MPD2    C3 2319   0.277   0.850  10.625  0.1428 -0.2100  0.0698
  149MPD2    C4 2320   0.292   0.979  10.573 -0.4098  0.2421 -0.0737
  149MPD2    C5 2321   0.395   1.062  10.613  0.0011  0.0190  0.1443
  149MPD2     H 2322   0.345   0.720  10.781  0.5238  0.8674  0.9048
  149MPD2    H1 2323   0.228   1.010  10.492 -0.7359  1.3593  0.6094
  149MPD2    H2 2324   0.565   1.083  10.730  1.1573  0.4400 -3.6546
  149MPD2    H3 2325   0.419   1.147  10.551 -1.9524 -1.0863 -2.1133
  149MPD2     N 2326   0.167   0.769  10.580 -0.8847 -0.0852  0.3753
  149MPD2    H5 2327   0.100   0.810  10.515  0.5366 -0.3083 -1.2191
  149MPD2    N1 2328   0.545   0.869  10.889  0.2217 -1.0796  0.3324
  149MPD2    H7 2329   0.548   0.774  10.924 -2.9930 -1.2015  0.2647
  150TMC2    C1 2330   2.593   0.354  12.458 -0.7688  0.5900 -0.1009
  150TMC2    C2 2331   2.547   0.440  12.365  0.2545  0.3098  0.9574
  150TMC2    C3 2332   2.638   0.482  12.270 -0.7029 -0.6226  0.0531
  150TMC2    C4 2333   2.727   0.329  12.466  0.0492  0.0509 -0.0907
  150TMC2    C5 2334   2.816   0.381  12.376  0.5195 -0.0483 -0.5215
  150TMC2    C6 2335   2.770   0.461  12.273  0.4600  1.0320  0.6456
  150TMC2     C 2336   2.505   0.280  12.543 -0.2106  0.1743  0.6845
  150TMC2     O 2337   2.559   0.240  12.646  0.2593  0.6997 -0.2276
  150TMC2     H 2338   2.444   0.470  12.349 -0.1003 -0.6821  1.3986
  150TMC2    H1 2339   2.760   0.289  12.561 -1.6020  0.3363  0.6012
  150TMC2    H2 2340   2.840   0.498  12.199  1.7259  1.0327  1.8321
  150TMC2    C7 2341   2.957   0.358  12.388  0.4694  0.3149 -0.2649
  150TMC2    C8 2342   2.585   0.551  12.155 -0.1714 -0.2034  0.3244
  150TMC2    O1 2343   3.032   0.435  12.330 -0.4408  0.0266  0.5620
  150TMC2    O2 2344   2.474   0.598  12.156 -0.5590 -0.2537  0.2174
  150TMC2    O5 2345   2.646   0.495  12.046  0.2281  0.4900  0.6233
  150TMC2    H5 2346   2.724   0.442  12.072  0.7590  0.3275 -1.2952
  151MPD2     C 2347   2.066   0.042  12.646  0.0080 -0.1965 -0.3333
  151MPD2    C1 2348   2.043   0.117  12.534 -0.3123  0.1567  0.0694
  151MPD2    C2 2349   2.150   0.186  12.488 -0.0068 -0.2450  0.3877
  151MPD2    C3 2350   2.278   0.177  12.551 -0.3784 -0.7737 -0.7074
  151MPD2    C4 2351   2.299   0.098  12.666 -0.5422 -0.4322 -0.0579
  151MPD2    C5 2352   2.180   0.042  12.718 -0.3216 -0.3912 -0.8292
  151MPD2     H 2353   2.148   0.256  12.405 -0.5487 -0.9845 -0.2225
  151MPD2    H1 2354   2.394   0.079  12.714  0.8407  2.5706 -1.5700
  151MPD2    H2 2355   1.984   4.720  12.685  1.2943 -1.7668 -0.0016
  151MPD2    H3 2356   2.188   4.715  12.805 -1.2499  0.0662 -0.4030
  151MPD2     N 2357   2.374   0.264  12.500 -0.2659  0.2575  0.5635
  151MPD2    H5 2358   2.345   0.313  12.416 -0.3460  0.4645  0.7126
  151MPD2    N1 2359   1.923   0.104  12.470 -0.3547  0.2102 -0.1419
  151MPD2    H7 2360   1.856   0.032  12.497  0.2810  0.8048  2.9263
  152TMC2    C1 2361   2.305   4.575  13.108 -0.5111 -0.5222  0.8981
  152TMC2    C2 2362   2.357   4.451  13.129 -0.2179 -0.3775 -0.7047
  152TMC2    C3 2363   2.495   4.442  13.138 -0.7481  1.0736  0.4089
  152TMC2    C4 2364   2.384   4.682  13.095  0.0646  0.3976  0.2275
  152TMC2    C5 2365   2.524   4.666  13.105 -0.2939 -0.1683  0.0427
  152TMC2    C6 2366   2.576   4.546  13.138 -0.4280  0.5528 -0.2323
  152TMC2     C 2367   2.164   4.597  13.105  0.1530 -0.3631 -0.2790
  152TMC2     O 2368   2.124   4.700  13.048  0.5039 -0.1109  0.0736
  152TMC2     H 2369   2.296   4.361  13.135  0.2394 -0.5268  1.6466
  152TMC2    H1 2370   2.342   0.039  13.061 -2.0737 -0.3127  0.8883
  152TMC2    H2 2371   2.682   4.530  13.153 -0.5733 -0.5896 -0.3801
  152TMC2    C7 2372   2.600   0.037  13.034  0.7218  0.0123 -1.1020
  152TMC2    C8 2373   2.557   4.326  13.210 -0.6261  1.0048  1.2233
  152TMC2    O1 2374   2.535   0.119  12.968 -0.4273  0.2196 -0.7945
  152TMC2    O2 2375   2.573   4.335  13.332 -0.2482 -0.1084  0.1070
  152TMC2    O5 2376   2.491   4.225  13.156  0.1017 -0.8461 -0.3256
  152TMC2    H5 2377   2.478   4.248  13.062  0.0934 -3.1102 -0.8810
  153MPD2     C 2378   1.910   4.394  13.272  1.1151  0.4319 -0.5914
  153MPD2    C1 2379   1.960   4.496  13.192 -0.4120  0.3390 -0.7459
  153MPD2    C2 2380   1.866   4.578  13.122  0.0589 -0.0970  0.0146
  153MPD2    C3 2381   1.726   4.558  13.127 -0.4537  0.2592  0.4910
  153MPD2    C4 2382   1.685   4.461  13.216 -0.0764 -0.2922 -0.3235
  153MPD2    C5 2383   1.773   4.372  13.275  0.8668 -0.3852 -1.2640
  153MPD2     H 2384   1.906   4.666  13.072  0.4262 -0.3638 -0.1598
  153MPD2    H1 2385   1.582   4.432  13.230  0.3167 -0.4076  2.3104
  153MPD2    H2 2386   1.972   4.331  13.334  1.0526  1.9825  1.0481
  153MPD2    H3 2387   1.748   4.287  13.338 -0.5234  1.6314  0.8924
  153MPD2     N 2388   1.647   4.645  13.048 -0.1364 -0.3362 -0.7273
  153MPD2    H5 2389   1.688   4.717  12.990 -2.5245  1.4952 -0.1221
  153MPD2    N1 2390   2.100   4.501  13.180 -0.3811 -0.0400  0.5602
  153MPD2    H7 2391   2.144   4.418  13.217 -0.1074 -0.7069 -1.2276
  154TMC2    C1 2392   3.997   4.109   0.735 -0.2486 -0.2952 -0.6371
  154TMC2    C2 2393   4.062   4.104   0.861 -0.2852  0.1319  0.6957
  154TMC2    C3 2394   4.196   4.105   0.853  0.1684  0.0920  1.3450
  154TMC2    C4 2395   4.060   4.109   0.610 -0.0914  0.0057  0.2509
  154TMC2    C5 2396   4.200   4.115   0.615 -0.2103  0.1732  0.5283
  154TMC2    C6 2397   4.267   4.109   0.731 -0.1930 -0.6416 -0.6706
  154TMC2     C 2398   3.854   4.088   0.736  0.7659 -0.1941  0.8442
  154TMC2     O 2399   3.797   4.092   0.845 -0.1968 -0.4190  0.4478
  154TMC2     H 2400   4.008   4.093   0.954 -1.7244  1.3725 -0.0029
  154TMC2    H1 2401   4.014   4.116   0.512  0.9877 -0.1721 -0.2616
  154TMC2    H2 2402   4.375   4.118   0.738 -0.2761 -0.5677  0.7047
  154TMC2    C7 2403   4.265   4.139   0.489  0.1550 -0.1153 -0.1955
  154TMC2    C8 2404   4.265   4.111   0.980  0.4374  0.0451 -0.0749
  154TMC2    O1 2405   4.187   4.156   0.396 -0.0052  0.0575 -0.1844
  154TMC2    O2 2406   4.227   4.166   1.085 -0.3000 -0.1091 -0.3109
  154TMC2    O5 2407   4.378   4.044   0.976  0.7296 -0.6827 -0.3192
  154TMC2    H5 2408   4.381   3.995   0.892 -0.4554 -1.6392  0.2035
  155MPD2     C 2409   3.634   4.053   0.445  0.2773  0.6350  0.1931
  155MPD2    C1 2410   3.668   4.054   0.578 -0.3514 -0.2506  0.2314
  155MPD2    C2 2411   3.560   4.059   0.668 -0.9748  0.0988  0.3585
  155MPD2    C3 2412   3.423   4.063   0.626  0.3619  0.0488  0.7683
  155MPD2    C4 2413   3.396   4.047   0.494 -0.0226 -0.2686 -0.2535
  155MPD2    C5 2414   3.502   4.052   0.400 -0.1792  0.0481  0.3994
  155MPD2     H 2415   3.588   4.048   0.772  0.3953 -2.0613 -0.2340
  155MPD2    H1 2416   3.293   4.045   0.460 -0.4454 -2.4510  1.1226
  155MPD2    H2 2417   3.708   4.059   0.366  1.3575  0.4156  1.1961
  155MPD2    H3 2418   3.483   4.036   0.295 -0.7428  0.4250  0.4451
  155MPD2     N 2419   3.323   4.049   0.724  0.3082 -0.0810  0.0504
  155MPD2    H5 2420   3.358   4.054   0.819  0.2311 -1.8015  0.1656
  155MPD2    N1 2421   3.804   4.066   0.616  0.6249  0.2377 -0.2593
  155MPD2    H7 2422   3.876   4.073   0.545  0.1912 -1.7129 -0.8913
  156TMC2    C1 2423   3.100   2.193  12.168 -0.6969 -0.1328 -0.2438
  156TMC2    C2 2424   3.191   2.153  12.075 -0.1434 -0.3561 -1.1794
  156TMC2    C3 2425   3.206   2.222  11.957  0.0742  0.3106  0.0024
  156TMC2    C4 2426   3.018   2.292  12.133  0.8850 -0.1545 -0.0977
  156TMC2    C5 2427   3.020   2.354  12.008 -0.1033  0.1250 -0.2335
  156TMC2    C6 2428   3.127   2.332  11.929  0.6307 -0.2655 -0.1776
  156TMC2     C 2429   3.041   2.102  12.263 -0.0905  0.5564 -0.4203
  156TMC2     O 2430   2.919   2.114  12.259  0.3211  0.6246  0.0032
  156TMC2     H 2431   3.241   2.060  12.101  0.5155  0.4502  0.3958
  156TMC2    H1 2432   2.942   2.325  12.203  0.0054  2.2252 -2.1814
  156TMC2    H2 2433   3.137   2.375  11.831 -2.1616  1.0887  0.1354
  156TMC2    C7 2434   2.932   2.468  11.990  0.1074 -0.1353 -0.6022
  156TMC2    C8 2435   3.257   2.151  11.836 -0.3620  0.0346 -0.1657
  156TMC2    O1 2436   2.980   2.569  11.936  0.2137  0.2590 -0.4796
  156TMC2    O2 2437   3.233   2.206  11.728 -0.2042 -0.5203 -0.3225
  156TMC2    O5 2438   3.248   2.014  11.870 -0.0958 -0.3448  0.4645
  156TMC2    H5 2439   3.295   1.993  11.953  2.2786  2.4219 -0.1840
  157MPD2     C 2440   3.167   1.944  12.572  0.1165 -0.0519  0.1563
  157MPD2    C1 2441   3.078   2.005  12.483 -0.1150 -0.5720  0.1837
  157MPD2    C2 2442   2.950   2.030  12.520 -0.3310 -0.4791  0.2069
  157MPD2    C3 2443   2.901   1.982  12.645 -0.1319 -0.0037  0.4951
  157MPD2    C4 2444   2.989   1.924  12.729 -0.4305 -1.0076  0.3491
  157MPD2    C5 2445   3.121   1.909  12.696  0.0272 -0.4967 -0.1088
  157MPD2     H 2446   2.888   2.108  12.478 -1.4207 -1.5825 -0.2619
  157MPD2    H1 2447   2.963   1.876  12.823  0.4936 -1.3286  0.4388
  157MPD2    H2 2448   3.265   1.913  12.537 -0.8833 -1.4046 -1.4146
  157MPD2    H3 2449   3.185   1.845  12.757 -1.6992 -1.5239  0.6036
  157MPD2     N 2450   2.772   2.002  12.697 -0.0468  0.0808  0.2253
  157MPD2    H5 2451   2.751   1.980  12.794  0.7054  2.1407  0.8738
  157MPD2    N1 2452   3.126   2.041  12.357  0.5898 -0.4477 -0.3549
  157MPD2    H7 2453   3.223   2.026  12.333  0.9673 -0.6840  1.3120
  158TMC2    C1 2454   3.284   1.020  13.556 -0.3834  0.7036 -0.3452
  158TMC2    C2 2455   3.302   1.004  13.420 -0.4331  0.2931 -0.0912
  158TMC2    C3 2456   3.211   1.067  13.340  0.4379  0.4011  0.1855
  158TMC2    C4 2457   3.173   1.087  13.611 -0.2047 -0.6015 -0.1877
  158TMC2    C5 2458   3.097   1.161  13.519  0.3631 -0.5217 -0.0831
  158TMC2    C6 2459   3.114   1.154  13.385 -0.2877 -0.0019 -0.4568
  158TMC2     C 2460   3.386   0.951  13.635 -0.7820  0.3272 -0.3776
  158TMC2     O 2461   3.492   0.922  13.583  0.1660 -0.7845 -0.2231
  158TMC2     H 2462   3.374   0.933  13.381 -1.7274 -1.5609  0.8728
  158TMC2    H1 2463   3.163   1.098  13.718  0.3599  1.8032 -0.3912
  158TMC2    H2 2464   3.034   1.191  13.321  0.3679  0.6753 -0.8748
  158TMC2    C7 2465   2.978   1.225  13.572 -0.1202 -0.5672 -0.1156
  158TMC2    C8 2466   3.222   1.039  13.200 -0.4396  0.1762  0.1501
  158TMC2    O1 2467   2.911   1.296  13.495 -0.4746 -0.3382  0.4459
  158TMC2    O2 2468   3.336   1.009  13.164  0.0185  0.2252  0.3061
  158TMC2    O5 2469   3.138   1.101  13.122 -0.3483  0.0492 -0.2224
  158TMC2    H5 2470   3.045   1.111  13.153  0.2170  2.0256  0.8744
  159MPD2     C 2471   3.569   0.846  14.103 -0.0780 -0.4191 -0.6323
  159MPD2    C1 2472   3.429   0.864  14.120 -0.4030  0.3415  0.3232
  159MPD2    C2 2473   3.359   0.901  14.007 -0.3297  0.2639 -0.1171
  159MPD2    C3 2474   3.423   0.908  13.878 -0.1739  0.1193 -0.4734
  159MPD2    C4 2475   3.561   0.889  13.867 -0.1667  0.6490 -0.1486
  159MPD2    C5 2476   3.633   0.853  13.979  0.0726 -0.3922  0.1167
  159MPD2     H 2477   3.252   0.918  14.002 -0.8304 -1.7684  3.6959
  159MPD2    H1 2478   3.616   0.903  13.774  1.3296 -0.4851  0.5700
  159MPD2    H2 2479   3.623   0.812  14.190  0.0969 -0.8965 -0.9255
  159MPD2    H3 2480   3.737   0.824  13.974 -0.5851 -2.3942 -1.8927
  159MPD2     N 2481   3.341   0.938  13.766 -0.5374 -0.6278 -0.5555
  159MPD2    H5 2482   3.243   0.948  13.788 -0.6737 -0.7925 -1.1123
  159MPD2    N1 2483   3.378   0.860  14.253  0.3648 -0.0814 -0.1235
  159MPD2    H7 2484   3.445   0.834  14.324  1.1303 -0.4692 -0.9797
  160TMC2    C1 2485   2.598   3.060   1.940  0.6536  0.4459 -0.0028
  160TMC2    C2 2486   2.552   3.016   2.062  0.3056 -0.8380  0.4538
  160TMC2    C3 2487   2.646   3.011   2.165 -0.3815  0.3767 -0.4261
  160TMC2    C4 2488   2.728   3.085   1.910  0.0298  0.2366  0.2844
  160TMC2    C5 2489   2.815   3.070   2.016  0.3114  0.3065 -0.2014
  160TMC2    C6 2490   2.777   3.034   2.140  0.6299 -0.5740  0.5498
  160TMC2     C 2491   2.502   3.089   1.845 -0.0221  0.0856  0.1324
  160TMC2     O 2492   2.397   3.024   1.850 -0.3794  0.1502  0.1479
  160TMC2     H 2493   2.448   2.998   2.083  0.0592  0.6077  0.4406
  160TMC2    H1 2494   2.776   3.080   1.813 -0.2688 -1.1036  0.2064
  160TMC2    H2 2495   2.859   3.005   2.205  0.7117  0.0003  0.7043
  160TMC2    C7 2496   2.957   3.054   1.992 -0.7354  0.3863  0.4400
  160TMC2    C8 2497   2.612   2.937   2.276  0.1738 -1.1396  0.3836
  160TMC2    O1 2498   3.030   2.994   2.076 -0.8319  0.7554  0.1765
  160TMC2    O2 2499   2.534   2.971   2.361  0.1233  0.0104 -0.2156
  160TMC2    O5 2500   2.604   2.815   2.217  0.4128  0.1036 -0.4335
  160TMC2    H5 2501   2.640   2.816   2.126 -1.3238  0.8269 -1.1265
  161MPD2     C 2502   2.344   3.171   1.601  0.3033  0.5601  0.5537
  161MPD2    C1 2503   2.458   3.227   1.645  0.2870 -0.5762  0.2026
  161MPD2    C2 2504   2.501   3.340   1.564 -0.0457 -0.2698  0.3145
  161MPD2    C3 2505   2.428   3.393   1.453 -0.3633  0.2009  0.2567
  161MPD2    C4 2506   2.321   3.311   1.416 -0.6407  0.5628 -1.2137
  161MPD2    C5 2507   2.283   3.205   1.485 -0.0452 -0.1332  0.3025
  161MPD2     H 2508   2.593   3.393   1.585 -1.6543  2.8096 -0.3393
  161MPD2    H1 2509   2.250   3.347   1.342 -2.1717  0.5618  0.2842
  161MPD2    H2 2510   2.304   3.086   1.654  0.4895 -0.7583 -1.4394
  161MPD2    H3 2511   2.197   3.145   1.461  0.2896  0.4416 -2.3090
  161MPD2     N 2512   2.447   3.513   1.382 -0.3860  0.5935 -0.3671
  161MPD2    H5 2513   2.383   3.534   1.306 -1.0313  0.9389  0.2805
  161MPD2    N1 2514   2.538   3.194   1.757 -0.0572  0.3113 -0.5261
  161MPD2    H7 2515   2.625   3.243   1.776  1.0137 -1.3848 -1.0691
  162TMC2    C1 2516   0.728   0.582   1.505  0.6946 -0.2974  0.4345
  162TMC2    C2 2517   0.628   0.650   1.444 -0.4152 -0.5220  0.1865
  162TMC2    C3 2518   0.558   0.743   1.519 -0.7150 -0.0359  0.6430
  162TMC2    C4 2519   0.772   0.612   1.630  0.4969 -0.1544 -0.0978
  162TMC2    C5 2520   0.697   0.712   1.698  0.2658 -0.1987 -0.5094
  162TMC2    C6 2521   0.590   0.777   1.648  0.2681 -0.4422 -0.1338
  162TMC2     C 2522   0.773   0.469   1.436  0.3882 -0.0263 -0.1250
  162TMC2     O 2523   0.721   0.425   1.330  0.1909  0.7347 -0.3730
  162TMC2     H 2524   0.586   0.615   1.351 -1.7392  1.8923 -0.1171
  162TMC2    H1 2525   0.834   0.542   1.685 -0.7362  0.8958  2.6497
  162TMC2    H2 2526   0.532   0.845   1.707  0.3083 -0.3712 -0.1761
  162TMC2    C7 2527   0.688   0.696   1.840 -0.0940  0.7495 -1.0289
  162TMC2    C8 2528   0.438   0.793   1.465  0.4466 -0.3193  0.5882
  162TMC2    O1 2529   0.580   0.725   1.887 -0.5086 -0.8628  0.1747
  162TMC2    O2 2530   0.336   0.812   1.531  0.3853  0.4433  0.0687
  162TMC2    O5 2531   0.467   0.869   1.357  0.4440 -0.0825  0.1583
  162TMC2    H5 2532   0.563   0.867   1.336  0.4470  3.2954 -0.1102
  163MPD2     C 2533   1.164   0.139   1.321 -0.2870 -0.3031  1.0926
  163MPD2    C1 2534   1.059   0.184   1.241  0.4513  0.1469 -0.2140
  163MPD2    C2 2535   0.961   0.269   1.298 -0.0383 -0.6649  0.0009
  163MPD2    C3 2536   0.973   0.320   1.427 -1.0557 -0.7292 -0.6036
  163MPD2    C4 2537   1.085   0.279   1.497 -0.1464  0.1808  0.2268
  163MPD2    C5 2538   1.177   0.194   1.447 -0.0993 -0.4113  0.4026
  163MPD2     H 2539   0.886   0.321   1.239 -1.0174 -2.1831 -0.0770
  163MPD2    H1 2540   1.105   0.329   1.591 -0.4127  1.7145 -0.5307
  163MPD2    H2 2541   1.235   0.062   1.294  0.6214 -0.1998  3.1189
  163MPD2    H3 2542   1.257   0.169   1.517 -0.0273 -1.9417 -0.2456
  163MPD2     N 2543   0.889   0.416   1.487  0.5812 -0.1379 -0.5199
  163MPD2    H5 2544   0.923   0.449   1.577 -1.1795 -2.8420  1.1605
  163MPD2    N1 2545   1.048   0.130   1.110  0.0293  0.4789  0.8148
  163MPD2    H7 2546   1.116   0.066   1.070 -0.8916 -0.7006  1.0951
  164TMC2    C1 2547   1.222   0.773  11.367  0.4235 -0.2490 -0.0086
  164TMC2    C2 2548   1.335   0.839  11.347  0.8202 -0.0855  0.3438
  164TMC2    C3 2549   1.322   0.971  11.349 -0.9423 -0.2550 -0.6188
  164TMC2    C4 2550   1.097   0.833  11.394 -0.0062 -0.1749  0.3371
  164TMC2    C5 2551   1.087   0.971  11.393  0.1555  0.3471  0.4061
  164TMC2    C6 2552   1.205   1.042  11.373 -0.5342 -0.1124  0.4824
  164TMC2     C 2553   1.225   0.626  11.357  0.2405  0.3592  0.3413
  164TMC2     O 2554   1.151   0.567  11.433 -0.5499  0.1708 -0.0975
  164TMC2     H 2555   1.433   0.801  11.321  0.2333 -1.5357  0.2883
  164TMC2    H1 2556   1.008   0.772  11.399 -0.6444  0.7924  0.9504
  164TMC2    H2 2557   1.219   1.149  11.375  1.6994 -0.4038  1.0960
  164TMC2    C7 2558   0.961   1.036  11.377 -0.2040  0.4673  0.0868
  164TMC2    C8 2559   1.454   1.039  11.340  0.3169 -0.1824  0.2293
  164TMC2    O1 2560   0.870   0.971  11.329 -0.4018  0.0216  1.0931
  164TMC2    O2 2561   1.526   1.043  11.238  0.1589 -0.1731 -0.3777
  164TMC2    O5 2562   1.451   1.134  11.434 -0.2923  0.8751  0.3897
  164TMC2    H5 2563   1.407   1.117  11.520  1.0589 -0.3431  0.8360
  165TMC2    C1 2564   2.208   2.134   1.413  0.5043  0.1904 -0.2980
  165TMC2    C2 2565   2.204   2.040   1.521  0.1398  0.3690  0.3040
  165TMC2    C3 2566   2.299   2.056   1.619  0.0018 -0.3214  0.0115
  165TMC2    C4 2567   2.285   2.252   1.424 -0.6303 -0.8211  0.4057
  165TMC2    C5 2568   2.372   2.249   1.533 -0.1858 -0.3677  0.0268
  165TMC2    C6 2569   2.403   2.142   1.614 -0.2898 -0.2158 -0.3802
  165TMC2     C 2570   2.120   2.108   1.305  0.1469 -0.2330 -0.0535
  165TMC2     O 2571   2.009   2.065   1.334  0.4935 -0.4933  0.4166
  165TMC2     H 2572   2.131   1.960   1.526 -0.9547  1.3324 -0.1791
  165TMC2    H1 2573   2.279   2.339   1.360  0.0666 -0.1231  1.2994
  165TMC2    H2 2574   2.453   2.153   1.710 -1.1418  1.8376 -0.1553
  165TMC2    C7 2575   2.453   2.364   1.570  0.8070  0.0089 -0.0861
  165TMC2    C8 2576   2.316   1.944   1.704 -0.1528  0.2660 -0.0495
  165TMC2    O1 2577   2.563   2.357   1.619  0.2605  0.1075 -0.2864
  165TMC2    O2 2578   2.277   1.956   1.817  0.2568 -0.2995 -0.3158
  165TMC2    O5 2579   2.442   1.902   1.671  0.6586 -0.2220  0.6184
  165TMC2    H5 2580   2.458   1.911   1.575 -1.2497 -0.0445  0.3071
  166MPD2     C 2581   1.999   2.199   0.800 -0.0076 -0.2208 -0.1533
  166MPD2    C1 2582   1.925   2.155   0.907 -0.1174 -0.4913  0.0647
  166MPD2    C2 2583   1.978   2.142   1.037 -0.0576  0.4783  0.9784
  166MPD2    C3 2584   2.110   2.182   1.055  0.1205 -0.6037 -0.1197
  166MPD2    C4 2585   2.183   2.242   0.955  0.3603  0.1148  0.8135
  166MPD2    C5 2586   2.130   2.228   0.827  0.4160  0.2812 -0.0682
  166MPD2     H 2587   1.920   2.098   1.117  0.0441 -0.5126  0.5073
  166MPD2    H1 2588   2.279   2.281   0.986 -0.7596  3.8351 -0.4962
  166MPD2    H2 2589   1.957   2.200   0.701 -1.3323  2.2487  0.4412
  166MPD2    H3 2590   2.194   2.251   0.742 -0.4796  1.6290 -0.3796
  166MPD2     N 2591   2.174   2.171   1.188 -0.0224 -0.4717 -0.1229
  166MPD2    H5 2592   2.270   2.202   1.197 -0.2034 -0.7911  2.9762
  166MPD2    N1 2593   1.795   2.108   0.870 -0.3162 -0.3455 -0.1696
  166MPD2    H7 2594   1.766   2.132   0.776 -0.5621  0.5831  0.1516
  167TMC2    C1 2595   0.020   0.940  13.014  0.8186 -0.6780  0.1986
  167TMC2    C2 2596   4.700   0.970  13.136 -0.4175 -0.5828 -0.0791
  167TMC2    C3 2597   4.651   0.871  13.216  0.0440 -0.1315  0.1753
  167TMC2    C4 2598   0.027   0.808  12.977  0.1609 -0.3872 -0.6446
  167TMC2    C5 2599   4.736   0.711  13.071 -0.0625  0.3473 -0.3154
  167TMC2    C6 2600   4.683   0.742  13.192  0.1333  0.5466 -0.3587
  167TMC2     C 2601   0.021   1.044  12.906 -0.3126  0.4543  0.6175
  167TMC2     O 2602   4.712   1.153  12.930  0.1308  0.1324 -0.2741
  167TMC2     H 2603   4.691   1.075  13.164  0.3168  0.0992 -2.4518
  167TMC2    H1 2604   0.061   0.782  12.877 -1.4662 -2.1474 -0.7337
  167TMC2    H2 2605   4.651   0.676  13.271  0.7544 -0.0242 -0.5828
  167TMC2    C7 2606   0.021   0.573  13.032  0.3538 -1.0198  0.4743
  167TMC2    C8 2607   4.623   0.912  13.352 -0.2583  0.4509 -0.1545
  167TMC2    O1 2608   4.686   0.491  13.085 -0.5550  0.3391  0.5468
  167TMC2    O2 2609   4.659   1.016  13.401  0.4185  0.1341  0.1050
  167TMC2    O5 2610   4.518   0.838  13.386  0.3292  0.3461  0.2130
  167TMC2    H5 2611   4.483   0.781  13.314  1.4576 -0.4069  0.2735
  168MPD2     C 2612   0.029   1.189  12.639 -0.2882 -0.2129 -0.1178
  168MPD2    C1 2613   0.105   1.079  12.667  0.0651 -0.2997  0.1441
  168MPD2    C2 2614   0.190   1.032  12.575 -0.3200 -0.3625 -0.3558
  168MPD2    C3 2615   0.215   1.094  12.456 -0.4533  0.0342  0.1754
  168MPD2    C4 2616   0.136   1.198  12.425 -0.9697 -0.7203 -0.1991
  168MPD2    C5 2617   0.051   1.249  12.518 -0.0393  0.1641  0.5771
  168MPD2     H 2618   0.240   0.938  12.593 -0.0703  0.0984  1.2913
  168MPD2    H1 2619   0.136   1.250  12.330  1.1633  0.4954  0.4679
  168MPD2    H2 2620   4.699   1.232  12.713  1.9880 -0.3189  2.0168
  168MPD2    H3 2621   4.733   1.340  12.494 -0.6342 -0.6698 -1.2193
  168MPD2     N 2622   0.310   1.053  12.358 -0.0534  0.1230  0.2472
  168MPD2    H5 2623   0.294   1.088  12.265 -0.3955  1.5516  0.8443
  168MPD2    N1 2624   0.098   1.006  12.796  0.0261  0.4905 -0.1906
  168MPD2    H7 2625   0.138   0.912  12.799 -1.8088 -0.2795  0.0783
  169MPD1     C 2626   2.437   0.613   8.933  0.7420  0.1213 -0.2577
  169MPD1    C1 2627   2.570   0.587   8.955 -0.4211  0.0532 -0.6354
  169MPD1    C2 2628   2.621   0.571   9.078  0.0960 -0.0331 -0.1753
  169MPD1    C3 2629   2.534   0.577   9.185 -0.5276  0.4445 -0.3898
  169MPD1    C4 2630   2.399   0.607   9.169 -0.9682 -0.2821 -0.5875
  169MPD1    C5 2631   2.355   0.616   9.043  0.1926 -0.0731 -0.1267
  169MPD1     H 2632   2.722   0.536   9.094  0.1152  0.4219  0.7002
  169MPD1    H1 2633   2.320   0.607   9.243 -1.2027 -1.2254 -0.8372
  169MPD1    H2 2634   2.394   0.617   8.834 -0.2428 -1.0465  0.1208
  169MPD1    H3 2635   2.249   0.625   9.024  0.8347 -0.4456 -4.0682
  169MPD1     N 2636   2.588   0.552   9.313  0.1366 -0.1196  0.1867
  169MPD1    H5 2637   2.689   0.543   9.318  0.1867 -1.4375 -2.7008
  169MPD1    N1 2638   2.654   0.571   8.846 -0.9767  0.7652 -0.0800
  169MPD1    H6 2639   2.637   0.623   8.760  1.5100 -0.4117 -1.2962
  169MPD1    H7 2640   2.755   0.576   8.858 -1.0648  3.1533 -0.3470
  170MPD1     C 2641   1.336   2.269  13.269  0.3785 -0.5094 -0.7826
  170MPD1    C1 2642   1.257   2.258  13.376 -0.9452 -0.4893  0.1797
  170MPD1    C2 2643   1.256   2.365  13.465 -0.0054 -0.9126 -0.5446
  170MPD1    C3 2644   1.335   2.476  13.445  0.1023  0.1983  0.2070
  170MPD1    C4 2645   1.428   2.472  13.340  0.2105 -0.1970  0.1828
  170MPD1    C5 2646   1.424   2.374  13.246 -0.0403 -0.2206 -0.2948
  170MPD1     H 2647   1.195   2.360  13.554  1.0189 -1.2149  0.1419
  170MPD1    H1 2648   1.512   2.541  13.335  0.6455 -0.8209 -1.1792
  170MPD1    H2 2649   1.348   2.193  13.193  1.3805 -1.2969  0.1626
  170MPD1    H3 2650   1.501   2.370  13.170 -0.9274 -0.5605 -1.1872
  170MPD1     N 2651   1.336   2.578  13.547  0.6529 -1.1465 -0.1593
  170MPD1    H5 2652   1.281   2.562  13.631  2.3560  2.4467  1.6076
  170MPD1    N1 2653   1.156   2.161  13.388 -0.3848  0.4369  0.1493
  170MPD1    H6 2654   1.178   2.079  13.332 -2.8517  1.0203 -1.7053
  170MPD1    H7 2655   1.141   2.140  13.486 -0.9707 -0.5610 -0.1573
  171MPD1     C 2656   0.232   4.078  15.397  0.5705  0.3235  0.0768
  171MPD1    C1 2657   0.244   3.950  15.349  0.4410  0.1041  0.1227
  171MPD1    C2 2658   0.280   3.853  15.440  0.5510  0.5505  0.2853
  171MPD1    C3 2659   0.316   3.889  15.566 -0.3853 -0.3794 -0.5225
  171MPD1    C4 2660   0.312   4.019  15.606 -0.5329 -0.1225  0.1357
  171MPD1    C5 2661   0.270   4.116  15.523 -0.2545 -0.2413 -0.3669
  171MPD1     H 2662   0.291   3.752  15.402  1.3754  1.0524 -0.8102
  171MPD1    H1 2663   0.339   4.051  15.706 -1.5998 -0.2021  0.4469
  171MPD1    H2 2664   0.201   4.155  15.327  0.3345 -0.0894 -0.2781
  171MPD1    H3 2665   0.263   4.219  15.556 -2.7706 -0.4771 -0.1098
  171MPD1     N 2666   0.352   3.797  15.671 -0.2332 -0.3413 -0.4845
  171MPD1    H5 2667   0.387   3.837  15.758 -1.2156 -4.4078  1.7824
  171MPD1    N1 2668   0.200   3.910  15.221 -0.1090  0.2056 -0.1349
  171MPD1    H6 2669   0.204   3.987  15.154 -0.9682 -1.8519 -2.5396
  171MPD1    H7 2670   0.220   3.817  15.187  0.7211  0.5870 -0.6767
  172MPD1     C 2671   3.959   2.959  17.490 -0.1102  0.0096 -0.0370
  172MPD1    C1 2672   3.855   3.019  17.556 -0.0712  0.1099  0.3741
  172MPD1    C2 2673   3.880   3.056  17.681 -0.4032  0.6461 -0.0454
  172MPD1    C3 2674   3.993   3.015   0.005  0.0333 -0.3597 -0.5706
  172MPD1    C4 2675   4.095   2.960  17.681  0.2078  0.2833  0.8370
  172MPD1    C5 2676   4.072   2.919  17.552 -0.0585  1.0506 -0.5340
  172MPD1     H 2677   3.805   3.113  17.735  0.8425  2.1984  0.0624
  172MPD1    H1 2678   4.186   2.932  17.734 -0.3316 -0.6651  1.2622
  172MPD1    H2 2679   3.943   2.940  17.384  1.7392  1.0998 -0.5210
  172MPD1    H3 2680   4.155   2.868  17.505 -1.3071 -1.6999  0.2654
  172MPD1     N 2681   4.019   3.040   0.143 -0.7118  0.1915  0.0305
  172MPD1    H5 2682   4.111   3.024   0.182 -0.6744 -0.2386 -0.2378
  172MPD1    N1 2683   3.745   3.072  17.490 -0.6099 -0.2209 -0.2793
  172MPD1    H6 2684   3.678   3.116  17.554  0.6881  1.0030  0.2489
  172MPD1    H7 2685   3.701   3.012  17.421 -0.3850  0.4043 -0.9580
  173MPD1     C 2686   0.002   3.630  14.576  0.2305  0.5132 -0.3215
  173MPD1    C1 2687   0.140   3.608  14.553 -0.0676 -1.0534 -0.6585
  173MPD1    C2 2688   0.200   3.505  14.626 -0.0527 -0.1375 -0.2002
  173MPD1    C3 2689   0.133   3.434  14.728  0.0226 -0.1293 -0.1445
  173MPD1    C4 2690   4.734   3.469  14.750 -0.5261 -0.2320 -0.4952
  173MPD1    C5 2691   4.666   3.558  14.662 -0.3728 -0.6065 -0.1935
  173MPD1     H 2692   0.304   3.475  14.625 -0.3070 -0.8654 -3.9230
  173MPD1    H1 2693   4.675   3.424  14.829  1.3523 -0.6811  0.6445
  173MPD1    H2 2694   4.684   3.698  14.511  1.2184  1.7498  0.1513
  173MPD1    H3 2695   4.562   3.578  14.685 -0.3140 -0.3795 -0.1211
  173MPD1     N 2696   0.202   3.348  14.811 -0.1012  0.2318 -0.1824
  173MPD1    H5 2697   0.298   3.324  14.786 -0.6688 -0.6396 -1.5550
  173MPD1    N1 2698   0.201   3.668  14.443 -0.5082  0.0190  0.2023
  173MPD1    H6 2699   0.298   3.639  14.430 -0.9372 -0.6467 -1.5958
  173MPD1    H7 2700   0.147   3.640  14.361  0.4744  1.5456 -0.9752
  174MPD1     C 2701   0.773   2.866  14.469 -0.1496  0.1517 -0.4829
  174MPD1    C1 2702   0.722   2.766  14.551  0.0978  0.5078  0.8209
  174MPD1    C2 2703   0.639   2.802  14.657 -0.3486  0.0787  0.4442
  174MPD1    C3 2704   0.603   2.938  14.673 -0.0085  0.4025  0.4959
  174MPD1    C4 2705   0.674   3.027  14.599  0.1427 -0.2210  0.1963
  174MPD1    C5 2706   0.755   2.994  14.498  0.4405  0.9941  0.4317
  174MPD1     H 2707   0.590   2.727  14.720  0.2536 -0.3747  0.3717
  174MPD1    H1 2708   0.650   3.131  14.620 -1.0508 -0.4389 -0.0518
  174MPD1    H2 2709   0.811   2.844  14.370 -0.0404  1.7181 -0.7886
  174MPD1    H3 2710   0.802   3.067  14.434  1.0819  0.4289  0.2573
  174MPD1     N 2711   0.515   2.992  14.765 -0.2899  0.0968  0.5205
  174MPD1    H5 2712   0.501   3.093  14.759 -0.2810  0.0762  0.1877
  174MPD1    N1 2713   0.737   2.631  14.517 -0.2318  0.0966 -0.3249
  174MPD1    H6 2714   0.722   2.580  14.604 -0.4645  1.0865  0.2080
  174MPD1    H7 2715   0.831   2.614  14.482  0.6235  1.7966  1.1552
  175MPD1     C 2716   3.895   4.568  15.124  0.0690  0.6156 -0.2109
  175MPD1    C1 2717   3.960   4.575  15.246 -0.0085 -0.4986  0.5590
  175MPD1    C2 2718   3.951   4.465  15.328  0.6865  0.0051  0.3992
  175MPD1    C3 2719   3.859   4.363  15.294  0.3207 -0.3341  0.0660
  175MPD1    C4 2720   3.776   4.374  15.185  0.1569 -0.1185  0.8614
  175MPD1    C5 2721   3.798   4.475  15.102  0.2078 -0.6895 -0.7903
  175MPD1     H 2722   4.008   4.460  15.420 -2.1043 -2.2460  2.0229
  175MPD1    H1 2723   3.694   4.306  15.165 -0.6963  1.8806 -2.3882
  175MPD1    H2 2724   3.914   4.642  15.047  0.3713 -0.2595 -0.9829
  175MPD1    H3 2725   3.737   4.485  15.012 -3.5440 -0.9046  1.7369
  175MPD1     N 2726   3.834   4.249  15.377  0.2539  0.5080 -0.0675
  175MPD1    H5 2727   3.756   4.190  15.351  0.4576 -0.4180  1.4191
  175MPD1    N1 2728   4.048   4.674  15.276 -0.5034 -0.0277  0.1220
  175MPD1    H6 2729   4.056   4.700  15.374  1.9033 -1.2533  0.2482
  175MPD1    H7 2730   4.045   0.011  15.206 -0.5684 -0.6514 -0.5355
  176MPD1     C 2731   0.751   0.340  17.259  0.0505 -0.5229 -0.1651
  176MPD1    C1 2732   0.746   0.452  17.177 -0.5563 -0.3877  0.0145
  176MPD1    C2 2733   0.713   0.570  17.232 -0.1386 -0.2697  0.0649
  176MPD1    C3 2734   0.682   0.581  17.364 -0.1019 -0.7137 -0.1479
  176MPD1    C4 2735   0.668   0.468  17.436 -0.8920  0.3753 -0.0290
  176MPD1    C5 2736   0.696   0.346  17.382 -0.3979 -0.3157  0.4817
  176MPD1     H 2737   0.732   0.655  17.168  0.2038 -0.4288 -0.0487
  176MPD1    H1 2738   0.630   0.460  17.537  0.5550  1.2882  0.5894
  176MPD1    H2 2739   0.787   0.246  17.219  1.4231  0.3630 -1.0006
  176MPD1    H3 2740   0.694   0.254  17.441  1.1386 -0.7539 -0.1528
  176MPD1     N 2741   0.681   0.709  17.423  0.1953  0.0041 -0.7144
  176MPD1    H5 2742   0.685   0.785  17.356 -1.4479 -1.0971 -2.0527
  176MPD1    N1 2743   0.794   0.453  17.044 -0.5644  0.4879 -0.1028
  176MPD1    H6 2744   0.789   0.363  16.997  1.3956 -1.0741  2.7180
  176MPD1    H7 2745   0.748   0.524  16.986  0.4065  1.9013  0.8678
  177MPD1     C 2746   3.854   1.274  10.426 -0.3165 -0.4560  0.2999
  177MPD1    C1 2747   3.769   1.233  10.328  0.3688  0.2677 -0.2684
  177MPD1    C2 2748   3.750   1.309  10.217  0.4544 -0.8691  0.0890
  177MPD1    C3 2749   3.824   1.424  10.198  0.1486  0.0739 -0.3075
  177MPD1    C4 2750   3.910   1.470  10.297  0.0407 -0.1139  0.6656
  177MPD1    C5 2751   3.925   1.387  10.404  0.2087  0.3916  0.2892
  177MPD1     H 2752   3.685   1.288  10.133 -0.0133 -1.0095  0.4888
  177MPD1    H1 2753   3.967   1.561  10.290  0.0215 -0.3812 -3.0006
  177MPD1    H2 2754   3.871   1.214  10.514 -0.6117  0.8305  1.2322
  177MPD1    H3 2755   4.002   1.407  10.478  0.1292  0.9330  0.2275
  177MPD1     N 2756   3.796   1.492  10.080  0.5055  0.0382 -0.2155
  177MPD1    H5 2757   3.734   1.450  10.012  0.5244 -0.4481  0.0723
  177MPD1    N1 2758   3.682   1.124  10.357  0.1290 -0.3257 -0.2298
  177MPD1    H6 2759   3.721   1.062  10.427  1.3892  1.0632  0.2896
  177MPD1    H7 2760   3.674   1.069  10.271  0.1724 -1.9613  0.8016
  178MPD1     C 2761   1.140   2.242   0.055 -0.2887  0.9540  0.0495
  178MPD1    C1 2762   1.096   2.208  17.680  0.1781 -0.1094 -0.6500
  178MPD1    C2 2763   1.130   2.076  17.639 -0.1369  0.5775 -0.5619
  178MPD1    C3 2764   1.216   1.991  17.710 -0.4147  0.1433  0.1238
  178MPD1    C4 2765   1.261   2.042   0.083  0.0239 -0.1483 -0.3241
  178MPD1    C5 2766   1.213   2.160   0.132  0.4308 -0.2574 -0.1699
  178MPD1     H 2767   1.096   2.043  17.541  1.2530 -1.2483 -0.4216
  178MPD1    H1 2768   1.333   1.993   0.147 -1.2023 -1.1839  0.2781
  178MPD1    H2 2769   1.118   2.340   0.094  1.4680  1.4798 -0.2734
  178MPD1    H3 2770   1.245   2.183   0.232  1.0847  0.9910 -0.6735
  178MPD1     N 2771   1.274   1.867  17.663  0.3568  0.4777  0.0348
  178MPD1    H5 2772   1.331   1.809  17.723  0.0372 -1.0870 -1.1598
  178MPD1    N1 2773   1.058   2.317  17.594  0.0609  0.1299  0.0071
  178MPD1    H6 2774   1.023   2.407  17.628 -1.5681 -0.0216 -1.2515
  178MPD1    H7 2775   0.999   2.287  17.517  1.9099 -1.2242 -0.8617
  179MPD1     C 2776   1.808   0.284  15.796 -0.4021 -0.4395 -0.0285
  179MPD1    C1 2777   1.672   0.313  15.775  0.7105 -0.5097  0.5267
  179MPD1    C2 2778   1.579   0.210  15.797 -0.0473 -0.0718  0.2810
  179MPD1    C3 2779   1.617   0.093  15.855 -0.0056  0.8168  0.2548
  179MPD1    C4 2780   1.749   0.067  15.870  0.2188 -0.7727  0.0312
  179MPD1    C5 2781   1.840   0.157  15.834 -0.3655 -0.0389 -0.1107
  179MPD1     H 2782   1.476   0.234  15.774 -0.2039 -1.8804 -0.8477
  179MPD1    H1 2783   1.781   4.702  15.890  3.2730  0.4196  1.2603
  179MPD1    H2 2784   1.888   0.347  15.760 -0.5694 -0.1776  0.0571
  179MPD1    H3 2785   1.942   0.129  15.856 -0.7044 -1.7000 -0.5894
  179MPD1     N 2786   1.533   4.724  15.895  0.9415 -0.3691  0.4706
  179MPD1    H5 2787   1.574   4.638  15.930  1.0041 -0.0741  1.1269
  179MPD1    N1 2788   1.629   0.437  15.722 -0.0174  0.1230  0.1509
  179MPD1    H6 2789   1.697   0.513  15.727 -1.2199  1.2611 -0.8063
  179MPD1    H7 2790   1.540   0.469  15.760 -2.1019 -1.0627 -3.6671
  180MPD1     C 2791   0.360   1.705  15.066 -0.2856  0.4927  0.3813
  180MPD1    C1 2792   0.483   1.735  15.019 -0.2487 -0.1358 -0.3642
  180MPD1    C2 2793   0.523   1.662  14.908  0.4875  0.3033 -0.6171
  180MPD1    C3 2794   0.441   1.586  14.831 -0.4314  0.3548  0.5625
  180MPD1    C4 2795   0.315   1.561  14.875 -0.1689 -0.8460  0.3035
  180MPD1    C5 2796   0.276   1.628  14.994  0.1437 -0.8735 -0.2815
  180MPD1     H 2797   0.624   1.675  14.872  1.2159 -1.1710  0.9021
  180MPD1    H1 2798   0.237   1.503  14.826 -0.0990  0.7982 -1.7496
  180MPD1    H2 2799   0.319   1.755  15.154 -1.0349 -0.1848  0.4098
  180MPD1    H3 2800   0.175   1.619  15.033  0.3484 -0.6339  0.3125
  180MPD1     N 2801   0.490   1.532  14.714  1.0569  0.0335 -0.6032
  180MPD1    H5 2802   0.590   1.544  14.703  1.0072  1.3610  0.3425
  180MPD1    N1 2803   0.572   1.828  15.081  0.1084 -0.2997 -0.1166
  180MPD1    H6 2804   0.528   1.884  15.154  1.7055 -0.1762  0.7537
  180MPD1    H7 2805   0.600   1.891  15.006 -0.7687  2.2113  1.6359
  181MPD1     C 2806   2.343   3.461  10.957 -0.7038  0.2590  0.1499
  181MPD1    C1 2807   2.388   3.437  10.830 -0.0907  0.7850  0.1589
  181MPD1    C2 2808   2.502   3.506  10.787 -0.4651  0.6345  0.3599
  181MPD1    C3 2809   2.549   3.613  10.853 -0.0161  0.3076  0.2011
  181MPD1    C4 2810   2.481   3.651  10.972 -0.3528  0.6231 -0.5653
  181MPD1    C5 2811   2.393   3.564  11.030 -0.1445  0.7137 -0.1848
  181MPD1     H 2812   2.537   3.480  10.688  1.7588 -0.7040  1.4851
  181MPD1    H1 2813   2.510   3.740  11.028 -1.9036 -0.2457  1.5772
  181MPD1    H2 2814   2.264   3.403  11.003 -0.6418  0.8371  0.9963
  181MPD1    H3 2815   2.359   3.591  11.129  0.3143 -0.4631  0.2880
  181MPD1     N 2816   2.664   3.683  10.813  0.1580  1.0987  0.4829
  181MPD1    H5 2817   2.687   3.762  10.872  1.3387 -0.6734  2.3684
  181MPD1    N1 2818   2.342   3.316  10.769 -0.4195 -0.2446 -0.0307
  181MPD1    H6 2819   2.248   3.288  10.798 -0.8153  0.8182 -0.2895
  181MPD1    H7 2820   2.351   3.310  10.668 -3.7074 -0.5185 -0.3159
  182MPD1     C 2821   2.652   0.252   0.394  0.0566  0.3795  0.2390
  182MPD1    C1 2822   2.641   0.238   0.530  0.2918  0.5553  0.0447
  182MPD1    C2 2823   2.633   0.354   0.609  0.0872  0.7265  0.0722
  182MPD1    C3 2824   2.637   0.480   0.552 -0.3210  0.0737  0.1021
  182MPD1    C4 2825   2.645   0.487   0.417 -0.3892  0.1190 -0.1034
  182MPD1    C5 2826   2.657   0.375   0.337  0.1042 -0.0049 -0.0438
  182MPD1     H 2827   2.632   0.342   0.717  0.0636 -1.2354 -0.1336
  182MPD1    H1 2828   2.660   0.588   0.380 -0.5138  0.2361  0.1599
  182MPD1    H2 2829   2.673   0.160   0.340 -1.0015  0.9952 -1.2129
  182MPD1    H3 2830   2.674   0.379   0.230 -0.3253  0.3701 -0.0934
  182MPD1     N 2831   2.641   0.597   0.626 -0.2152  0.4489  0.6148
  182MPD1    H5 2832   2.627   0.680   0.569 -0.5631 -1.6056 -2.2814
  182MPD1    N1 2833   2.675   0.115   0.586 -0.0407  0.4416  0.6342
  182MPD1    H6 2834   2.632   0.099   0.677 -1.4619 -1.4834 -0.3652
  182MPD1    H7 2835   2.676   0.034   0.524  0.4953 -0.0356  1.2665
  183MPD1     C 2836   4.536   4.530   9.913 -0.2724 -0.6971  0.0370
  183MPD1    C1 2837   4.492   4.539  10.041 -0.0503  0.4365 -0.1963
  183MPD1    C2 2838   4.404   4.442  10.090  0.4814  0.1774 -0.1131
  183MPD1    C3 2839   4.368   4.331  10.029  0.7898 -0.7907  0.3889
  183MPD1    C4 2840   4.431   4.314   9.909 -0.9262 -0.1884 -0.2762
  183MPD1    C5 2841   4.511   4.409   9.856  0.6068 -0.5959  0.0182
  183MPD1     H 2842   4.351   4.465  10.181  0.1485 -0.8319 -0.0557
  183MPD1    H1 2843   4.410   4.229   9.845 -4.4157  0.6267 -0.2140
  183MPD1    H2 2844   4.605   4.600   9.868  1.2096 -3.1064 -1.4432
  183MPD1    H3 2845   4.558   4.392   9.760 -2.2406  0.2440 -1.5219
  183MPD1     N 2846   4.278   4.248  10.095  0.4058  0.1832 -0.6211
  183MPD1    H5 2847   4.235   4.287  10.178  1.9010 -0.9994  0.7151
  183MPD1    N1 2848   4.518   4.653  10.116  0.2268 -0.1193 -0.3266
  183MPD1    H6 2849   4.604   4.694  10.080 -1.6566  2.2575 -2.1088
  183MPD1    H7 2850   4.532   4.631  10.215  0.6823 -1.5847 -0.7193
  184MPD1     C 2851   2.958   1.172  10.714  0.8021  0.6923  0.0853
  184MPD1    C1 2852   2.864   1.153  10.613 -0.5172 -0.0401  0.3646
  184MPD1    C2 2853   2.873   1.217  10.491 -0.0291  0.9578 -0.6797
  184MPD1    C3 2854   2.977   1.304  10.472  0.1743 -0.3964 -0.1271
  184MPD1    C4 2855   3.076   1.321  10.569 -0.8759 -0.6656 -0.0396
  184MPD1    C5 2856   3.067   1.252  10.690  0.3392 -0.5241 -0.3735
  184MPD1     H 2857   2.795   1.202  10.417  0.4394  1.1313 -1.2127
  184MPD1    H1 2858   3.163   1.386  10.561 -1.4630 -0.0176 -1.1529
  184MPD1    H2 2859   2.956   1.132  10.814  2.3218 -0.2129 -0.2405
  184MPD1    H3 2860   3.137   1.268  10.771  0.2030 -1.5872 -0.0376
  184MPD1     N 2861   2.996   1.379  10.354  0.0903  0.5695 -0.4494
  184MPD1    H5 2862   3.078   1.439  10.360  0.5869 -0.0499 -0.9390
  184MPD1    N1 2863   2.754   1.070  10.644  0.3823  0.3023 -0.0017
  184MPD1    H6 2864   2.715   1.027  10.560  3.3979  0.1245 -1.3205
  184MPD1    H7 2865   2.794   1.004  10.711  2.4356  0.2493 -1.2603
  185MPD1     C 2866   2.316   1.755   9.676 -0.2668  0.2589 -0.8159
  185MPD1    C1 2867   2.417   1.839   9.712 -0.7926  0.0892 -0.1834
  185MPD1    C2 2868   2.518   1.787   9.795 -0.2249  0.4836 -0.6578
  185MPD1    C3 2869   2.532   1.658   9.827 -0.4767 -0.0218 -1.4256
  185MPD1    C4 2870   2.432   1.569   9.786  0.3187 -0.1030  0.2063
  185MPD1    C5 2871   2.328   1.625   9.715 -0.0675 -0.3233 -0.5842
  185MPD1     H 2872   2.591   1.858   9.830  1.7691 -2.6977  1.6902
  185MPD1    H1 2873   2.428   1.462   9.805 -0.2715 -0.1631 -0.2904
  185MPD1    H2 2874   2.233   1.785   9.613  2.2945  2.2485 -3.2121
  185MPD1    H3 2875   2.252   1.555   9.682 -1.7591  1.9751 -1.5620
  185MPD1     N 2876   2.651   1.615   9.892 -0.3601  0.0253  0.6026
  185MPD1    H5 2877   2.647   1.521   9.931 -0.8057  0.1550  0.8579
  185MPD1    N1 2878   2.402   1.973   9.683  0.2639 -0.0722 -0.4181
  185MPD1    H6 2879   2.365   1.983   9.589  0.0846  1.3661 -0.1990
  185MPD1    H7 2880   2.481   2.038   9.685 -2.0056  2.6696 -0.0882
  186MPD1     C 2881   0.942   1.117  16.438 -0.7550  0.5326 -0.2170
  186MPD1    C1 2882   0.882   0.998  16.468 -0.5862 -0.7554  0.0783
  186MPD1    C2 2883   0.964   0.886  16.479  0.8778 -0.2255  0.2047
  186MPD1    C3 2884   1.098   0.888  16.459  0.4967 -0.9007 -0.0394
  186MPD1    C4 2885   1.151   1.009  16.430  0.1019  0.0707  0.0588
  186MPD1    C5 2886   1.076   1.123  16.425  0.3247 -0.2289  0.2986
  186MPD1     H 2887   0.916   0.791  16.501  1.7200 -0.8488 -0.6728
  186MPD1    H1 2888   1.254   1.028  16.402  0.6340 -0.7058  1.5201
  186MPD1    H2 2889   0.883   1.206  16.418  1.4484  2.1200  0.3732
  186MPD1    H3 2890   1.131   1.214  16.405  2.3880 -0.8749  3.0565
  186MPD1     N 2891   1.193   0.778  16.452 -0.4046 -0.1590  0.5089
  186MPD1    H5 2892   1.291   0.791  16.432 -0.6996  0.7587 -0.3738
  186MPD1    N1 2893   0.744   0.993  16.495  0.5638  0.0346 -0.1367
  186MPD1    H6 2894   0.702   1.073  16.448 -0.6056 -1.5553 -1.8107
  186MPD1    H7 2895   0.718   0.905  16.451  1.2717 -0.8544  1.2185
  187MPD1     C 2896   0.981   1.434   0.218 -0.5759 -0.2341 -0.5504
  187MPD1    C1 2897   1.051   1.530   0.153 -0.1501  0.1791 -0.0337
  187MPD1    C2 2898   0.972   1.627   0.084  0.1819 -0.7034  0.6704
  187MPD1    C3 2899   0.834   1.645   0.101 -0.0429  0.4297  0.2147
  187MPD1    C4 2900   0.772   1.551   0.168 -0.3350  0.6655 -0.0302
  187MPD1    C5 2901   0.845   1.448   0.225 -0.3679 -0.2616 -0.2246
  187MPD1     H 2902   1.017   1.691   0.010 -0.0862 -1.1902  0.0900
  187MPD1    H1 2903   0.664   1.553   0.175 -0.3827  0.3272 -0.6761
  187MPD1    H2 2904   1.027   1.345   0.260  0.4602  0.8599  0.6263
  187MPD1    H3 2905   0.789   1.367   0.270  1.4211 -2.3842 -1.7761
  187MPD1     N 2906   0.758   1.739   0.021  0.5526 -0.3950  0.6003
  187MPD1    H5 2907   0.659   1.722   0.010  0.5267 -1.3137  2.2389
  187MPD1    N1 2908   1.188   1.519   0.135 -0.5414 -0.0996  0.6230
  187MPD1    H6 2909   1.229   1.477   0.218  0.6098  2.1454  1.1982
  187MPD1    H7 2910   1.240   1.606   0.136 -0.8846  0.1097 -0.9214
  188MPD1     C 2911   1.567   2.068  10.904 -0.6642 -0.0013  0.0604
  188MPD1    C1 2912   1.573   1.941  10.957  1.1194 -0.5636  0.5072
  188MPD1    C2 2913   1.472   1.853  10.927 -0.1841  0.1951 -0.1278
  188MPD1    C3 2914   1.367   1.883  10.838  0.1619  0.1189  0.0752
  188MPD1    C4 2915   1.366   2.010  10.782 -0.5180 -0.0817  0.4066
  188MPD1    C5 2916   1.464   2.099  10.812 -0.0901 -0.7730 -0.2742
  188MPD1     H 2917   1.478   1.755  10.972 -1.0668 -1.1133 -2.8935
  188MPD1    H1 2918   1.300   2.028  10.698  0.0583  2.6978  0.5439
  188MPD1    H2 2919   1.652   2.135  10.913  0.4663 -1.0894 -2.7851
  188MPD1    H3 2920   1.474   2.187  10.750 -1.3806 -0.8100 -0.5376
  188MPD1     N 2921   1.276   1.788  10.781  0.2976  0.3037 -0.2960
  188MPD1    H5 2922   1.204   1.818  10.716  0.2146  1.0132  0.1201
  188MPD1    N1 2923   1.693   1.899  11.022 -0.1724  0.6211 -0.2071
  188MPD1    H6 2924   1.682   1.824  11.089  0.8717 -0.7995 -1.6391
  188MPD1    H7 2925   1.733   1.970  11.083  1.8251  1.7309 -2.7959
  189MPD1     C 2926   2.671   2.306   0.957 -0.1051 -0.0195 -0.7876
  189MPD1    C1 2927   2.586   2.229   0.883 -0.5409  0.5589 -0.0133
  189MPD1    C2 2928   2.493   2.291   0.801  0.3609  0.0741  0.6829
  189MPD1    C3 2929   2.493   2.432   0.780  0.4471  0.1558  0.1313
  189MPD1    C4 2930   2.590   2.506   0.843 -0.2795  0.3839  0.1069
  189MPD1    C5 2931   2.669   2.441   0.939 -0.6143  0.1927 -0.3539
  189MPD1     H 2932   2.421   2.224   0.754  0.4182  0.0591  0.6172
  189MPD1    H1 2933   2.595   2.614   0.834 -0.3060  0.4703  1.0872
  189MPD1    H2 2934   2.737   2.265   1.033  0.4527  3.6777  0.7002
  189MPD1    H3 2935   2.743   2.504   0.988 -0.1790 -1.5126  1.1790
  189MPD1     N 2936   2.387   2.486   0.710 -0.0282  0.0776  0.2045
  189MPD1    H5 2937   2.328   2.421   0.659  0.2037 -0.2875  0.3975
  189MPD1    N1 2938   2.568   2.093   0.916  0.5716 -0.1013 -0.4862
  189MPD1    H6 2939   2.521   2.052   0.835 -1.2041  2.9624 -0.9966
  189MPD1    H7 2940   2.662   2.054   0.925  0.8358  0.2639 -1.7231
  190MPD1     C 2941   0.866   1.958  15.793 -0.0200  0.4968  0.1905
  190MPD1    C1 2942   0.901   1.894  15.918  0.3377  0.1962 -0.4370
  190MPD1    C2 2943   1.026   1.835  15.923 -0.0608  0.4719  0.5283
  190MPD1    C3 2944   1.115   1.834  15.819 -0.4122 -0.5217  0.1223
  190MPD1    C4 2945   1.081   1.898  15.707  0.1428 -0.0487  0.1969
  190MPD1    C5 2946   0.959   1.957  15.692  0.9802  0.6365  0.6142
  190MPD1     H 2947   1.065   1.797  16.017 -0.9453 -0.5732  0.4646
  190MPD1    H1 2948   1.130   1.888  15.611 -0.5849 -2.7866  0.0948
  190MPD1    H2 2949   0.769   2.006  15.795 -0.4620 -0.3338 -1.2125
  190MPD1    H3 2950   0.940   1.999  15.594  1.6735  2.3684  1.2280
  190MPD1     N 2951   1.241   1.771  15.834 -0.1310 -0.6169  0.7380
  190MPD1    H5 2952   1.248   1.707  15.912  0.5267  0.3940  1.5126
  190MPD1    N1 2953   0.828   1.914  16.038 -0.2193  1.0315 -0.1483
  190MPD1    H6 2954   0.728   1.905  16.023  0.1113 -0.1423 -1.6961
  190MPD1    H7 2955   0.852   1.847  16.111  1.0092 -1.0807 -2.4761
  191MPD1     C 2956   0.471   2.916  13.845 -0.0178 -0.0004 -0.6964
  191MPD1    C1 2957   0.338   2.901  13.850  0.4098  0.4883  0.0145
  191MPD1    C2 2958   0.265   2.948  13.739 -0.7735  0.1422 -0.3716
  191MPD1    C3 2959   0.335   3.004  13.634 -0.1993 -0.4112  0.2668
  191MPD1    C4 2960   0.472   3.013  13.632  0.1770 -0.1815 -0.0456
  191MPD1    C5 2961   0.542   2.969  13.742  0.0613  0.1602 -0.0707
  191MPD1     H 2962   0.157   2.946  13.738 -0.6815 -3.3931 -1.8857
  191MPD1    H1 2963   0.525   3.065  13.553  2.6645 -2.6666  0.0019
  191MPD1    H2 2964   0.523   2.895  13.938  1.6362  1.6864 -1.2529
  191MPD1    H3 2965   0.647   2.992  13.756 -0.2512  1.1321  0.7413
  191MPD1     N 2966   0.265   3.045  13.517 -0.1359  0.6240  0.0240
  191MPD1    H5 2967   0.168   3.017  13.509  0.2229 -0.7129  0.2679
  191MPD1    N1 2968   0.273   2.859  13.972 -1.0987  0.8745  0.7852
  191MPD1    H6 2969   0.193   2.797  13.967 -0.0271 -0.4938  0.4647
  191MPD1    H7 2970   0.342   2.811  14.030 -0.7957 -0.2357 -0.4921
  192MPD1     C 2971   4.181   3.085  13.577  0.1147 -0.3738 -0.9155
  192MPD1    C1 2972   4.237   3.206  13.581  0.1603  0.0661 -0.2782
  192MPD1    C2 2973   4.353   3.229  13.511 -0.1032 -0.4880  0.2640
  192MPD1    C3 2974   4.417   3.129  13.435 -0.0353 -0.9376  0.9953
  192MPD1    C4 2975   4.360   3.002  13.439 -0.2092  0.1985 -0.2335
  192MPD1    C5 2976   4.241   2.984  13.509 -0.3307  0.3204  0.3186
  192MPD1     H 2977   4.399   3.327  13.522  1.1494 -0.8507 -1.7520
  192MPD1    H1 2978   4.418   2.923  13.393 -0.7055 -1.2477  1.6578
  192MPD1    H2 2979   4.095   3.063  13.640  0.9095 -0.5894  0.0967
  192MPD1    H3 2980   4.201   2.883  13.518 -1.5089  0.6986 -0.7144
  192MPD1     N 2981   4.537   3.149  13.366 -0.0197 -0.3337 -0.0050
  192MPD1    H5 2982   4.564   3.071  13.307  0.9652  1.1536 -1.5304
  192MPD1    N1 2983   4.167   3.313  13.636  0.1792  0.6670 -0.1139
  192MPD1    H6 2984   4.103   3.271  13.703  1.6916  0.4666  1.1955
  192MPD1    H7 2985   4.224   3.383  13.683 -0.2076  2.4460 -2.2412
  193MPD1     C 2986   0.494   3.269  17.527  0.4157 -0.0517  0.1817
  193MPD1    C1 2987   0.560   3.183  17.443  0.2240  0.2491  0.3846
  193MPD1    C2 2988   0.592   3.222  17.308  0.2608  0.1660 -0.3271
  193MPD1    C3 2989   0.540   3.337  17.256  0.8445  0.4684 -0.1135
  193MPD1    C4 2990   0.460   3.414  17.336  0.6911 -0.1441  1.2420
  193MPD1    C5 2991   0.440   3.379  17.468 -0.5741 -0.2365  0.1133
  193MPD1     H 2992   0.653   3.152  17.252 -0.9109 -0.9188 -0.2607
  193MPD1    H1 2993   0.432   3.513  17.301  1.8256 -0.3937 -0.3564
  193MPD1    H2 2994   0.477   3.254  17.633 -0.2881  2.3815  0.4254
  193MPD1    H3 2995   0.390   3.447  17.535 -1.9459 -0.0779 -1.0678
  193MPD1     N 2996   0.558   3.381  17.121  0.3939 -0.5045 -0.6076
  193MPD1    H5 2997   0.525   3.471  17.089  0.5970  0.2021  1.1484
  193MPD1    N1 2998   0.625   3.071  17.512 -0.7007  0.4072 -0.1807
  193MPD1    H6 2999   0.579   3.063  17.602 -1.3310  1.3720 -0.4207
  193MPD1    H7 3000   0.603   2.987  17.460 -1.3798 -0.0802  0.8830
  194MPD1     C 3001   2.362   0.638  17.258 -0.5240 -0.1176 -0.1710
  194MPD1    C1 3002   2.461   0.609  17.354  0.2187 -0.5896  0.3324
  194MPD1    C2 3003   2.502   0.479  17.370  0.0966  1.0844  0.1206
  194MPD1    C3 3004   2.460   0.383  17.275 -0.7977 -0.2195 -0.1193
  194MPD1    C4 3005   2.373   0.422  17.180  0.6826 -0.0734  0.2871
  194MPD1    C5 3006   2.317   0.542  17.175 -0.1257  0.4538  0.3078
  194MPD1     H 3007   2.582   0.467  17.443  1.1854  1.3968 -1.0364
  194MPD1    H1 3008   2.344   0.353  17.101  1.8572 -0.5028  0.2299
  194MPD1    H2 3009   2.307   0.730  17.247  1.6721  1.4450  1.9507
  194MPD1    H3 3010   2.241   0.560  17.100  0.2032  3.1920  0.6102
  194MPD1     N 3011   2.502   0.243  17.282 -0.1847  0.4220  0.1456
  194MPD1    H5 3012   2.469   0.183  17.207  1.9606  0.1120 -0.5411
  194MPD1    N1 3013   2.493   0.705  17.454  0.1583  0.4647 -0.1473
  194MPD1    H6 3014   2.476   0.802  17.426  0.3619 -0.1804 -2.4395
  194MPD1    H7 3015   2.587   0.699  17.493 -1.3425 -0.0784  3.3923
  195MPD1     C 3016   0.211   1.308   1.562 -0.5226 -0.0494 -0.7004
  195MPD1    C1 3017   0.185   1.435   1.513 -0.5088 -0.3224  0.0024
  195MPD1    C2 3018   0.214   1.456   1.378 -0.4202 -0.4532  0.4556
  195MPD1    C3 3019   0.287   1.365   1.301  0.0424  0.4483 -0.1131
  195MPD1    C4 3020   0.321   1.247   1.358  0.5798  0.0029 -0.9228
  195MPD1    C5 3021   0.281   1.218   1.486 -0.6702 -0.1556  0.2563
  195MPD1     H 3022   0.181   1.554   1.343 -0.6372 -0.6543  0.0960
  195MPD1    H1 3023   0.375   1.168   1.308  1.4572  0.1968 -0.2914
  195MPD1    H2 3024   0.189   1.287   1.666 -0.5673 -1.1971 -0.9521
  195MPD1    H3 3025   0.320   1.128   1.532 -2.0821  0.1281  2.0179
  195MPD1     N 3026   0.313   1.381   1.165 -0.2025 -0.5289 -0.0619
  195MPD1    H5 3027   0.350   1.300   1.116  0.5359  0.0619 -0.4799
  195MPD1    N1 3028   0.105   1.528   1.579 -0.3150 -0.5273 -0.0402
  195MPD1    H6 3029   0.128   1.521   1.678  1.1699  3.0999 -0.1310
  195MPD1    H7 3030   0.130   1.622   1.549 -1.4074  0.2308  1.4421
  196MPD1     C 3031   4.287   0.943   0.868 -0.1258  0.2175  0.2911
  196MPD1    C1 3032   4.158   0.983   0.868 -0.0551  0.7294  0.6704
  196MPD1    C2 3033   4.127   1.116   0.889 -0.1992  0.2836  0.7061
  196MPD1    C3 3034   4.233   1.211   0.904 -0.2165 -0.1185  0.5502
  196MPD1    C4 3035   4.367   1.171   0.907 -0.5701  0.1818  0.3232
  196MPD1    C5 3036   4.392   1.038   0.881 -0.6630 -0.1114 -0.6951
  196MPD1     H 3037   4.023   1.147   0.896 -0.3162 -0.0283  0.3563
  196MPD1    H1 3038   4.445   1.246   0.906 -0.2265 -0.1732  0.8918
  196MPD1    H2 3039   4.306   0.837   0.850  1.3451  0.4158  0.6698
  196MPD1    H3 3040   4.493   1.002   0.862  0.0100  1.8586 -0.8324
  196MPD1     N 3041   4.216   1.350   0.933  0.2451  0.3372 -0.3764
  196MPD1    H5 3042   4.293   1.414   0.952  2.1006 -1.4633 -1.8066
  196MPD1    N1 3043   4.052   0.887   0.871  0.2250  0.4471 -0.7293
  196MPD1    H6 3044   3.958   0.917   0.848 -0.4542 -2.3176 -1.4847
  196MPD1    H7 3045   4.067   0.799   0.823 -0.8808  0.1630 -0.5554
  197MPD1     C 3046   3.746   3.350  17.286 -1.0495 -0.0069  0.0028
  197MPD1    C1 3047   3.864   3.382  17.344 -0.2901  0.5202 -0.3509
  197MPD1    C2 3048   3.941   3.480  17.293  0.1329  0.3002  0.1235
  197MPD1    C3 3049   3.917   3.531  17.165  0.5070 -0.0778  0.1382
  197MPD1    C4 3050   3.804   3.487  17.108  0.2666 -0.5069 -0.2060
  197MPD1    C5 3051   3.711   3.405  17.167  0.1176  0.1332  0.4486
  197MPD1     H 3052   4.035   3.501  17.342  0.5213 -1.0549 -0.0553
  197MPD1    H1 3053   3.788   3.513  17.004 -0.4202 -1.8262 -0.4432
  197MPD1    H2 3054   3.668   3.297  17.340 -0.5068 -1.7586 -0.9148
  197MPD1    H3 3055   3.616   3.385  17.117  0.1455 -2.6622  1.4964
  197MPD1     N 3056   3.998   3.626  17.094  0.7000  1.0885 -0.1643
  197MPD1    H5 3057   3.979   3.647  16.997 -0.4641 -1.0635 -0.4005
  197MPD1    N1 3058   3.894   3.344  17.472 -0.1520 -0.7391  0.4944
  197MPD1    H6 3059   3.852   3.252  17.478 -3.1890  0.7445  2.6783
  197MPD1    H7 3060   3.994   3.341  17.491  0.0039 -0.2144 -0.2302
  198MPD1     C 3061   0.072   3.407  16.493  0.2203  0.8258  0.0107
  198MPD1    C1 3062   0.189   3.482  16.475 -0.7442  0.5241  0.1272
  198MPD1    C2 3063   0.302   3.424  16.414 -0.1580  0.4016 -0.5390
  198MPD1    C3 3064   0.286   3.292  16.371 -0.3364 -0.5406  0.0887
  198MPD1    C4 3065   0.171   3.228  16.373 -0.3893  0.6716  0.8595
  198MPD1    C5 3066   0.064   3.295  16.418 -0.5920  0.9067  1.2882
  198MPD1     H 3067   0.393   3.484  16.409  0.1412  0.0323  0.4946
  198MPD1    H1 3068   0.161   3.131  16.326 -0.2266  1.6510 -1.1797
  198MPD1    H2 3069   4.722   3.451  16.542  0.4577  0.7895  0.4678
  198MPD1    H3 3070   4.709   3.238  16.410  0.3012 -0.4304  0.5615
  198MPD1     N 3071   0.409   3.231  16.317  0.4409  0.3582  0.4888
  198MPD1    H5 3072   0.489   3.293  16.312  0.1854  0.4890 -1.6724
  198MPD1    N1 3073   0.207   3.606  16.539 -0.6244 -0.0066  0.1840
  198MPD1    H6 3074   0.121   3.658  16.551  0.4382  2.4590 -2.6778
  198MPD1    H7 3075   0.275   3.673  16.501 -2.1162  0.3246 -1.8885
  199MPD1     C 3076   3.802   4.586  10.617 -0.3580  0.4098  0.7025
  199MPD1    C1 3077   3.730   4.694  10.592 -0.0927  0.3320 -0.3015
  199MPD1    C2 3078   3.602   4.680  10.542  0.5360 -0.5664 -0.3150
  199MPD1    C3 3079   3.553   4.548  10.520 -0.2121  0.7915  0.5411
  199MPD1    C4 3080   3.630   4.440  10.559 -0.1901  0.6070  0.1743
  199MPD1    C5 3081   3.760   4.466  10.596 -0.4533 -0.1790  0.2332
  199MPD1     H 3082   3.537   0.028  10.526 -0.5155 -1.8039 -2.5269
  199MPD1    H1 3083   3.600   4.337  10.547  1.8145 -0.1864  1.8847
  199MPD1    H2 3084   3.902   4.598  10.658  0.1676  1.3082 -0.8475
  199MPD1    H3 3085   3.828   4.387  10.624  0.8816  0.4033 -1.3820
  199MPD1     N 3086   3.428   4.515  10.466 -0.6130 -0.2804  0.2039
  199MPD1    H5 3087   3.416   4.416  10.451  2.0489 -1.1048  3.4597
  199MPD1    N1 3088   3.792   0.079  10.600 -0.3842  0.2360  0.3484
  199MPD1    H6 3089   3.733   0.160  10.619  1.4744  1.6394  0.2138
  199MPD1    H7 3090   3.870   0.074  10.665 -0.0618  3.3538  0.2198
  200MPD1     C 3091   1.648   3.853  15.680  0.5214 -0.3100  0.8013
  200MPD1    C1 3092   1.562   3.809  15.582  0.3747 -0.5393 -0.0458
  200MPD1    C2 3093   1.615   3.749  15.464 -0.1194  0.0941  0.2722
  200MPD1    C3 3094   1.758   3.758  15.445  0.2672  0.2711  0.7836
  200MPD1    C4 3095   1.839   3.803  15.547 -0.1132 -0.3672  0.0989
  200MPD1    C5 3096   1.789   3.849  15.665 -0.1037  0.9045  0.6301
  200MPD1     H 3097   1.541   3.723  15.390  0.9587  0.0543 -0.8054
  200MPD1    H1 3098   1.946   3.791  15.533 -0.1214 -0.3328  0.0023
  200MPD1    H2 3099   1.606   3.896  15.770  1.8504  1.4384  0.5900
  200MPD1    H3 3100   1.850   3.875  15.751 -0.8013  0.1154  1.3660
  200MPD1     N 3101   1.809   3.706  15.324 -0.3261 -0.4213  0.6397
  200MPD1    H5 3102   1.743   3.661  15.262  1.3983 -0.5117 -1.1352
  200MPD1    N1 3103   1.427   3.809  15.615 -0.5533 -0.2480 -0.0470
  200MPD1    H6 3104   1.374   3.804  15.528 -0.2959 -0.1291 -0.2105
  200MPD1    H7 3105   1.390   3.892  15.661 -0.0499  0.3326 -0.6836
  201MPD1     C 3106   3.748   3.104  13.907 -0.0695 -0.3326 -0.2889
  201MPD1    C1 3107   3.726   2.968  13.885 -0.1658 -0.7260  0.1037
  201MPD1    C2 3108   3.837   2.883  13.871  0.1468 -0.5163 -0.0727
  201MPD1    C3 3109   3.971   2.936  13.875 -0.3316  0.1175  0.4293
  201MPD1    C4 3110   3.990   3.070  13.894  0.1175  0.0854 -0.0850
  201MPD1    C5 3111   3.879   3.150  13.912  0.0810 -0.5237 -0.0655
  201MPD1     H 3112   3.827   2.775  13.876  1.0555 -0.6133 -0.3427
  201MPD1    H1 3113   4.084   3.123  13.902 -0.8162  1.8634 -0.7971
  201MPD1    H2 3114   3.668   3.175  13.923 -0.4272 -0.2829 -2.3762
  201MPD1    H3 3115   3.884   3.258  13.922 -2.2118 -0.3071 -1.3256
  201MPD1     N 3116   4.066   2.836  13.850  0.0696  0.0166  0.1342
  201MPD1    H5 3117   4.030   2.742  13.836 -1.1992  0.6214 -0.7111
  201MPD1    N1 3118   3.604   2.914  13.920 -0.5070  0.2068 -0.2143
  201MPD1    H6 3119   3.533   2.983  13.896 -0.1194  1.7241  3.0562
  201MPD1    H7 3120   3.591   2.832  13.861 -1.1067  0.4761 -0.4577
  202MPD1     C 3121   0.388   3.420  10.016  0.1678  0.5041  0.9195
  202MPD1    C1 3122   0.341   3.358   9.902  0.3281  0.0871  0.6297
  202MPD1    C2 3123   0.231   3.269   9.920  0.7219  0.2360  0.1440
  202MPD1    C3 3124   0.161   3.271  10.043 -0.4265 -0.5923 -0.5080
  202MPD1    C4 3125   0.207   3.343  10.149  0.8692 -0.2003  0.4276
  202MPD1    C5 3126   0.319   3.419  10.132 -0.2830  0.6149  0.2498
  202MPD1     H 3127   0.197   3.216   9.832 -1.0207 -1.4212  1.8458
  202MPD1    H1 3128   0.150   3.352  10.241  1.8674 -0.4990  1.0766
  202MPD1    H2 3129   0.484   3.470  10.015 -0.2623  1.3193  0.4912
  202MPD1    H3 3130   0.359   3.476  10.216 -0.9317  1.6993 -0.1837
  202MPD1     N 3131   0.042   3.185  10.065 -0.1729 -1.2712  0.4997
  202MPD1    H5 3132   0.009   3.187  10.161  3.0457  1.1096  1.5738
  202MPD1    N1 3133   0.427   3.327   9.792  0.6496  0.2028  0.4409
  202MPD1    H6 3134   0.470   3.413   9.759 -1.1612  0.6052 -0.9085
  202MPD1    H7 3135   0.381   3.302   9.704 -0.0739 -0.4187  0.9943
  203MPD1     C 3136   2.569   3.244  12.838  0.2797 -0.6080 -0.7370
  203MPD1    C1 3137   2.584   3.113  12.776  0.1043  0.1537  0.7633
  203MPD1    C2 3138   2.668   3.023  12.843  0.2891 -0.1551 -0.1642
  203MPD1    C3 3139   2.751   3.062  12.946 -0.0510  0.0452 -0.4709
  203MPD1    C4 3140   2.745   3.194  12.992  0.4620  0.2591 -0.4312
  203MPD1    C5 3141   2.656   3.281  12.936 -0.3212 -0.4036 -0.3144
  203MPD1     H 3142   2.666   2.918  12.816  0.7044 -0.0842 -0.4721
  203MPD1    H1 3143   2.810   3.241  13.064  1.0923 -0.0446 -0.8003
  203MPD1    H2 3144   2.505   3.321  12.797  0.4158 -0.2582 -0.2923
  203MPD1    H3 3145   2.662   3.380  12.979  0.0023 -0.6647  0.2393
  203MPD1     N 3146   2.840   2.962  12.998 -0.0328 -0.1350  0.4763
  203MPD1    H5 3147   2.822   2.872  12.955  2.2766  0.0966 -0.9592
  203MPD1    N1 3148   2.505   3.081  12.667  0.4203 -0.2335  0.0524
  203MPD1    H6 3149   2.543   3.004  12.611 -0.7062 -1.4505  0.9618
  203MPD1    H7 3150   2.487   3.155  12.599 -2.4496 -1.0707 -0.1250
  204MPD1     C 3151   1.976   3.986   0.280  0.1442 -0.4093 -0.2067
  204MPD1    C1 3152   2.020   3.864   0.326  0.0064 -0.2658  0.7343
  204MPD1    C2 3153   2.140   3.820   0.276 -0.8349 -0.6599  0.3002
  204MPD1    C3 3154   2.215   3.894   0.190  0.2341  0.2361 -0.1182
  204MPD1    C4 3155   2.160   4.012   0.139 -0.2915  0.0173  0.0727
  204MPD1    C5 3156   2.038   4.058   0.186  0.2548 -0.3686  0.3926
  204MPD1     H 3157   2.172   3.718   0.297  0.5829  0.0139  1.3499
  204MPD1    H1 3158   2.211   4.089   0.083 -0.1669  0.4545  0.7897
  204MPD1    H2 3159   1.883   4.027   0.318  0.0941 -0.4947 -0.2380
  204MPD1    H3 3160   2.018   4.163   0.167 -0.4637 -0.7464 -0.9289
  204MPD1     N 3161   2.341   3.843   0.150  0.3602 -0.2377 -0.1524
  204MPD1    H5 3162   2.358   3.747   0.180  0.0196 -0.4435 -0.6205
  204MPD1    N1 3163   1.937   3.785   0.407 -0.0765  0.2651  0.4264
  204MPD1    H6 3164   1.886   3.854   0.461 -0.6889 -2.4486  3.3068
  204MPD1    H7 3165   1.986   3.713   0.459 -3.1604 -1.2320  1.2485
  205MPD1     C 3166   3.459   2.350  17.495 -0.5316  0.1863  0.0476
  205MPD1    C1 3167   3.448   2.483  17.468 -0.5073  0.2724  0.8907
  205MPD1    C2 3168   3.360   2.556  17.541  1.0272  0.4563 -0.5677
  205MPD1    C3 3169   3.293   2.499  17.645  0.3782 -0.3282  0.4964
  205MPD1    C4 3170   3.304   2.365  17.672 -0.4464  0.6036  0.4116
  205MPD1    C5 3171   3.388   2.288  17.593  0.6801 -0.0352 -0.2645
  205MPD1     H 3172   3.334   2.659  17.518  0.7914  0.1722 -1.5779
  205MPD1    H1 3173   3.259   2.311   0.009 -0.1387 -2.0759 -1.2024
  205MPD1    H2 3174   3.526   2.282  17.443 -3.0507 -2.5685  0.3863
  205MPD1    H3 3175   3.400   2.184  17.620  1.0553  0.5834  1.9531
  205MPD1     N 3176   3.218   2.574  17.737  0.5834 -0.2498  0.2048
  205MPD1    H5 3177   3.171   2.515   0.060  0.7560 -0.1737  0.3924
  205MPD1    N1 3178   3.503   2.536  17.355  0.6927  0.3338 -1.1805
  205MPD1    H6 3179   3.528   2.632  17.379  0.0893  0.5992 -1.5855
  205MPD1    H7 3180   3.584   2.486  17.322  0.3662  1.0938 -3.1216
  206MPD1     C 3181   2.700   0.310  16.931 -0.2692  0.3719  0.0093
  206MPD1    C1 3182   2.807   0.271  16.856  0.7887 -0.1164 -0.2168
  206MPD1    C2 3183   2.816   0.309  16.725 -0.3920  0.6364  0.2104
  206MPD1    C3 3184   2.715   0.384  16.662 -0.9159 -0.1930 -0.2810
  206MPD1    C4 3185   2.608   0.427  16.737  0.1348 -0.1437 -0.0203
  206MPD1    C5 3186   2.605   0.394  16.870 -0.0491  0.0590  0.3182
  206MPD1     H 3187   2.891   0.259  16.663 -3.1089  0.1414 -2.6915
  206MPD1    H1 3188   2.526   0.482  16.693  0.5812  1.2268  0.8520
  206MPD1    H2 3189   2.692   0.279  17.035  1.8535 -3.7522 -1.0473
  206MPD1    H3 3190   2.527   0.437  16.932 -2.0335 -2.7687 -0.2244
  206MPD1     N 3191   2.706   0.416  16.522 -0.3694 -0.1108  0.2668
  206MPD1    H5 3192   2.623   0.458  16.482 -2.5251 -3.6089  1.0882
  206MPD1    N1 3193   2.896   0.185  16.908 -0.9683  0.2168 -0.0387
  206MPD1    H6 3194   2.979   0.168  16.852  0.1468  1.8665  1.1184
  206MPD1    H7 3195   2.915   0.206  17.006  2.2155 -1.2179 -0.3413
  207MPD1     C 3196   4.651   3.004  11.036 -0.2906  0.1915  0.4254
  207MPD1    C1 3197   4.650   3.104  10.943 -0.3349  0.6554  0.8130
  207MPD1    C2 3198   0.011   3.204  10.946 -0.8079  0.2218  0.9828
  207MPD1    C3 3199   0.111   3.205  11.039  0.4547  0.1749  0.2165
  207MPD1    C4 3200   0.113   3.107  11.132 -0.7300 -0.7105  0.3986
  207MPD1    C5 3201   0.017   3.010  11.129  0.0782  0.0107 -0.2238
  207MPD1     H 3202   4.731   3.290  10.882  0.4866  0.6699  1.2458
  207MPD1    H1 3203   0.194   3.111  11.203 -1.4332  0.9903  1.1064
  207MPD1    H2 3204   4.579   2.923  11.041 -0.8188  0.6352  0.0939
  207MPD1    H3 3205   0.011   2.928  11.200  0.3618  1.3020  1.3052
  207MPD1     N 3206   0.210   3.303  11.047  0.6980  0.4795  0.2905
  207MPD1    H5 3207   0.272   3.298  11.127  1.3062  1.8141 -0.0920
  207MPD1    N1 3208   4.540   3.117  10.864  0.1703  0.0695  0.0512
  207MPD1    H6 3209   4.492   3.033  10.832  1.3754  1.2311 -4.8006
  207MPD1    H7 3210   4.554   3.179  10.785  0.2886  0.4753  0.3950
  208MPD1     C 3211   3.662   2.140   0.037 -0.1710  0.1280 -0.5258
  208MPD1    C1 3212   3.671   2.187   0.169 -0.2364 -0.0871 -0.2798
  208MPD1    C2 3213   3.624   2.101   0.274  0.8450 -0.8500  0.3521
  208MPD1    C3 3214   3.549   1.982   0.236  0.1613 -0.7279 -0.3705
  208MPD1    C4 3215   3.538   1.940   0.107 -0.0669  0.0194 -0.3910
  208MPD1    C5 3216   3.589   2.027   0.009  0.4274 -0.0327 -0.0534
  208MPD1     H 3217   3.653   2.113   0.377 -0.2265  2.5738  0.2598
  208MPD1    H1 3218   3.472   1.869   0.060  1.3005 -2.6061  1.6622
  208MPD1    H2 3219   3.711   2.197  17.704  1.4949 -1.8445 -0.9097
  208MPD1    H3 3220   3.576   2.007  17.649 -1.6793  0.1022  0.1749
  208MPD1     N 3221   3.479   1.911   0.340 -0.0558  0.1909 -0.2439
  208MPD1    H5 3222   3.480   1.949   0.434  2.1991  1.2881 -0.7159
  208MPD1    N1 3223   3.742   2.306   0.196  0.0666  0.0341  0.3531
  208MPD1    H6 3224   3.751   2.380   0.127 -2.8845 -0.2301 -0.3128
  208MPD1    H7 3225   3.715   2.340   0.288  1.5627 -1.8903  1.5081
  209MPD1     C 3226   1.805   3.491  10.181 -0.1264 -0.0068 -0.4664
  209MPD1    C1 3227   1.752   3.553  10.294 -0.2316  0.0362  0.1781
  209MPD1    C2 3228   1.641   3.511  10.352  0.1508 -0.4920 -0.6122
  209MPD1    C3 3229   1.583   3.398  10.297  0.4455 -0.2973 -0.4743
  209MPD1    C4 3230   1.633   3.335  10.189  0.3584  0.9323 -0.3687
  209MPD1    C5 3231   1.748   3.379  10.134 -0.6360  0.3180 -0.0610
  209MPD1     H 3232   1.594   3.557  10.438  1.9386 -1.5210  0.9185
  209MPD1    H1 3233   1.585   3.253  10.138  1.8272 -1.6679  2.4550
  209MPD1    H2 3234   1.895   3.530  10.133 -0.9165  0.9069 -1.2219
  209MPD1    H3 3235   1.791   3.339  10.043  0.9116  0.0669  0.7889
  209MPD1     N 3236   1.471   3.332  10.359 -0.0183 -0.0706 -0.1832
  209MPD1    H5 3237   1.459   3.234  10.333  0.5188 -0.4603  1.0674
  209MPD1    N1 3238   1.803   3.676  10.322  0.6324 -0.8239 -0.1790
  209MPD1    H6 3239   1.790   3.701  10.420 -0.1832 -0.4826 -0.3752
  209MPD1    H7 3240   1.901   3.677  10.296  0.6344  0.9034 -0.0948
  210MPD1     C 3241   1.323   2.525  10.208 -0.7710  0.3445 -0.8764
  210MPD1    C1 3242   1.205   2.544  10.273  0.2267 -0.6050 -1.0578
  210MPD1    C2 3243   1.201   2.670  10.341 -0.6106 -0.2976  0.2695
  210MPD1    C3 3244   1.293   2.771  10.331 -0.3083 -0.4792 -0.0410
  210MPD1    C4 3245   1.408   2.751  10.255  0.0841 -0.5060  0.1749
  210MPD1    C5 3246   1.423   2.624  10.203 -0.4016 -0.4385  0.7187
  210MPD1     H 3247   1.112   2.689  10.401 -1.9195  0.0646 -1.7895
  210MPD1    H1 3248   1.478   2.832  10.239 -0.0793 -0.1247  1.3551
  210MPD1    H2 3249   1.331   2.439  10.143 -0.5538 -0.3522  0.0622
  210MPD1    H3 3250   1.517   2.597  10.157 -0.1551 -2.3757  2.3591
  210MPD1     N 3251   1.282   2.898  10.392 -0.2738 -0.8998 -0.3057
  210MPD1    H5 3252   1.354   2.965  10.364 -0.9708  0.4028  1.0559
  210MPD1    N1 3253   1.097   2.453  10.262  0.1211 -0.0533  0.6047
  210MPD1    H6 3254   1.025   2.467  10.332  0.3466  1.6191  0.5185
  210MPD1    H7 3255   1.128   2.356  10.257 -1.3140 -0.4459 -0.7751
  211MPD1     C 3256   2.877   2.981  17.306  0.4303 -0.3784 -0.1016
  211MPD1    C1 3257   2.938   2.859  17.300 -0.0728 -0.1064 -0.7628
  211MPD1    C2 3258   2.948   2.792  17.180  0.8744 -0.5463 -0.0645
  211MPD1    C3 3259   2.899   2.843  17.063 -0.1281 -0.4998  0.0076
  211MPD1    C4 3260   2.830   2.962  17.073  0.2459 -0.1581 -0.2355
  211MPD1    C5 3261   2.824   3.030  17.189  0.0398  0.0341  0.3202
  211MPD1     H 3262   2.999   2.696  17.185  0.7586 -0.5363  1.3291
  211MPD1    H1 3263   2.785   3.004  16.984 -0.9130 -0.2691  0.2986
  211MPD1    H2 3264   2.861   3.030  17.401  0.9630 -2.2615  0.9527
  211MPD1    H3 3265   2.759   3.116  17.197  0.5942  0.4458  0.3777
  211MPD1     N 3266   2.913   2.769  16.947  0.5100  0.4164 -0.0458
  211MPD1    H5 3267   2.966   2.683  16.950 -1.2758 -0.7591 -1.6102
  211MPD1    N1 3268   2.965   2.793  17.420  0.0125  0.1408 -0.0768
  211MPD1    H6 3269   3.024   2.711  17.406 -0.3121  0.2880 -2.3214
  211MPD1    H7 3270   2.976   2.850  17.504 -1.4329  0.2868 -0.0019
  212MPD1     C 3271   2.020   1.330  16.821  0.0482 -0.9174 -0.5746
  212MPD1    C1 3272   1.924   1.358  16.921 -0.8736 -0.3670  0.8682
  212MPD1    C2 3273   1.861   1.238  16.975  0.1865 -0.0887  0.5363
  212MPD1    C3 3274   1.898   1.109  16.940 -0.3665  0.4901  0.3623
  212MPD1    C4 3275   2.002   1.094  16.853  0.1453 -0.1409 -0.2216
  212MPD1    C5 3276   2.065   1.204  16.796  0.1642  0.0971 -0.4764
  212MPD1     H 3277   1.793   1.255  17.059 -0.5364  0.6158 -0.1910
  212MPD1    H1 3278   2.045   0.997  16.828 -0.5595 -0.6887  0.6932
  212MPD1    H2 3279   2.076   1.407  16.769 -0.2042  0.5137  1.2587
  212MPD1    H3 3280   2.148   1.192  16.727  0.6939 -0.9931  0.3620
  212MPD1     N 3281   1.847   0.989  17.003 -0.4994 -0.0144 -0.7415
  212MPD1    H5 3282   1.866   0.899  16.960  3.4891  0.0873  0.7905
  212MPD1    N1 3283   1.875   1.490  16.941 -0.0166  0.1634 -0.5743
  212MPD1    H6 3284   1.934   1.572  16.924 -2.0760  2.1591  1.7762
  212MPD1    H7 3285   1.838   1.496  17.036 -1.4276  1.4539 -1.1908
  213MPD1     C 3286   0.332   1.481  16.323 -0.0998  0.4495  0.3483
  213MPD1    C1 3287   0.277   1.419  16.212  0.7688 -0.4543 -0.5848
  213MPD1    C2 3288   0.279   1.510  16.106  0.7609 -0.1805  0.0653
  213MPD1    C3 3289   0.363   1.620  16.097 -0.3960 -0.2313  0.9920
  213MPD1    C4 3290   0.447   1.654  16.202  0.2062 -0.1304 -0.1294
  213MPD1    C5 3291   0.419   1.581  16.318 -0.1730 -0.3061 -0.3964
  213MPD1     H 3292   0.227   1.488  16.014 -1.6582 -1.1540  1.6708
  213MPD1    H1 3293   0.516   1.737  16.201 -0.6139  0.5514  2.2814
  213MPD1    H2 3294   0.329   1.423  16.415  2.1757 -1.8405 -1.0204
  213MPD1    H3 3295   0.468   1.609  16.410 -0.5260 -2.4385  0.4434
  213MPD1     N 3296   0.367   1.689  15.975 -0.1296 -0.2222  0.1212
  213MPD1    H5 3297   0.309   1.653  15.900  1.6308 -1.9343 -0.4325
  213MPD1    N1 3298   0.173   1.336  16.247 -0.2536  0.0423  0.4493
  213MPD1    H6 3299   0.215   1.284  16.323 -0.1822  0.3830  0.6405
  213MPD1    H7 3300   0.140   1.279  16.169 -2.2271  0.8238  0.7262
  214MPD1     C 3301   4.534   1.579  15.330  0.0474 -0.2778 -0.6267
  214MPD1    C1 3302   4.510   1.649  15.444  0.5226  0.3952 -0.8071
  214MPD1    C2 3303   4.611   1.731  15.499 -0.5857 -0.3003  0.5511
  214MPD1    C3 3304   4.734   1.720  15.440 -0.0785 -0.0652 -0.2708
  214MPD1    C4 3305   0.012   1.641  15.329  0.0733 -0.8903 -0.3816
  214MPD1    C5 3306   4.650   1.578  15.262 -0.0593  0.1005  0.1015
  214MPD1     H 3307   4.589   1.798  15.581  1.1779  0.6233  0.2636
  214MPD1    H1 3308   0.111   1.628  15.286 -0.5462 -0.7485 -1.8714
  214MPD1    H2 3309   4.449   1.534  15.280  0.4442 -1.7988  0.0746
  214MPD1    H3 3310   4.659   1.538  15.162 -0.6226  0.2016  0.0146
  214MPD1     N 3311   0.117   1.778  15.487 -0.3126 -0.4475  0.1276
  214MPD1    H5 3312   0.193   1.752  15.425 -0.2698 -1.5714  0.6496
  214MPD1    N1 3313   4.376   1.656  15.481  0.8213  0.6575 -0.3003
  214MPD1    H6 3314   4.360   1.679  15.579  1.3869  2.3079 -0.5890
  214MPD1    H7 3315   4.318   1.575  15.462 -1.6548  1.9190  1.8741
  215MPD1     C 3316   0.589   2.411  11.459  0.1591  0.2048 -0.1761
  215MPD1    C1 3317   0.551   2.418  11.593 -0.4182  0.5915 -0.1493
  215MPD1    C2 3318   0.476   2.526  11.631  0.6528 -0.3383  0.3617
  215MPD1    C3 3319   0.418   2.602  11.539  0.2606  0.1418 -0.0402
  215MPD1    C4 3320   0.444   2.592  11.408 -0.3105 -0.2263  0.5708
  215MPD1    C5 3321   0.537   2.505  11.370  0.9035  0.2520 -0.2823
  215MPD1     H 3322   0.447   2.538  11.735  2.9968  2.2715  0.6874
  215MPD1    H1 3323   0.391   2.643  11.328 -0.5372  3.7558  3.2627
  215MPD1    H2 3324   0.637   2.320  11.423 -0.8224 -0.3335 -0.1208
  215MPD1    H3 3325   0.544   2.498  11.262  0.2364  0.2474 -0.3264
  215MPD1     N 3326   0.330   2.705  11.596 -0.1013 -0.5815  0.3112
  215MPD1    H5 3327   0.326   2.711  11.697 -2.2969 -0.6309  0.2298
  215MPD1    N1 3328   0.626   2.353  11.691  0.9600  0.6315  0.6299
  215MPD1    H6 3329   0.572   2.334  11.775 -1.2079 -2.1664 -1.3963
  215MPD1    H7 3330   0.663   2.266  11.653  0.4086  0.7564 -0.1891
  216MPD1     C 3331   2.350   1.121   0.776 -0.2867 -0.1832  0.4969
  216MPD1    C1 3332   2.354   1.093   0.640 -1.0812 -0.1042  0.0674
  216MPD1    C2 3333   2.322   0.968   0.598  0.5213 -0.4069  0.3677
  216MPD1    C3 3334   2.293   0.861   0.680  0.4227 -0.2050  0.1474
  216MPD1    C4 3335   2.289   0.902   0.811  0.1149 -0.0841 -0.4017
  216MPD1    C5 3336   2.311   1.019   0.857  0.4602  0.0736  0.6617
  216MPD1     H 3337   2.314   0.942   0.493 -1.3643 -1.8200  0.8459
  216MPD1    H1 3338   2.268   0.835   0.894  1.6694  1.3301  1.1396
  216MPD1    H2 3339   2.362   1.219   0.820  0.4872  1.0928 -2.5870
  216MPD1    H3 3340   2.308   1.044   0.963  0.2790  2.9293 -0.0237
  216MPD1     N 3341   2.268   0.730   0.632 -0.2955  0.3194  0.5762
  216MPD1    H5 3342   2.272   0.716   0.532  0.9403  0.4900  0.6021
  216MPD1    N1 3343   2.367   1.195   0.541  0.0786  0.1613  0.0520
  216MPD1    H6 3344   2.414   1.282   0.565 -0.1006  1.0934 -3.0120
  216MPD1    H7 3345   2.422   1.155   0.465  1.6931  2.4471  0.0076
  217MPD1     C 3346   3.540   3.661   9.822 -0.7416 -0.2990  0.3842
  217MPD1    C1 3347   3.507   3.663   9.954 -0.7968  0.1111 -0.4851
  217MPD1    C2 3348   3.441   3.546  10.005  0.4368 -0.0964 -0.2780
  217MPD1    C3 3349   3.439   3.426   9.939 -0.0626  0.0829  0.3294
  217MPD1    C4 3350   3.492   3.423   9.813  0.1827 -0.9007  0.1032
  217MPD1    C5 3351   3.540   3.537   9.763  0.5818  0.2317 -0.5450
  217MPD1     H 3352   3.407   3.549  10.108 -1.0841 -1.7365 -0.7239
  217MPD1    H1 3353   3.477   3.344   9.739  0.9837 -0.5327 -0.4521
  217MPD1    H2 3354   3.586   3.743   9.769  0.0453 -0.9148  0.1218
  217MPD1    H3 3355   3.578   3.537   9.661 -0.5223 -0.5539 -0.9494
  217MPD1     N 3356   3.378   3.303   9.986  1.0925 -0.6027  0.7385
  217MPD1    H5 3357   3.385   3.217   9.933  3.2910 -0.2348  0.4390
  217MPD1    N1 3358   3.483   3.783  10.022  0.4078 -0.6355 -0.2990
  217MPD1    H6 3359   3.400   3.836   9.997 -0.0514 -0.5250  1.4329
  217MPD1    H7 3360   3.503   3.797  10.121  3.9045  0.2008 -1.1314
  218MPD1     C 3361   4.290   3.712  13.250  0.0625  0.3787 -0.1868
  218MPD1    C1 3362   4.268   3.589  13.299  0.4270 -0.6296 -0.2208
  218MPD1    C2 3363   4.309   3.475  13.230 -0.0368 -0.1317  0.1698
  218MPD1    C3 3364   4.371   3.488  13.103 -0.2911 -0.0354  0.9681
  218MPD1    C4 3365   4.387   3.611  13.049 -0.2729 -0.0408 -0.7315
  218MPD1    C5 3366   4.347   3.723  13.125 -0.5451  0.3037  1.2367
  218MPD1     H 3367   4.287   3.380  13.277  0.7914 -0.6333 -0.4670
  218MPD1    H1 3368   4.427   3.643  12.953  0.0984 -0.6098 -0.7667
  218MPD1    H2 3369   4.256   3.798  13.307  0.4345  1.3172 -1.3806
  218MPD1    H3 3370   4.352   3.822  13.082 -1.2226 -0.8593 -1.5422
  218MPD1     N 3371   4.413   3.375  13.036  0.5125  0.0240 -0.0162
  218MPD1    H5 3372   4.392   3.289  13.086  0.9347  0.5119  0.9903
  218MPD1    N1 3373   4.201   3.568  13.423 -0.0468  0.0210  0.9019
  218MPD1    H6 3374   4.136   3.643  13.446  0.4054  0.4878  0.6468
  218MPD1    H7 3375   4.151   3.480  13.431 -1.6672  0.7963 -0.7936
  219MPD1     C 3376   4.140   2.657  12.313  0.2670 -0.1766  0.4651
  219MPD1    C1 3377   4.226   2.760  12.271  0.5070 -0.3850 -0.1281
  219MPD1    C2 3378   4.282   2.833  12.379 -0.2409 -0.0224 -0.2169
  219MPD1    C3 3379   4.258   2.802  12.518  0.2910  0.2676 -0.2877
  219MPD1    C4 3380   4.164   2.701  12.543  0.3237  1.2904 -0.1164
  219MPD1    C5 3381   4.109   2.637  12.446  0.2111  0.2494 -0.6062
  219MPD1     H 3382   4.365   2.901  12.361 -1.4446  1.6564  0.5910
  219MPD1    H1 3383   4.130   2.677  12.643 -1.1115  0.3556 -0.8352
  219MPD1    H2 3384   4.087   2.601  12.237 -2.8858  1.3972  1.4745
  219MPD1    H3 3385   4.034   2.562  12.468  1.9337 -1.6409 -1.2625
  219MPD1     N 3386   4.325   2.860  12.624  0.3039 -0.4067  0.3065
  219MPD1    H5 3387   4.309   2.827  12.719  1.2860  0.1116  0.6517
  219MPD1    N1 3388   4.278   2.757  12.136 -0.1712  0.6322  0.2907
  219MPD1    H6 3389   4.334   2.830  12.092  0.1488 -1.0417 -2.0373
  219MPD1    H7 3390   4.201   2.742  12.073  0.6648 -2.3016 -0.0098
  220MPD1     C 3391   4.559   4.073  10.225  0.0673 -0.2843 -0.1178
  220MPD1    C1 3392   4.614   4.106  10.349  0.2269  0.0827 -0.5467
  220MPD1    C2 3393   4.612   4.010  10.448 -0.1846 -0.2106  0.4248
  220MPD1    C3 3394   4.545   3.885  10.423 -0.3548  0.8724 -0.4039
  220MPD1    C4 3395   4.495   3.858  10.299  0.0761 -0.3075 -0.1755
  220MPD1    C5 3396   4.500   3.955  10.201  0.2218 -0.5320 -0.3421
  220MPD1     H 3397   4.651   4.035  10.546  2.6882  0.1856 -0.8190
  220MPD1    H1 3398   4.458   3.760  10.271  1.0282 -0.4451 -0.9753
  220MPD1    H2 3399   4.559   4.141  10.140  0.7911 -0.1555 -0.0155
  220MPD1    H3 3400   4.455   3.937  10.105 -0.7288  0.9395 -0.1805
  220MPD1     N 3401   4.528   3.796  10.533  0.7878 -0.5243 -0.2904
  220MPD1    H5 3402   4.573   3.825  10.619  0.2999 -0.2162 -0.1409
  220MPD1    N1 3403   4.671   4.231  10.370 -0.3844  0.7949 -0.5936
  220MPD1    H6 3404   4.682   4.286  10.285  0.2225 -1.5719 -2.0587
  220MPD1    H7 3405   0.020   4.241  10.424  0.4228 -0.6234 -1.6066
  221MPD1     C 3406   2.548   2.957  15.866 -0.0894 -0.3162 -0.2982
  221MPD1    C1 3407   2.566   2.841  15.802 -0.2631  0.0461  0.8947
  221MPD1    C2 3408   2.613   2.734  15.873  0.2049 -0.3691 -0.2920
  221MPD1    C3 3409   2.655   2.754  16.003 -0.0081 -0.5947  0.3303
  221MPD1    C4 3410   2.644   2.869  16.066 -0.5563 -0.2688 -0.0322
  221MPD1    C5 3411   2.583   2.971  15.998 -0.4435  0.4378  0.2932
  221MPD1     H 3412   2.630   2.640  15.822  0.4079  0.8621 -2.4698
  221MPD1    H1 3413   2.680   2.891  16.165 -2.8985  1.9132  0.3446
  221MPD1    H2 3414   2.503   3.045  15.821 -0.9566  0.3228  1.7872
  221MPD1    H3 3415   2.574   3.067  16.047 -1.0303  1.2318 -1.3753
  221MPD1     N 3416   2.707   2.643  16.082  0.3624 -0.3400 -0.0184
  221MPD1    H5 3417   2.723   2.675  16.177  2.2189 -2.2568  0.3073
  221MPD1    N1 3418   2.502   2.823  15.683 -0.3853 -0.5432  0.4391
  221MPD1    H6 3419   2.508   2.912  15.634  1.1146 -0.5811  0.5760
  221MPD1    H7 3420   2.555   2.755  15.629  0.8334  0.8403 -0.0910
  222MPD1     C 3421   1.754   4.436   0.101  0.0000  0.5696 -0.2070
  222MPD1    C1 3422   1.831   4.552   0.107 -0.1896  0.7314  0.3784
  222MPD1    C2 3423   1.762   4.659   0.166 -0.3949  0.0107 -0.0959
  222MPD1    C3 3424   1.636   4.657   0.216  0.6683  0.3831  0.1445
  222MPD1    C4 3425   1.570   4.532   0.208 -0.0377 -0.6210 -0.6082
  222MPD1    C5 3426   1.631   4.426   0.152  0.4233  0.3857  0.2618
  222MPD1     H 3427   1.812   0.019   0.166  0.0062 -0.2059  2.3504
  222MPD1    H1 3428   1.467   4.530   0.239  0.0444 -1.1464 -0.3766
  222MPD1    H2 3429   1.787   4.344   0.052  0.4899  0.4932  0.2655
  222MPD1    H3 3430   1.577   4.333   0.141 -1.4149  1.3178  1.2351
  222MPD1     N 3431   1.570   0.021   0.294 -0.3500  0.4634  0.3350
  222MPD1    H5 3432   1.480   0.004   0.336  0.1982 -1.5346  0.7056
  222MPD1    N1 3433   1.949   4.563   0.037  0.0727 -0.3409 -0.6969
  222MPD1    H6 3434   2.020   4.612   0.092 -0.8127 -1.0234  1.0209
  222MPD1    H7 3435   1.983   4.470   0.015 -1.4290 -0.8177 -0.9941
  223MPD1     C 3436   1.882   4.548   1.135  0.2477  0.0361  0.2946
  223MPD1    C1 3437   1.863   4.678   1.179  0.2263 -0.2127  0.4301
  223MPD1    C2 3438   1.774   0.007   1.096 -0.2222  0.0548 -0.1435
  223MPD1    C3 3439   1.746   4.709   0.961  0.7012  1.2259  0.6200
  223MPD1    C4 3440   1.792   4.589   0.921 -0.4038  0.1294 -0.3851
  223MPD1    C5 3441   1.852   4.507   1.007 -0.0749 -0.6048 -0.0562
  223MPD1     H 3442   1.745   0.106   1.132  3.4278  1.4673 -1.0909
  223MPD1    H1 3443   1.786   4.545   0.822 -1.5620 -0.4513 -0.0583
  223MPD1    H2 3444   1.933   4.475   1.196 -0.4054  0.7962  1.7560
  223MPD1    H3 3445   1.867   4.402   0.981 -1.5303 -0.8572  0.1186
  223MPD1     N 3446   1.695   0.070   0.868 -0.6231 -0.3128 -0.2707
  223MPD1    H5 3447   1.690   0.166   0.903  0.3223 -0.6753  0.8473
  223MPD1    N1 3448   1.871   4.716   1.314  0.3465 -0.6179  0.6134
  223MPD1    H6 3449   1.955   4.684   1.361  0.6740  0.4482  0.7543
  223MPD1    H7 3450   1.865   0.081   1.323  1.4431 -0.4579 -0.4116
  224MPD1     C 3451   3.838   4.225   9.784 -0.5100  0.3941  0.2761
  224MPD1    C1 3452   3.957   4.157   9.796  0.7974 -0.1676  0.5341
  224MPD1    C2 3453   3.953   4.024   9.841 -0.4385 -0.0769  0.2214
  224MPD1    C3 3454   3.837   3.973   9.895 -0.4943  0.9923  0.7364
  224MPD1    C4 3455   3.723   4.053   9.898  0.0183  0.2538 -0.0889
  224MPD1    C5 3456   3.727   4.180   9.841  0.7505  0.5752 -0.3865
  224MPD1     H 3457   4.044   3.966   9.835 -0.6198 -0.5428  2.1145
  224MPD1    H1 3458   3.637   4.014   9.951  0.3489  1.8229  1.5664
  224MPD1    H2 3459   3.823   4.320   9.734 -1.9857 -0.8903 -1.7199
  224MPD1    H3 3460   3.629   4.222   9.825  1.0430  0.1202 -3.3465
  224MPD1     N 3461   3.820   3.841   9.950 -0.1230 -0.1656 -0.0519
  224MPD1    H5 3462   3.725   3.834   9.985  0.5731  1.3577  2.1367
  224MPD1    N1 3463   4.074   4.201   9.738  0.5288  0.3577 -0.3870
  224MPD1    H6 3464   4.090   4.300   9.724  1.1876  0.0210 -1.9920
  224MPD1    H7 3465   4.160   4.154   9.766 -0.2234 -0.1866  1.0094
  225MPD1     C 3466   0.034   3.934  12.860  0.9663 -0.2156 -0.1743
  225MPD1    C1 3467   4.707   3.830  12.792 -0.0357 -0.1747 -0.7338
  225MPD1    C2 3468   4.567   3.830  12.785  0.1136 -0.8335 -0.6819
  225MPD1    C3 3469   4.499   3.948  12.833 -0.3035 -0.5032 -0.8055
  225MPD1    C4 3470   4.566   4.052  12.886 -0.2172  0.4283 -0.3277
  225MPD1    C5 3471   4.700   4.049  12.894  0.4994 -0.2922 -0.3912
  225MPD1     H 3472   4.514   3.747  12.740  1.2272 -1.8809 -0.0590
  225MPD1    H1 3473   4.515   4.143  12.918 -1.6875 -0.8818  1.0415
  225MPD1    H2 3474   0.142   3.939  12.868  1.0590 -1.4182 -0.6164
  225MPD1    H3 3475   0.014   4.137  12.932  0.9636 -1.4806  1.6952
  225MPD1     N 3476   4.358   3.958  12.838  0.3536 -0.4541 -0.8598
  225MPD1    H5 3477   4.308   4.031  12.888  2.5110 -0.8412  1.8208
  225MPD1    N1 3478   0.047   3.716  12.771 -0.0193  0.5218 -0.1013
  225MPD1    H6 3479   0.147   3.731  12.756  0.2689 -1.7714 -0.5942
  225MPD1    H7 3480   0.008   3.642  12.712 -0.8363  1.1616 -0.3641
  226MPD1     C 3481   2.300   4.078  10.351  0.7029  0.7704 -0.6285
  226MPD1    C1 3482   2.335   3.983  10.258 -0.8956  0.0231 -0.3972
  226MPD1    C2 3483   2.444   3.998  10.178  0.4024  0.7854 -0.3846
  226MPD1    C3 3484   2.533   4.102  10.196  0.1808 -0.6498 -0.8667
  226MPD1    C4 3485   2.493   4.206  10.279  0.3026 -0.4797 -0.9425
  226MPD1    C5 3486   2.381   4.191  10.357  0.5226  0.0453 -0.4522
  226MPD1     H 3487   2.453   3.931  10.094  2.6314  2.0934 -1.1673
  226MPD1    H1 3488   2.555   4.290  10.308 -2.0570  0.3190  1.8995
  226MPD1    H2 3489   2.218   4.078  10.421  1.3704 -1.4972  0.1499
  226MPD1    H3 3490   2.357   4.272  10.425 -2.6275 -0.6829 -0.7063
  226MPD1     N 3491   2.649   4.102  10.115  0.4177  0.1608 -0.4316
  226MPD1    H5 3492   2.666   4.020  10.057 -2.1102 -1.0597  0.4989
  226MPD1    N1 3493   2.235   3.891  10.221  0.5009 -0.2413  0.7112
  226MPD1    H6 3494   2.167   3.868  10.294  1.0702 -0.6128  1.1264
  226MPD1    H7 3495   2.273   3.802  10.190  1.5387  0.4673 -0.0440
  227MPD1     C 3496   3.024   3.385   9.837 -0.3669 -0.0507 -0.2962
  227MPD1    C1 3497   2.897   3.434   9.878 -0.6365 -0.1516  0.1117
  227MPD1    C2 3498   2.887   3.572   9.906 -0.0572 -0.3030 -0.4729
  227MPD1    C3 3499   2.996   3.658   9.907 -0.0888 -0.0490 -0.2525
  227MPD1    C4 3500   3.119   3.605   9.873  0.1205 -0.1552 -0.5698
  227MPD1    C5 3501   3.127   3.471   9.834 -0.7378  0.0828 -0.1218
  227MPD1     H 3502   2.787   3.611   9.926 -0.3928 -1.3848 -0.0373
  227MPD1    H1 3503   3.216   3.652   9.875  0.8222 -1.6103 -0.8446
  227MPD1    H2 3504   3.038   3.287   9.794 -2.9697  0.3746 -2.0759
  227MPD1    H3 3505   3.215   3.433   9.783 -0.8482 -0.8133  0.3610
  227MPD1     N 3506   2.983   3.788   9.950 -0.6456  0.9114  0.0894
  227MPD1    H5 3507   2.895   3.815   9.993 -1.6697 -0.2387 -1.2764
  227MPD1    N1 3508   2.789   3.342   9.864 -0.0638  0.5365 -0.0279
  227MPD1    H6 3509   2.717   3.368   9.932 -0.5593  1.4030 -0.8788
  227MPD1    H7 3510   2.811   3.248   9.897 -1.8068  0.3387  0.5929
  228MPD1     C 3511   1.815   1.915  12.486  0.0939  0.3803  0.2429
  228MPD1    C1 3512   1.752   1.933  12.606 -0.7389 -0.1964  0.6781
  228MPD1    C2 3513   1.615   1.924  12.606 -0.4403 -0.3529  0.5137
  228MPD1    C3 3514   1.544   1.903  12.492  0.3722 -0.0231 -0.4543
  228MPD1    C4 3515   1.607   1.886  12.375 -0.8399  0.2662 -0.1114
  228MPD1    C5 3516   1.744   1.894  12.368 -0.1096 -0.3443 -1.2105
  228MPD1     H 3517   1.566   1.924  12.703 -0.5281 -0.0713  0.4690
  228MPD1    H1 3518   1.549   1.860  12.287 -1.8839  0.0074  0.6581
  228MPD1    H2 3519   1.923   1.925  12.479  0.2016 -0.1770  0.9799
  228MPD1    H3 3520   1.802   1.893  12.276  1.9960  0.3801  0.1071
  228MPD1     N 3521   1.409   1.885  12.505 -0.3155  0.3259  0.1935
  228MPD1    H5 3522   1.383   1.880  12.603 -5.5293 -1.9401 -1.3116
  228MPD1    N1 3523   1.832   1.988  12.712  0.3427 -0.2132  0.2244
  228MPD1    H6 3524   1.792   1.973  12.804 -2.5150  0.4494 -0.9154
  228MPD1    H7 3525   1.923   1.942  12.713 -0.1403 -1.2373 -2.5221
  229MPD1     C 3526   0.892   0.316  15.627  0.0523 -0.4804  0.3718
  229MPD1    C1 3527   0.977   0.381  15.537  0.5631  0.5737  0.5437
  229MPD1    C2 3528   1.103   0.342  15.508 -0.2612  0.1473  0.3805
  229MPD1    C3 3529   1.146   0.215  15.555  0.5895 -0.3136  0.0875
  229MPD1    C4 3530   1.061   0.148  15.639  0.0177  0.5550  0.2202
  229MPD1    C5 3531   0.935   0.189  15.668  0.6116 -0.2045 -0.0466
  229MPD1     H 3532   1.174   0.403  15.454 -0.6145 -0.6910 -1.0478
  229MPD1    H1 3533   1.097   0.057  15.686  1.8475  1.3283  0.3351
  229MPD1    H2 3534   0.794   0.343  15.666  0.2880 -1.1788  1.4588
  229MPD1    H3 3535   0.875   0.130  15.737  0.5351  1.2232  1.1188
  229MPD1     N 3536   1.273   0.153  15.537 -0.0364  0.5563 -0.1875
  229MPD1    H5 3537   1.284   0.061  15.577  1.7697  0.6860 -0.3659
  229MPD1    N1 3538   0.927   0.504  15.491  0.3151 -0.1678 -0.1548
  229MPD1    H6 3539   0.827   0.499  15.507  0.6618 -1.0367  1.6861
  229MPD1    H7 3540   0.949   0.515  15.392 -2.7293 -0.2491 -0.8389
  230MPD1     C 3541   2.155   0.569  15.576  0.1257  0.3938 -0.5674
  230MPD1    C1 3542   2.033   0.618  15.527 -0.3529  0.1519 -0.4513
  230MPD1    C2 3543   1.942   0.524  15.476 -0.3920  0.4426 -0.2180
  230MPD1    C3 3544   1.961   0.387  15.501  0.2748  0.0345  0.0378
  230MPD1    C4 3545   2.081   0.339  15.558 -0.2905  0.3867 -0.0613
  230MPD1    C5 3546   2.174   0.431  15.592 -0.6198 -0.4156 -0.2608
  230MPD1     H 3547   1.859   0.555  15.414 -1.1906  0.9959  1.1282
  230MPD1    H1 3548   2.106   0.235  15.574 -1.9859 -0.1311 -0.7454
  230MPD1    H2 3549   2.243   0.626  15.603  0.7210 -1.0426  0.5117
  230MPD1    H3 3550   2.260   0.387  15.641 -1.1695  1.0869  2.0737
  230MPD1     N 3551   1.856   0.302  15.462  0.0734 -0.1948 -0.5612
  230MPD1    H5 3552   1.764   0.341  15.445  0.9787  2.4629  0.5850
  230MPD1    N1 3553   2.023   0.756  15.496 -0.5085 -0.1499 -0.1531
  230MPD1    H6 3554   2.065   0.817  15.566  1.1442  0.2034 -1.4722
  230MPD1    H7 3555   1.926   0.786  15.491 -0.2947  0.3395 -1.1277
  231MPD1     C 3556   4.125   1.716  15.838 -0.5842  0.5979 -0.3196
  231MPD1    C1 3557   4.076   1.791  15.732 -0.2349 -0.0751 -0.6027
  231MPD1    C2 3558   4.154   1.881  15.667 -0.3055  0.4425 -0.0733
  231MPD1    C3 3559   4.285   1.899  15.705 -0.2803 -0.5875  0.5551
  231MPD1    C4 3560   4.343   1.823  15.802 -0.3684  0.5399 -0.6027
  231MPD1    C5 3561   4.260   1.735  15.871 -0.2271  0.0692  0.3070
  231MPD1     H 3562   4.106   1.939  15.589  2.0559 -0.0788 -1.9150
  231MPD1    H1 3563   4.447   1.827  15.830 -0.5488  0.3314  0.1015
  231MPD1    H2 3564   4.060   1.652  15.897 -0.3454  0.1173 -0.5813
  231MPD1    H3 3565   4.293   1.679  15.958  1.4356  0.7475  0.1163
  231MPD1     N 3566   4.374   1.979  15.633 -0.2055 -0.5175 -0.0406
  231MPD1    H5 3567   4.345   2.003  15.539  0.4115  0.4879  0.0329
  231MPD1    N1 3568   3.935   1.788  15.697  0.0115  0.6369 -0.1622
  231MPD1    H6 3569   3.931   1.811  15.598  1.3084  3.2317  0.4027
  231MPD1    H7 3570   3.893   1.698  15.718  0.7022 -0.2391 -2.4752
  232MPD1     C 3571   1.714   3.749  17.362  0.1358  0.1541  0.1607
  232MPD1    C1 3572   1.584   3.790  17.346  0.3130 -0.3021 -0.4217
  232MPD1    C2 3573   1.492   3.759  17.446 -0.8853  0.6856 -0.4476
  232MPD1    C3 3574   1.520   3.689  17.560 -0.0277 -0.1598 -0.3653
  232MPD1    C4 3575   1.645   3.628  17.567 -0.6610  0.4729 -0.0141
  232MPD1    C5 3576   1.734   3.665  17.465 -0.1377  0.3662 -0.7360
  232MPD1     H 3577   1.398   3.813  17.447  0.9776  3.8625  1.5064
  232MPD1    H1 3578   1.677   3.569  17.653 -0.7491  0.9139  0.3212
  232MPD1    H2 3579   1.797   3.754  17.293 -0.4396  0.7431 -0.4866
  232MPD1    H3 3580   1.830   3.615  17.473 -0.0533  1.0166  2.3233
  232MPD1     N 3581   1.419   3.677  17.655  0.7955  0.2974  0.9444
  232MPD1    H5 3582   1.334   3.732  17.648 -0.0521 -1.1258 -0.0775
  232MPD1    N1 3583   1.542   3.867  17.236 -1.2215 -0.4304  0.4926
  232MPD1    H6 3584   1.442   3.875  17.219 -1.4007 -2.1174  0.7618
  232MPD1    H7 3585   1.596   3.844  17.152 -3.9135  0.2548 -1.4343
  233MPD1     C 3586   1.917   1.137   2.281  0.2652  0.6026  0.1649
  233MPD1    C1 3587   1.840   1.238   2.226  0.3560 -0.2988  0.6563
  233MPD1    C2 3588   1.905   1.297   2.120 -0.3087  0.1672 -0.9047
  233MPD1    C3 3589   2.008   1.241   2.046  0.3246  0.4473  0.2845
  233MPD1    C4 3590   2.070   1.130   2.093 -0.0241  0.3569 -0.5359
  233MPD1    C5 3591   2.028   1.083   2.216 -0.2497 -0.2926  0.1718
  233MPD1     H 3592   1.855   1.386   2.086  1.2916  0.6579 -2.0121
  233MPD1    H1 3593   2.155   1.085   2.044  0.2108  1.5478 -1.2223
  233MPD1    H2 3594   1.884   1.090   2.373 -0.5553 -1.8047 -1.3441
  233MPD1    H3 3595   2.075   1.005   2.274  1.0660  0.3416 -0.0463
  233MPD1     N 3596   2.056   1.293   1.923 -0.0620  0.6044 -0.5427
  233MPD1    H5 3597   2.133   1.244   1.879 -0.1191 -0.0013  0.0205
  233MPD1    N1 3598   1.729   1.292   2.277  0.1147  0.5884  0.5716
  233MPD1    H6 3599   1.664   1.230   2.325  0.1863 -0.3941 -0.6234
  233MPD1    H7 3600   1.685   1.367   2.223 -0.4654 -0.0850  0.1151
  234MPD1     C 3601   4.391   1.834   9.843 -0.0748  0.1204 -0.2166
  234MPD1    C1 3602   4.440   1.934   9.770 -0.5159  0.2302 -0.9546
  234MPD1    C2 3603   4.376   2.052   9.796  0.2012  0.1314  0.1297
  234MPD1    C3 3604   4.263   2.078   9.874 -0.5415  0.3437  0.2509
  234MPD1    C4 3605   4.216   1.969   9.947  0.4417 -0.0158 -0.2003
  234MPD1    C5 3606   4.275   1.848   9.921 -0.5524  0.3661 -0.3496
  234MPD1     H 3607   4.406   2.147   9.753 -0.1897 -0.0135 -0.4594
  234MPD1    H1 3608   4.122   1.964  10.001  1.3029 -0.2384  1.2897
  234MPD1    H2 3609   4.438   1.737   9.838  0.5171  0.3127  1.6494
  234MPD1    H3 3610   4.238   1.757   9.967  1.2705 -0.0999  0.1843
  234MPD1     N 3611   4.210   2.209   9.870 -0.1908 -0.0199  0.2453
  234MPD1    H5 3612   4.243   2.271   9.796 -0.4648 -1.2671 -0.9191
  234MPD1    N1 3613   4.562   1.925   9.704 -0.1127  0.0631 -0.1262
  234MPD1    H6 3614   4.576   1.996   9.632  1.6837  0.2381  0.4181
  234MPD1    H7 3615   4.577   1.831   9.668 -1.3916 -0.0144 -0.4864
  235MPD1     C 3616   0.931   0.306  11.835 -0.4831  0.0250  0.0325
  235MPD1    C1 3617   0.927   0.418  11.759 -0.4494  0.0223  0.8461
  235MPD1    C2 3618   0.920   0.398  11.621 -0.7986 -0.0784  0.5762
  235MPD1    C3 3619   0.933   0.276  11.560 -0.0713 -0.3445 -0.9198
  235MPD1    C4 3620   0.940   0.169  11.640  0.2815  0.2944 -0.1405
  235MPD1    C5 3621   0.929   0.183  11.781  0.2603 -0.4246 -0.4016
  235MPD1     H 3622   0.911   0.487  11.560  0.7174  0.8533  1.7180
  235MPD1    H1 3623   0.963   0.068  11.608 -0.4566  0.9052 -2.5654
  235MPD1    H2 3624   0.937   0.321  11.942  1.0752 -1.0376  0.1002
  235MPD1    H3 3625   0.938   0.105  11.855  0.5534  0.0363  0.0502
  235MPD1     N 3626   0.917   0.272  11.420  0.0244  0.4979 -0.3427
  235MPD1    H5 3627   0.900   0.363  11.379  0.5601  0.8027  0.1109
  235MPD1    N1 3628   0.896   0.540  11.811  0.0364 -0.7518 -0.2241
  235MPD1    H6 3629   0.931   0.550  11.906  1.7999 -1.9152 -0.7711
  235MPD1    H7 3630   0.919   0.625  11.761 -1.8887 -0.1571 -0.1121
  236MPD1     C 3631   4.304   0.874   9.945 -0.4534  0.2922  0.3953
  236MPD1    C1 3632   4.282   0.742   9.983  0.0951 -0.3447 -0.3874
  236MPD1    C2 3633   4.359   0.690  10.079  0.7473 -0.4910 -0.1411
  236MPD1    C3 3634   4.443   0.763  10.154  0.5221 -0.3028 -0.1331
  236MPD1    C4 3635   4.436   0.903  10.138 -0.0522 -0.4517 -0.3391
  236MPD1    C5 3636   4.367   0.956  10.031 -0.2623 -0.0591 -0.0546
  236MPD1     H 3637   4.354   0.584  10.098 -1.4680 -0.1846  0.9072
  236MPD1    H1 3638   4.493   0.956  10.214 -2.0724 -1.4409  1.8638
  236MPD1    H2 3639   4.253   0.919   9.860  1.1622 -0.3576 -0.9120
  236MPD1    H3 3640   4.354   1.060  10.003 -1.5246 -0.1378  0.2627
  236MPD1     N 3641   4.510   0.708  10.267 -0.6071 -0.8552  0.4667
  236MPD1    H5 3642   4.561   0.777  10.321 -0.9061  0.8570 -1.4272
  236MPD1    N1 3643   4.204   0.663   9.902 -0.3393  0.0305  0.0716
  236MPD1    H6 3644   4.141   0.716   9.843  0.1362 -0.4280 -0.8513
  236MPD1    H7 3645   4.149   0.597   9.957 -0.1928 -0.8739 -0.8619
  237MPD1     C 3646   4.481   3.370  15.870  0.3950  1.1023  0.3504
  237MPD1    C1 3647   4.394   3.273  15.907 -0.1311  0.1533 -0.6342
  237MPD1    C2 3648   4.307   3.234  15.814  0.0258 -0.3223  0.1683
  237MPD1    C3 3649   4.266   3.320  15.706 -0.2876  0.0047  0.0798
  237MPD1    C4 3650   4.344   3.431  15.683 -0.1160 -0.1394  0.0123
  237MPD1    C5 3651   4.454   3.450  15.759 -0.5777 -0.0946 -0.6545
  237MPD1     H 3652   4.243   3.147  15.828 -1.2777  0.6617  0.2718
  237MPD1    H1 3653   4.319   3.499  15.603 -1.6085 -1.5324 -0.7249
  237MPD1    H2 3654   4.567   3.389  15.933 -2.0300 -0.2709  4.0428
  237MPD1    H3 3655   4.521   3.529  15.727  1.1040 -1.2142  0.1233
  237MPD1     N 3656   4.166   3.303  15.611  0.6955  0.2894  0.1395
  237MPD1    H5 3657   4.172   3.364  15.530 -0.0441  0.3289  0.1164
  237MPD1    N1 3658   4.420   3.193  16.016 -0.0330  0.9641 -0.0550
  237MPD1    H6 3659   4.337   3.149  16.056 -0.3119  1.0595 -0.5244
  237MPD1    H7 3660   4.466   3.247  16.089 -0.2144  0.1240  0.6895
  238MPD1     C 3661   2.013   2.502  15.073 -0.4587  0.2585  0.0618
  238MPD1    C1 3662   2.021   2.371  15.111  0.7830 -0.1648 -0.0431
  238MPD1    C2 3663   1.908   2.294  15.111 -0.1646  0.2146 -0.1882
  238MPD1    C3 3664   1.789   2.346  15.053  0.2721 -0.2291  0.2860
  238MPD1    C4 3665   1.785   2.475  15.010 -0.2577 -0.2017  0.4463
  238MPD1    C5 3666   1.898   2.561  15.026 -0.1722  0.5889  0.3262
  238MPD1     H 3667   1.915   2.187  15.129 -2.1020  0.6582  3.2225
  238MPD1    H1 3668   1.693   2.516  14.970  0.9309  0.8984 -1.1913
  238MPD1    H2 3669   2.092   2.574  15.096 -0.1890  0.1917 -0.6827
  238MPD1    H3 3670   1.899   2.663  14.991  0.7077  0.5428  0.2319
  238MPD1     N 3671   1.666   2.272  15.044 -0.7265  0.8652 -0.2319
  238MPD1    H5 3672   1.596   2.330  14.999 -2.2364 -0.6397  0.1787
  238MPD1    N1 3673   2.139   2.317  15.171  0.2936  0.1783  0.0577
  238MPD1    H6 3674   2.221   2.372  15.142  1.4047 -0.7817  1.3692
  238MPD1    H7 3675   2.161   2.221  15.146  0.8630  0.2620  0.2290
  239MPD1     C 3676   1.563   2.662  15.298 -0.4984 -0.3748 -0.2347
  239MPD1    C1 3677   1.691   2.705  15.261 -0.2048  0.3242 -0.2708
  239MPD1    C2 3678   1.691   2.794  15.153  0.1729 -0.3167  0.6163
  239MPD1    C3 3679   1.576   2.840  15.090 -0.2999 -0.3040 -0.0727
  239MPD1    C4 3680   1.454   2.802  15.139  0.1011 -0.3524  0.3987
  239MPD1    C5 3681   1.456   2.708  15.230 -0.2089  0.6097  0.9591
  239MPD1     H 3682   1.790   2.822  15.121 -0.0595  0.5940  0.7066
  239MPD1    H1 3683   1.362   2.821  15.084 -0.8802 -1.2800  1.7301
  239MPD1    H2 3684   1.549   2.582  15.370  1.8316 -1.2793 -0.7816
  239MPD1    H3 3685   1.361   2.669  15.266  0.0776 -0.8574  0.1211
  239MPD1     N 3686   1.581   2.915  14.968 -0.2467 -0.2091 -0.3479
  239MPD1    H5 3687   1.489   2.920  14.924 -0.7228  2.7957  0.9800
  239MPD1    N1 3688   1.807   2.655  15.320  0.1251  0.1416  0.3083
  239MPD1    H6 3689   1.880   2.726  15.316  2.5006 -2.2278  0.9686
  239MPD1    H7 3690   1.792   2.623  15.415 -0.1007 -0.4709  0.0686
  240MPD1     C 3691   1.284   3.037  14.274 -0.4353 -0.2519  0.3606
  240MPD1    C1 3692   1.159   2.987  14.283  0.8048  0.5323  0.8200
  240MPD1    C2 3693   1.120   2.916  14.389  0.2500  0.4310 -0.3899
  240MPD1    C3 3694   1.210   2.891  14.494  1.0467 -0.4471 -0.2424
  240MPD1    C4 3695   1.341   2.935  14.482 -0.3961 -0.1268 -0.0238
  240MPD1    C5 3696   1.377   2.997  14.363 -0.1513  0.3182  0.0784
  240MPD1     H 3697   1.016   2.885  14.400  0.5030  0.0939  1.0260
  240MPD1    H1 3698   1.416   2.909  14.556 -0.1287  1.3939  0.2417
  240MPD1    H2 3699   1.314   3.113  14.202 -1.3024 -0.1279  0.1216
  240MPD1    H3 3700   1.477   3.028  14.335 -0.1855 -1.0477 -1.5161
  240MPD1     N 3701   1.155   2.825  14.604  0.4646  0.0959 -0.2716
  240MPD1    H5 3702   1.066   2.782  14.583 -0.7456  1.8603  1.2284
  240MPD1    N1 3703   1.061   3.031  14.194  0.0926 -0.9591 -0.3693
  240MPD1    H6 3704   0.977   2.974  14.185 -1.1181  0.9018 -0.6732
  240MPD1    H7 3705   1.105   3.040  14.103  2.0016  1.3938  0.7709
  241MPD1     C 3706   1.278   2.190  15.482  0.5142 -0.4608 -0.4261
  241MPD1    C1 3707   1.391   2.249  15.431 -0.2192 -0.7776 -0.0972
  241MPD1    C2 3708   1.375   2.326  15.317  0.1950  0.2643  0.5051
  241MPD1    C3 3709   1.246   2.352  15.272  0.1187 -0.1378 -0.2794
  241MPD1    C4 3710   1.133   2.311  15.336 -0.1288  0.6070 -0.5756
  241MPD1    C5 3711   1.152   2.233  15.444  0.7483 -0.0344  0.1712
  241MPD1     H 3712   1.462   2.369  15.269  1.2657 -2.4796  0.0402
  241MPD1    H1 3713   1.032   2.332  15.303  0.0869  0.5138 -1.3103
  241MPD1    H2 3714   1.286   2.134  15.574 -0.1451 -0.4455 -0.3609
  241MPD1    H3 3715   1.071   2.189  15.501  0.4641  0.1556 -0.0878
  241MPD1     N 3716   1.222   2.430  15.154  0.0217 -0.3104  0.2955
  241MPD1    H5 3717   1.131   2.472  15.143  0.0466 -0.5589 -0.9320
  241MPD1    N1 3718   1.518   2.206  15.478 -0.7388  0.5234 -0.5697
  241MPD1    H6 3719   1.593   2.268  15.448  1.2662 -1.3208  0.6375
  241MPD1    H7 3720   1.524   2.203  15.580  3.2156  1.5076 -0.7822
  242MPD1     C 3721   1.442   1.301  15.855 -0.6485  0.6013 -0.5388
  242MPD1    C1 3722   1.313   1.325  15.806  0.4325  0.5650  0.2021
  242MPD1    C2 3723   1.260   1.249  15.704  0.5957  0.3148 -0.0414
  242MPD1    C3 3724   1.336   1.146  15.655 -0.3624  0.2643 -0.3208
  242MPD1    C4 3725   1.463   1.116  15.710 -0.3365 -0.0517  0.0052
  242MPD1    C5 3726   1.515   1.195  15.808 -0.9879 -0.3024  0.1087
  242MPD1     H 3727   1.167   1.274  15.655  1.9270  0.8046 -2.2953
  242MPD1    H1 3728   1.519   1.025  15.694 -1.4889 -0.9576  1.1170
  242MPD1    H2 3729   1.490   1.360  15.933  2.4837 -2.7982  0.1277
  242MPD1    H3 3730   1.605   1.169  15.861 -0.3968  0.5420 -0.4892
  242MPD1     N 3731   1.290   1.055  15.562  0.1759  0.0189  0.2838
  242MPD1    H5 3732   1.354   0.977  15.548  0.6088  0.3596  0.3464
  242MPD1    N1 3733   1.260   1.449  15.844  0.4356  0.1354 -0.2416
  242MPD1    H6 3734   1.300   1.462  15.937 -1.2442 -0.2470  0.5247
  242MPD1    H7 3735   1.159   1.441  15.853  0.4820 -0.7431 -0.4993
  243MPD1     C 3736   1.405   3.903   0.276 -0.6882 -0.3871 -0.4215
  243MPD1    C1 3737   1.509   3.815   0.289 -0.8606  0.5294 -0.1544
  243MPD1    C2 3738   1.612   3.823   0.202  0.4333  0.6010  0.2344
  243MPD1    C3 3739   1.612   3.905   0.091  0.7048  0.5929  0.0051
  243MPD1    C4 3740   1.505   3.996   0.080  0.0243  0.0226  0.3473
  243MPD1    C5 3741   1.404   3.992   0.173 -0.4865 -0.2030 -0.1493
  243MPD1     H 3742   1.702   3.763   0.212 -0.2911 -0.8072 -1.7835
  243MPD1    H1 3743   1.493   4.074   0.006  0.8765 -0.1789 -0.0132
  243MPD1    H2 3744   1.313   3.899   0.334  0.2879 -1.0645  1.0793
  243MPD1    H3 3745   1.323   4.063   0.157 -3.0703 -3.0313  0.4526
  243MPD1     N 3746   1.736   3.919   0.015 -0.1516  0.4933 -0.4171
  243MPD1    H5 3747   1.811   3.857   0.044 -0.1939 -0.2333 -1.8286
  243MPD1    N1 3748   1.493   3.717   0.385  0.1321  0.5166 -0.9656
  243MPD1    H6 3749   1.572   3.655   0.404  1.0384  2.1856  0.7585
  243MPD1    H7 3750   1.486   3.774   0.469  0.2921 -0.1093 -0.5187
  244MPD1     C 3751   2.385   3.351  17.658 -1.0761  0.0711 -0.3906
  244MPD1    C1 3752   2.282   3.382  17.744  0.0706 -0.6232  0.2685
  244MPD1    C2 3753   2.196   3.485  17.724  0.5239  0.2453 -0.2023
  244MPD1    C3 3754   2.238   3.588  17.637  0.4564  0.2862 -0.8948
  244MPD1    C4 3755   2.337   3.558  17.546 -0.1496  0.5802 -0.2085
  244MPD1    C5 3756   2.411   3.441  17.555  0.4514  0.6267 -0.6570
  244MPD1     H 3757   2.112   3.514   0.040  0.1803 -0.0680 -0.5252
  244MPD1    H1 3758   2.358   3.627  17.466  1.4467  1.5562  1.0303
  244MPD1    H2 3759   2.439   3.257  17.659  0.2245  0.7879 -2.3057
  244MPD1    H3 3760   2.491   3.432  17.483 -0.4718 -0.1595 -1.5768
  244MPD1     N 3761   2.153   3.700  17.627 -0.0611  0.0376 -0.0790
  244MPD1    H5 3762   2.074   3.703  17.690  2.0427  0.1999  2.5313
  244MPD1    N1 3763   2.254   3.296   0.098  0.5707 -0.4112  0.1594
  244MPD1    H6 3764   2.209   3.340   0.178 -1.4605  0.6877 -1.5615
  244MPD1    H7 3765   2.322   3.232   0.137 -0.4044 -0.7656  1.2900
  245MPD1     C 3766   3.839   0.052  13.445  0.4671  0.2628 -0.0653
  245MPD1    C1 3767   3.783   0.067  13.572  0.1041 -0.4985  0.2459
  245MPD1    C2 3768   3.863   0.114  13.679  0.0227 -0.8950 -0.6511
  245MPD1    C3 3769   3.993   0.150  13.660 -0.1600 -0.1638 -0.7220
  245MPD1    C4 3770   4.047   0.141  13.535  0.2462 -0.0961 -0.0415
  245MPD1    C5 3771   3.974   0.078  13.435 -0.2608 -0.3199 -0.6516
  245MPD1     H 3772   3.815   0.107  13.776 -0.5266 -2.8245 -1.0631
  245MPD1    H1 3773   4.148   0.171  13.509  0.4170  1.6986  2.7292
  245MPD1    H2 3774   3.779   0.017  13.362 -0.3238 -1.5267  1.2741
  245MPD1    H3 3775   4.011   0.052  13.337  0.6764 -1.8696  0.1268
  245MPD1     N 3776   4.067   0.216  13.756  0.5307 -1.4785 -0.0799
  245MPD1    H5 3777   4.010   0.244  13.836  0.2408  1.0633 -1.1838
  245MPD1    N1 3778   3.645   0.072  13.588  0.4592 -0.2320 -0.1303
  245MPD1    H6 3779   3.608   0.058  13.681  0.9475 -2.5256 -0.2709
  245MPD1    H7 3780   3.592   0.010  13.527 -1.4031 -0.7006  1.9540
  246MPD1     C 3781   0.487   3.394  10.495 -0.0650  0.3532  0.0830
  246MPD1    C1 3782   0.384   3.363  10.578 -0.4076  0.1466 -0.5283
  246MPD1    C2 3783   0.357   3.234  10.611  0.0785  0.4994 -0.5308
  246MPD1    C3 3784   0.420   3.124  10.553  0.2816 -0.2166  0.4786
  246MPD1    C4 3785   0.526   3.161  10.468 -0.0250 -0.3433 -0.2515
  246MPD1    C5 3786   0.557   3.291  10.437 -0.0900 -0.8894 -0.3587
  246MPD1     H 3787   0.276   3.210  10.678  1.0240  0.9343  0.7723
  246MPD1    H1 3788   0.573   3.079  10.414 -0.0425 -0.0438 -0.7202
  246MPD1    H2 3789   0.509   3.498  10.477  1.3754  0.3484  1.8309
  246MPD1    H3 3790   0.624   3.319  10.356  0.9814 -0.4401  0.6788
  246MPD1     N 3791   0.385   2.989  10.586 -0.1166 -0.2531  0.7704
  246MPD1    H5 3792   0.328   2.978  10.669 -1.7382  2.0376 -0.0585
  246MPD1    N1 3793   0.298   3.463  10.619 -0.4732 -0.3395 -0.0453
  246MPD1    H6 3794   0.356   3.544  10.640  0.3800 -0.8215 -0.5469
  246MPD1    H7 3795   0.235   3.447  10.697  0.2455  0.6973  0.7426
  247MPD1     C 3796   4.168   0.825  16.669  0.2759 -0.4583 -0.2836
  247MPD1    C1 3797   4.036   0.814  16.703  0.1189  0.3188 -0.9046
  247MPD1    C2 3798   3.976   0.693  16.685  0.1456 -0.3713  0.2798
  247MPD1    C3 3799   4.033   0.590  16.616 -0.4594 -0.3005  0.4331
  247MPD1    C4 3800   4.163   0.606  16.579 -0.8186  0.0488  0.0798
  247MPD1    C5 3801   4.237   0.724  16.612  0.0250 -0.1678  0.2190
  247MPD1     H 3802   3.879   0.693  16.735  1.1002 -2.1326  2.1231
  247MPD1    H1 3803   4.210   0.524  16.525 -0.3899 -0.1846  0.8128
  247MPD1    H2 3804   4.226   0.909  16.707  1.3169 -2.1478  1.8763
  247MPD1    H3 3805   4.344   0.738  16.599  0.2248  0.2904  2.4724
  247MPD1     N 3806   3.973   0.461  16.610  0.4031  0.4774  0.4865
  247MPD1    H5 3807   4.033   0.390  16.570  1.3738  1.8074 -0.3837
  247MPD1    N1 3808   3.969   0.900  16.794  0.6071  0.2907  0.0095
  247MPD1    H6 3809   3.870   0.881  16.787  1.1874 -2.4586 -0.6110
  247MPD1    H7 3810   3.977   0.997  16.762  1.0474 -0.5480 -2.4172
  248MPD1     C 3811   4.655   4.282   0.197  0.3571  0.1837 -0.8924
  248MPD1    C1 3812   4.700   4.270   0.325  0.6538 -0.4895 -0.4140
  248MPD1    C2 3813   4.606   4.237   0.426 -0.2060  0.1817  0.1210
  248MPD1    C3 3814   4.484   4.196   0.391  0.7343 -0.4247  0.1208
  248MPD1    C4 3815   4.443   4.207   0.257 -0.0827  0.0581  0.1862
  248MPD1    C5 3816   4.530   4.252   0.164 -0.2152  0.2246 -0.0961
  248MPD1     H 3817   4.637   4.236   0.531  1.1816  0.0811 -0.2856
  248MPD1    H1 3818   4.345   4.182   0.217 -0.6892 -0.0339  1.6979
  248MPD1    H2 3819   4.720   4.330   0.126  1.8629  2.8115  2.2780
  248MPD1    H3 3820   4.481   4.279   0.071  0.0529  3.1647  0.6337
  248MPD1     N 3821   4.401   4.157   0.500 -0.5832  0.5814  0.5148
  248MPD1    H5 3822   4.429   4.173   0.596  0.1778 -3.1671  0.9180
  248MPD1    N1 3823   0.091   4.317   0.359  0.1163 -0.3013 -0.9658
  248MPD1    H6 3824   0.166   4.307   0.291  1.1561 -0.2269  0.1696
  248MPD1    H7 3825   0.133   4.277   0.443  2.7905 -0.3125 -2.3156
  249MPD1     C 3826   0.291   4.197   9.663  0.3906 -0.1281 -0.0749
  249MPD1    C1 3827   0.313   4.314   9.596  0.8176  0.8336 -0.7175
  249MPD1    C2 3828   0.432   4.381   9.613  0.3671 -0.1031 -0.1843
  249MPD1    C3 3829   0.521   4.341   9.715  0.0962 -0.3564  0.2551
  249MPD1    C4 3830   0.493   4.224   9.778  0.3269 -0.1971 -0.0371
  249MPD1    C5 3831   0.378   4.159   9.756 -0.0576 -0.4729 -0.1292
  249MPD1     H 3832   0.464   4.461   9.546  2.5675 -0.2900  0.6277
  249MPD1    H1 3833   0.557   4.176   9.852  1.2821 -0.0548 -0.7622
  249MPD1    H2 3834   0.208   4.130   9.641  0.3255 -0.7245  1.9551
  249MPD1    H3 3835   0.354   4.073   9.818 -0.4607 -0.4414 -0.2435
  249MPD1     N 3836   0.641   4.414   9.731 -0.5683  0.7287 -0.5594
  249MPD1    H5 3837   0.674   4.478   9.659  2.0011 -2.0336 -1.8151
  249MPD1    N1 3838   0.222   4.348   9.497 -0.8204  0.8840 -0.5348
  249MPD1    H6 3839   0.127   4.320   9.523 -0.5001  0.2062 -0.0958
  249MPD1    H7 3840   0.227   4.448   9.477 -0.8651  1.0878  0.4567
  250MPD2     C 3841   2.281   3.485  13.698  0.4621  0.0764  0.6114
  250MPD2    C1 3842   2.240   3.547  13.582 -0.5140 -0.1160 -0.0334
  250MPD2    C2 3843   2.177   3.467  13.486  0.0009  0.0166 -0.5225
  250MPD2    C3 3844   2.148   3.331  13.507 -0.4261 -0.5071 -0.6058
  250MPD2    C4 3845   2.187   3.270  13.623 -0.1217  0.7030  0.8919
  250MPD2    C5 3846   2.259   3.347  13.712  0.6007  0.2694  0.1266
  250MPD2     H 3847   2.156   3.519  13.393 -2.1397  0.0596 -0.0161
  250MPD2    H1 3848   2.167   3.168  13.653  0.6505  0.0012 -0.9320
  250MPD2    H2 3849   2.333   3.533  13.780  1.4113 -0.0348  0.0729
  250MPD2    H3 3850   2.290   3.300  13.805  0.0354 -1.7632 -0.7030
  250MPD2     N 3851   2.092   3.249  13.413 -0.6207  0.0276  0.0938
  250MPD2    H5 3852   2.105   3.150  13.432  0.7115  0.6257  2.4040
  250MPD2    N1 3853   2.265   3.684  13.570 -0.4333  0.0965  0.1824
  250MPD2    H7 3854   2.351   3.717  13.613  0.8546 -1.1986 -1.3685
  251TMC3    C1 3855   2.302   3.880  13.469  0.4912  0.2568  0.1280
  251TMC3    C2 3856   2.234   3.995  13.462  0.3289  0.1030 -0.2385
  251TMC3    C3 3857   2.316   4.106  13.476  0.2230 -0.2695 -0.6215
  251TMC3    C4 3858   2.436   3.861  13.496  0.1406  1.4651 -0.1282
  251TMC3    C5 3859   2.511   3.976  13.498  0.1470  0.2727  0.4622
  251TMC3    C6 3860   2.454   4.101  13.490  0.1804 -0.8223 -0.2647
  251TMC3     C 3861   2.207   3.773  13.485 -0.5375 -0.7348  0.3643
  251TMC3     O 3862   2.117   3.753  13.407 -0.1652 -1.1297  0.9489
  251TMC3     H 3863   2.125   3.998  13.458  0.1718 -0.7782  2.6964
  251TMC3    H1 3864   2.486   3.768  13.520 -0.6971  1.3061  1.0107
  251TMC3    H2 3865   2.519   4.185  13.509  1.6254 -2.5017  2.3440
  251TMC3    C7 3866   2.649   3.952  13.470 -0.2985 -0.2956 -0.6801
  251TMC3    C8 3867   2.242   4.233  13.458 -0.4181  0.5277 -0.0055
  251TMC3    O1 3868   2.689   3.841  13.479 -0.0349 -0.9875 -0.2072
  251TMC3    O2 3869   2.123   4.220  13.450  0.1786 -0.1102 -0.3651
  252TMC3    C1 3870   2.582   0.498   9.554  0.0357  0.0065  0.0031
  252TMC3    C2 3871   2.693   0.569   9.595 -0.2752  0.1223  0.0972
  252TMC3    C3 3872   2.756   0.532   9.714  0.6148 -0.2100  0.9193
  252TMC3    C4 3873   2.535   0.396   9.624 -0.0665 -0.3355 -0.3552
  252TMC3    C5 3874   2.595   0.360   9.743  0.4453 -0.3286  0.0560
  252TMC3    C6 3875   2.705   0.439   9.793  0.7918  0.1315  0.2614
  252TMC3     C 3876   2.513   0.519   9.422  0.3390  0.1395  0.3458
  252TMC3     O 3877   2.396   0.482   9.433 -0.3801 -0.0962  0.5174
  252TMC3     H 3878   2.749   0.632   9.527  0.1858 -0.1475  0.2290
  252TMC3    H1 3879   2.455   0.335   9.583 -0.4141 -0.4887  0.5506
  252TMC3    H2 3880   2.755   0.416   9.886  0.2687  0.4697  0.6224
  252TMC3    C7 3881   2.547   0.237   9.803  0.1751 -0.8632  0.8929
  252TMC3    C8 3882   2.888   0.592   9.736  0.3874 -0.2291 -0.4519
  252TMC3    O1 3883   2.432   0.213   9.774 -0.0788 -0.0167  0.2409
  252TMC3    O2 3884   2.926   0.676   9.652  0.3096 -0.0872 -0.5604
  253MPD2     C 3885   3.871   3.601  15.606  0.1849 -0.7477  0.2515
  253MPD2    C1 3886   3.748   3.573  15.554 -0.8516 -0.2500 -0.4679
  253MPD2    C2 3887   3.679   3.474  15.619 -0.0034  0.9761  0.0934
  253MPD2    C3 3888   3.731   3.409  15.731 -0.1679  0.0399 -0.6043
  253MPD2    C4 3889   3.857   3.448  15.772 -0.0566 -0.2225 -0.3842
  253MPD2    C5 3890   3.922   3.551  15.718 -0.1327 -0.4530 -0.0184
  253MPD2     H 3891   3.577   3.457  15.587  1.7664 -2.7133 -3.6439
  253MPD2    H1 3892   3.895   3.411  15.866 -0.5430  0.2042 -0.0178
  253MPD2    H2 3893   3.921   3.687  15.564  1.5007 -0.3138  2.6951
  253MPD2    H3 3894   4.013   3.603  15.746  0.4305 -1.2042 -0.4752
  253MPD2     N 3895   3.661   3.315  15.806 -0.0694 -0.0658  0.4834
  253MPD2    H5 3896   3.710   3.241  15.855  0.1472  0.5638  1.2153
  253MPD2    N1 3897   3.698   3.622  15.437 -0.0957  0.0575 -0.0241
  253MPD2    H7 3898   3.607   3.588  15.409 -0.5627 -0.0984  1.6965
  254TMC3    C1 3899   3.477   3.174  15.860  0.1499  0.3760 -0.5709
  254TMC3    C2 3900   3.343   3.167  15.823  0.5053 -0.3908 -0.4928
  254TMC3    C3 3901   3.246   3.127  15.905 -0.1547 -0.2527 -0.6470
  254TMC3    C4 3902   3.519   3.136  15.985  0.4112  0.0381  0.2700
  254TMC3    C5 3903   3.416   3.088  16.062  0.2621 -0.6949  0.3487
  254TMC3    C6 3904   3.281   3.078  16.030  0.0007 -0.4416 -0.8841
  254TMC3     C 3905   3.525   3.294  15.799 -0.1923 -0.0408  0.8518
  254TMC3     O 3906   3.440   3.358  15.745 -0.0442 -0.1975 -0.4289
  254TMC3     H 3907   3.305   3.196  15.726  1.7090  1.2918 -0.4596
  254TMC3    H1 3908   3.616   3.158  16.029  1.2913 -0.9483 -1.1595
  254TMC3    H2 3909   3.203   3.050  16.098  0.4613  2.0419  0.6690
  254TMC3    C7 3910   3.459   3.032  16.185 -0.0188  0.0615  0.0877
  254TMC3    C8 3911   3.131   3.218  15.923  0.0714 -0.2021  0.5174
  254TMC3    O1 3912   3.562   2.963  16.197 -0.2828 -0.6874 -0.5333
  254TMC3    O2 3913   3.040   3.180  15.994  0.0738  0.1199  0.2961
  255MPD2     C 3914   2.028   1.882  10.935  0.2149 -0.0887 -0.0103
  255MPD2    C1 3915   1.988   1.778  10.853 -0.2936  0.0253  0.5942
  255MPD2    C2 3916   2.085   1.685  10.814 -0.8489 -0.3219  0.4482
  255MPD2    C3 3917   2.219   1.696  10.855 -0.0812  0.1634  0.0319
  255MPD2    C4 3918   2.254   1.812  10.928 -0.3750  0.8803 -0.2191
  255MPD2    C5 3919   2.160   1.895  10.974 -0.3797  0.7196 -0.3907
  255MPD2     H 3920   2.056   1.598  10.755 -1.1317  0.4046 -0.4891
  255MPD2    H1 3921   2.354   1.835  10.964 -0.4775  0.1546  0.5282
  255MPD2    H2 3922   1.960   1.959  10.969 -0.3840 -0.0083 -1.3738
  255MPD2    H3 3923   2.196   1.979  11.032  0.9706 -0.0609 -0.1083
  255MPD2     N 3924   2.305   1.603  10.788 -0.8301 -0.4389 -0.1672
  255MPD2    H5 3925   2.264   1.526  10.735  1.2643 -0.3881 -1.8506
  255MPD2    N1 3926   1.855   1.778  10.808 -0.0561  0.2002 -0.0140
  255MPD2    H7 3927   1.790   1.837  10.859  0.6027 -0.8508  2.0616
  256TMC3    C1 3928   1.666   1.735  10.674 -0.0027 -0.2688 -0.6503
  256TMC3    C2 3929   1.650   1.859  10.625 -0.2424 -0.1176 -0.4454
  256TMC3    C3 3930   1.565   1.883  10.523  1.2956 -0.0617 -0.4841
  256TMC3    C4 3931   1.595   1.631  10.622  0.0234 -0.4665  0.0790
  256TMC3    C5 3932   1.495   1.660  10.532 -0.3394 -0.2457 -0.5239
  256TMC3    C6 3933   1.488   1.786  10.472  0.8582 -0.1553  0.4829
  256TMC3     C 3934   1.802   1.699  10.707 -0.0838 -0.5757  0.0225
  256TMC3     O 3935   1.863   1.618  10.642 -0.2660  0.4260  0.1001
  256TMC3     H 3936   1.714   1.926  10.681 -1.7304  0.7695  0.1810
  256TMC3    H1 3937   1.614   1.531  10.658 -3.6840 -0.7771  1.2006
  256TMC3    H2 3938   1.409   1.808  10.401  1.2573  1.5159  0.5636
  256TMC3    C7 3939   1.410   1.550  10.490  0.3681 -0.1465 -0.1581
  256TMC3    C8 3940   1.549   2.022  10.488 -1.0567 -0.0863  0.6735
  256TMC3    O1 3941   1.455   1.437  10.503 -0.4121 -0.6772  0.2276
  256TMC3    O2 3942   1.447   2.062  10.429 -0.4760  0.1436 -0.3536
  257MPD2     C 3943   1.392   3.583  13.507 -0.1119 -0.7469 -0.6451
  257MPD2    C1 3944   1.337   3.480  13.443 -0.4150 -0.1591  0.1703
  257MPD2    C2 3945   1.356   3.352  13.489  0.0865 -0.3675  0.3641
  257MPD2    C3 3946   1.419   3.320  13.603  0.7489  0.1892 -0.5641
  257MPD2    C4 3947   1.468   3.428  13.669  0.6868 -0.6112 -0.2234
  257MPD2    C5 3948   1.456   3.556  13.626  0.1661 -0.0956 -0.1390
  257MPD2     H 3949   1.324   3.267  13.431 -1.9714  0.6989 -0.0579
  257MPD2    H1 3950   1.518   3.416  13.765  0.8006  0.8632 -0.1029
  257MPD2    H2 3951   1.381   3.684  13.468  0.2257 -0.4945 -0.0813
  257MPD2    H3 3952   1.511   3.627  13.688  3.0569 -0.2226 -2.5399
  257MPD2     N 3953   1.433   3.182  13.637 -0.1392  0.0739  0.3801
  257MPD2    H5 3954   1.382   3.116  13.579 -1.6430  0.2688  1.5136
  257MPD2    N1 3955   1.273   3.512  13.322 -0.7156 -0.6951  0.3688
  257MPD2    H7 3956   1.272   3.608  13.289  0.4986 -0.3270  1.4375
  258TMC3    C1 3957   1.508   2.973  13.740  0.0495 -0.2630  0.2593
  258TMC3    C2 3958   1.452   2.911  13.632  0.1435 -0.2497 -0.6230
  258TMC3    C3 3959   1.395   2.783  13.646 -0.3819 -0.1921  0.1043
  258TMC3    C4 3960   1.499   2.919  13.865  0.2055 -0.0317  0.6387
  258TMC3    C5 3961   1.446   2.793  13.876 -0.0958 -0.2439  0.3258
  258TMC3    C6 3962   1.387   2.725  13.771  0.4546  0.8297  0.4718
  258TMC3     C 3963   1.504   3.125  13.740 -0.4276  0.7791  0.1446
  258TMC3     O 3964   1.546   3.182  13.839  0.0300 -0.0251 -0.3780
  258TMC3     H 3965   1.454   2.954  13.533  0.5641  0.0030 -0.5071
  258TMC3    H1 3966   1.540   2.976  13.948 -0.7816  1.2066  0.2642
  258TMC3    H2 3967   1.367   2.619  13.785 -0.3502  0.8546 -0.5176
  258TMC3    C7 3968   1.414   2.748  14.012  0.5758  0.9897 -0.1853
  258TMC3    C8 3969   1.405   2.699  13.534  0.0813 -0.4613 -0.6648
  258TMC3    O1 3970   1.318   2.678  14.031  0.0810  0.2710  0.4999
  258TMC3    O2 3971   1.457   2.742  13.429 -1.2158  0.3494 -0.4512
  259MPD2     C 3972   0.553   0.003   1.385  0.6288 -0.4521  0.0529
  259MPD2    C1 3973   0.465   4.644   1.338  0.5598 -0.1111 -0.6360
  259MPD2    C2 3974   0.512   4.567   1.235  0.2201  0.7982  0.4214
  259MPD2    C3 3975   0.631   4.597   1.168  0.0419  0.0993  0.0710
  259MPD2    C4 3976   0.715   4.693   1.216  0.2285  0.6411 -0.2490
  259MPD2    C5 3977   0.670   0.026   1.320 -0.1271  0.3233  0.1038
  259MPD2     H 3978   0.454   4.486   1.192  0.5323  1.2951 -0.9640
  259MPD2    H1 3979   0.805   4.713   1.160  1.7202 -1.2055  1.5129
  259MPD2    H2 3980   0.528   0.067   1.469 -2.3451 -1.7524  0.1699
  259MPD2    H3 3981   0.729   0.112   1.350 -0.4150  0.3398  0.6185
  259MPD2     N 3982   0.675   4.510   1.067 -0.3744 -0.2755  0.2323
  259MPD2    H5 3983   0.622   4.424   1.058 -0.8940  0.1352 -0.6705
  259MPD2    N1 3984   0.339   4.624   1.401 -0.2084  0.3436  0.4888
  259MPD2    H7 3985   0.319   4.687   1.478 -2.3553  2.3684 -1.7352
  260TMC3    C1 3986   0.783   4.412   0.889 -0.7988  0.6633 -0.1909
  260TMC3    C2 3987   0.818   4.441   0.763  0.6314 -0.4221 -0.0862
  260TMC3    C3 3988   0.790   4.349   0.664  0.1860 -0.3973 -0.1124
  260TMC3    C4 3989   0.716   4.300   0.923 -0.2289 -0.0113  0.2363
  260TMC3    C5 3990   0.687   4.215   0.821  0.0827  0.4786 -0.0766
  260TMC3    C6 3991   0.718   4.235   0.692  0.0211  0.3236 -0.1392
  260TMC3     C 3992   0.776   4.530   0.983  0.2915 -0.5235  0.4233
  260TMC3     O 3993   0.821   4.635   0.944 -0.0948 -0.1503 -0.1810
  260TMC3     H 3994   0.879   4.528   0.745  0.0938 -0.2128 -0.9059
  260TMC3    H1 3995   0.697   4.282   1.028 -0.9610 -0.7591 -0.0258
  260TMC3    H2 3996   0.686   4.174   0.609 -1.3497 -0.0392  0.6636
  260TMC3    C7 3997   0.594   4.100   0.841 -0.2080 -0.0708 -0.5768
  260TMC3    C8 3998   0.846   4.367   0.531  0.6920  0.2995  0.3799
  260TMC3    O1 3999   0.527   4.104   0.943 -0.1051 -0.3590 -0.0429
  260TMC3    O2 4000   0.899   4.473   0.507  0.2954 -0.1899 -0.0825
  261MPD2     C 4001   1.651   3.282  12.693  0.5701 -0.1774  0.3063
  261MPD2    C1 4002   1.764   3.338  12.753 -0.2303 -0.3817 -0.3983
  261MPD2    C2 4003   1.825   3.449  12.704  0.8361 -0.0443 -0.5852
  261MPD2    C3 4004   1.781   3.504  12.583  0.2688 -0.0364  0.1728
  261MPD2    C4 4005   1.677   3.445  12.520 -0.3928 -0.5984 -0.1224
  261MPD2    C5 4006   1.611   3.340  12.570 -0.5912 -0.1775  0.1542
  261MPD2     H 4007   1.899   3.492  12.770  0.1547 -1.9418  1.4135
  261MPD2    H1 4008   1.638   3.476  12.423  0.2213  1.8716  0.4294
  261MPD2    H2 4009   1.597   3.199  12.738 -0.2442  0.2439  0.1118
  261MPD2    H3 4010   1.527   3.304  12.513 -1.9489 -3.1310  4.0474
  261MPD2     N 4011   1.846   3.623  12.531 -0.0327  0.2867  0.0089
  261MPD2    H5 4012   1.790   3.675  12.463  0.2003  0.1723 -0.2679
  261MPD2    N1 4013   1.823   3.274  12.862 -0.4363 -0.0930 -0.2516
  261MPD2    H7 4014   1.895   3.330  12.908 -0.2872 -1.1852  0.8150
  262TMC3    C1 4015   2.004   3.763  12.470  0.1686 -0.2496  0.0183
  262TMC3    C2 4016   1.907   3.852  12.434  0.2324 -1.2225  0.2236
  262TMC3    C3 4017   1.944   3.945  12.342 -0.2256 -0.2587  0.0120
  262TMC3    C4 4018   2.131   3.765  12.418  0.0200  0.1389 -0.0111
  262TMC3    C5 4019   2.167   3.862  12.329 -0.1450 -0.0221  0.2022
  262TMC3    C6 4020   2.067   3.946  12.288 -1.0006  0.3123 -0.6872
  262TMC3     C 4021   1.975   3.655  12.555 -0.2907 -0.1149  0.0678
  262TMC3     O 4022   2.071   3.592  12.597  0.8815 -0.3893 -0.0058
  262TMC3     H 4023   1.815   3.856  12.490  1.0734 -1.1874  1.6131
  262TMC3    H1 4024   2.205   3.692  12.449  2.7978  1.5074 -3.3395
  262TMC3    H2 4025   2.080   4.006  12.198  0.8251  1.4726  0.3386
  262TMC3    C7 4026   2.297   3.857  12.266  0.3838  0.0789  0.5289
  262TMC3    C8 4027   1.868   4.062  12.322 -0.2915 -0.4637  0.2223
  262TMC3    O1 4028   2.374   3.761  12.285 -0.3892 -0.3101 -0.0899
  262TMC3    O2 4029   1.921   4.150  12.262 -0.1359  0.7145  0.1639
  263MPD2     C 4030   2.916   2.958  12.270  0.1050  0.5216  0.8890
  263MPD2    C1 4031   3.005   2.924  12.175 -0.0405 -0.0851  0.2741
  263MPD2    C2 4032   3.031   3.008  12.063  0.1568 -0.0588  0.7868
  263MPD2    C3 4033   2.955   3.122  12.052 -0.5555  1.0545 -0.0269
  263MPD2    C4 4034   2.862   3.154  12.146  0.4218  0.4352 -0.0454
  263MPD2    C5 4035   2.837   3.074  12.258 -0.2387 -0.6760 -0.2966
  263MPD2     H 4036   3.113   2.989  11.995  1.0200 -0.1909  1.8457
  263MPD2    H1 4037   2.801   3.243  12.134  0.7432  0.8452  1.2701
  263MPD2    H2 4038   2.892   2.905  12.361 -3.8938  2.9617  1.2487
  263MPD2    H3 4039   2.754   3.106  12.320  0.2221  0.6348 -0.3386
  263MPD2     N 4040   2.983   3.210  11.942 -0.2587 -0.6670 -0.2972
  263MPD2    H5 4041   3.037   3.166  11.868 -0.3067  0.7994 -1.1947
  263MPD2    N1 4042   3.093   2.810  12.203  0.0477 -0.6087 -1.3549
  263MPD2    H7 4043   3.080   2.759  12.289 -1.5400  0.7013 -0.8110
  264TMC3    C1 4044   3.034   3.398  11.828 -0.1147 -0.5786 -0.2353
  264TMC3    C2 4045   3.091   3.521  11.848  0.5777  0.3867  0.9439
  264TMC3    C3 4046   3.144   3.581  11.745 -0.0075  0.0359  0.2678
  264TMC3    C4 4047   3.034   3.330  11.709  0.2730 -1.0367  0.9961
  264TMC3    C5 4048   3.097   3.391  11.605  0.9652 -0.2301 -0.0247
  264TMC3    C6 4049   3.151   3.525  11.616 -0.3004  0.0646 -0.1271
  264TMC3     C 4050   2.961   3.350  11.942  0.1471 -0.3359 -0.1169
  264TMC3     O 4051   2.924   3.420  12.036 -0.7156  0.5538 -0.1482
  264TMC3     H 4052   3.079   3.558  11.949 -0.7922  1.2183  0.4773
  264TMC3    H1 4053   2.990   3.233  11.691  0.7654 -0.9665 -0.6098
  264TMC3    H2 4054   3.190   3.582  11.533  0.1196  0.0675  0.0717
  264TMC3    C7 4055   3.136   3.322  11.487 -0.1189 -0.9830 -0.0469
  264TMC3    C8 4056   3.235   3.690  11.768  0.4838  0.0746  0.8126
  264TMC3    O1 4057   3.182   3.394  11.401 -0.5951  0.2919 -0.2172
  264TMC3    O2 4058   3.319   3.714  11.683  0.1134  0.3785  0.0532
  265MPD2     C 4059   0.504   2.958  15.832  0.5388  0.3802  0.2254
  265MPD2    C1 4060   0.519   3.057  15.736  0.3162 -0.4179 -0.4359
  265MPD2    C2 4061   0.542   3.011  15.609  0.0390  0.6828 -0.8125
  265MPD2    C3 4062   0.557   2.878  15.573 -0.8596  0.3289 -0.0282
  265MPD2    C4 4063   0.545   2.786  15.672 -0.1332  0.1660  0.1629
  265MPD2    C5 4064   0.519   2.827  15.800 -0.0737 -0.0360  0.3109
  265MPD2     H 4065   0.558   3.084  15.531 -1.5895  1.3573 -0.5301
  265MPD2    H1 4066   0.569   2.685  15.640 -0.0309  0.1682  0.2312
  265MPD2    H2 4067   0.494   2.974  15.939 -0.5723  0.5739  0.0939
  265MPD2    H3 4068   0.519   2.752  15.878  0.9285  1.6316  1.9049
  265MPD2     N 4069   0.577   2.828  15.442 -0.2906  0.1133  0.0464
  265MPD2    H5 4070   0.590   2.728  15.426 -1.2023 -0.3828  2.3305
  265MPD2    N1 4071   0.494   3.194  15.770 -0.0960 -0.4067  0.1462
  265MPD2    H7 4072   0.527   3.268  15.708 -0.1434 -0.4687  0.0465
  266TMC3    C1 4073   0.421   3.383  15.890 -0.1999  0.3795  0.8928
  266TMC3    C2 4074   0.380   3.437  16.005  0.3916  0.3566 -0.4234
  266TMC3    C3 4075   0.371   3.573  16.012  0.2843  0.3247 -0.5325
  266TMC3    C4 4076   0.421   3.459  15.771  0.0767  0.8697  0.3906
  266TMC3    C5 4077   0.388   3.594  15.777  0.3284  0.1728 -0.3175
  266TMC3    C6 4078   0.375   3.654  15.904 -0.5575  0.1975  0.3612
  266TMC3     C 4079   0.441   3.238  15.888  0.1865  0.2605  0.1633
  266TMC3     O 4080   0.406   3.178  15.987  0.1614 -0.3071  0.4830
  266TMC3     H 4081   0.361   3.379  16.095 -0.2639  1.1293 -0.0661
  266TMC3    H1 4082   0.459   3.430  15.674 -1.5348  0.8654 -0.2432
  266TMC3    H2 4083   0.355   3.759  15.922 -1.2463  0.4563 -2.0193
  266TMC3    C7 4084   0.346   3.664  15.661  0.4727 -0.2531  0.0878
  266TMC3    C8 4085   0.296   3.638  16.119 -0.2697  0.3748  0.2430
  266TMC3    O1 4086   0.310   3.593  15.567 -0.7562  0.1297 -0.2111
  266TMC3    O2 4087   0.199   3.579  16.163  0.3883 -0.4931 -0.7743
  267MPD2     C 4088   2.523   4.559   0.980  0.2004  0.5021  0.3128
  267MPD2    C1 4089   2.511   4.541   0.844 -0.2201  0.4000 -0.1092
  267MPD2    C2 4090   2.461   4.652   0.769  0.2398 -0.0174 -0.3591
  267MPD2    C3 4091   2.415   0.030   0.829  0.5838  0.4611 -0.5953
  267MPD2    C4 4092   2.433   0.039   0.968  0.2556  0.6178  0.4009
  267MPD2    C5 4093   2.495   4.686   1.039  0.7828  0.1992 -0.2252
  267MPD2     H 4094   2.460   4.634   0.662  0.2613  1.0552 -0.5405
  267MPD2    H1 4095   2.401   0.127   1.023 -0.5575 -0.6954  2.0270
  267MPD2    H2 4096   2.570   4.485   1.044  1.3576 -2.6732 -4.2425
  267MPD2    H3 4097   2.515   4.705   1.144  0.9225 -3.0773  0.3704
  267MPD2     N 4098   2.363   0.145   0.760 -0.6148 -0.2753 -0.5056
  267MPD2    H5 4099   2.355   0.228   0.818  2.0215 -2.3333  2.7785
  267MPD2    N1 4100   2.554   4.417   0.797  0.0898 -0.1957  0.2007
  267MPD2    H7 4101   2.608   4.355   0.857  1.0925 -0.8033 -1.3531
  268TMC3    C1 4102   2.622   4.250   0.639 -0.5492 -0.0832  0.2476
  268TMC3    C2 4103   2.657   4.236   0.510  0.0394 -0.9943 -0.2721
  268TMC3    C3 4104   2.740   4.136   0.478  0.1747 -0.1817 -0.2039
  268TMC3    C4 4105   2.658   4.162   0.738 -1.1896 -0.0690 -0.0000
  268TMC3    C5 4106   2.731   4.056   0.697 -0.0205  0.6444  0.2652
  268TMC3    C6 4107   2.783   4.048   0.572 -0.4786  0.0579 -0.5263
  268TMC3     C 4108   2.540   4.375   0.668 -0.1303 -0.1366  0.1626
  268TMC3     O 4109   2.466   4.412   0.580  0.0243  0.2641 -0.4878
  268TMC3     H 4110   2.607   4.303   0.441 -0.1365  1.4760  2.2167
  268TMC3    H1 4111   2.597   4.158   0.828  0.4371 -1.4093  1.0397
  268TMC3    H2 4112   2.853   3.969   0.546  1.3885  1.4113  0.3813
  268TMC3    C7 4113   2.784   3.961   0.799 -0.7253 -0.2140 -0.3153
  268TMC3    C8 4114   2.742   4.091   0.341 -0.5659  0.1745 -0.3211
  268TMC3    O1 4115   2.865   3.879   0.761  0.0468  0.1058 -0.8000
  268TMC3    O2 4116   2.746   3.973   0.332 -0.1711  0.5420 -0.6053
  269MPD2     C 4117   2.954   3.768  15.661  0.5135  0.2119 -0.9488
  269MPD2    C1 4118   2.870   3.827  15.754 -0.4589 -0.2157 -0.5217
  269MPD2    C2 4119   2.844   3.960  15.741 -1.2239  0.4700  0.2475
  269MPD2    C3 4120   2.884   4.037  15.635 -1.4260  1.1398 -0.6585
  269MPD2    C4 4121   2.968   3.976  15.539  0.0308  0.8452  0.3342
  269MPD2    C5 4122   2.999   3.843  15.551  0.0940 -0.8192  0.5303
  269MPD2     H 4123   2.781   4.000  15.819  0.0203  2.3575  0.2610
  269MPD2    H1 4124   3.012   4.041  15.465  0.3028 -0.0681 -0.2992
  269MPD2    H2 4125   2.978   3.663  15.670  0.6875  0.1348 -2.3060
  269MPD2    H3 4126   3.077   3.794  15.494 -0.2027 -3.1930  2.1892
  269MPD2     N 4127   2.841   4.170  15.628  0.7322 -0.0772  0.1206
  269MPD2    H5 4128   2.773   4.188  15.701 -0.6368 -0.7373 -0.9819
  269MPD2    N1 4129   2.796   3.740  15.832  0.0438  0.5065 -0.1815
  269MPD2    H7 4130   2.800   3.647  15.790 -2.0016  1.0778 -1.6797
  270TMC3    C1 4131   2.679   3.647  16.018 -0.4228  0.1759  0.9773
  270TMC3    C2 4132   2.592   3.581  15.935  0.3820 -0.6543 -0.9728
  270TMC3    C3 4133   2.516   3.481  15.996  0.3802 -0.0996  0.1211
  270TMC3    C4 4134   2.678   3.632  16.156 -0.5349  0.4061 -0.4060
  270TMC3    C5 4135   2.588   3.541  16.213 -0.4939 -0.3812  0.0168
  270TMC3    C6 4136   2.510   3.458  16.135 -0.2883  0.4383 -0.0471
  270TMC3     C 4137   2.754   3.759  15.960 -0.0539  0.0464 -0.2428
  270TMC3     O 4138   2.785   3.854  16.035 -0.2648 -0.2662  0.5332
  270TMC3     H 4139   2.593   3.603  15.829  1.5609 -1.4229 -1.1209
  270TMC3    H1 4140   2.746   3.690  16.218  0.9376 -1.3095 -0.4146
  270TMC3    H2 4141   2.445   3.388  16.186 -1.1989  1.7050  0.5260
  270TMC3    C7 4142   2.652   3.469  16.321  0.0823  0.5606 -0.8698
  270TMC3    C8 4143   2.448   3.389  15.913 -0.1399 -0.3221  0.6159
  270TMC3    O1 4144   2.673   3.517  16.432 -0.0510  0.1954 -0.3038
  270TMC3    O2 4145   2.370   3.318  15.977 -0.3694  0.6520 -0.0391
  271MPD2     C 4146   2.073   3.361  14.108 -0.0884  0.4153  0.2432
  271MPD2    C1 4147   2.022   3.352  14.240  0.2527  0.3139 -0.0869
  271MPD2    C2 4148   1.887   3.391  14.256  0.6563  0.1612 -0.2744
  271MPD2    C3 4149   1.807   3.428  14.147  0.3797 -1.0994  0.2619
  271MPD2    C4 4150   1.858   3.435  14.020 -0.5635  0.5642 -0.1387
  271MPD2    C5 4151   1.991   3.403  14.007  0.1754  0.7477  0.4309
  271MPD2     H 4152   1.855   3.390  14.360 -1.7197 -1.2872 -1.0379
  271MPD2    H1 4153   1.791   3.463  13.940 -0.9682  0.2648  0.0970
  271MPD2    H2 4154   2.175   3.334  14.082 -0.7939 -0.0252 -2.1265
  271MPD2    H3 4155   2.035   3.418  13.909  0.5813  0.1293  0.5182
  271MPD2     N 4156   1.667   3.458  14.157  0.4666  0.2675 -0.2379
  271MPD2    H5 4157   1.618   3.472  14.070  0.4919  0.7792 -0.1670
  271MPD2    N1 4158   2.098   3.299  14.343  0.2268 -0.2042  0.2147
  271MPD2    H7 4159   2.063   3.289  14.438  0.8336  0.5148  0.5146
  272TMC3    C1 4160   2.282   3.205  14.457  0.9230 -0.3699  0.0880
  272TMC3    C2 4161   2.419   3.223  14.468 -0.9988  0.1963  0.6000
  272TMC3    C3 4162   2.475   3.225  14.593 -0.0848 -0.9419  0.3435
  272TMC3    C4 4163   2.199   3.197  14.564 -0.2812  0.6710 -0.5082
  272TMC3    C5 4164   2.255   3.208  14.689 -0.1964 -0.1291 -0.8016
  272TMC3    C6 4165   2.394   3.223  14.703 -0.6125  0.7695  0.2250
  272TMC3     C 4166   2.213   3.226  14.327  0.2290 -0.4691 -0.1994
  272TMC3     O 4167   2.278   3.210  14.225 -0.0037  0.7989  0.1995
  272TMC3     H 4168   2.471   3.249  14.377  0.2408  1.6302  1.7288
  272TMC3    H1 4169   2.097   3.163  14.548 -0.4091  0.0847  1.5034
  272TMC3    H2 4170   2.443   3.216  14.800  0.9283  0.1129 -0.5962
  272TMC3    C7 4171   2.174   3.228  14.810 -0.0867 -0.4452 -0.4979
  272TMC3    C8 4172   2.625   3.222  14.605 -0.1115  0.0330 -0.3701
  272TMC3    O1 4173   2.062   3.184  14.798 -0.1046 -0.5682 -0.2086
  272TMC3    O2 4174   2.685   3.253  14.499  0.0589 -0.0422  0.3389
  273MPD2     C 4175   3.276   1.681  12.312  0.6972  0.2547 -0.2245
  273MPD2    C1 4176   3.400   1.670  12.250  0.3571 -0.4060 -0.4008
  273MPD2    C2 4177   3.400   1.675  12.109  0.0708  0.5558  0.0048
  273MPD2    C3 4178   3.294   1.697  12.036 -1.0719  0.3961 -0.5469
  273MPD2    C4 4179   3.173   1.722  12.095 -0.2180 -0.5243 -0.0533
  273MPD2    C5 4180   3.165   1.709  12.234  0.1342  0.7162  0.2913
  273MPD2     H 4181   3.492   1.662  12.053  1.0668  0.0401  1.7586
  273MPD2    H1 4182   3.086   1.758  12.042  0.1652  0.2205 -0.1775
  273MPD2    H2 4183   3.266   1.679  12.420 -0.0188 -0.5831 -0.3128
  273MPD2    H3 4184   3.071   1.722  12.287  0.8927  1.6410  1.4071
  273MPD2     N 4185   3.294   1.696  11.891 -0.6022  0.4706 -0.7552
  273MPD2    H5 4186   3.209   1.736  11.851 -2.2639 -0.6869  1.5785
  273MPD2    N1 4187   3.516   1.663  12.335 -0.9437  0.5173  0.8187
  273MPD2    H7 4188   3.501   1.656  12.435  0.3543 -0.1488  0.9690
  274TMC3    C1 4189   3.414   1.736  11.695 -0.1725  0.5050 -1.3178
  274TMC3    C2 4190   3.296   1.787  11.640  0.0097  0.2055 -0.0068
  274TMC3    C3 4191   3.306   1.906  11.570 -0.5063 -0.4020 -0.9924
  274TMC3    C4 4192   3.536   1.808  11.681 -0.2459 -0.0429 -0.6117
  274TMC3    C5 4193   3.530   1.925  11.610  0.5192  0.1957 -0.2575
  274TMC3    C6 4194   3.417   1.978  11.547  0.2827 -0.5994 -0.7956
  274TMC3     C 4195   3.406   1.665  11.817  0.9186 -0.4054 -0.4703
  274TMC3     O 4196   3.499   1.587  11.838  0.0526 -0.3689 -0.4028
  274TMC3     H 4197   3.210   1.721  11.637 -0.1335  0.4017 -0.2486
  274TMC3    H1 4198   3.626   1.768  11.726 -0.6322 -2.5775 -2.1340
  274TMC3    H2 4199   3.407   2.079  11.510 -0.3664 -0.7310 -0.9895
  274TMC3    C7 4200   3.616   2.025  11.669 -0.0972 -0.1296 -0.3060
  274TMC3    C8 4201   3.194   1.945  11.492  0.2174  0.5428 -0.4722
  274TMC3    O1 4202   3.643   1.998  11.786  0.1726  0.1187  0.1549
  274TMC3    O2 4203   3.083   1.912  11.533 -0.0659 -0.1378 -0.0209
  275MPD2     C 4204   3.432   4.712  14.613 -0.3832 -0.0047  0.2273
  275MPD2    C1 4205   3.387   4.632  14.717 -0.1293  0.2151 -0.2249
  275MPD2    C2 4206   3.292   4.534  14.695  0.0565 -0.3572  0.3599
  275MPD2    C3 4207   3.262   4.504  14.562  0.1593  0.2717  0.1920
  275MPD2    C4 4208   3.310   4.583  14.458 -0.9204  0.1845  0.1825
  275MPD2    C5 4209   3.391   4.686  14.488 -0.6468 -0.2348 -0.5314
  275MPD2     H 4210   3.252   4.484  14.783 -1.6980 -1.3228 -0.9840
  275MPD2    H1 4211   3.282   4.574  14.354  0.9947  1.3724 -0.4529
  275MPD2    H2 4212   3.507   0.054  14.619  0.3652 -0.6680 -0.5185
  275MPD2    H3 4213   3.428   0.012  14.407 -0.9957 -0.5439 -0.9314
  275MPD2     N 4214   3.161   4.409  14.527  0.1048  0.1672  0.2140
  275MPD2    H5 4215   3.137   4.395  14.429 -0.7346  0.3183  0.3956
  275MPD2    N1 4216   3.415   4.656  14.854 -0.2822 -0.0752  0.7163
  275MPD2    H7 4217   3.408   4.577  14.917 -1.3091 -1.1474 -0.7345
  276TMC3    C1 4218   3.534   0.017  15.036 -1.0926 -0.0355 -0.0037
  276TMC3    C2 4219   3.446   4.700  15.127 -0.0171 -0.2538 -0.0052
  276TMC3    C3 4220   3.460   4.737  15.252  0.0236  0.0636 -1.0899
  276TMC3    C4 4221   3.634   0.106  15.068  0.4034 -0.2444 -0.7642
  276TMC3    C5 4222   3.654   0.124  15.204  0.1167 -0.1835  0.0436
  276TMC3    C6 4223   3.564   0.077  15.296  0.0172 -0.0972  0.0321
  276TMC3     C 4224   3.486   0.026  14.897 -0.3010  0.7957 -0.3444
  276TMC3     O 4225   3.515   0.127  14.841 -0.0206  0.2434  0.1366
  276TMC3     H 4226   3.353   4.656  15.092 -1.2919  0.6951  2.2709
  276TMC3    H1 4227   3.711   0.130  14.996  0.5681  1.9037  0.1280
  276TMC3    H2 4228   3.577   0.087  15.404  0.0802  0.6930 -0.0530
  276TMC3    C7 4229   3.790   0.150  15.261  0.0590  0.5400 -0.9222
  276TMC3    C8 4230   3.392   4.657  15.346  0.3219 -0.2149  0.1608
  276TMC3    O1 4231   3.809   0.128  15.384  0.4557 -1.0246 -0.1713
  276TMC3    O2 4232   3.378   4.697  15.459  0.2078  0.0715 -0.2870
  277MPD2     C 4233   0.657   3.279  13.713  0.1804 -0.7276 -1.2611
  277MPD2    C1 4234   0.524   3.321  13.722 -0.0064 -0.7980 -0.1810
  277MPD2    C2 4235   0.474   3.307  13.853  0.1187 -0.5385  0.9134
  277MPD2    C3 4236   0.544   3.263  13.959  0.4864 -0.4837 -0.6599
  277MPD2    C4 4237   0.679   3.227  13.947 -0.5257 -0.1257  0.0481
  277MPD2    C5 4238   0.734   3.238  13.823  0.1600  0.6752  0.6421
  277MPD2     H 4239   0.369   3.330  13.868 -0.2760 -0.9945 -1.1453
  277MPD2    H1 4240   0.735   3.201  14.036 -0.7629 -1.0167 -0.0693
  277MPD2    H2 4241   0.695   3.287  13.612  3.3687 -0.7814 -0.0728
  277MPD2    H3 4242   0.838   3.211  13.809  0.4410  1.9043  0.3407
  277MPD2     N 4243   0.477   3.253  14.084  0.1310 -0.3096 -0.0557
  277MPD2    H5 4244   0.377   3.268  14.090  0.5827  2.4624  0.6190
  277MPD2    N1 4245   0.455   3.364  13.603 -0.5276  0.0492 -0.1687
  277MPD2    H7 4246   0.499   3.359  13.512  3.0075  1.3694  1.4679
  278TMC3    C1 4247   0.400   3.150  14.283  0.0635  0.0805  0.0064
  278TMC3    C2 4248   0.395   3.035  14.348  1.0840 -0.2061  0.0919
  278TMC3    C3 4249   0.291   3.009  14.440 -0.9898  0.7504 -0.3587
  278TMC3    C4 4250   0.310   3.245  14.295 -0.2287  0.7444 -0.2158
  278TMC3    C5 4251   0.202   3.223  14.379 -0.3587 -0.2347  0.2672
  278TMC3    C6 4252   0.190   3.103  14.454 -0.0033 -1.1441 -0.4441
  278TMC3     C 4253   0.510   3.165  14.188 -0.2012  0.1773 -0.2702
  278TMC3     O 4254   0.613   3.104  14.211  0.0968  0.3355 -0.1481
  278TMC3     H 4255   0.474   2.962  14.332  2.4992  0.8601  2.2934
  278TMC3    H1 4256   0.326   3.344  14.252 -0.0020  1.5552  1.7015
  278TMC3    H2 4257   0.100   3.073  14.506  0.0428 -0.8920 -0.2156
  278TMC3    C7 4258   0.080   3.296  14.348 -0.2136 -0.4764 -0.3071
  278TMC3    C8 4259   0.245   2.865  14.426 -0.4779 -0.2668 -0.3730
  278TMC3    O1 4260   0.078   3.373  14.256 -0.1625 -0.3346  0.2667
  278TMC3    O2 4261   0.299   2.773  14.482 -0.4714 -0.4631 -0.0103
  279MPD2     C 4262   4.694   3.166   0.280 -0.0228 -0.1748  0.5129
  279MPD2    C1 4263   4.574   3.115   0.242 -0.9153 -0.5592  0.8412
  279MPD2    C2 4264   4.563   3.057   0.118  0.8321  0.7214  0.4532
  279MPD2    C3 4265   4.674   3.057   0.032 -0.1579 -0.6059  0.4256
  279MPD2    C4 4266   0.058   3.100   0.081 -0.6348  0.6666 -0.4767
  279MPD2    C5 4267   0.068   3.162   0.195 -0.3995  0.5214 -0.1241
  279MPD2     H 4268   4.477   3.002   0.080  2.7507 -2.1712  0.2674
  279MPD2    H1 4269   0.152   3.123   0.033  1.2638  0.0088  2.8909
  279MPD2    H2 4270   4.713   3.216   0.374 -0.0219 -0.3451  0.6039
  279MPD2    H3 4271   0.164   3.210   0.207  0.6325 -1.4658 -0.5455
  279MPD2     N 4272   4.669   3.033  17.642  1.0592 -0.2232 -0.1104
  279MPD2    H5 4273   0.016   3.060  17.591  0.1104  2.6789 -0.1176
  279MPD2    N1 4274   4.460   3.130   0.329 -0.3143 -0.6679 -0.3180
  279MPD2    H7 4275   4.476   3.171   0.420 -1.0382 -1.4325  0.1559
  280TMC3    C1 4276   4.227   3.117   0.404 -0.3904 -0.4574 -0.1184
  280TMC3    C2 4277   4.116   3.057   0.359  0.2051  0.0228 -0.0097
  280TMC3    C3 4278   3.999   3.128   0.349 -0.6327 -0.6287 -0.0202
  280TMC3    C4 4279   4.240   3.249   0.439 -0.1554  0.3859 -0.3256
  280TMC3    C5 4280   4.120   3.311   0.430  0.0648  0.7544 -0.1033
  280TMC3    C6 4281   3.998   3.260   0.396  0.2156 -0.5079 -0.0804
  280TMC3     C 4282   4.330   3.087   0.301  0.3912  0.7928  0.2587
  280TMC3     O 4283   4.291   3.016   0.211  0.1460 -0.1579  0.2614
  280TMC3     H 4284   4.120   2.948   0.357 -0.0952  0.0061  0.2723
  280TMC3    H1 4285   4.332   3.304   0.453 -0.9668  1.9167 -0.9724
  280TMC3    H2 4286   3.910   3.318   0.374  1.2268  0.6189 -1.1309
  280TMC3    C7 4287   4.146   3.441   0.379  0.3349  0.6569 -0.7897
  280TMC3    C8 4288   3.934   3.115   0.225 -0.0405 -1.0657  0.1054
  280TMC3    O1 4289   4.242   3.500   0.425  0.1672 -0.1159  0.1474
  280TMC3    O2 4290   3.833   3.175   0.198  0.1498  0.3667  0.3456
  281TMC3    C1 4291   3.008   3.734  13.714  0.0103 -0.2992  0.2629
  281TMC3    C2 4292   3.053   3.786  13.594 -0.2569 -0.8306 -0.1206
  281TMC3    C3 4293   3.057   3.701  13.488 -0.0067 -1.1397  0.1120
  281TMC3    C4 4294   2.964   3.607  13.726 -0.5116  0.4165  0.1447
  281TMC3    C5 4295   2.971   3.529  13.615  0.4391  0.2084  1.0760
  281TMC3    C6 4296   3.017   3.572  13.495  0.1230  0.1801  0.8965
  281TMC3     C 4297   2.969   3.822  13.815 -0.2460  0.2841  0.0648
  281TMC3     O 4298   2.960   3.772  13.924 -0.1060  0.1146 -0.3597
  281TMC3     H 4299   3.104   3.881  13.582 -0.6403 -0.4667  1.1003
  281TMC3    H1 4300   2.930   3.567  13.821  1.0250 -0.0236  0.5039
  281TMC3    H2 4301   3.028   3.503  13.412 -0.0753  1.9844 -0.6471
  281TMC3    C7 4302   2.941   3.394  13.622 -0.0009  0.4678  0.1402
  281TMC3    C8 4303   3.124   3.728  13.362  0.1586  0.5360  0.3739
  281TMC3    O1 4304   2.910   3.334  13.521  0.6303 -0.4839 -1.0077
  281TMC3    O2 4305   3.162   3.628  13.302  0.2727  0.3392 -0.1715
  282MPD2     C 4306   0.639   0.331  15.309  0.5301 -0.0668  0.7443
  282MPD2    C1 4307   0.506   0.345  15.334  0.4482 -1.0444  0.1171
  282MPD2    C2 4308   0.429   0.346  15.220  0.0778 -0.3214 -0.2216
  282MPD2    C3 4309   0.474   0.324  15.091  0.6360  0.2367 -0.8550
  282MPD2    C4 4310   0.607   0.310  15.070  0.2531  0.2635  0.0509
  282MPD2    C5 4311   0.684   0.310  15.178 -0.0308  0.9100  0.0821
  282MPD2     H 4312   0.322   0.342  15.240 -0.4291  2.1163 -2.5229
  282MPD2    H1 4313   0.638   0.296  14.967 -1.2909 -0.9478 -0.2449
  282MPD2    H2 4314   0.716   0.324  15.385  1.0593 -0.8598  0.1270
  282MPD2    H3 4315   0.790   0.291  15.171 -0.0357  0.0435  2.3204
  282MPD2     N 4316   0.379   0.324  14.988 -0.3893  0.4568 -0.0383
  282MPD2    H5 4317   0.281   0.343  15.008 -1.2939 -1.1833 -2.8752
  282MPD2    N1 4318   0.454   0.371  15.458  0.2567  0.3810 -0.4238
  282MPD2    H7 4319   0.355   0.351  15.470  0.5626 -2.9675 -3.4235
  283TMC3    C1 4320   0.465   0.415  15.689 -0.2502  0.3219 -0.0385
  283TMC3    C2 4321   0.487   0.524  15.777 -0.2113  0.0508 -0.2491
  283TMC3    C3 4322   0.395   0.533  15.879 -0.4942  0.1404 -0.0119
  283TMC3    C4 4323   0.353   0.333  15.696 -0.5117  0.8226 -0.1080
  283TMC3    C5 4324   0.266   0.360  15.799 -0.0521 -0.2999 -0.2641
  283TMC3    C6 4325   0.278   0.464  15.888  0.1752 -0.1026 -0.3973
  283TMC3     C 4326   0.527   0.432  15.561  0.9149  0.2385  0.1172
  283TMC3     O 4327   0.629   0.497  15.555  0.4750  0.1281  0.1533
  283TMC3     H 4328   0.581   0.577  15.782 -0.7160  1.0860 -1.8173
  283TMC3    H1 4329   0.347   0.242  15.638 -0.3128  1.4247 -1.0854
  283TMC3    H2 4330   0.219   0.476  15.979 -0.1269  1.0907 -0.7465
  283TMC3    C7 4331   0.178   0.251  15.841  0.4933  0.3130 -0.0564
  283TMC3    C8 4332   0.388   0.659  15.949 -0.0600  0.4519 -0.6599
  283TMC3    O1 4333   0.173   0.231  15.960  0.0802  0.2437 -0.3568
  283TMC3    O2 4334   0.359   0.666  16.070 -0.4062 -0.0206 -0.0949
  284MPD2     C 4335   3.036   4.507  12.460 -0.7974  0.2660 -0.1209
  284MPD2    C1 4336   3.158   4.568  12.465  1.1729  0.2726 -0.1919
  284MPD2    C2 4337   3.250   4.503  12.548 -0.0509  0.5036  0.0419
  284MPD2    C3 4338   3.224   4.401  12.638 -0.2695 -0.2239  0.3879
  284MPD2    C4 4339   3.093   4.356  12.637 -0.1175 -0.2759  0.5611
  284MPD2    C5 4340   3.002   4.411  12.547 -0.3784  0.0565  0.2071
  284MPD2     H 4341   3.352   4.536  12.531 -0.5203  0.8722 -2.2006
  284MPD2    H1 4342   3.065   4.282  12.711  0.6551 -3.0092 -1.8541
  284MPD2    H2 4343   2.958   4.542  12.393  2.2427  4.4964 -1.4395
  284MPD2    H3 4344   2.901   4.372  12.556 -0.5082 -0.0966 -2.0362
  284MPD2     N 4345   3.322   4.338  12.716 -0.0649  0.2925 -0.5834
  284MPD2    H5 4346   3.292   4.245  12.742  0.2095  1.0193  2.3114
  284MPD2    N1 4347   3.190   4.656  12.363  0.3664  0.7732 -0.5745
  284MPD2    H7 4348   3.287   4.675  12.341  1.1107 -0.2600  1.8045
  285TMC3    C1 4349   3.185   0.028  12.155  0.1295 -0.3745 -0.5327
  285TMC3    C2 4350   3.295   4.694  12.125  0.0584  0.2753 -0.1882
  285TMC3    C3 4351   3.405   0.009  12.078 -0.5258  0.3514  0.4778
  285TMC3    C4 4352   3.181   0.165  12.131 -0.2136 -0.0911 -0.6855
  285TMC3    C5 4353   3.302   0.218  12.078  0.2962  0.0350  0.4889
  285TMC3    C6 4354   3.411   0.138  12.041 -0.7629 -0.7558  0.5764
  285TMC3     C 4355   3.108   4.705  12.265  0.5515  0.3714  0.1138
  285TMC3     O 4356   2.989   4.729  12.267 -0.0844  0.0139 -0.3079
  285TMC3     H 4357   3.300   4.594  12.166  0.8305  1.1883  1.9195
  285TMC3    H1 4358   3.100   0.218  12.180  0.1148  1.3354 -1.6677
  285TMC3    H2 4359   3.505   0.187  12.016 -1.5198  0.4141  0.0156
  285TMC3    C7 4360   3.303   0.333  11.991  0.4459  0.4434 -0.1962
  285TMC3    C8 4361   3.466   4.655  11.980  0.3444  0.5196 -0.2066
  285TMC3    O1 4362   3.385   0.330  11.902  0.4575 -0.7015  0.4063
  285TMC3    O2 4363   3.495   4.541  12.011  0.3329  0.7465  0.1079
  286MPD2     C 4364   3.458   2.704   1.872 -0.0446  0.5649  0.1069
  286MPD2    C1 4365   3.443   2.656   1.739  0.1377 -0.4575 -0.2319
  286MPD2    C2 4366   3.550   2.591   1.678  0.0855  0.2939  0.6013
  286MPD2    C3 4367   3.671   2.576   1.740 -0.0396 -0.2891 -0.1558
  286MPD2    C4 4368   3.686   2.624   1.873 -0.1764 -0.2414 -0.4369
  286MPD2    C5 4369   3.579   2.685   1.939  0.1507 -0.3408 -0.2543
  286MPD2     H 4370   3.537   2.555   1.577  0.3807  0.9768  0.3210
  286MPD2    H1 4371   3.780   2.615   1.926 -1.4608 -2.6288  1.4365
  286MPD2    H2 4372   3.377   2.753   1.924  0.2705  0.6544  0.5187
  286MPD2    H3 4373   3.572   2.722   2.041  1.7572 -0.0089 -0.2623
  286MPD2     N 4374   3.790   2.523   1.680 -0.2702  0.5505  0.0092
  286MPD2    H5 4375   3.870   2.521   1.743 -1.0654  0.9933  1.0270
  286MPD2    N1 4376   3.336   2.695   1.660 -0.0544 -0.2353 -0.5840
  286MPD2    H7 4377   3.350   2.683   1.561  2.5217 -1.3484 -0.0740
  287TMC3    C1 4378   3.916   2.385   1.528  0.0792 -0.1641  0.0929
  287TMC3    C2 4379   3.898   2.307   1.416 -0.4126  0.3095  0.6534
  287TMC3    C3 4380   4.004   2.286   1.338  0.7114  0.8806 -0.0694
  287TMC3    C4 4381   4.040   2.448   1.549  0.6957  0.4105 -0.1434
  287TMC3    C5 4382   4.140   2.416   1.467 -0.8271  0.0701  0.2757
  287TMC3    C6 4383   4.126   2.335   1.360 -0.4328  0.1672  0.4911
  287TMC3     C 4384   3.785   2.444   1.569 -0.7204 -0.5620  0.1688
  287TMC3     O 4385   3.687   2.412   1.506 -0.2170  0.9178  1.1572
  287TMC3     H 4386   3.803   2.257   1.398 -1.0531  1.8604 -0.3393
  287TMC3    H1 4387   4.053   2.530   1.618  1.0765 -0.1567  0.4658
  287TMC3    H2 4388   4.205   2.326   1.287  0.9612  0.3679  1.9773
  287TMC3    C7 4389   4.271   2.461   1.495  0.3639  0.0967  0.4013
  287TMC3    C8 4390   3.969   2.218   1.213  0.3945  0.5413 -0.2939
  287TMC3    O1 4391   4.284   2.555   1.571  0.8004 -0.1102 -0.2200
  287TMC3    O2 4392   3.853   2.220   1.180 -0.5490 -0.3114  0.4600
  288TMC3    C1 4393   0.369   2.999  14.946  0.2554 -0.4060  0.1215
  288TMC3    C2 4394   0.347   2.955  15.078 -0.7114 -0.0642 -0.0913
  288TMC3    C3 4395   0.286   3.047  15.167 -0.1366  0.3120 -0.0500
  288TMC3    C4 4396   0.325   3.123  14.901 -0.3705 -0.0944 -0.9678
  288TMC3    C5 4397   0.265   3.211  14.990  0.6673 -0.0505  0.6816
  288TMC3    C6 4398   0.244   3.167  15.120 -0.9388  0.3300  0.2495
  288TMC3     C 4399   0.452   2.923  14.862 -0.8846  0.0526 -0.8025
  288TMC3     O 4400   0.479   2.812  14.902  0.9293 -0.4000  0.1093
  288TMC3     H 4401   0.408   2.871  15.108 -0.8155 -0.1991 -0.2564
  288TMC3    H1 4402   0.324   3.145  14.795 -1.0368  2.2289 -0.4941
  288TMC3    H2 4403   0.180   3.224  15.186 -2.7348 -2.2623  0.7420
  288TMC3    C7 4404   0.171   3.308  14.938 -0.0565  0.1317 -0.3554
  288TMC3    C8 4405   0.239   3.004  15.298  0.1457  0.1221 -0.0812
  288TMC3    O1 4406   0.073   3.321  15.009  0.0785  0.0734  0.9595
  288TMC3    O2 4407   0.213   3.096  15.375 -0.3587 -0.0911  0.0121
  289MPD2     C 4408   0.842   2.071  14.821 -0.6305 -0.6759 -0.4273
  289MPD2    C1 4409   0.809   2.200  14.799 -0.5992 -0.2237 -0.4175
  289MPD2    C2 4410   0.679   2.235  14.753  0.4619 -0.5102 -0.1792
  289MPD2    C3 4411   0.582   2.133  14.742  0.3550  0.4635  0.2502
  289MPD2    C4 4412   0.612   2.000  14.777 -0.2968  0.4239 -0.8241
  289MPD2    C5 4413   0.743   1.971  14.815  0.2658  0.3647  0.1589
  289MPD2     H 4414   0.656   2.333  14.712  1.0499 -0.7844 -1.1916
  289MPD2    H1 4415   0.549   1.916  14.753 -0.4533  0.2708  0.1055
  289MPD2    H2 4416   0.936   2.048  14.870 -1.0277 -1.4757 -0.0480
  289MPD2    H3 4417   0.768   1.867  14.834 -1.6685 -0.4453 -1.6868
  289MPD2     N 4418   0.450   2.159  14.689  0.3875  0.3700 -0.5714
  289MPD2    H5 4419   0.382   2.083  14.686 -0.7823  1.3838  0.3447
  289MPD2    N1 4420   0.915   2.292  14.790 -0.2195 -0.2872  0.2821
  289MPD2    H7 4421   1.009   2.253  14.793 -1.1550 -2.4488  1.4561
  290TMC3    C1 4422   0.254   2.266  14.626  0.2726  0.4949  0.1292
  290TMC3    C2 4423   0.187   2.386  14.636  0.3117 -0.4349 -0.0770
  290TMC3    C3 4424   0.062   2.390  14.581 -0.5004 -0.1536 -0.6165
  290TMC3    C4 4425   0.201   2.146  14.580 -0.2125 -0.9770 -0.2124
  290TMC3    C5 4426   0.076   2.156  14.523 -0.4064 -0.1560  0.2976
  290TMC3    C6 4427   0.001   2.276  14.532  0.1989  0.0741  0.4753
  290TMC3     C 4428   0.394   2.278  14.662 -0.4168 -0.0801 -0.2727
  290TMC3     O 4429   0.438   2.392  14.666  0.1588 -0.6546 -0.0433
  290TMC3     H 4430   0.240   2.476  14.663  0.9143 -1.0640  0.8387
  290TMC3    H1 4431   0.262   2.056  14.578 -1.6289 -1.9165 -0.5844
  290TMC3    H2 4432   4.642   2.266  14.482  0.6679  0.0791 -0.4181
  290TMC3    C7 4433   0.004   2.041  14.473 -0.5250 -0.3643  0.8609
  290TMC3    C8 4434   4.718   2.509  14.582 -1.0534  0.5463 -0.0673
  290TMC3    O1 4435   4.626   2.066  14.437  0.5402 -0.3254  0.5850
  290TMC3    O2 4436   4.615   2.492  14.530  0.0357  0.0886  0.2425
  291MPD2     C 4437   4.348   1.548   0.606  1.1920  0.2203  0.0920
  291MPD2    C1 4438   4.401   1.421   0.608 -0.5300  0.1375 -0.2299
  291MPD2    C2 4439   4.536   1.411   0.636 -0.0343  0.4144 -0.2052
  291MPD2    C3 4440   4.611   1.512   0.685  0.3313 -0.3498  1.4079
  291MPD2    C4 4441   4.554   1.638   0.674 -0.0741 -0.4611 -0.0295
  291MPD2    C5 4442   4.428   1.655   0.636 -0.4468  0.4253 -0.8063
  291MPD2     H 4443   4.585   1.315   0.636 -3.0677 -1.1545 -0.5988
  291MPD2    H1 4444   4.610   1.728   0.698 -0.8298  0.1138 -0.4117
  291MPD2    H2 4445   4.242   1.564   0.588  1.1230  0.0422  0.3300
  291MPD2    H3 4446   4.381   1.752   0.628 -0.5137  0.4589  0.0102
  291MPD2     N 4447   0.013   1.511   0.710  0.5423  0.0649  0.0953
  291MPD2    H5 4448   0.052   1.604   0.724  2.3985 -0.4947 -1.3283
  291MPD2    N1 4449   4.325   1.301   0.581 -0.0980 -0.3528  0.3384
  291MPD2    H7 4450   4.224   1.313   0.574  0.1849  1.0733 -1.4430
  292TMC3    C1 4451   4.255   1.088   0.517 -0.3348  0.0249 -0.9160
  292TMC3    C2 4452   4.133   1.111   0.577 -0.2003 -0.7557 -0.2734
  292TMC3    C3 4453   4.032   1.035   0.533  0.3424  0.3044  0.2706
  292TMC3    C4 4454   4.282   0.973   0.445  0.2915 -0.0555 -0.0474
  292TMC3    C5 4455   4.173   0.900   0.405  0.3314 -0.2279  0.0083
  292TMC3    C6 4456   4.048   0.928   0.447 -0.3363  0.4134 -0.1262
  292TMC3     C 4457   4.367   1.171   0.547  0.0917  0.3545 -0.5764
  292TMC3     O 4458   4.481   1.129   0.525 -0.1815  0.1893 -0.4858
  292TMC3     H 4459   4.107   1.200   0.633  0.1440 -0.4914 -0.5307
  292TMC3    H1 4460   4.376   0.938   0.403  0.1464  1.1725 -1.4050
  292TMC3    H2 4461   3.956   0.873   0.429  0.2899 -0.9445  0.8264
  292TMC3    C7 4462   4.207   0.789   0.319 -0.1124  0.0877 -0.1528
  292TMC3    C8 4463   3.901   1.060   0.592  0.1295 -0.3476 -0.6892
  292TMC3    O1 4464   4.312   0.778   0.264 -0.7924  0.1773 -0.0997
  292TMC3    O2 4465   3.878   1.177   0.625  0.2128 -0.3993 -0.5670
  293MPD2     C 4466   1.338   3.159  12.914 -0.5623  0.7002 -0.6821
  293MPD2    C1 4467   1.392   3.292  12.921 -0.1738 -0.5938 -0.0933
  293MPD2    C2 4468   1.480   3.315  13.027  1.3310  0.3359  0.0038
  293MPD2    C3 4469   1.508   3.215  13.122  0.1287 -0.1323  0.5418
  293MPD2    C4 4470   1.453   3.091  13.117  0.2654  0.4196  0.3436
  293MPD2    C5 4471   1.379   3.063  13.005 -0.2269 -0.9564 -0.5444
  293MPD2     H 4472   1.535   3.408  13.041  2.4281 -0.2746 -0.2878
  293MPD2    H1 4473   1.472   3.013  13.190  0.0047  0.9323  0.9570
  293MPD2    H2 4474   1.291   3.121  12.824  1.5130 -0.7896 -1.1586
  293MPD2    H3 4475   1.336   2.964  13.003 -0.1158 -0.9889 -1.3896
  293MPD2     N 4476   1.592   3.251  13.232  0.4670 -0.4505  0.6108
  293MPD2    H5 4477   1.612   3.350  13.241  0.1558 -0.3024 -0.3134
  293MPD2    N1 4478   1.351   3.382  12.823 -0.0102 -0.5297 -0.1099
  293MPD2    H7 4479   1.292   3.345  12.749  1.9165  1.1472 -2.4620
  294TMC3    C1 4480   1.352   3.577  12.686 -0.1616 -0.2527  0.3720
  294TMC3    C2 4481   1.229   3.535  12.633 -0.3371 -0.0606  0.0134
  294TMC3    C3 4482   1.198   3.581  12.509 -0.3693  0.4896  0.1425
  294TMC3    C4 4483   1.436   3.655  12.612  0.4742 -0.0060 -0.3047
  294TMC3    C5 4484   1.399   3.691  12.482  0.4158  0.0743 -0.0803
  294TMC3    C6 4485   1.282   3.646  12.428 -0.4218  0.4778 -0.7812
  294TMC3     C 4486   1.403   3.509  12.802  0.2470  0.0328  0.3434
  294TMC3     O 4487   1.484   3.575  12.871  0.6003  0.0512  0.2176
  294TMC3     H 4488   1.150   3.480  12.684  0.6569 -1.8491 -0.3700
  294TMC3    H1 4489   1.532   3.673  12.660  1.1774  1.6146 -2.3461
  294TMC3    H2 4490   1.258   3.686  12.330 -1.6211  1.9463  0.1028
  294TMC3    C7 4491   1.503   3.728  12.403 -0.1927  0.3007  0.1161
  294TMC3    C8 4492   1.057   3.576  12.458  0.5698 -0.6880  0.4097
  294TMC3    O1 4493   1.588   3.809  12.437 -0.6699 -0.2025  0.5658
  294TMC3    O2 4494   1.042   3.646  12.360 -0.1173 -0.2572  0.3809
  295MPD2     C 4495   1.897   1.048   1.483  0.6301  1.1924  0.2284
  295MPD2    C1 4496   1.881   1.171   1.423  1.3745  0.6979  0.1088
  295MPD2    C2 4497   1.806   1.264   1.492 -0.3800 -0.1684  0.5627
  295MPD2    C3 4498   1.760   1.243   1.624 -0.2736  0.1738  0.0028
  295MPD2    C4 4499   1.779   1.122   1.676  0.4129  0.8934  1.0685
  295MPD2    C5 4500   1.849   1.030   1.605  0.1234  0.7930 -0.8382
  295MPD2     H 4501   1.820   1.360   1.446  0.5167 -1.8470 -2.6352
  295MPD2    H1 4502   1.741   1.094   1.774  0.2632  1.6027  1.2129
  295MPD2    H2 4503   1.958   0.970   1.439 -1.7979  0.0670 -1.1559
  295MPD2    H3 4504   1.872   0.938   1.656  1.3312  1.8329  0.5062
  295MPD2     N 4505   1.680   1.334   1.699  0.1025 -0.2186  0.3165
  295MPD2    H5 4506   1.643   1.295   1.785  2.8156 -1.3620  0.9639
  295MPD2    N1 4507   1.929   1.207   1.298  0.3333 -0.2320  0.7915
  295MPD2    H7 4508   1.901   1.292   1.252 -0.4851 -0.5717  0.6677
  296TMC3    C1 4509   1.557   1.527   1.753  0.1528 -0.0672 -0.2685
  296TMC3    C2 4510   1.462   1.610   1.690  0.3170 -0.3733 -0.0648
  296TMC3    C3 4511   1.363   1.664   1.766 -0.3034  0.3133 -0.0156
  296TMC3    C4 4512   1.561   1.505   1.883 -0.5211 -0.7160 -0.1186
  296TMC3    C5 4513   1.472   1.578   1.959 -0.4748  0.3163  0.3170
  296TMC3    C6 4514   1.372   1.659   1.902  0.1900  0.6570 -0.5928
  296TMC3     C 4515   1.648   1.463   1.664 -0.0558 -0.0409  0.4947
  296TMC3     O 4516   1.681   1.517   1.558 -0.2213 -0.3326 -0.5370
  296TMC3     H 4517   1.469   1.613   1.582 -0.1789 -0.1895 -0.0934
  296TMC3    H1 4518   1.631   1.434   1.924 -1.6042 -0.6718  1.7922
  296TMC3    H2 4519   1.308   1.715   1.969  1.2468 -0.5020  1.3961
  296TMC3    C7 4520   1.450   1.534   2.092 -0.0891  0.8818  0.8292
  296TMC3    C8 4521   1.253   1.737   1.705  1.0030 -0.0311  0.1056
  296TMC3    O1 4522   1.554   1.495   2.150  0.0538 -0.3005 -0.3097
  296TMC3    O2 4523   1.171   1.787   1.779 -0.5602  0.5559 -0.2480
  297MPD2     C 4524   4.176   3.728  15.974 -0.3438  0.3927 -0.1871
  297MPD2    C1 4525   4.189   3.860  15.935  0.1765 -0.3715  1.3498
  297MPD2    C2 4526   4.310   3.929  15.949 -0.3769  0.7276 -0.7307
  297MPD2    C3 4527   4.410   3.872  16.017  0.3206 -0.1181  0.0001
  297MPD2    C4 4528   4.402   3.744  16.055 -0.0191 -0.5092 -0.0644
  297MPD2    C5 4529   4.285   3.667  16.033 -0.3423 -0.4199 -0.7249
  297MPD2     H 4530   4.326   4.026  15.903  2.5271  1.1990  1.2793
  297MPD2    H1 4531   4.476   3.704  16.122 -0.8892 -0.4050  0.9672
  297MPD2    H2 4532   4.091   3.668  15.943 -0.7603  0.8116  0.1437
  297MPD2    H3 4533   4.288   3.567  16.073 -0.2907  0.0525  0.4721
  297MPD2     N 4534   4.526   3.951  16.039  0.4536  1.1009 -0.7756
  297MPD2    H5 4535   4.521   4.047  16.005  3.0429  1.7815  0.7770
  297MPD2    N1 4536   4.087   3.930  15.850 -0.4589 -0.4221  0.6050
  297MPD2    H7 4537   4.123   4.008  15.797  1.8155 -1.0336  1.2628
  298TMC3    C1 4538   3.877   3.970  15.755  0.6241 -0.7920 -0.3575
  298TMC3    C2 4539   3.932   4.052  15.663 -0.2405 -0.3147  0.0942
  298TMC3    C3 4540   3.848   4.109  15.572 -0.1770  0.2338 -0.7540
  298TMC3    C4 4541   3.747   3.961  15.769 -0.3567  0.2431 -0.2949
  298TMC3    C5 4542   3.668   4.018  15.682 -0.3784  0.3277  0.7197
  298TMC3    C6 4543   3.709   4.090  15.569 -0.4737 -0.4828  0.4762
  298TMC3     C 4544   3.955   3.893  15.848  0.9601  0.2632 -1.1151
  298TMC3     O 4545   3.903   3.816  15.924 -0.5312 -0.3246  0.1511
  298TMC3     H 4546   4.039   4.049  15.650 -0.2348 -0.9122  0.2755
  298TMC3    H1 4547   3.706   3.900  15.849 -0.7268  1.8955  0.7892
  298TMC3    H2 4548   3.641   4.146  15.506 -0.2210 -1.0300 -0.2832
  298TMC3    C7 4549   3.528   4.016  15.703 -0.5313  0.3299  0.2002
  298TMC3    C8 4550   3.908   4.211  15.484  0.0312  0.1558  0.1007
  298TMC3    O1 4551   3.461   4.047  15.604  0.8691 -0.2424 -0.0124
  298TMC3    O2 4552   4.006   4.258  15.535  0.1760  0.0553 -0.1725
  299MPD2     C 4553   4.331   3.942  10.813 -0.6423  0.8714 -0.2166
  299MPD2    C1 4554   4.277   3.856  10.906  0.0317  0.4521 -0.1003
  299MPD2    C2 4555   4.167   3.786  10.866  0.1514 -0.0439 -1.0391
  299MPD2    C3 4556   4.119   3.794  10.739 -0.1675  0.1770  0.7938
  299MPD2    C4 4557   4.179   3.881  10.650 -0.0001 -0.8668  0.1531
  299MPD2    C5 4558   4.288   3.956  10.685  0.6594  0.1769  0.6471
  299MPD2     H 4559   4.114   3.721  10.935  1.7129  0.3650  0.5465
  299MPD2    H1 4560   4.135   3.887  10.551 -2.0215 -0.2281  1.0951
  299MPD2    H2 4561   4.425   3.991  10.836 -0.8451  1.2703 -0.2279
  299MPD2    H3 4562   4.324   4.044  10.634  2.0946 -0.9289 -0.2754
  299MPD2     N 4563   3.999   3.732  10.691  0.3474 -0.2595 -0.2826
  299MPD2    H5 4564   3.977   3.743  10.593 -1.4132  0.4036  0.1952
  299MPD2    N1 4565   4.344   3.850  11.033 -0.3199 -0.0399 -0.3179
  299MPD2    H7 4566   4.419   3.917  11.048  0.8340 -1.4078  0.0067
  300TMC3    C1 4567   3.783   3.631  10.723 -0.1196  0.0790  0.0374
  300TMC3    C2 4568   3.737   3.722  10.627  0.0622 -0.3176 -0.2268
  300TMC3    C3 4569   3.611   3.771  10.646 -0.2381 -0.2087 -0.2002
  300TMC3    C4 4570   3.707   3.559  10.805 -0.3528 -0.4943  0.2501
  300TMC3    C5 4571   3.575   3.605  10.810  0.6027  0.0471  0.8713
  300TMC3    C6 4572   3.526   3.708  10.732 -0.2503  0.1556 -0.6897
  300TMC3     C 4573   3.909   3.676  10.775  0.1557  0.3052  0.4357
  300TMC3     O 4574   3.909   3.662  10.898  0.1326  0.6080 -0.6729
  300TMC3     H 4575   3.796   3.791  10.569  0.8241 -1.0478 -0.3186
  300TMC3    H1 4576   3.754   3.498  10.881  0.6046 -0.3931 -0.2596
  300TMC3    H2 4577   3.425   3.740  10.753  0.8385  3.6344 -0.8359
  300TMC3    C7 4578   3.518   3.593  10.944 -0.2549 -0.2042  0.0727
  300TMC3    C8 4579   3.611   3.911  10.664 -0.3072 -0.0116  0.0348
  300TMC3    O1 4580   3.408   3.540  10.945 -0.2655 -0.1246 -0.2985
  300TMC3    O2 4581   3.722   3.956  10.695 -0.5418  0.1321  0.2388
  301MPD2     C 4582   2.283   4.368   1.826  0.1315 -0.0347  0.1839
  301MPD2    C1 4583   2.277   4.398   1.690 -0.2542  0.3525 -0.2518
  301MPD2    C2 4584   2.295   4.291   1.603  0.7827 -0.2726  0.3430
  301MPD2    C3 4585   2.347   4.162   1.641  0.1341  0.6082 -0.1280
  301MPD2    C4 4586   2.349   4.139   1.781 -0.1268  0.1806 -0.0270
  301MPD2    C5 4587   2.310   4.239   1.867 -0.6565 -0.3166 -0.3694
  301MPD2     H 4588   2.290   4.306   1.496 -0.0435  3.5583  0.9354
  301MPD2    H1 4589   2.377   4.041   1.817 -1.7701  1.1848  3.9890
  301MPD2    H2 4590   2.275   4.437   1.909 -1.4765  1.5306 -1.2940
  301MPD2    H3 4591   2.313   4.225   1.974  2.8299 -2.0072 -0.6706
  301MPD2     N 4592   2.387   4.061   1.553 -0.2852  0.8250 -0.0016
  301MPD2    H5 4593   2.430   3.977   1.591  1.1391  2.0099  1.0440
  301MPD2    N1 4594   2.229   4.516   1.630  1.1846  0.6229 -0.4181
  301MPD2    H7 4595   2.220   4.517   1.529  1.1147  0.9712 -0.4088
  302TMC3    C1 4596   2.404   3.939   1.354 -0.2228 -1.0361 -0.1806
  302TMC3    C2 4597   2.464   3.841   1.427 -0.2120  0.4478  0.3423
  302TMC3    C3 4598   2.515   3.740   1.352 -0.6932 -0.3009 -0.2465
  302TMC3    C4 4599   2.384   3.936   1.219 -0.2439 -0.3231 -0.0618
  302TMC3    C5 4600   2.439   3.827   1.155 -0.5763  0.3164  0.8248
  302TMC3    C6 4601   2.495   3.716   1.218  0.8867 -0.5680  0.1844
  302TMC3     C 4602   2.359   4.059   1.418 -0.6687 -0.0927 -0.0457
  302TMC3     O 4603   2.295   4.143   1.349  0.4227  0.4780  0.1495
  302TMC3     H 4604   2.484   3.839   1.534 -1.3075  0.6243  0.5476
  302TMC3    H1 4605   2.333   4.018   1.170  0.0916 -0.1150 -0.0670
  302TMC3    H2 4606   2.543   3.637   1.161  1.2720 -0.1195 -0.1242
  302TMC3    C7 4607   2.443   3.821   1.011  0.4064 -0.6619 -0.3819
  302TMC3    C8 4608   2.539   3.613   1.423 -0.8352  0.4387  0.0396
  302TMC3    O1 4609   2.495   3.725   0.957  0.2741  0.2464  0.9199
  302TMC3    O2 4610   2.589   3.623   1.539  0.1350 -0.0365 -0.4795
  303MPD2     C 4611   2.223   4.271  11.245  0.6121  0.1220 -0.3550
  303MPD2    C1 4612   2.188   4.137  11.254 -0.9905  0.1416 -0.0554
  303MPD2    C2 4613   2.221   4.048  11.158  0.3800 -0.3328 -0.4289
  303MPD2    C3 4614   2.272   4.091  11.038  1.0144  0.0966 -0.1142
  303MPD2    C4 4615   2.307   4.219  11.030 -0.0217  0.1643  0.4948
  303MPD2    C5 4616   2.278   4.312  11.127 -0.6878  0.7353  0.1072
  303MPD2     H 4617   2.210   3.941  11.165 -0.1676 -0.2077  0.6117
  303MPD2    H1 4618   2.357   4.261  10.943  2.2064 -0.1166  1.6669
  303MPD2    H2 4619   2.206   4.342  11.325 -0.7536  0.4086 -0.8973
  303MPD2    H3 4620   2.309   4.416  11.122  0.2177  0.4445 -0.4787
  303MPD2     N 4621   2.287   4.004  10.930  0.2647  0.2101  0.5055
  303MPD2    H5 4622   2.332   4.049  10.851 -1.6617  1.5073  0.1282
  303MPD2    N1 4623   2.122   4.093  11.369  0.0383 -0.3774  0.1798
  303MPD2    H7 4624   2.099   4.168  11.434  0.4061 -0.0310 -0.0912
  304TMC3    C1 4625   2.009   3.952  11.525 -0.2650 -0.3108 -0.7764
  304TMC3    C2 4626   1.889   4.008  11.513  0.2696  0.0451 -0.6446
  304TMC3    C3 4627   1.783   3.961  11.592  0.3333 -0.2324 -0.3998
  304TMC3    C4 4628   2.029   3.845  11.607 -0.5701  0.6583 -0.2508
  304TMC3    C5 4629   1.929   3.795  11.685 -0.2433  0.0912  0.2443
  304TMC3    C6 4630   1.806   3.857  11.679 -0.9871  0.3502  0.3383
  304TMC3     C 4631   2.098   3.961  11.411  0.4407 -0.5439 -0.5982
  304TMC3     O 4632   2.143   3.855  11.376 -0.6376  0.2570 -0.7146
  304TMC3     H 4633   1.867   4.098  11.456 -1.9193 -1.0095 -1.4302
  304TMC3    H1 4634   2.128   3.802  11.609 -1.3569 -1.1531  0.3231
  304TMC3    H2 4635   1.726   3.822  11.744  0.1032  1.4097  2.2365
  304TMC3    C7 4636   1.930   3.653  11.686 -0.4211  0.7417  0.5395
  304TMC3    C8 4637   1.660   3.928  11.513 -0.0427  0.3292  0.4507
  304TMC3    O1 4638   2.035   3.598  11.709  0.1115 -0.4857  0.6625
  304TMC3    O2 4639   1.613   3.822  11.549 -0.0919  0.0290 -0.6273
  305MPD2     C 4640   0.684   0.846  14.271  0.0345 -0.2047  0.5470
  305MPD2    C1 4641   0.636   0.725  14.227 -0.5126  0.2071  0.3890
  305MPD2    C2 4642   0.593   0.715  14.101 -0.7132 -0.7472 -0.4854
  305MPD2    C3 4643   0.595   0.819  14.008 -0.2892  0.1047  0.5161
  305MPD2    C4 4644   0.636   0.938  14.058 -0.0228  0.2720 -0.7720
  305MPD2    C5 4645   0.685   0.949  14.180 -1.1611 -0.1885 -0.4165
  305MPD2     H 4646   0.556   0.618  14.069 -1.8465 -0.6882  0.6567
  305MPD2    H1 4647   0.640   1.021  13.989  0.0338 -0.0125 -1.1147
  305MPD2    H2 4648   0.723   0.856  14.371  3.5088 -2.3063 -0.6082
  305MPD2    H3 4649   0.713   1.047  14.217 -0.0219 -0.0500 -1.6648
  305MPD2     N 4650   0.559   0.811  13.876 -0.0728 -0.7691  0.6989
  305MPD2    H5 4651   0.588   0.890  13.818  0.0819 -2.7791 -1.9678
  305MPD2    N1 4652   0.636   0.611  14.312  0.0414  0.2726 -0.3880
  305MPD2    H7 4653   0.684   0.619  14.402 -1.3277  0.2324  0.3463
  306TMC3    C1 4654   0.564   0.428  14.422  0.4929 -0.0242  0.0939
  306TMC3    C2 4655   0.664   0.341  14.444 -0.1564 -0.3955  0.2524
  306TMC3    C3 4656   0.713   0.324  14.567  0.0728 -0.2761 -0.3480
  306TMC3    C4 4657   0.510   0.503  14.525  0.3051  0.2758 -0.3282
  306TMC3    C5 4658   0.573   0.491  14.646 -0.6507  0.1659 -0.2805
  306TMC3    C6 4659   0.669   0.392  14.678 -0.4217  0.7814 -0.0459
  306TMC3     C 4660   0.573   0.490  14.289 -0.2400 -0.0453 -0.0692
  306TMC3     O 4661   0.493   0.449  14.205  0.3996 -0.2185  0.1264
  306TMC3     H 4662   0.717   0.297  14.361  0.4379  1.8456 -0.5503
  306TMC3    H1 4663   0.436   0.580  14.507 -1.7728 -1.8286 -0.6931
  306TMC3    H2 4664   0.701   0.378  14.781  0.2696  1.1810 -0.2068
  306TMC3    C7 4665   0.529   0.593  14.744 -1.0888 -0.8996 -0.4698
  306TMC3    C8 4666   0.796   0.210  14.585  0.0077 -0.1857  0.4056
  306TMC3    O1 4667   0.436   0.666  14.709  0.0611  0.3732  0.2783
  306TMC3    O2 4668   0.855   0.167  14.482 -1.1341 -0.1148  0.0166
  307MPD2     C 4669   3.258   2.537   1.085 -0.2984 -0.0146  0.6484
  307MPD2    C1 4670   3.211   2.641   1.011 -0.5339 -0.5809 -0.2110
  307MPD2    C2 4671   3.090   2.709   1.045  0.3021  0.0168  0.5305
  307MPD2    C3 4672   3.008   2.653   1.141  0.5531  0.3126  0.0754
  307MPD2    C4 4673   3.062   2.557   1.221  0.1221 -0.0048  0.0603
  307MPD2    C5 4674   3.183   2.504   1.188 -1.1431  0.2552 -0.1696
  307MPD2     H 4675   3.048   2.783   0.977 -2.4894 -1.3374  0.7548
  307MPD2    H1 4676   3.010   2.491   1.289 -0.5851  1.4680  0.9197
  307MPD2    H2 4677   3.351   2.488   1.059 -0.1383  0.6946 -0.1103
  307MPD2    H3 4678   3.221   2.426   1.254 -0.6134  2.1549  1.7650
  307MPD2     N 4679   2.875   2.692   1.147  0.3575  1.1287  0.5342
  307MPD2    H5 4680   2.835   2.765   1.089  0.8175 -1.1312 -2.6301
  307MPD2    N1 4681   3.276   2.692   0.901  0.3054  0.1622  0.1137
  307MPD2    H7 4682   3.234   2.765   0.845  0.6620  0.8463  0.7296
  308TMC3    C1 4683   2.425   2.722   1.168 -0.0433 -0.5493  0.2187
  308TMC3    C2 4684   2.427   2.856   1.182  0.3472  0.0104 -0.1483
  308TMC3    C3 4685   2.543   2.915   1.213  0.7728 -0.1396 -0.1882
  308TMC3    C4 4686   2.534   2.646   1.187  0.0015 -0.4834 -0.0961
  308TMC3    C5 4687   2.653   2.707   1.222 -0.4240 -0.1116 -0.4082
  308TMC3    C6 4688   2.657   2.848   1.234  0.2367  0.5154  0.0433
  308TMC3     C 4689   2.308   2.647   1.117 -0.4889 -0.6798  0.0346
  308TMC3     O 4690   2.323   2.530   1.135 -0.0215 -0.5374 -0.2213
  308TMC3     H 4691   2.341   2.922   1.172  0.9376  0.6882 -0.7778
  308TMC3    H1 4692   2.542   2.538   1.184 -1.0405 -0.5770  0.3414
  308TMC3    H2 4693   2.753   2.893   1.254  0.5133 -0.2647  0.4900
  308TMC3    C7 4694   2.773   2.634   1.217 -0.0685  0.1518  0.6367
  308TMC3    C8 4695   2.555   3.052   1.166 -0.3162 -0.2469 -0.9942
  308TMC3    O1 4696   2.764   2.526   1.274  0.1451  0.6450 -0.6095
  308TMC3    O2 4697   2.496   3.090   1.062 -0.0240  0.4570  1.0781
  309MPD2     C 4698   2.183   3.359  17.339 -0.3334 -0.9815 -0.5338
  309MPD2    C1 4699   2.122   3.438  17.242  0.4701  0.0703 -0.3213
  309MPD2    C2 4700   1.983   3.448  17.237 -0.3119  0.0551  0.0840
  309MPD2    C3 4701   1.905   3.379  17.330  0.5001 -0.1815  0.0308
  309MPD2    C4 4702   1.964   3.304  17.425  0.1150 -0.3787 -0.4170
  309MPD2    C5 4703   2.103   3.294  17.430 -0.7811  0.3833  0.1318
  309MPD2     H 4704   1.931   3.501  17.158 -1.1949  0.6434  1.0531
  309MPD2    H1 4705   1.911   3.241  17.496 -0.3438 -1.3413 -1.6343
  309MPD2    H2 4706   2.288   3.337  17.354 -0.2354 -1.3845 -1.7914
  309MPD2    H3 4707   2.146   3.226  17.503 -1.0512 -1.2884 -1.2595
  309MPD2     N 4708   1.763   3.365  17.330  0.5742  0.3840  0.0474
  309MPD2    H5 4709   1.727   3.327  17.417  0.2502  1.7641  0.5134
  309MPD2    N1 4710   2.200   3.504  17.142  0.3184  0.4257 -0.1493
  309MPD2    H7 4711   2.158   3.546  17.059 -1.4753 -1.2399 -0.0755
  310TMC3    C1 4712   2.376   3.523  16.990 -0.4458  1.2307  0.5232
  310TMC3    C2 4713   2.300   3.606  16.911  0.1965 -0.8663 -0.2477
  310TMC3    C3 4714   2.327   3.616  16.779  0.1853 -0.1201  0.9581
  310TMC3    C4 4715   2.466   3.446  16.932 -0.7569  0.3999 -0.0102
  310TMC3    C5 4716   2.478   3.452  16.792  0.5906  0.6424 -0.3920
  310TMC3    C6 4717   2.417   3.540  16.715 -0.1172 -0.1052 -0.5713
  310TMC3     C 4718   2.335   3.483  17.125 -0.5988  0.4694 -0.0686
  310TMC3     O 4719   2.421   3.433  17.197 -0.0283  0.4485 -0.2644
  310TMC3     H 4720   2.238   3.683  16.955 -2.2869 -2.8927 -0.1994
  310TMC3    H1 4721   2.521   3.368  16.984 -1.7590 -1.5123 -1.8301
  310TMC3    H2 4722   2.444   3.552  16.611  2.3219  1.9508  0.3171
  310TMC3    C7 4723   2.521   3.337  16.721  0.1521 -0.8264 -0.0101
  310TMC3    C8 4724   2.271   3.726  16.707  0.4611  0.3114  0.5012
  310TMC3    O1 4725   2.593   3.268  16.792  0.0854  0.0911  0.4609
  310TMC3    O2 4726   2.150   3.749  16.718  0.6331 -0.1956 -0.1645
  311MPD2     C 4727   4.162   0.202  12.954 -0.3319  0.3694 -0.5428
  311MPD2    C1 4728   4.142   0.330  13.005  0.3393  0.3663  0.2146
  311MPD2    C2 4729   4.019   0.357  13.070  0.2890 -0.4704  0.5366
  311MPD2    C3 4730   3.933   0.250  13.087 -0.0292 -0.1761 -0.4237
  311MPD2    C4 4731   3.956   0.121  13.044 -0.4829 -0.2679 -0.3650
  311MPD2    C5 4732   4.076   0.099  12.974  0.4774  0.0447 -0.3668
  311MPD2     H 4733   3.988   0.456  13.102  1.8472  0.5361 -1.0575
  311MPD2    H1 4734   3.886   0.039  13.043 -0.5073 -0.2518  0.3030
  311MPD2    H2 4735   4.245   0.174  12.889 -1.2505 -1.6170 -0.8716
  311MPD2    H3 4736   4.105   0.004  12.930 -1.0343 -0.9473  0.7712
  311MPD2     N 4737   3.816   0.286  13.155  0.2237  0.3372 -0.8156
  311MPD2    H5 4738   3.812   0.369  13.214  1.7199  0.2541 -0.6136
  311MPD2    N1 4739   4.232   0.439  12.977 -0.0655  0.4568 -0.0221
  311MPD2    H7 4740   4.188   0.527  13.001 -1.6604 -0.7941  1.6389
  312TMC3    C1 4741   3.570   0.256  13.209 -0.1932 -0.5504  0.7960
  312TMC3    C2 4742   3.449   0.251  13.150 -0.1410  0.2217  0.1294
  312TMC3    C3 4743   3.342   0.285  13.216  0.6226 -0.0143  0.2044
  312TMC3    C4 4744   3.584   0.287  13.340 -0.3403 -0.1802 -0.6080
  312TMC3    C5 4745   3.471   0.322  13.407  0.4209  0.2427 -0.3212
  312TMC3    C6 4746   3.350   0.320  13.347  0.1351 -0.6738  0.1180
  312TMC3     C 4747   3.692   0.221  13.131  0.5929  0.3180 -0.2067
  312TMC3     O 4748   3.674   0.150  13.031 -0.5172 -0.0556  0.6531
  312TMC3     H 4749   3.451   0.209  13.049 -0.7589 -1.5316  0.8459
  312TMC3    H1 4750   3.679   0.295  13.392 -1.1438 -1.5797  1.0945
  312TMC3    H2 4751   3.263   0.350  13.405 -0.3064  1.3479 -1.6282
  312TMC3    C7 4752   3.477   0.391  13.532  0.0811  0.0205  0.4384
  312TMC3    C8 4753   3.228   0.207  13.177  0.6800  0.4995 -0.1608
  312TMC3    O1 4754   3.408   0.494  13.527 -0.2779  0.3257 -0.0584
  312TMC3    O2 4755   3.187   0.111  13.236 -0.5668 -0.0974  0.5508
  313MPD2     C 4756   3.006   4.690  11.852 -0.2255  0.0609  0.6892
  313MPD2    C1 4757   3.080   4.707  11.734  0.2773  0.2058 -0.0338
  313MPD2    C2 4758   3.156   4.603  11.687  0.0605 -0.0577 -1.0121
  313MPD2    C3 4759   3.167   4.483  11.760  0.2740 -0.2550 -0.0251
  313MPD2    C4 4760   3.092   4.465  11.873 -0.6917 -0.9716 -1.0317
  313MPD2    C5 4761   3.016   4.570  11.915 -0.3360 -0.9293 -0.3776
  313MPD2     H 4762   3.204   4.627  11.593 -0.8729 -0.0710 -1.4859
  313MPD2    H1 4763   3.092   4.372  11.929  2.3812  1.0581  2.3905
  313MPD2    H2 4764   2.946   0.026  11.904  0.6884  0.3781  1.3034
  313MPD2    H3 4765   2.964   4.559  12.010 -1.3032 -1.7481 -0.9973
  313MPD2     N 4766   3.252   4.390  11.709  0.1789  0.2116  0.7689
  313MPD2    H5 4767   3.311   4.419  11.632 -0.3985  0.1879  0.3206
  313MPD2    N1 4768   3.080   0.090  11.664  0.4087 -0.3830 -0.1384
  313MPD2    H7 4769   3.148   0.106  11.591 -2.5544 -0.2612 -2.8426
  314TMC3    C1 4770   3.082   0.308  11.639 -0.4384 -0.0806  0.7565
  314TMC3    C2 4771   3.217   0.326  11.628  0.2197  0.2179  0.0131
  314TMC3    C3 4772   3.259   0.415  11.539  0.0737 -0.3627 -0.9605
  314TMC3    C4 4773   2.994   0.381  11.567 -0.1110  0.3193 -0.1697
  314TMC3    C5 4774   3.038   0.472  11.477 -0.0705  0.2031 -0.2140
  314TMC3    C6 4775   3.174   0.480  11.448  0.1276 -0.6919 -0.1471
  314TMC3     C 4776   3.021   0.201  11.709  1.2116 -0.2522  0.1064
  314TMC3     O 4777   2.933   0.223  11.793  0.1176  0.5255  0.6364
  314TMC3     H 4778   3.287   0.265  11.684 -0.3767  0.1878  0.7222
  314TMC3    H1 4779   2.888   0.364  11.576  0.3513 -1.5844  1.4902
  314TMC3    H2 4780   3.199   0.559  11.378  1.3042  0.4896  1.6095
  314TMC3    C7 4781   2.947   0.503  11.372  0.6032  0.3460 -0.3365
  314TMC3    C8 4782   3.406   0.441  11.526 -0.1116 -0.1280 -0.6066
  314TMC3    O1 4783   2.831   0.506  11.400  0.0303  0.4700  0.2889
  314TMC3    O2 4784   3.452   0.499  11.427  0.2100  0.1104  0.6703
  315MPD2     C 4785   3.230   3.188  17.500 -0.3224 -0.3255  0.1739
  315MPD2    C1 4786   3.347   3.189  17.566 -0.1746  0.3108  0.1508
  315MPD2    C2 4787   3.426   3.305  17.569  0.3748 -0.2924 -0.2730
  315MPD2    C3 4788   3.397   3.408  17.481 -0.1618 -0.7356  0.0672
  315MPD2    C4 4789   3.279   3.393  17.403 -0.4954 -0.7109 -0.5472
  315MPD2    C5 4790   3.193   3.286  17.414  0.4215 -0.4725 -0.8751
  315MPD2     H 4791   3.518   3.319  17.625  1.1939 -1.6046 -1.2750
  315MPD2    H1 4792   3.259   3.460  17.321  1.2369 -0.8571 -1.0963
  315MPD2    H2 4793   3.170   3.097  17.504  0.0022 -0.5535 -0.1659
  315MPD2    H3 4794   3.102   3.273  17.356  0.6107 -1.0393 -1.0484
  315MPD2     N 4795   3.488   3.516  17.449  0.7695 -0.1474 -0.0753
  315MPD2    H5 4796   3.573   3.523  17.504 -0.0747  0.0096  1.1859
  315MPD2    N1 4797   3.383   3.075  17.650  0.0206  0.2808  0.9372
  315MPD2    H7 4798   3.338   2.987  17.625  1.8445 -0.9372  1.9832
  316TMC3    C1 4799   3.583   3.709  17.366  0.2488  0.1956 -0.5986
  316TMC3    C2 4800   3.663   3.720  17.474  0.4916 -0.0463  0.4309
  316TMC3    C3 4801   3.775   3.798  17.468  0.2638 -0.1223  0.3081
  316TMC3    C4 4802   3.609   3.778  17.254  0.0354 -0.1092 -0.1645
  316TMC3    C5 4803   3.725   3.847  17.238 -0.4611  0.2844  0.1259
  316TMC3    C6 4804   3.810   3.854  17.347  0.2524  0.1365  0.0955
  316TMC3     C 4805   3.473   3.624  17.363  0.0321  0.7050 -0.1077
  316TMC3     O 4806   3.404   3.629  17.265 -0.3586 -0.0557  0.2924
  316TMC3     H 4807   3.644   3.672  17.569  0.2537  1.1289  0.9695
  316TMC3    H1 4808   3.545   3.772  17.168  1.1607  2.5204 -1.1884
  316TMC3    H2 4809   3.898   3.917  17.344  0.1842  0.2843  1.0786
  316TMC3    C7 4810   3.787   3.907  17.118 -0.3132 -0.2398  0.2229
  316TMC3    C8 4811   3.851   3.840  17.586 -0.1346  0.1703  1.0890
  316TMC3    O1 4812   3.877   3.990  17.119 -0.1431 -0.2441  0.6452
  316TMC3    O2 4813   3.906   3.952  17.577  0.2676  0.2209 -0.3114
  317MPD2     C 4814   0.018   2.126  13.084 -0.0779  0.0843  0.1792
  317MPD2    C1 4815   0.124   2.127  12.995 -1.2439  0.0219  0.2607
  317MPD2    C2 4816   0.245   2.185  13.023  0.1272  1.0983 -0.0610
  317MPD2    C3 4817   0.274   2.233  13.144  0.2562 -0.4854 -0.0966
  317MPD2    C4 4818   0.168   2.249  13.236 -0.4441 -0.1262  0.3870
  317MPD2    C5 4819   0.037   2.198  13.198  0.6372  0.0755 -0.4308
  317MPD2     H 4820   0.324   2.170  12.950 -0.7723  0.5482 -0.9191
  317MPD2    H1 4821   0.177   2.288  13.337  2.2920  0.4784 -0.1009
  317MPD2    H2 4822   4.655   2.093  13.058 -0.9130  1.2456  1.9183
  317MPD2    H3 4823   4.698   2.209  13.274  2.2008 -2.0695  1.4303
  317MPD2     N 4824   0.401   2.276  13.167 -0.5734 -0.0818  0.1641
  317MPD2    H5 4825   0.465   2.246  13.095  0.2688  2.0533  0.0221
  317MPD2    N1 4826   0.113   2.066  12.863 -0.0355 -0.3412  0.4345
  317MPD2    H7 4827   0.191   2.089  12.802 -0.9598  1.1874 -0.1436
  318TMC3    C1 4828   0.603   2.304  13.269 -0.0836 -0.5989 -1.1803
  318TMC3    C2 4829   0.643   2.245  13.159 -0.2328  0.9415 -0.1129
  318TMC3    C3 4830   0.734   2.145  13.160  0.6612  0.2695  0.4865
  318TMC3    C4 4831   0.660   2.266  13.383 -0.1311  0.2394 -0.2541
  318TMC3    C5 4832   0.750   2.162  13.387 -0.3958 -0.0811 -0.3188
  318TMC3    C6 4833   0.785   2.096  13.273 -0.0644 -0.1987 -0.3604
  318TMC3     C 4834   0.461   2.315  13.284 -0.6475 -0.1585 -0.3833
  318TMC3     O 4835   0.408   2.348  13.391  0.0463 -0.6521  0.3108
  318TMC3     H 4836   0.627   2.281  13.058 -1.3771 -0.4064 -0.4111
  318TMC3    H1 4837   0.619   2.295  13.479 -1.2117 -2.2375  0.0530
  318TMC3    H2 4838   0.864   2.022  13.270 -0.9452 -1.0619 -1.8744
  318TMC3    C7 4839   0.835   2.145  13.506  0.7280  0.4411 -0.1910
  318TMC3    C8 4840   0.687   2.046  13.068 -0.0227 -0.1742  0.0203
  318TMC3    O1 4841   0.847   2.248  13.571 -0.6763 -0.5985 -1.0295
  318TMC3    O2 4842   0.721   2.062  12.955 -0.6073 -0.4847 -0.2313
  319MPD2     C 4843   1.683   3.036  17.340 -0.4781 -0.4718  0.7871
  319MPD2    C1 4844   1.568   2.977  17.386  0.6584  0.2244 -0.1433
  319MPD2    C2 4845   1.476   2.931  17.290  0.4919 -0.2400  0.9434
  319MPD2    C3 4846   1.492   2.955  17.159 -0.0302 -0.1702 -0.0111
  319MPD2    C4 4847   1.598   3.031  17.114  0.1643 -0.1459 -0.1497
  319MPD2    C5 4848   1.697   3.064  17.207 -0.6953  0.2180  0.5439
  319MPD2     H 4849   1.392   2.879  17.334  0.6486 -0.3369  1.1288
  319MPD2    H1 4850   1.619   3.052  17.010  2.0322 -1.2566 -0.0085
  319MPD2    H2 4851   1.768   3.060  17.403 -0.1780  1.7853 -0.4882
  319MPD2    H3 4852   1.784   3.117  17.170 -0.0156  0.4729  2.5177
  319MPD2     N 4853   1.404   2.894  17.054 -0.7174  0.4241  0.2612
  319MPD2    H5 4854   1.423   2.919  16.958 -0.7315  1.7232  0.5992
  319MPD2    N1 4855   1.542   2.959  17.528  0.0872  0.3702 -0.0656
  319MPD2    H7 4856   1.448   2.934  17.558  1.5141 -2.5953  1.9791
  320TMC3    C1 4857   1.243   2.753  16.965 -0.2990  0.3958  0.5176
  320TMC3    C2 4858   1.198   2.843  16.878 -0.0699 -0.2672  0.4598
  320TMC3    C3 4859   1.107   2.793  16.788 -0.9494  0.2796 -0.5849
  320TMC3    C4 4860   1.200   2.620  16.957 -0.1143  0.4765  0.1873
  320TMC3    C5 4861   1.110   2.573  16.862  0.9367  0.2312 -0.4817
  320TMC3    C6 4862   1.068   2.664  16.772 -0.4600  0.3185 -0.6899
  320TMC3     C 4863   1.313   2.791  17.082  0.6104 -0.3123 -0.1092
  320TMC3     O 4864   1.314   2.715  17.174  0.1850  0.2606 -0.0237
  320TMC3     H 4865   1.223   2.948  16.892  0.6187 -0.7649  2.9741
  320TMC3    H1 4866   1.256   2.555  17.022 -2.1602 -0.3664  1.1056
  320TMC3    H2 4867   1.003   2.638  16.689 -1.7320 -1.6953  0.9320
  320TMC3    C7 4868   1.095   2.435  16.838  0.0857  0.5027 -0.5423
  320TMC3    C8 4869   1.052   2.898  16.702 -0.3010 -0.0491  0.2797
  320TMC3    O1 4870   1.198   2.367  16.845  0.1653  0.1001 -0.4742
  320TMC3    O2 4871   1.130   2.979  16.656 -0.1464 -0.1494 -0.4149
  321TMC3    C1 4872   1.622   2.909   0.007  0.1248  0.4734  0.1939
  321TMC3    C2 4873   1.541   2.801   0.010 -0.2434 -0.4010 -0.6501
  321TMC3    C3 4874   1.541   2.714   0.116  0.3126 -0.6557 -0.3654
  321TMC3    C4 4875   1.714   2.924   0.107  0.0671 -0.7240  0.2730
  321TMC3    C5 4876   1.720   2.837   0.205  0.2624  0.5874 -0.3408
  321TMC3    C6 4877   1.623   2.737   0.222 -0.3321  0.0701 -0.3590
  321TMC3     C 4878   1.628   2.998  17.632  0.0055 -0.3131  0.1457
  321TMC3     O 4879   1.733   3.062  17.624 -0.0468  0.0651  0.1738
  321TMC3     H 4880   1.479   2.773  17.671 -0.4547  3.1597 -1.6701
  321TMC3    H1 4881   1.790   3.000   0.098  0.9470 -1.6732 -0.3274
  321TMC3    H2 4882   1.634   2.670   0.307  2.0512 -0.2128 -0.8767
  321TMC3    C7 4883   1.839   2.768   0.196  0.4996 -0.1220 -0.9366
  321TMC3    C8 4884   1.510   2.575   0.079 -1.1379 -0.1025 -0.1488
  321TMC3    O1 4885   1.824   2.654   0.239 -0.8087  0.2171 -0.3730
  321TMC3    O2 4886   1.436   2.548  17.731 -0.1982  0.0734 -0.0079
  322MPD2     C 4887   0.239   4.496  13.549  0.1178  0.4259 -0.0565
  322MPD2    C1 4888   0.257   4.453  13.682 -0.1964  0.3638  0.1682
  322MPD2    C2 4889   0.278   4.315  13.699 -0.0094  0.2692  0.1496
  322MPD2    C3 4890   0.288   4.233  13.590  0.0939  0.0412  0.1683
  322MPD2    C4 4891   0.272   4.278  13.464  1.5036 -0.1144  0.2057
  322MPD2    C5 4892   0.250   4.409  13.444  0.3871  1.1374 -0.7152
  322MPD2     H 4893   0.284   4.274  13.799 -0.8267 -0.1262  0.0298
  322MPD2    H1 4894   0.268   4.208  13.381  1.2770 -0.7526  0.7596
  322MPD2    H2 4895   0.223   4.602  13.531 -0.0666  0.3015 -0.6231
  322MPD2    H3 4896   0.230   4.445  13.343  0.7514 -0.5421 -1.3895
  322MPD2     N 4897   0.323   4.096  13.616  0.5465 -0.4134 -0.7372
  322MPD2    H5 4898   0.346   4.074  13.712  1.8712 -0.4725 -1.0679
  322MPD2    N1 4899   0.276   4.551  13.785 -0.1093  0.5913  0.5717
  322MPD2    H7 4900   0.277   4.649  13.757  0.8698  0.5255  0.3579
  323TMC3    C1 4901   0.270   4.640  14.009 -0.7950  0.6794  0.5586
  323TMC3    C2 4902   0.366   0.004  13.982 -0.0605  0.4031  0.3698
  323TMC3    C3 4903   0.420   0.070  14.088  0.4210 -0.1543 -0.6133
  323TMC3    C4 4904   0.231   4.607  14.139 -0.5595 -0.0586 -0.4241
  323TMC3    C5 4905   0.298   4.667  14.238  0.5791  0.3031 -0.0741
  323TMC3    C6 4906   0.393   0.027  14.212  0.0982 -0.1703  0.0131
  323TMC3     C 4907   0.256   4.527  13.918  0.1677 -0.1229  0.1706
  323TMC3     O 4908   0.191   4.434  13.968 -0.2951  0.5473 -0.2635
  323TMC3     H 4909   0.401   0.012  13.880 -1.5417 -0.3674 -0.1933
  323TMC3    H1 4910   0.149   4.540  14.162 -0.2408 -0.0527  0.7085
  323TMC3    H2 4911   0.419   0.096  14.292  1.0746 -2.2058  1.4409
  323TMC3    C7 4912   0.339   4.577  14.340 -0.7920  0.0393 -0.4880
  323TMC3    C8 4913   0.531   0.164  14.085  0.0504  0.1918  0.1165
  323TMC3    O1 4914   0.269   4.478  14.352  0.2252  0.0877  0.1487
  323TMC3    O2 4915   0.598   0.174  14.191 -0.5406 -0.3500  0.7780
  324MPD2     C 4916   1.942   1.467  14.683 -1.5704  0.6048  0.5540
  324MPD2    C1 4917   1.937   1.385  14.573  0.0791 -0.8190 -0.0632
  324MPD2    C2 4918   1.854   1.416  14.472 -0.7768  1.0154 -0.0010
  324MPD2    C3 4919   1.772   1.530  14.476  0.1052  0.0411  0.6708
  324MPD2    C4 4920   1.775   1.607  14.593 -0.1418  0.0194 -0.1407
  324MPD2    C5 4921   1.862   1.579  14.690  0.1880  0.1155  0.0651
  324MPD2     H 4922   1.834   1.339  14.399  0.5906  0.1084  0.5734
  324MPD2    H1 4923   1.712   1.695  14.595  0.6291  0.5983 -1.2034
  324MPD2    H2 4924   1.998   1.447  14.774 -0.4234  2.8767  0.3396
  324MPD2    H3 4925   1.869   1.633  14.784  0.6838 -0.4377  0.3503
  324MPD2     N 4926   1.688   1.572  14.370  0.1717  0.0897 -0.6535
  324MPD2    H5 4927   1.636   1.657  14.385  0.7143 -0.2190  3.0132
  324MPD2    N1 4928   2.021   1.272  14.563 -0.7718  0.0389  0.2309
  324MPD2    H7 4929   2.011   1.220  14.476 -0.6605  0.6452 -0.1435
  325TMC3    C1 4930   1.548   1.574  14.187  0.4504  0.6698  0.5077
  325TMC3    C2 4931   1.468   1.496  14.107  0.3700  0.0301  0.3714
  325TMC3    C3 4932   1.373   1.551  14.032 -0.1263  0.0912 -0.3191
  325TMC3    C4 4933   1.541   1.713  14.177 -0.5783 -0.2164 -0.4315
  325TMC3    C5 4934   1.435   1.767  14.107  0.0411  0.1894  0.1051
  325TMC3    C6 4935   1.364   1.687  14.021 -0.7299  0.6364 -0.1057
  325TMC3     C 4936   1.639   1.497  14.266 -0.2774 -0.1215  0.5520
  325TMC3     O 4937   1.669   1.381  14.226  0.1891  0.7876 -0.0849
  325TMC3     H 4938   1.475   1.388  14.108 -1.5374 -0.0935  1.8627
  325TMC3    H1 4939   1.604   1.778  14.235 -0.7356 -0.3565 -0.1001
  325TMC3    H2 4940   1.289   1.735  13.959 -0.8216  1.3405  0.5542
  325TMC3    C7 4941   1.352   1.863  14.183 -0.1598  0.4470  0.1136
  325TMC3    C8 4942   1.251   1.485  13.977  0.2527 -0.5594 -0.2624
  325TMC3    O1 4943   1.403   1.942  14.265  0.0664 -0.3636  0.4207
  325TMC3    O2 4944   1.182   1.559  13.911 -0.3838 -0.3751 -0.1609
  326MPD2     C 4945   2.656   2.066  11.636 -0.0060 -0.1336 -0.3772
  326MPD2    C1 4946   2.654   2.167  11.547 -0.6000  0.0057  0.3007
  326MPD2    C2 4947   2.761   2.255  11.538  0.3664  0.7099  0.2016
  326MPD2    C3 4948   2.876   2.229  11.612 -0.3573  0.9819  0.2579
  326MPD2    C4 4949   2.878   2.122  11.694  0.0797 -0.5878 -0.2196
  326MPD2    C5 4950   2.766   2.047  11.712 -0.1509 -0.4511  0.6327
  326MPD2     H 4951   2.753   2.332  11.463 -0.3236  0.6754  0.2366
  326MPD2    H1 4952   2.973   2.094  11.739 -0.3517 -1.1999  0.3120
  326MPD2    H2 4953   2.578   1.993  11.648 -0.6318  0.6987  0.6399
  326MPD2    H3 4954   2.777   1.955  11.769  0.8504 -1.2522 -0.8384
  326MPD2     N 4955   2.999   2.295  11.597 -0.0971 -0.1775 -0.0967
  326MPD2    H5 4956   3.076   2.242  11.637  0.1205  0.5068  0.3978
  326MPD2    N1 4957   2.544   2.193  11.461  0.2970  0.3104  0.2615
  326MPD2    H7 4958   2.564   2.265  11.392 -0.8127  1.2081  0.8762
  327TMC3    C1 4959   2.417   2.090  11.310 -0.0080 -0.3504  0.2880
  327TMC3    C2 4960   2.319   2.165  11.249 -0.1805  0.3958  0.2549
  327TMC3    C3 4961   2.347   2.208  11.123 -0.6981  1.1316  0.1303
  327TMC3    C4 4962   2.530   2.060  11.243  0.3036  0.3138  0.3207
  327TMC3    C5 4963   2.553   2.086  11.110 -0.1323 -0.1864 -0.2352
  327TMC3    C6 4964   2.463   2.174  11.051  0.4831 -0.1057 -0.4177
  327TMC3     C 4965   2.434   2.117  11.449 -0.8419 -0.3764  0.2944
  327TMC3     O 4966   2.377   2.052  11.536 -0.3056  0.1349  0.4974
  327TMC3     H 4967   2.233   2.204  11.302 -1.6391 -1.1358 -0.9747
  327TMC3    H1 4968   2.604   2.010  11.303 -0.0025 -0.6000 -0.0625
  327TMC3    H2 4969   2.478   2.211  10.950 -1.2838  1.6990 -0.0099
  327TMC3    C7 4970   2.692   2.122  11.077  0.6961  0.4660 -0.1423
  327TMC3    C8 4971   2.287   2.329  11.086 -0.3090  0.0192 -0.6740
  327TMC3    O1 4972   2.706   2.204  10.991  0.1701 -0.6315  0.1072
  327TMC3    O2 4973   2.165   2.338  11.088  0.1591 -0.3599 -0.3147
  328MPD2     C 4974   0.838   1.559  17.457  0.2513 -0.0289  0.0024
  328MPD2    C1 4975   0.766   1.446  17.409 -0.4845 -0.0462  0.0582
  328MPD2    C2 4976   0.660   1.479  17.328  0.6659  0.2785  0.1132
  328MPD2    C3 4977   0.642   1.602  17.257 -0.1907 -0.1306  0.0234
  328MPD2    C4 4978   0.735   1.700  17.286 -0.9866 -0.1098 -0.2595
  328MPD2    C5 4979   0.826   1.679  17.392 -0.0176  0.3241  0.0675
  328MPD2     H 4980   0.589   1.402  17.299  1.2744 -0.4772  0.6481
  328MPD2    H1 4981   0.728   1.800  17.244  2.1642  0.3907  0.4123
  328MPD2    H2 4982   0.904   1.554  17.543  2.0115  0.2345 -1.3292
  328MPD2    H3 4983   0.885   1.763  17.425 -0.5030  0.2344  1.1605
  328MPD2     N 4984   0.539   1.625  17.166  0.1804 -0.1943 -0.1400
  328MPD2    H5 4985   0.528   1.721  17.133 -2.5180 -1.0188 -1.6765
  328MPD2    N1 4986   0.787   1.328  17.482 -0.2049 -0.3267  0.3055
  328MPD2    H7 4987   0.834   1.345  17.570 -0.3701  0.3705  0.2522
  329TMC3    C1 4988   0.720   1.110  17.541  0.6465 -0.3497 -0.0806
  329TMC3    C2 4989   0.687   1.138  17.669 -0.3279 -0.1935 -0.1867
  329TMC3    C3 4990   0.660   1.035   0.004  0.1535 -0.8075  0.3447
  329TMC3    C4 4991   0.709   0.979  17.500  0.0216  0.3395  0.5043
  329TMC3    C5 4992   0.691   0.876  17.590  0.2541 -0.3069 -0.7942
  329TMC3    C6 4993   0.660   0.905  17.721  0.9521  0.1329  0.1084
  329TMC3     C 4994   0.719   1.212  17.441  0.1372 -0.0710 -0.2455
  329TMC3     O 4995   0.677   1.184  17.330  0.3646 -0.1682 -0.0636
  329TMC3     H 4996   0.676   1.239  17.706 -0.3230  0.3542 -1.7202
  329TMC3    H1 4997   0.724   0.961  17.394 -0.0848 -0.5067  0.6354
  329TMC3    H2 4998   0.634   0.827   0.046 -1.2388  0.7346 -0.0192
  329TMC3    C7 4999   0.684   0.729  17.563  0.1062  0.3606  0.2116
  329TMC3    C8 5000   0.661   1.075   0.144  0.3825 -0.2193 -0.3159
  329TMC3    O1 5001   0.702   0.652  17.655  0.5542 -0.0397 -0.1453
  329TMC3    O2 5002   0.626   1.191   0.166 -0.5374  0.1566 -0.3139
  330TMC3    C1 5003   3.752   1.839   9.780 -0.5072  0.1842  0.4156
  330TMC3    C2 5004   3.632   1.792   9.743  0.2164 -0.0585  0.6848
  330TMC3    C3 5005   3.575   1.697   9.825  0.7497  0.7732  0.5388
  330TMC3    C4 5006   3.831   1.776   9.874  0.4058  0.0936  0.3249
  330TMC3    C5 5007   3.773   1.678   9.944 -0.5028  0.2568  0.0912
  330TMC3    C6 5008   3.639   1.638   9.927 -1.0017 -0.7833 -0.5339
  330TMC3     C 5009   3.815   1.943   9.699  0.3726 -0.0603 -0.1477
  330TMC3     O 5010   3.935   1.964   9.726 -0.0465  0.2008 -0.7860
  330TMC3     H 5011   3.581   1.821   9.651  1.0981  0.5210  0.3782
  330TMC3    H1 5012   3.928   1.817   9.899  0.1195  0.1992  1.2516
  330TMC3    H2 5013   3.587   1.576   9.999  0.4609  0.9468  2.0193
  330TMC3    C7 5014   3.843   1.619  10.053  0.1755  0.3419  0.4108
  330TMC3    C8 5015   3.439   1.664   9.786 -0.6790 -0.0133  0.2274
  330TMC3    O1 5016   3.928   1.686  10.107 -0.2029  0.1201 -0.2495
  330TMC3    O2 5017   3.384   1.719   9.695  0.8460 -0.0500  0.4595
  331MPD2     C 5018   1.188   0.711  13.263  0.1774  0.3322 -0.3015
  331MPD2    C1 5019   1.262   0.729  13.144 -0.5569 -0.1124  0.8277
  331MPD2    C2 5020   1.280   0.615  13.061 -0.2394 -0.2702  0.4521
  331MPD2    C3 5021   1.224   0.493  13.091  0.5928  0.9779 -0.4691
  331MPD2    C4 5022   1.149   0.484  13.209  0.7787  0.5112 -0.3212
  331MPD2    C5 5023   1.118   0.594  13.287 -0.4413 -0.0601 -0.0762
  331MPD2     H 5024   1.334   0.625  12.967 -0.6694 -1.8510  0.0247
  331MPD2    H1 5025   1.108   0.387  13.235 -0.2785  0.0433 -3.6646
  331MPD2    H2 5026   1.164   0.793  13.330 -2.6094 -1.0023  0.3143
  331MPD2    H3 5027   1.054   0.595  13.374  0.8485 -1.7085  0.8813
  331MPD2     N 5028   1.260   0.388  13.002 -0.6172 -0.1097 -0.2146
  331MPD2    H5 5029   1.344   0.404  12.947 -1.2100  0.7595 -0.8519
  331MPD2    N1 5030   1.315   0.857  13.124 -0.4843 -0.0725  0.0725
  331MPD2    H7 5031   1.271   0.934  13.174 -2.2535 -3.0256  3.0225
  332TMC3    C1 5032   1.273   0.166  12.919 -0.8654 -0.0284  0.1128
  332TMC3    C2 5033   1.344   0.215  12.811  0.6181  0.4011 -0.3849
  332TMC3    C3 5034   1.463   0.155  12.778 -0.0039 -0.0522  0.4413
  332TMC3    C4 5035   1.336   0.066  12.993 -0.1043  0.5273  0.0668
  332TMC3    C5 5036   1.454   0.004  12.959 -0.0137  0.2799 -0.2390
  332TMC3    C6 5037   1.520   0.056  12.850 -0.2791  0.1580 -0.0351
  332TMC3     C 5038   1.195   0.264  12.995 -0.1816  0.3499 -0.0280
  332TMC3     O 5039   1.109   0.222  13.069 -0.2264 -0.0812  0.8341
  332TMC3     H 5040   1.312   0.303  12.757  1.0304  0.2932 -0.8018
  332TMC3    H1 5041   1.278   0.031  13.078 -0.0786 -2.2003 -1.0547
  332TMC3    H2 5042   1.613   0.015  12.812 -0.9218 -0.2197 -1.2023
  332TMC3    C7 5043   1.510   4.645  13.050  0.4222 -0.0252 -0.6159
  332TMC3    C8 5044   1.526   0.216  12.668 -0.9710 -0.0944 -0.2325
  332TMC3    O1 5045   1.435   4.560  13.102  0.0527  0.5088 -0.2813
  332TMC3    O2 5046   1.643   0.222  12.665  0.0484  0.1854  0.1212
  333MPD2     C 5047   1.709   0.807  11.408  0.0877 -0.8850  0.7523
  333MPD2    C1 5048   1.741   0.713  11.309  0.2698  0.4417  0.8381
  333MPD2    C2 5049   1.682   0.586  11.317 -0.1760 -0.5954 -0.3208
  333MPD2    C3 5050   1.607   0.552  11.426 -0.4150  0.2273 -0.2692
  333MPD2    C4 5051   1.589   0.648  11.526 -0.0356 -0.5516 -0.4153
  333MPD2    C5 5052   1.629   0.774  11.509  0.4897  0.6672  0.0412
  333MPD2     H 5053   1.707   0.516  11.239  0.2473 -0.1229 -0.6089
  333MPD2    H1 5054   1.535   0.631  11.618  0.3194 -0.9506 -0.2833
  333MPD2    H2 5055   1.740   0.911  11.415 -1.1813 -0.4873  0.5683
  333MPD2    H3 5056   1.606   0.852  11.581 -0.8665  0.3092 -0.0057
  333MPD2     N 5057   1.553   0.421  11.434  0.5923 -0.1416 -0.1447
  333MPD2    H5 5058   1.574   0.364  11.352 -1.2496 -2.5061  1.0296
  333MPD2    N1 5059   1.834   0.757  11.209  0.9557 -0.8552 -0.4017
  333MPD2    H7 5060   1.847   0.857  11.208  1.2596 -0.8947 -0.2384
  334TMC3    C1 5061   1.942   0.768  10.999  0.0140 -0.1767 -0.0939
  334TMC3    C2 5062   2.057   0.710  10.955  0.0687 -0.4659  0.4715
  334TMC3    C3 5063   2.159   0.791  10.914  0.8848 -0.0973  0.4131
  334TMC3    C4 5064   1.922   0.903  10.990 -1.0862  0.3479 -0.1049
  334TMC3    C5 5065   2.020   0.978  10.931 -0.4199  0.6627  0.4112
  334TMC3    C6 5066   2.144   0.929  10.898  0.0541 -0.0119  0.6920
  334TMC3     C 5067   1.878   0.688  11.105  0.6268  0.3895  0.1336
  334TMC3     O 5068   1.893   0.565  11.096  0.2523  0.6073  0.3475
  334TMC3     H 5069   2.061   0.603  10.934  3.8067 -0.0922 -0.6178
  334TMC3    H1 5070   1.820   0.936  11.004 -1.3307 -0.4358 -0.0523
  334TMC3    H2 5071   2.224   0.992  10.862  0.3160  0.3700  1.9399
  334TMC3    C7 5072   1.998   1.122  10.926  0.1574  0.7359  0.5553
  334TMC3    C8 5073   2.267   0.716  10.850 -0.9886 -0.4227 -0.7396
  334TMC3    O1 5074   2.096   1.195  10.936  0.6991  0.5933  0.1848
  334TMC3    O2 5075   2.247   0.601  10.820  0.0007 -0.1344  0.2145
  335TMC3    C1 5076   1.277   1.679  17.535  0.5084 -0.7052  0.1462
  335TMC3    C2 5077   1.186   1.589  17.474 -0.0046 -0.3848 -0.0639
  335TMC3    C3 5078   1.217   1.456  17.478 -0.4914  0.8259  0.3042
  335TMC3    C4 5079   1.393   1.637  17.599  0.5870  0.5090  0.2026
  335TMC3    C5 5080   1.414   1.502  17.603  0.1800  0.1506 -0.3882
  335TMC3    C6 5081   1.325   1.408  17.553 -0.1890 -0.0679  0.1835
  335TMC3     C 5082   1.232   1.813  17.546  0.2157 -0.2392  0.0619
  335TMC3     O 5083   1.156   1.855  17.458  0.4909  0.5927 -0.3153
  335TMC3     H 5084   1.117   1.627  17.399  0.1605 -0.8171 -0.4322
  335TMC3    H1 5085   1.468   1.706  17.636  1.2581 -0.0392 -0.1282
  335TMC3    H2 5086   1.350   1.303  17.556 -4.7137 -1.1270  1.2713
  335TMC3    C7 5087   1.562   1.471  17.613  0.1072  0.6256 -0.2315
  335TMC3    C8 5088   1.158   1.372  17.376 -0.5556 -0.3673 -0.2411
  335TMC3    O1 5089   1.645   1.527  17.541  0.0563  0.0126 -0.3039
  335TMC3    O2 5090   1.101   1.425  17.283  0.1877 -0.0510 -0.0590
  336MPD2     C 5091   1.525   4.217  16.428  0.4137  0.5715  0.2051
  336MPD2    C1 5092   1.444   4.161  16.329 -0.6376 -0.4659 -0.2029
  336MPD2    C2 5093   1.442   4.030  16.305  1.0345  0.1849 -0.1458
  336MPD2    C3 5094   1.511   3.942  16.385 -0.2432  0.5312 -0.2173
  336MPD2    C4 5095   1.574   3.987  16.494 -0.3589  0.0014  0.1222
  336MPD2    C5 5096   1.584   4.126  16.516  0.0756 -0.1648 -0.1334
  336MPD2     H 5097   1.386   4.001  16.217  0.7273  2.1351 -0.5916
  336MPD2    H1 5098   1.613   3.909  16.558 -0.2064 -0.0073  0.0186
  336MPD2    H2 5099   1.533   4.321  16.459  0.2370  0.4876  0.5317
  336MPD2    H3 5100   1.644   4.172  16.594 -0.2929 -2.4442  1.4925
  336MPD2     N 5101   1.520   3.805  16.356 -0.0964  0.2584  0.1093
  336MPD2    H5 5102   1.546   3.743  16.432  1.3831  1.4419  0.5547
  336MPD2    N1 5103   1.372   4.241  16.231  0.0309  0.0128 -0.0032
  336MPD2    H7 5104   1.313   4.200  16.159 -0.0024  1.4999 -0.8180
  337TMC3    C1 5105   1.336   4.429  16.103 -0.6512 -0.1518  0.0591
  337TMC3    C2 5106   1.202   4.407  16.094 -0.2158 -0.4989 -0.2729
  337TMC3    C3 5107   1.136   4.491  16.005  0.4815 -0.4500 -0.4190
  337TMC3    C4 5108   1.399   4.540  16.048 -0.4968 -0.1268  0.7645
  337TMC3    C5 5109   1.329   4.610  15.953  0.2213  0.1458  0.1372
  337TMC3    C6 5110   1.193   4.592  15.933 -0.5930 -0.4743  0.6138
  337TMC3     C 5111   1.387   4.374  16.222  0.0009 -0.0312  0.0921
  337TMC3     O 5112   1.449   4.451  16.293  0.1508 -0.0931  0.2018
  337TMC3     H 5113   1.146   4.337  16.155  0.7807  1.5358  2.9364
  337TMC3    H1 5114   1.505   4.555  16.066 -0.4732 -0.1173  0.6105
  337TMC3    H2 5115   1.139   4.654  15.862 -1.1523 -2.8447 -1.0329
  337TMC3    C7 5116   1.395   4.729  15.893 -0.5973  0.1983 -0.4576
  337TMC3    C8 5117   0.999   4.532  16.035  0.2123  0.6250  0.7797
  337TMC3    O1 5118   1.319   0.075  15.851 -0.3034 -0.2701 -0.1138
  337TMC3    O2 5119   0.964   4.560  16.146 -0.0305  0.3572  0.0319
  338MPD2     C 5120   2.024   3.573   0.763 -0.1938  0.1244 -0.5161
  338MPD2    C1 5121   1.885   3.573   0.739 -0.1429  0.0164  0.3054
  338MPD2    C2 5122   1.813   3.692   0.736 -0.1943  0.1229 -0.4418
  338MPD2    C3 5123   1.870   3.810   0.759  0.1504  0.2214  0.2328
  338MPD2    C4 5124   2.003   3.808   0.788 -0.8790 -0.3969 -0.0840
  338MPD2    C5 5125   2.079   3.700   0.780 -0.0193  0.8081 -0.5060
  338MPD2     H 5126   1.706   3.685   0.722 -0.4709  0.1102  1.6001
  338MPD2    H1 5127   2.059   3.899   0.809 -1.1517 -0.2750  0.1197
  338MPD2    H2 5128   2.092   3.489   0.776 -1.6788 -1.0040 -0.1471
  338MPD2    H3 5129   2.186   3.711   0.797  0.1363  0.3289 -1.1697
  338MPD2     N 5130   1.784   3.927   0.753 -0.5561  0.0276  0.4696
  338MPD2    H5 5131   1.687   3.912   0.726 -0.8276  1.0765  0.8679
  338MPD2    N1 5132   1.816   3.457   0.711  0.1722  0.0042 -0.2764
  338MPD2    H7 5133   1.720   3.474   0.681 -0.1989 -1.1903  0.2215
  339TMC3    C1 5134   1.698   4.128   0.837 -0.3910  0.1082  0.2423
  339TMC3    C2 5135   1.672   4.151   0.970  0.2425  0.1230 -0.1615
  339TMC3    C3 5136   1.544   4.126   1.020 -0.0273 -0.1251 -0.0551
  339TMC3    C4 5137   1.593   4.085   0.761  0.4507  0.5140 -0.0137
  339TMC3    C5 5138   1.468   4.053   0.812 -0.3480 -0.0489  0.0775
  339TMC3    C6 5139   1.437   4.086   0.940 -0.0422  0.0448  0.4944
  339TMC3     C 5140   1.821   4.051   0.810 -0.4275 -0.1671  0.6939
  339TMC3     O 5141   1.907   4.072   0.890 -0.5301  0.3660 -0.3643
  339TMC3     H 5142   1.748   4.176   1.043  0.6893 -2.0448  0.0992
  339TMC3    H1 5143   1.595   4.082   0.653 -0.5245 -0.0341 -0.0161
  339TMC3    H2 5144   1.336   4.065   0.973 -0.6238 -0.9512 -1.9468
  339TMC3    C7 5145   1.422   3.927   0.751  0.1008  0.5064 -0.1983
  339TMC3    C8 5146   1.516   4.168   1.154 -0.1393  0.2452  0.2856
  339TMC3    O1 5147   1.487   3.887   0.653  0.5103  0.4597  0.3372
  339TMC3    O2 5148   1.592   4.250   1.202 -0.5382  0.0057 -0.4832
  340MPD2     C 5149   1.009   1.356  10.245 -0.1080  0.2993 -0.5504
  340MPD2    C1 5150   1.118   1.296  10.304  0.5261 -0.4505  0.0789
  340MPD2    C2 5151   1.217   1.374  10.361  0.5074 -0.1254 -0.4027
  340MPD2    C3 5152   1.198   1.510  10.367  0.2336  0.1442 -0.8883
  340MPD2    C4 5153   1.087   1.569  10.310 -0.2833 -0.4063 -0.5357
  340MPD2    C5 5154   0.997   1.491  10.240  0.2417 -0.1122 -0.1365
  340MPD2     H 5155   1.294   1.322  10.416 -0.4364 -2.1853 -1.0209
  340MPD2    H1 5156   1.086   1.677  10.314  0.3221 -0.4842  1.9261
  340MPD2    H2 5157   0.931   1.304  10.192 -0.1882 -0.9394  0.7865
  340MPD2    H3 5158   0.913   1.540  10.191  0.7279  1.8209  0.9507
  340MPD2     N 5159   1.284   1.596  10.437  0.0105  0.3406 -0.4152
  340MPD2    H5 5160   1.263   1.695  10.442  3.7235  1.0794  0.6569
  340MPD2    N1 5161   1.127   1.155  10.286  0.3221  0.2223 -0.0285
  340MPD2    H7 5162   1.061   1.118  10.218 -0.3042  0.9037  0.2106
  341TMC3    C1 5163   1.219   0.944  10.291  0.0230  0.1921  0.4649
  341TMC3    C2 5164   1.103   0.888  10.248  0.0311  0.2361  0.0789
  341TMC3    C3 5165   1.107   0.770  10.190  0.0203  0.1701 -1.2035
  341TMC3    C4 5166   1.334   0.879  10.282 -0.8226 -0.0705  0.2426
  341TMC3    C5 5167   1.337   0.752  10.224 -1.3360  0.0280 -0.1058
  341TMC3    C6 5168   1.221   0.699  10.168  0.0739  0.8417  0.5425
  341TMC3     C 5169   1.222   1.080  10.347 -0.2318 -0.4497  0.2195
  341TMC3     O 5170   1.310   1.109  10.427 -0.1992 -0.2203  0.2992
  341TMC3     H 5171   1.007   0.938  10.259  0.6450  1.7003 -1.2215
  341TMC3    H1 5172   1.428   0.920  10.317 -1.1309  0.0072  0.9797
  341TMC3    H2 5173   1.220   0.609  10.108 -1.3674  1.3139 -0.1477
  341TMC3    C7 5174   1.454   0.721  10.148  0.1768 -0.6787 -0.2012
  341TMC3    C8 5175   0.986   0.705  10.152  0.2695  0.2319  0.1799
  341TMC3    O1 5176   1.531   0.819  10.133  0.1144 -0.8998 -0.4618
  341TMC3    O2 5177   0.983   0.589  10.196 -0.2887  0.4268 -0.6676
  342MPD2     C 5178   4.278   4.165  17.629 -0.2605  0.0639 -0.8170
  342MPD2    C1 5179   4.380   4.196  17.546  0.3027  0.5156 -0.6800
  342MPD2    C2 5180   4.416   4.329  17.542  0.1411  0.0669  0.5006
  342MPD2    C3 5181   4.350   4.428  17.613  0.2202 -0.7046 -0.0924
  342MPD2    C4 5182   4.254   4.388  17.704  0.4254  0.0409  0.2915
  342MPD2    C5 5183   4.210   4.257  17.704  0.3461 -0.2090  0.4427
  342MPD2     H 5184   4.490   4.350  17.466 -0.6566  0.0419 -0.2880
  342MPD2    H1 5185   4.191   4.457   0.012 -0.4559  0.7877 -1.7125
  342MPD2    H2 5186   4.253   4.064  17.662  3.5824 -0.7795 -0.5484
  342MPD2    H3 5187   4.128   4.234   0.025  0.4979 -5.2327 -1.1311
  342MPD2     N 5188   4.373   4.565  17.585 -0.5880  0.2198 -0.1466
  342MPD2    H5 5189   4.313   4.632  17.632 -0.6904 -0.0026  0.0363
  342MPD2    N1 5190   4.458   4.111  17.463  0.3072 -0.1861  0.4510
  342MPD2    H7 5191   4.521   4.155  17.396  1.0317 -0.9039  0.6704
  343TMC3    C1 5192   4.512   3.909  17.342  0.7249  0.0281  0.2647
  343TMC3    C2 5193   4.555   3.977  17.235  0.7122 -0.8751  0.1011
  343TMC3    C3 5194   4.562   3.913  17.112  0.2741  1.0695 -0.4337
  343TMC3    C4 5195   4.471   3.776  17.328  0.1573  0.3265 -0.6222
  343TMC3    C5 5196   4.480   3.720  17.203 -0.3674  0.0459  0.0098
  343TMC3    C6 5197   4.519   3.786  17.086 -0.2748 -0.4711 -0.1603
  343TMC3     C 5198   4.444   3.972  17.453  0.3790  0.3526  1.1612
  343TMC3     O 5199   4.385   3.896  17.520  0.1879 -0.4201 -0.3230
  343TMC3     H 5200   4.595   4.077  17.250  0.0654 -0.8584  1.6090
  343TMC3    H1 5201   4.436   3.714  17.410  0.3097  1.4154  0.2779
  343TMC3    H2 5202   4.518   3.741  16.987  2.4917 -1.1341  0.1188
  343TMC3    C7 5203   4.406   3.597  17.177 -0.8664 -0.5422 -0.1006
  343TMC3    C8 5204   4.654   3.980  17.018 -0.0616  0.8189 -0.2675
  343TMC3    O1 5205   4.371   3.574  17.061  0.1636  0.1573 -0.1965
  343TMC3    O2 5206   4.664   4.101  17.030 -0.5321 -0.7597  0.2460
  344MPD2     C 5207   0.240   4.051  11.254  0.4652  0.3773  0.2854
  344MPD2    C1 5208   0.109   4.096  11.223 -0.1556  0.1162  0.0963
  344MPD2    C2 5209   0.094   4.221  11.166  0.6552 -0.3240  0.4927
  344MPD2    C3 5210   0.209   4.300  11.143 -0.0480  0.6488 -0.4389
  344MPD2    C4 5211   0.336   4.255  11.168 -0.5392  0.0441  0.1289
  344MPD2    C5 5212   0.350   4.131  11.221  0.4603  0.3599  0.2262
  344MPD2     H 5213   4.730   4.257  11.153  1.0436  0.7691  0.5520
  344MPD2    H1 5214   0.428   4.309  11.148 -0.4291 -0.3258 -0.3587
  344MPD2    H2 5215   0.257   3.956  11.304 -0.6213  0.8665  1.5734
  344MPD2    H3 5216   0.448   4.089  11.239  0.9269  1.8318  1.1125
  344MPD2     N 5217   0.202   4.424  11.088  0.5317  1.0474 -0.4223
  344MPD2    H5 5218   0.280   4.487  11.105  1.6171 -0.8649  1.6976
  344MPD2    N1 5219   4.735   4.020  11.245  0.2671 -0.0273  0.0631
  344MPD2    H7 5220   4.644   4.040  11.205  1.1238 -0.2748 -2.0329
  345TMC3    C1 5221   0.128   4.590  10.952 -0.5894 -0.6342 -0.3644
  345TMC3    C2 5222   0.192   4.689  11.028 -0.9749 -0.5680 -0.5123
  345TMC3    C3 5223   0.230   0.062  10.968 -0.0588  0.4639 -0.5555
  345TMC3    C4 5224   0.097   4.611  10.821  0.0936 -0.5518 -1.0197
  345TMC3    C5 5225   0.136   4.732  10.754 -0.0438  0.3994 -0.0827
  345TMC3    C6 5226   0.205   0.090  10.834  1.0722 -0.1763  0.3950
  345TMC3     C 5227   0.104   4.456  11.001 -0.6528 -0.6672  0.4288
  345TMC3     O 5228   0.023   4.390  10.940 -0.2513 -0.1227 -0.0168
  345TMC3     H 5229   0.215   4.660  11.130  1.2433  0.5637 -0.6999
  345TMC3    H1 5230   0.040   4.540  10.761  0.2050 -1.3976 -0.1243
  345TMC3    H2 5231   0.251   0.174  10.782  1.5163 -0.6993 -0.0502
  345TMC3    C7 5232   0.083   0.034  10.621  0.4561 -0.1659  0.3439
  345TMC3    C8 5233   0.300   0.163  11.037  0.3774 -1.0288 -0.0677
  345TMC3    O1 5234   4.735   4.705  10.563  0.3787  0.0964  0.0428
  345TMC3    O2 5235   0.303   0.267  10.973 -0.0213 -0.4137 -0.2096
  346MPD2     C 5236   0.339   1.153  13.741 -0.0585  0.7723  0.3413
  346MPD2    C1 5237   0.422   1.264  13.747  0.6586  0.0140  0.0016
  346MPD2    C2 5238   0.479   1.294  13.866  0.2766 -0.2657 -0.2855
  346MPD2    C3 5239   0.441   1.235  13.986 -1.0174  0.0854  0.1275
  346MPD2    C4 5240   0.345   1.136  13.977  0.0390 -0.6560 -0.3608
  346MPD2    C5 5241   0.298   1.093  13.858  0.5594  0.1096  0.1216
  346MPD2     H 5242   0.544   1.380  13.878  1.3682 -0.6883 -3.1831
  346MPD2    H1 5243   0.292   1.090  14.060 -1.2206 -2.6393 -2.2455
  346MPD2    H2 5244   0.307   1.112  13.646 -0.3936  2.5736 -0.3181
  346MPD2    H3 5245   0.231   1.008  13.855  0.7887 -0.1868  2.8632
  346MPD2     N 5246   0.499   1.285  14.100 -0.2193 -0.3246 -0.0425
  346MPD2    H5 5247   0.567   1.360  14.088  1.6359 -1.7191  1.7865
  346MPD2    N1 5248   0.466   1.342  13.640  0.1925  0.2472  0.0895
  346MPD2    H7 5249   0.524   1.423  13.659 -1.6044  1.1837  1.6339
  347TMC3    C1 5250   0.540   1.306  14.324  0.6127  0.0324 -0.4404
  347TMC3    C2 5251   0.655   1.374  14.284  0.4656  0.9317  0.3736
  347TMC3    C3 5252   0.682   1.481  14.366  0.1206 -0.7208 -0.1918
  347TMC3    C4 5253   0.452   1.339  14.426  0.4972 -0.2677 -0.0591
  347TMC3    C5 5254   0.494   1.448  14.501  0.3050  0.5924 -0.1043
  347TMC3    C6 5255   0.606   1.521  14.469 -0.1033 -0.2106  0.9709
  347TMC3     C 5256   0.478   1.225  14.227 -0.1473 -0.4348  0.0490
  347TMC3     O 5257   0.411   1.129  14.263  0.5540  0.1691 -0.3054
  347TMC3     H 5258   0.726   1.333  14.214 -0.5025  0.3424 -0.2618
  347TMC3    H1 5259   0.362   1.281  14.440  1.4157 -1.4518  0.9764
  347TMC3    H2 5260   0.627   1.614  14.520 -0.0098  0.1272  0.3140
  347TMC3    C7 5261   0.415   1.486  14.612 -0.2201  0.0837  0.0144
  347TMC3    C8 5262   0.789   1.570  14.320 -0.4698 -0.5330  0.2314
  347TMC3    O1 5263   0.291   1.478  14.603  0.3367 -0.3972 -0.5681
  347TMC3    O2 5264   0.828   1.556  14.206  0.2087  0.1828 -0.0769
  348MPD2     C 5265   4.161   1.123  12.422  0.3115  0.2935 -0.2784
  348MPD2    C1 5266   4.174   1.067  12.296  0.1708  0.2665  0.3135
  348MPD2    C2 5267   4.107   1.128  12.192  0.0411 -0.3082  0.4592
  348MPD2    C3 5268   4.036   1.245  12.208 -0.2413 -0.8189 -0.5817
  348MPD2    C4 5269   4.013   1.284  12.342  0.2014 -0.3215  0.4006
  348MPD2    C5 5270   4.072   1.224  12.452 -0.2027  0.1015  0.0822
  348MPD2     H 5271   4.120   1.073  12.100  1.3014 -0.3869  0.6848
  348MPD2    H1 5272   3.946   1.368  12.359  0.3278  0.1981 -1.5985
  348MPD2    H2 5273   4.206   1.095  12.516  2.7806  1.1184 -1.2089
  348MPD2    H3 5274   4.045   1.255  12.552  0.9186 -0.7038  0.6306
  348MPD2     N 5275   3.979   1.310  12.094 -0.7784 -0.1464 -0.5922
  348MPD2    H5 5276   4.006   1.268  12.006  1.8148 -1.1594  0.7161
  348MPD2    N1 5277   4.255   0.955  12.272 -0.7500 -0.3833 -0.0639
  348MPD2    H7 5278   4.261   0.918  12.177 -0.9044 -3.1639  1.0132
  349TMC3    C1 5279   4.351   0.747  12.314  0.4144 -0.3165 -0.3526
  349TMC3    C2 5280   4.370   0.651  12.406 -0.4034  0.4638 -0.5313
  349TMC3    C3 5281   4.347   0.521  12.364  0.4859  0.2846  1.1523
  349TMC3    C4 5282   4.316   0.719  12.181  0.2750  0.1534  0.3851
  349TMC3    C5 5283   4.302   0.593  12.142  0.3137  0.2986 -1.1073
  349TMC3    C6 5284   4.304   0.491  12.236  0.5493  0.1348  0.2171
  349TMC3     C 5285   4.326   0.884  12.364  0.2438  0.0629 -0.4330
  349TMC3     O 5286   4.350   0.903  12.481 -0.1752  0.0083  0.5248
  349TMC3     H 5287   4.406   0.673  12.506  0.4243 -1.1074 -0.4968
  349TMC3    H1 5288   4.299   0.792  12.103 -0.5465 -1.6205 -1.0941
  349TMC3    H2 5289   4.275   0.392  12.202  0.7356 -0.0522  0.6019
  349TMC3    C7 5290   4.254   0.572  12.003  0.1099  0.0097 -0.8227
  349TMC3    C8 5291   4.371   0.421  12.462 -0.8839 -1.0145  0.3455
  349TMC3    O1 5292   4.167   0.492  11.970 -0.1912  0.2758 -0.3887
  349TMC3    O2 5293   4.351   0.452  12.576 -0.0553 -0.1574  0.2899
  350MPD2     C 5294   3.015   4.277  11.010 -0.3170 -0.0202  0.6101
  350MPD2    C1 5295   3.101   4.174  10.982 -0.7811  0.2386  0.6605
  350MPD2    C2 5296   3.218   4.165  11.060 -0.1573 -0.6453 -1.0469
  350MPD2    C3 5297   3.238   4.254  11.156 -1.2057 -0.4681  0.3061
  350MPD2    C4 5298   3.144   4.348  11.191 -0.2234  0.5470 -0.4052
  350MPD2    C5 5299   3.027   4.357  11.118 -0.4145 -0.0243  0.6657
  350MPD2     H 5300   3.284   4.085  11.028  2.7333  0.3718  2.4153
  350MPD2    H1 5301   3.151   4.422  11.270 -1.9376  1.3828 -1.0394
  350MPD2    H2 5302   2.922   4.292  10.957  1.2628  0.0320 -2.1272
  350MPD2    H3 5303   2.961   4.443  11.132  0.4277  0.9151 -1.0961
  350MPD2     N 5304   3.346   4.229  11.241 -0.5026  0.3237  0.3173
  350MPD2    H5 5305   3.398   4.148  11.209 -2.8629 -1.2124  0.3575
  350MPD2    N1 5306   3.080   4.072  10.887  0.3100  0.3452 -0.3923
  350MPD2    H7 5307   3.152   4.001  10.882 -2.7954 -2.8474  0.1958
  351TMC3    C1 5308   2.967   3.930  10.739  0.2376 -0.1845  0.3796
  351TMC3    C2 5309   3.087   3.881  10.690  0.3462  0.3104  0.2629
  351TMC3    C3 5310   3.084   3.753  10.635  0.3205  0.3229  0.0028
  351TMC3    C4 5311   2.856   3.851  10.755 -0.4032 -0.5839 -0.1003
  351TMC3    C5 5312   2.861   3.726  10.696  0.4933 -0.6179 -0.3402
  351TMC3    C6 5313   2.975   3.668  10.648  0.3038  0.3520 -0.8348
  351TMC3     C 5314   2.964   4.051  10.814  0.2184 -0.6770 -0.1576
  351TMC3     O 5315   2.877   4.132  10.799 -0.8134 -0.2987  0.6581
  351TMC3     H 5316   3.178   3.939  10.691 -0.8863  2.3066 -3.5824
  351TMC3    H1 5317   2.765   3.904  10.782 -0.3048 -0.7754  0.6170
  351TMC3    H2 5318   2.974   3.563  10.623 -2.1250 -0.0926  1.1298
  351TMC3    C7 5319   2.753   3.637  10.716  0.1970 -0.1243  0.3279
  351TMC3    C8 5320   3.207   3.701  10.587 -0.1409 -0.5296 -0.1885
  351TMC3    O1 5321   2.750   3.545  10.637  0.0756  0.7680 -0.1862
  351TMC3    O2 5322   3.289   3.776  10.538  0.6199 -0.4102 -0.9931
  352MPD2     C 5323   1.397   0.237   1.768  0.8049 -0.2665 -0.0886
  352MPD2    C1 5324   1.456   0.332   1.685  0.8376 -0.7333  0.2898
  352MPD2    C2 5325   1.587   0.311   1.643  0.9373 -0.0724  0.1389
  352MPD2    C3 5326   1.656   0.195   1.697  0.0325 -0.1737  0.5024
  352MPD2    C4 5327   1.592   0.113   1.790  0.1571  0.1611  0.5337
  352MPD2    C5 5328   1.460   0.133   1.826  0.6522  0.3232 -0.7141
  352MPD2     H 5329   1.636   0.373   1.570 -0.3472 -0.1431 -0.7981
  352MPD2    H1 5330   1.644   0.029   1.834 -2.0457 -0.8771  1.1267
  352MPD2    H2 5331   1.292   0.245   1.793  1.3777  1.1245  1.8065
  352MPD2    H3 5332   1.409   0.058   1.885  0.2996  0.8749 -0.3215
  352MPD2     N 5333   1.791   0.167   1.673  0.1846 -0.2019 -0.1666
  352MPD2    H5 5334   1.812   0.072   1.702  1.1574  0.0135 -0.1471
  352MPD2    N1 5335   1.372   0.431   1.637  0.5675  0.1890  0.3323
  352MPD2    H7 5336   1.298   0.452   1.703 -1.2127 -1.2178 -1.2106
  353TMC3    C1 5337   2.020   0.190   1.613  0.2109  0.4050  0.6212
  353TMC3    C2 5338   2.054   0.077   1.682  0.0435 -0.7203 -0.0010
  353TMC3    C3 5339   2.150   4.736   1.623  0.7618 -0.1101  0.1763
  353TMC3    C4 5340   2.080   0.217   1.491 -0.4496  0.2509  0.0431
  353TMC3    C5 5341   2.189   0.144   1.443 -0.1084 -0.5374 -0.6135
  353TMC3    C6 5342   2.222   0.029   1.509 -0.5670  0.6449  0.0175
  353TMC3     C 5343   1.884   0.257   1.632  0.5170  0.0333  0.3702
  353TMC3     O 5344   1.866   0.368   1.585 -0.1575  0.4095  0.1853
  353TMC3     H 5345   2.008   0.046   1.775 -0.4026  0.4059  0.1525
  353TMC3    H1 5346   2.048   0.308   1.441  1.5081  1.6587  1.3276
  353TMC3    H2 5347   2.308   4.710   1.473 -0.6881 -0.8691  2.1079
  353TMC3    C7 5348   2.210   0.140   1.297 -0.3192 -0.1482  0.1839
  353TMC3    C8 5349   2.193   4.625   1.706 -0.4250 -0.2672  0.3371
  353TMC3    O1 5350   2.237   0.031   1.252  0.8581 -0.2181  0.4806
  353TMC3    O2 5351   2.188   4.636   1.825  0.0984  0.2839 -0.5064
  354TMC3    C1 5352   3.168   2.106  14.074  0.4659 -0.3495 -1.0292
  354TMC3    C2 5353   3.237   2.220  14.097 -0.5792 -0.0386  0.9063
  354TMC3    C3 5354   3.297   2.283  13.992 -0.7888  0.4387 -0.5474
  354TMC3    C4 5355   3.157   2.043  13.951  0.4152  0.2422 -0.0287
  354TMC3    C5 5356   3.243   2.095  13.851  0.5478  0.2633 -0.6992
  354TMC3    C6 5357   3.300   2.225  13.866  0.0398 -0.5482  0.4374
  354TMC3     C 5358   3.111   2.040  14.192 -0.0114 -0.0699  0.2120
  354TMC3     O 5359   3.022   1.960  14.165  0.2291  0.2714  0.2943
  354TMC3     H 5360   3.225   2.276  14.189  0.1629  1.1715  0.2733
  354TMC3    H1 5361   3.110   1.946  13.943 -0.9718  1.0793 -2.0419
  354TMC3    H2 5362   3.363   2.272  13.792 -0.2503 -1.2105 -0.2263
  354TMC3    C7 5363   3.270   2.006  13.735  0.1037  0.1371 -0.0119
  354TMC3    C8 5364   3.277   2.432  13.990 -0.2014  0.4343 -0.4731
  354TMC3    O1 5365   3.244   1.887  13.746 -0.0831 -0.2356 -0.4503
  354TMC3    O2 5366   3.276   2.491  14.099  0.5011  0.8496  0.4189
  355MPD2     C 5367   3.006   3.185  12.506 -0.3714 -0.7428  0.5547
  355MPD2    C1 5368   3.124   3.156  12.435  0.6326  0.9051  0.8197
  355MPD2    C2 5369   3.192   3.046  12.473 -0.0011  0.4425 -0.4782
  355MPD2    C3 5370   3.144   2.967  12.575 -0.7868  0.7814 -0.1781
  355MPD2    C4 5371   3.027   2.989  12.633  0.8243  0.0935 -0.2331
  355MPD2    C5 5372   2.953   3.098  12.600 -0.4806  0.2202 -0.2066
  355MPD2     H 5373   3.279   3.011  12.420 -0.9640 -0.8966 -1.1520
  355MPD2    H1 5374   2.996   2.924  12.714 -2.0519  2.0246  0.2126
  355MPD2    H2 5375   2.960   3.279  12.477 -1.4413 -1.6671 -0.7451
  355MPD2    H3 5376   2.864   3.125  12.657 -1.4367 -1.0883 -1.0967
  355MPD2     N 5377   3.212   2.849  12.604  0.4334  0.1921  0.1382
  355MPD2    H5 5378   3.165   2.776  12.656  1.1695 -1.8042 -2.0018
  355MPD2    N1 5379   3.168   3.250  12.340 -0.6291  0.3373  0.6727
  355MPD2    H7 5380   3.126   3.343  12.338 -0.2351  0.5237  1.1050
  356TMC3    C1 5381   3.444   2.914  12.580  0.5160 -0.1197 -0.6737
  356TMC3    C2 5382   3.523   2.951  12.469 -0.2696  0.7716 -0.1349
  356TMC3    C3 5383   3.622   3.041  12.480  0.0514  0.3326 -1.1087
  356TMC3    C4 5384   3.462   2.967  12.703  0.1101 -0.2047 -0.3498
  356TMC3    C5 5385   3.558   3.065  12.709  0.1796  0.1549 -0.2748
  356TMC3    C6 5386   3.645   3.097  12.607 -0.3220 -0.1776  0.1605
  356TMC3     C 5387   3.338   2.818  12.554  0.0017 -0.1507  0.5499
  356TMC3     O 5388   3.376   2.703  12.533  0.1680  0.0417 -0.3596
  356TMC3     H 5389   3.496   2.926  12.367 -1.8465  1.5383  0.0927
  356TMC3    H1 5390   3.388   2.944  12.779  0.6359 -2.8597 -0.6140
  356TMC3    H2 5391   3.734   3.154  12.630 -0.1772  0.7637 -2.7363
  356TMC3    C7 5392   3.580   3.136  12.840 -0.8022  0.2135  0.7306
  356TMC3    C8 5393   3.672   3.100  12.357  0.6275  0.4034  0.2322
  356TMC3    O1 5394   3.517   3.087  12.932 -0.0219 -0.2556  0.1165
  356TMC3    O2 5395   3.637   3.044  12.256 -0.2981 -0.2085 -0.2976
  357MPD2     C 5396   2.440   0.730   1.379  0.2802 -0.0415 -0.5343
  357MPD2    C1 5397   2.436   0.844   1.301  0.0146 -0.0127  0.0283
  357MPD2    C2 5398   2.379   0.966   1.344  0.1705 -0.5693  0.3278
  357MPD2    C3 5399   2.319   0.967   1.469  0.4036  1.0349 -0.0834
  357MPD2    C4 5400   2.319   0.850   1.543 -0.0939 -0.3223 -0.4862
  357MPD2    C5 5401   2.383   0.739   1.501 -0.5609 -0.8168 -0.5025
  357MPD2     H 5402   2.377   1.056   1.284  0.2719 -0.5803  0.3081
  357MPD2    H1 5403   2.267   0.850   1.638  0.7045  1.6977 -0.0485
  357MPD2    H2 5404   2.489   0.637   1.355  0.5978  0.6737 -2.7241
  357MPD2    H3 5405   2.384   0.656   1.571  0.2236 -0.3563  0.0353
  357MPD2     N 5406   2.254   1.083   1.523  0.7366 -0.5762 -0.0760
  357MPD2    H5 5407   2.219   1.073   1.617  1.7785 -0.6405  0.3090
  357MPD2    N1 5408   2.503   0.841   1.174 -1.1183  0.1890  0.2569
  357MPD2    H7 5409   2.536   0.748   1.150 -0.7214 -0.7776  4.4999
  358TMC3    C1 5410   2.612   0.899   0.974  0.3550 -0.0945  0.0590
  358TMC3    C2 5411   2.681   0.994   0.903  0.0475  0.0211 -1.0334
  358TMC3    C3 5412   2.741   0.963   0.782  0.0668 -0.8538  0.2739
  358TMC3    C4 5413   2.600   0.776   0.926 -0.8643  0.3293 -0.3245
  358TMC3    C5 5414   2.654   0.746   0.800 -0.7015  0.1983 -0.3255
  358TMC3    C6 5415   2.718   0.838   0.723 -0.2327  0.5305  0.6330
  358TMC3     C 5416   2.544   0.942   1.096 -0.5035  0.6745  0.5051
  358TMC3     O 5417   2.550   1.067   1.118 -0.3542  0.8722 -0.3501
  358TMC3     H 5418   2.688   1.099   0.929  0.1131 -0.5256  1.2061
  358TMC3    H1 5419   2.531   0.707   0.973 -0.2287 -0.5832 -0.7225
  358TMC3    H2 5420   2.781   0.800   0.644  0.8010  1.9737  0.7576
  358TMC3    C7 5421   2.654   0.609   0.762  0.0237 -0.2204 -0.4654
  358TMC3    C8 5422   2.822   1.066   0.716  0.0007  0.4719  0.9695
  358TMC3    O1 5423   2.653   0.529   0.853  0.3648 -0.1713 -0.3479
  358TMC3    O2 5424   2.858   1.160   0.791 -0.6655 -0.0789 -0.1108
  359MPD2     C 5425   3.715   1.405  13.002 -0.4884  0.2040 -0.8137
  359MPD2    C1 5426   3.688   1.364  12.875 -0.3893 -0.3805 -0.3345
  359MPD2    C2 5427   3.613   1.250  12.859 -0.0486  0.5420  0.1436
  359MPD2    C3 5428   3.579   1.162  12.960  0.5185  0.0320  0.2307
  359MPD2    C4 5429   3.605   1.204  13.089 -0.5201 -0.0819  0.5889
  359MPD2    C5 5430   3.661   1.326  13.108  0.3685  0.9104 -0.0464
  359MPD2     H 5431   3.583   1.233  12.756  1.4645 -0.6943 -0.0911
  359MPD2    H1 5432   3.578   1.149  13.178  1.3733 -0.4783  0.9225
  359MPD2    H2 5433   3.746   1.506  13.026 -1.1389  0.0395  0.7585
  359MPD2    H3 5434   3.667   1.370  13.207 -2.8433  2.2603 -0.4617
  359MPD2     N 5435   3.515   1.044  12.936 -0.0527  0.3003 -0.4399
  359MPD2    H5 5436   3.465   1.002  13.014  0.1675  0.6214 -0.1250
  359MPD2    N1 5437   3.721   1.439  12.761  0.7468  0.4047 -0.5421
  359MPD2    H7 5438   3.683   1.404  12.674 -2.0746  0.4160  0.6924
  360TMC3    C1 5439   3.817   1.602  12.624 -0.9603 -0.3270 -0.4597
  360TMC3    C2 5440   3.944   1.654  12.600  0.2943  0.1047 -0.5467
  360TMC3    C3 5441   3.967   1.698  12.473 -0.2909 -0.2873  0.1929
  360TMC3    C4 5442   3.719   1.602  12.526 -0.5967 -0.2483 -0.0611
  360TMC3    C5 5443   3.746   1.653  12.402 -0.5750  0.5516  0.1841
  360TMC3    C6 5444   3.870   1.705  12.377  0.5205 -0.6956 -0.5412
  360TMC3     C 5445   3.796   1.552  12.758 -0.6355 -0.4296 -0.6277
  360TMC3     O 5446   3.862   1.605  12.846  0.3017 -0.6587 -0.1309
  360TMC3     H 5447   4.032   1.636  12.661 -0.3502 -0.2960  0.2675
  360TMC3    H1 5448   3.621   1.560  12.547 -0.1489 -1.0831  0.3456
  360TMC3    H2 5449   3.889   1.765  12.289  0.5655  2.6591  1.7604
  360TMC3    C7 5450   3.648   1.678  12.295  0.3622 -0.3064 -0.0931
  360TMC3    C8 5451   4.103   1.727  12.435 -0.1308  0.1675  0.1538
  360TMC3    O1 5452   3.692   1.723  12.191 -0.6048  0.1465 -0.4868
  360TMC3    O2 5453   4.180   1.776  12.516  0.0423 -0.2832  1.0266
  361MPD2     C 5454   0.754   0.307  16.671 -0.0209 -0.4321 -0.1216
  361MPD2    C1 5455   0.692   0.267  16.791 -0.4442 -0.1703 -0.0251
  361MPD2    C2 5456   0.758   0.176  16.874 -0.1272  1.0432  0.9507
  361MPD2    C3 5457   0.881   0.126  16.848  0.8847  0.2551  0.2063
  361MPD2    C4 5458   0.943   0.180  16.737 -0.2096  0.3073  0.1966
  361MPD2    C5 5459   0.881   0.273  16.651 -0.7009  0.4278  0.7176
  361MPD2     H 5460   0.695   0.145  16.957 -0.1192 -2.1094 -0.2275
  361MPD2    H1 5461   1.049   0.161  16.724 -0.2736 -0.4802  0.8144
  361MPD2    H2 5462   0.710   0.384  16.608  2.4926  1.0920 -0.0438
  361MPD2    H3 5463   0.928   0.311  16.561  1.6426 -0.8892  1.3650
  361MPD2     N 5464   0.949   0.024  16.925 -0.3583  0.4140  0.2571
  361MPD2    H5 5465   1.037   4.726  16.889 -0.4757 -2.7605  3.0601
  361MPD2    N1 5466   0.569   0.325  16.832 -0.1142  0.6473 -0.0041
  361MPD2    H7 5467   0.540   0.284  16.920 -0.8419 -0.4217 -0.7467
  362TMC3    C1 5468   0.343   0.409  16.814  0.6190  0.0351 -0.2454
  362TMC3    C2 5469   0.338   0.444  16.948  0.0431 -0.0785 -0.0219
  362TMC3    C3 5470   0.231   0.510  16.992  0.6184 -0.3635 -0.3451
  362TMC3    C4 5471   0.243   0.456  16.730 -0.0442 -0.1550  0.3970
  362TMC3    C5 5472   0.128   0.506  16.779 -0.5695 -0.0933  0.2674
  362TMC3    C6 5473   0.128   0.544  16.909 -0.3950  0.7645 -0.5390
  362TMC3     C 5474   0.476   0.389  16.751  0.0950  0.1540 -0.1568
  362TMC3     O 5475   0.495   0.443  16.643  0.3747 -0.3741 -0.3962
  362TMC3     H 5476   0.422   0.413  17.010  0.3913  0.6910 -0.1115
  362TMC3    H1 5477   0.253   0.420  16.628 -0.0968 -0.5751  0.5370
  362TMC3    H2 5478   0.066   0.630  16.929  0.2601  1.4580 -1.4782
  362TMC3    C7 5479   0.028   0.575  16.689  0.2139  0.4245  0.7242
  362TMC3    C8 5480   0.227   0.538  17.135  0.3956 -0.2362  0.1074
  362TMC3    O1 5481   4.712   0.681  16.722  0.0987  0.5103  0.4328
  362TMC3    O2 5482   0.326   0.529  17.206  0.1930 -0.9286 -0.9699
  363TMC3    C1 5483   4.147   4.068  10.153  0.6824  0.8323 -0.0950
  363TMC3    C2 5484   4.156   3.933  10.193  0.1211  0.6569 -0.6052
  363TMC3    C3 5485   4.045   3.870  10.252  0.0985 -0.4099 -0.4663
  363TMC3    C4 5486   4.030   4.149  10.172  0.3024 -0.7708 -0.0799
  363TMC3    C5 5487   3.925   4.080  10.230  0.8072 -0.1573  0.1924
  363TMC3    C6 5488   3.937   3.946  10.271  0.0322 -0.0616 -0.3922
  363TMC3     C 5489   4.253   4.119  10.064 -0.1456  0.1940 -0.3866
  363TMC3     O 5490   4.302   4.045   9.978  0.7414  0.1489  0.1944
  363TMC3     H 5491   4.242   3.873  10.168 -0.3047  0.0222 -0.5374
  363TMC3    H1 5492   4.022   4.254  10.150  0.8730 -0.4477  1.2706
  363TMC3    H2 5493   3.862   3.904  10.336 -0.5715  1.7143  0.0474
  363TMC3    C7 5494   3.795   4.147  10.250 -0.0585  0.2244 -0.2280
  363TMC3    C8 5495   4.046   3.741  10.320 -0.1057 -0.1695 -0.0270
  363TMC3    O1 5496   3.714   4.062  10.287  0.4732  0.0605 -0.0443
  363TMC3    O2 5497   3.982   3.735  10.426  0.6346  0.2995  0.0886
  364MPD2     C 5498   2.314   2.824  10.959  0.6634 -0.4195 -0.0223
  364MPD2    C1 5499   2.440   2.771  10.961 -0.3357  0.0788 -0.4341
  364MPD2    C2 5500   2.460   2.637  10.994 -0.0620 -0.1129 -0.0233
  364MPD2    C3 5501   2.351   2.553  11.008  0.0945 -0.6961 -0.4644
  364MPD2    C4 5502   2.223   2.606  10.980  0.4176  0.7192 -0.4311
  364MPD2    C5 5503   2.208   2.740  10.966  0.1879 -0.8490  0.2588
  364MPD2     H 5504   2.555   2.596  11.028 -0.8759  0.3222  2.8352
  364MPD2    H1 5505   2.134   2.545  10.976 -0.9328  2.5098  2.1757
  364MPD2    H2 5506   2.300   2.930  10.942 -0.3167 -0.7210 -1.0775
  364MPD2    H3 5507   2.109   2.784  10.956 -0.1742 -1.1798  2.3612
  364MPD2     N 5508   2.383   2.419  11.042 -0.2534  0.2445 -0.8159
  364MPD2    H5 5509   2.478   2.384  11.049 -0.4597 -0.0474  0.5154
  364MPD2    N1 5510   2.548   2.859  10.950  0.2347  0.0484 -0.1157
  364MPD2    H7 5511   2.540   2.960  10.945 -0.9893  0.0777  2.1004
  365TMC3    C1 5512   2.777   2.902  10.907 -0.4259 -0.8124  0.1064
  365TMC3    C2 5513   2.866   2.889  10.807  0.1455 -0.5556  1.2050
  365TMC3    C3 5514   2.954   2.992  10.792 -0.3754 -0.4816 -0.3008
  365TMC3    C4 5515   2.785   2.996  11.007 -0.5930 -0.1832  0.3887
  365TMC3    C5 5516   2.879   3.098  10.984  0.1611 -0.1695  0.1854
  365TMC3    C6 5517   2.959   3.100  10.874  0.2348  0.4950  0.4583
  365TMC3     C 5518   2.669   2.811  10.910  0.3255  0.2122 -0.1496
  365TMC3     O 5519   2.686   2.699  10.865  0.0033  0.8687 -0.1360
  365TMC3     H 5520   2.865   2.800  10.745 -0.9324  1.1194 -1.1665
  365TMC3    H1 5521   2.716   2.984  11.090  0.4145 -0.2337  1.2354
  365TMC3    H2 5522   3.020   3.187  10.851  0.5564 -0.7475 -3.3386
  365TMC3    C7 5523   2.853   3.230  11.036  0.0294 -0.4170  0.0179
  365TMC3    C8 5524   3.052   2.991  10.676 -0.1695 -0.2035 -0.3529
  365TMC3    O1 5525   2.883   3.328  10.964  0.1885 -0.1482  0.1415
  365TMC3    O2 5526   3.104   3.103  10.667  0.0015  0.1530  0.5972
  366MPD2     C 5527   0.853   3.185  15.554 -0.0682  0.5304  0.7825
  366MPD2    C1 5528   0.951   3.288  15.573  0.6732 -2.0116 -0.0899
  366MPD2    C2 5529   1.068   3.278  15.502 -0.5846  0.1776  1.1649
  366MPD2    C3 5530   1.097   3.170  15.427  0.1422 -0.2733  0.0482
  366MPD2    C4 5531   1.009   3.073  15.420 -0.6683  0.4170  0.2121
  366MPD2    C5 5532   0.890   3.081  15.481 -0.3750  0.3182  0.3169
  366MPD2     H 5533   1.135   3.364  15.494  0.4232 -0.6430  0.8528
  366MPD2    H1 5534   1.033   2.978  15.372 -2.6565 -0.7024  1.4065
  366MPD2    H2 5535   0.761   3.185  15.611 -0.4746  0.4801  0.1159
  366MPD2    H3 5536   0.823   2.995  15.488 -0.2034  0.0274 -1.8339
  366MPD2     N 5537   1.208   3.181  15.343  1.0714 -0.6479  0.0877
  366MPD2    H5 5538   1.256   3.270  15.348 -1.8664  0.7668  2.7906
  366MPD2    N1 5539   0.934   3.406  15.656 -0.3403  0.2467  0.5811
  366MPD2    H7 5540   1.007   3.476  15.651 -1.1252  0.8630 -1.8569
  367TMC3    C1 5541   0.833   3.589  15.739 -0.1486 -0.3202 -0.5412
  367TMC3    C2 5542   0.950   3.639  15.787  0.0175 -0.1868  0.2436
  367TMC3    C3 5543   0.953   3.770  15.806  0.3407 -0.1055 -0.5954
  367TMC3    C4 5544   0.733   3.667  15.688 -0.0204  0.0077 -0.4235
  367TMC3    C5 5545   0.746   3.809  15.697  0.0199  0.3827  0.4949
  367TMC3    C6 5546   0.860   3.855  15.755  0.2289 -0.3820  0.3169
  367TMC3     C 5547   0.816   3.447  15.713 -0.0230  0.2405  0.6507
  367TMC3     O 5548   0.705   3.400  15.686  0.4246 -0.2413 -0.7650
  367TMC3     H 5549   1.026   3.574  15.830 -0.2197 -1.4200 -1.2140
  367TMC3    H1 5550   0.649   3.623  15.635 -0.6747  0.4288  0.2726
  367TMC3    H2 5551   0.880   3.961  15.742 -1.9901 -0.0688 -0.5666
  367TMC3    C7 5552   0.691   3.894  15.596  0.0156 -0.0440  0.2610
  367TMC3    C8 5553   1.087   3.818  15.830  0.3064 -0.0807 -0.3622
  367TMC3    O1 5554   0.697   4.009  15.624 -0.1005 -0.0808  0.3968
  367TMC3    O2 5555   1.160   3.745  15.896 -0.0452  0.0452  0.3057
  368MPD2     C 5556   1.735   0.693  13.185  0.4606 -0.0061 -0.0175
  368MPD2    C1 5557   1.819   0.759  13.272  0.3605  1.0381 -0.7162
  368MPD2    C2 5558   1.951   0.737  13.268 -0.4893 -0.2534  0.6299
  368MPD2    C3 5559   2.007   0.656  13.168 -0.3550  0.8999 -0.2235
  368MPD2    C4 5560   1.923   0.590  13.083  0.0386  0.4754 -1.0381
  368MPD2    C5 5561   1.790   0.611  13.096  0.0579  0.3592  0.0138
  368MPD2     H 5562   2.002   0.801  13.339 -1.0563  0.6166  0.2690
  368MPD2    H1 5563   1.959   0.533  12.997  0.0368 -1.1657  0.0408
  368MPD2    H2 5564   1.627   0.701  13.179  0.4310 -0.8166 -0.5240
  368MPD2    H3 5565   1.732   0.554  13.024  1.9279  0.4956 -1.6042
  368MPD2     N 5566   2.146   0.622  13.156 -0.3479  0.0163  0.1919
  368MPD2    H5 5567   2.171   0.554  13.086 -1.6316 -0.9567  0.6742
  368MPD2    N1 5568   1.759   0.837  13.374  0.3574  0.2802 -0.2040
  368MPD2    H7 5569   1.660   0.859  13.367  0.1106 -0.6636  0.3648
  369TMC3    C1 5570   1.749   1.029  13.517  0.4057 -0.4461 -0.1270
  369TMC3    C2 5571   1.840   1.129  13.540  0.0608  0.9725  0.0197
  369TMC3    C3 5572   1.850   1.234  13.455 -0.2950 -0.3487 -0.9494
  369TMC3    C4 5573   1.649   1.058  13.428  0.0521 -0.1456 -0.2364
  369TMC3    C5 5574   1.642   1.178  13.363  0.2062 -0.6819 -0.3608
  369TMC3    C6 5575   1.738   1.273  13.376  0.5010  0.1439 -0.1818
  369TMC3     C 5576   1.817   0.901  13.482 -0.8234 -0.2306  0.2815
  369TMC3     O 5577   1.923   0.878  13.536  0.7269 -0.4295 -0.2684
  369TMC3     H 5578   1.917   1.111  13.614 -0.5062 -1.5550 -0.0002
  369TMC3    H1 5579   1.567   0.988  13.421 -1.8183  2.1948 -1.3611
  369TMC3    H2 5580   1.750   1.350  13.300 -0.0557 -0.7092 -1.1451
  369TMC3    C7 5581   1.514   1.229  13.322  0.3381 -0.4173  0.1597
  369TMC3    C8 5582   1.984   1.285  13.420  0.3023 -0.3950 -0.4290
  369TMC3    O1 5583   1.430   1.141  13.305 -0.4880 -0.2133 -0.1546
  369TMC3    O2 5584   1.993   1.361  13.325 -0.5296 -0.0320  0.5662
  370TMC3    C1 5585   1.673   1.320  16.377  0.2987 -0.0326  0.0664
  370TMC3    C2 5586   1.599   1.244  16.468  0.2037 -0.6732 -0.5070
  370TMC3    C3 5587   1.530   1.138  16.425  0.6367  0.8088  0.0598
  370TMC3    C4 5588   1.685   1.276  16.245  0.6310  0.2166 -0.6190
  370TMC3    C5 5589   1.626   1.155  16.210  0.1720 -0.8726  0.2549
  370TMC3    C6 5590   1.553   1.084  16.299 -0.0313 -0.5524  0.0525
  370TMC3     C 5591   1.783   1.386  16.435 -0.0539  0.5665  0.0291
  370TMC3     O 5592   1.795   1.370  16.558 -0.0738  0.5357 -0.8578
  370TMC3     H 5593   1.586   1.289  16.565 -1.8326  0.0652 -1.1059
  370TMC3    H1 5594   1.759   1.327  16.185  0.8972 -2.8198 -2.8218
  370TMC3    H2 5595   1.521   0.986  16.268 -1.7275  0.1191 -0.3407
  370TMC3    C7 5596   1.703   1.085  16.107 -0.5176  0.0880 -0.4394
  370TMC3    C8 5597   1.487   1.044  16.534 -0.6436  0.1092 -0.1679
  370TMC3    O1 5598   1.780   1.149  16.036  0.7115  0.1813 -0.0929
  370TMC3    O2 5599   1.461   0.926  16.501 -0.0860  0.2576 -0.9263
  371TMC3    C1 5600   2.838   4.396  15.555 -0.2087 -0.4739 -0.2265
  371TMC3    C2 5601   2.845   4.436  15.685  0.0944  0.2749  0.5360
  371TMC3    C3 5602   2.820   4.567  15.712  0.0886 -0.2325  0.4101
  371TMC3    C4 5603   2.829   4.484  15.450 -0.2044  0.1928 -0.2390
  371TMC3    C5 5604   2.815   4.616  15.477 -0.1527 -0.0432  0.1597
  371TMC3    C6 5605   2.793   4.656  15.611 -0.5292 -0.2394  0.0694
  371TMC3     C 5606   2.876   4.264  15.525  0.2705  0.0146  0.4128
  371TMC3     O 5607   2.918   4.246  15.412  0.7191  0.3192  0.1614
  371TMC3     H 5608   2.871   4.367  15.765  0.2621  0.1378  0.3641
  371TMC3    H1 5609   2.833   4.448  15.348 -1.8309 -0.1370 -0.1857
  371TMC3    H2 5610   2.775   0.023  15.635 -0.3258 -0.5007  1.3712
  371TMC3    C7 5611   2.844   4.712  15.379  0.6909 -0.5427  0.0612
  371TMC3    C8 5612   2.804   4.604  15.855 -0.5007 -0.7587  0.1207
  371TMC3    O1 5613   2.783   0.082  15.394 -0.0564  0.6402  0.3980
  371TMC3    O2 5614   2.864   4.531  15.936 -0.0544  0.2196 -0.2629
  372MPD2     C 5615   2.770   1.326  13.749 -0.7678  0.0282  0.2919
  372MPD2    C1 5616   2.820   1.196  13.754 -1.3957  0.0552  0.4743
  372MPD2    C2 5617   2.756   1.092  13.830 -0.6706  0.8720  0.3816
  372MPD2    C3 5618   2.643   1.125  13.903 -0.5781  0.3563  0.1649
  372MPD2    C4 5619   2.610   1.263  13.908  0.2198 -0.0103 -0.6152
  372MPD2    C5 5620   2.666   1.359  13.830 -0.6778 -1.2043  0.3498
  372MPD2     H 5621   2.796   0.991  13.831  0.6578  1.4183  2.0086
  372MPD2    H1 5622   2.537   1.302  13.978  1.2464 -0.6571  0.8081
  372MPD2    H2 5623   2.818   1.406  13.693  0.3446  0.6100  2.0764
  372MPD2    H3 5624   2.642   1.465  13.836  0.5957 -0.9679  1.1865
  372MPD2     N 5625   2.578   1.016  13.967  0.5318  0.8691 -0.1399
  372MPD2    H5 5626   2.621   0.925  13.956  0.7307  0.8351  0.9249
  372MPD2    N1 5627   2.931   1.157  13.684 -0.1320 -0.0617 -0.0381
  372MPD2    H7 5628   2.968   1.069  13.717 -0.0448  0.3713  1.0435
  373TMC3    C1 5629   2.417   0.908  14.089  0.2475 -0.1686  0.4090
  373TMC3    C2 5630   2.357   0.903  14.210  0.1859 -0.0816  0.2379
  373TMC3    C3 5631   2.323   0.778  14.255  0.0453 -0.8165 -0.3304
  373TMC3    C4 5632   2.428   0.801  14.006 -0.3500  0.6921  0.1169
  373TMC3    C5 5633   2.373   0.681  14.051 -0.2479  0.4056  0.0864
  373TMC3    C6 5634   2.322   0.665  14.178  1.0856  0.7378 -0.4965
  373TMC3     C 5635   2.469   1.036  14.046 -0.1122 -0.4759 -0.4606
  373TMC3     O 5636   2.408   1.137  14.079  0.4438 -0.2409  0.5096
  373TMC3     H 5637   2.371   0.992  14.270 -0.9899 -0.7458  1.4786
  373TMC3    H1 5638   2.479   0.809  13.911  1.2003 -2.9690  0.6556
  373TMC3    H2 5639   2.315   0.566  14.223 -0.6751  1.2681  0.3693
  373TMC3    C7 5640   2.348   0.576  13.951 -0.0367 -0.6796 -0.4346
  373TMC3    C8 5641   2.354   0.747  14.391  0.4571  0.1484 -0.7276
  373TMC3    O1 5642   2.396   0.593  13.840 -0.3261 -0.6819 -0.2998
  373TMC3    O2 5643   2.278   0.671  14.445  0.1694  0.1329  0.5938
  374TMC3    C1 5644   2.942   1.493  10.147  0.0112 -0.6810  0.4931
  374TMC3    C2 5645   3.062   1.569  10.153  0.4865  0.1730 -0.3677
  374TMC3    C3 5646   3.085   1.671  10.065  0.7420 -1.1167 -0.3722
  374TMC3    C4 5647   2.845   1.525  10.055 -0.7935 -0.0751  0.2167
  374TMC3    C5 5648   2.877   1.614   9.955 -0.2452  0.2897 -0.1267
  374TMC3    C6 5649   2.991   1.693   9.966 -0.4107  0.0403 -0.7217
  374TMC3     C 5650   2.922   1.380  10.236  0.5339  0.3992 -0.4851
  374TMC3     O 5651   2.823   1.308  10.209  0.0777 -0.5043 -0.0392
  374TMC3     H 5652   3.144   1.549  10.222  1.1759  2.5956 -0.4874
  374TMC3    H1 5653   2.767   1.453  10.034 -1.1734  0.6889 -1.0041
  374TMC3    H2 5654   2.998   1.778   9.899  1.1853  0.3459 -0.1871
  374TMC3    C7 5655   2.774   1.682   9.883 -0.3491 -0.4351  0.7244
  374TMC3    C8 5656   3.199   1.762  10.064 -0.7827 -0.0468  0.3557
  374TMC3    O1 5657   2.806   1.782   9.824  0.2365 -0.2759 -0.0040
  374TMC3    O2 5658   3.182   1.868  10.008  0.3954  0.3000  0.0059
  375MPD2     C 5659   2.234   0.718  16.727  0.3391  0.1996 -0.2283
  375MPD2    C1 5660   2.336   0.789  16.790 -0.5606  0.2100 -0.1234
  375MPD2    C2 5661   2.458   0.799  16.727  0.3114  0.1782  0.1630
  375MPD2    C3 5662   2.473   0.747  16.598  0.5851  0.3502  0.0244
  375MPD2    C4 5663   2.379   0.685  16.530 -0.9856  0.3607 -0.5114
  375MPD2    C5 5664   2.253   0.676  16.596 -0.5118  0.7740 -0.3267
  375MPD2     H 5665   2.528   0.864  16.779  0.8630 -0.5554  0.3391
  375MPD2    H1 5666   2.396   0.659  16.426  0.4928  0.3685 -0.2656
  375MPD2    H2 5667   2.133   0.710  16.764  0.4478  0.2455  0.0799
  375MPD2    H3 5668   2.165   0.644  16.540 -0.9741  0.2598  0.6949
  375MPD2     N 5669   2.600   0.773  16.541  0.3658  0.5575  0.0096
  375MPD2    H5 5670   2.618   0.781  16.442 -0.7298  1.1226 -0.1487
  375MPD2    N1 5671   2.316   0.854  16.913 -0.3150  0.1439  0.1472
  375MPD2    H7 5672   2.392   0.916  16.938 -0.4599  0.4325 -0.1233
  376TMC3    C1 5673   2.817   0.835  16.512 -0.6109 -0.7227  0.4932
  376TMC3    C2 5674   2.944   0.789  16.529 -0.3407 -0.0596  0.1576
  376TMC3    C3 5675   3.040   0.824  16.440  0.0628  0.0152 -0.2044
  376TMC3    C4 5676   2.779   0.916  16.407  0.0021 -0.1508 -0.0454
  376TMC3    C5 5677   2.882   0.949  16.319 -0.5448 -0.4244 -0.2486
  376TMC3    C6 5678   3.011   0.903  16.329  0.5403  0.1403 -0.7113
  376TMC3     C 5679   2.717   0.787  16.606 -0.1866  0.1921 -0.4577
  376TMC3     O 5680   2.738   0.768  16.723  0.0905 -0.4504 -0.7254
  376TMC3     H 5681   2.967   0.726  16.614  3.1279  4.1742  2.3316
  376TMC3    H1 5682   2.679   0.958  16.400  0.0883  0.2575  1.1468
  376TMC3    H2 5683   3.084   0.953  16.267 -0.1213 -2.5679 -3.6946
  376TMC3    C7 5684   2.858   1.034  16.215  0.3750 -0.8918 -0.0903
  376TMC3    C8 5685   3.175   0.779  16.462 -0.1481  0.6706 -0.3557
  376TMC3    O1 5686   2.782   1.120  16.257 -0.3476  0.7045 -0.3213
  376TMC3    O2 5687   3.190   0.685  16.537 -0.1207  0.0815 -0.8490
  377MPD2     C 5688   1.022   1.532  12.144  0.5055 -0.0478  0.4856
  377MPD2    C1 5689   1.059   1.503  12.269 -0.2127 -0.1436 -0.0105
  377MPD2    C2 5690   0.971   1.439  12.355 -0.1357 -0.3798  0.1052
  377MPD2    C3 5691   0.849   1.399  12.302 -0.3685 -0.1917 -0.6029
  377MPD2    C4 5692   0.811   1.437  12.178 -0.1738 -0.0477  0.2550
  377MPD2    C5 5693   0.890   1.511  12.091  0.2319 -0.6095 -0.2638
  377MPD2     H 5694   0.996   1.412  12.457 -0.5005 -0.1722  0.2495
  377MPD2    H1 5695   0.711   1.412  12.143  1.0777 -3.8993 -0.6411
  377MPD2    H2 5696   1.094   1.579  12.078 -0.0508  0.4961  0.2673
  377MPD2    H3 5697   0.849   1.537  11.994  2.4682 -0.0338 -1.0560
  377MPD2     N 5698   0.751   1.334  12.377 -0.3374  0.6793  0.0503
  377MPD2    H5 5699   0.659   1.341  12.333  0.5440  0.6191 -1.8074
  377MPD2    N1 5700   1.194   1.535  12.299  0.5242  0.2103 -0.0238
  377MPD2    H7 5701   1.246   1.560  12.216 -1.1599 -0.1816 -1.1799
  378TMC3    C1 5702   1.603   1.483  12.313 -0.6542 -0.3447  0.1494
  378TMC3    C2 5703   1.464   1.502  12.309 -0.2405  0.4157  0.1497
  378TMC3    C3 5704   1.399   1.530  12.423  0.7922 -0.3166 -0.4343
  378TMC3    C4 5705   1.681   1.480  12.428  0.3940 -0.5071 -0.3909
  378TMC3    C5 5706   1.611   1.517  12.539  0.1125  0.0002 -0.7301
  378TMC3    C6 5707   1.475   1.544  12.538  0.8084 -0.0702 -0.3874
  378TMC3     C 5708   1.657   1.459  12.180 -0.6623  0.3161  0.4974
  378TMC3     O 5709   1.593   1.491  12.083 -0.3521  0.7442 -0.5073
  378TMC3     H 5710   1.414   1.480  12.215  1.2427 -2.7035  0.0750
  378TMC3    H1 5711   1.789   1.472  12.422  0.6836  1.1415  2.3426
  378TMC3    H2 5712   1.420   1.568  12.629 -1.7758 -2.3818 -1.3244
  378TMC3    C7 5713   1.669   1.503  12.669 -0.0498 -0.0478  0.0656
  378TMC3    C8 5714   1.256   1.526  12.420  0.1331  0.3583 -0.0990
  378TMC3    O1 5715   1.595   1.532  12.761 -0.4960  0.0021  0.8472
  378TMC3    O2 5716   1.203   1.535  12.530 -0.2486  0.2584  0.0810
  379MPD2     C 5717   2.315   4.087  16.352  0.0602 -0.2074 -0.2781
  379MPD2    C1 5718   2.206   4.018  16.404  0.1757 -0.7926  0.7197
  379MPD2    C2 5719   2.225   3.930  16.506  0.3109  0.4152 -0.3909
  379MPD2    C3 5720   2.350   3.899  16.552  0.8108 -0.7654 -0.2299
  379MPD2    C4 5721   2.455   3.979  16.514  0.0505  0.7824  0.1639
  379MPD2    C5 5722   2.431   4.070  16.417  0.3948  0.0728 -0.4285
  379MPD2     H 5723   2.144   3.864  16.536  0.4597 -0.1255 -1.1838
  379MPD2    H1 5724   2.554   3.963  16.554 -0.3542 -2.1707 -0.0360
  379MPD2    H2 5725   2.309   4.167  16.279  0.3627  0.5817  0.5590
  379MPD2    H3 5726   2.518   4.126  16.385  0.1056  1.1376  0.6727
  379MPD2     N 5727   2.372   3.789  16.641 -0.0214  0.0214  0.3527
  379MPD2    H5 5728   2.469   3.772  16.667  0.2247  0.2087 -0.4457
  379MPD2    N1 5729   2.079   4.027  16.345 -0.2913 -0.2571 -0.3550
  379MPD2    H7 5730   2.070   4.081  16.260 -1.4351  1.5953  0.9341
  380TMC3    C1 5731   1.879   3.949  16.279 -0.0628  0.7744  0.2624
  380TMC3    C2 5732   1.883   3.818  16.245  0.4486 -0.6744 -0.1143
  380TMC3    C3 5733   1.820   3.776  16.131 -0.5430  0.9891  0.5047
  380TMC3    C4 5734   1.826   4.048  16.198 -0.1541 -0.1013  0.1697
  380TMC3    C5 5735   1.759   4.002  16.089 -0.2461  0.1239 -0.0394
  380TMC3    C6 5736   1.752   3.868  16.053  0.3130 -1.1081 -0.2675
  380TMC3     C 5737   1.962   3.972  16.390  0.5097 -0.2816 -0.1118
  380TMC3     O 5738   1.940   3.912  16.493 -0.0377  1.0074  0.9021
  380TMC3     H 5739   1.962   3.761  16.293 -0.7620 -2.3679 -0.1574
  380TMC3    H1 5740   1.817   4.147  16.242  1.0094 -0.4862  1.2895
  380TMC3    H2 5741   1.716   3.846  15.953  0.5826  0.3190 -0.6709
  380TMC3    C7 5742   1.667   4.096  16.022  0.7314 -0.1461 -0.1481
  380TMC3    C8 5743   1.888   3.674  16.060 -0.6335 -0.5593 -0.4282
  380TMC3    O1 5744   1.707   4.207  15.993  0.1294 -0.4000 -0.3066
  380TMC3    O2 5745   1.876   3.665  15.940  0.0516 -0.1178 -0.0296
  381TMC3    C1 5746   1.283   0.563  16.471  0.2305  0.2906 -0.0154
  381TMC3    C2 5747   1.401   0.626  16.441 -0.1115 -0.1927 -0.5147
  381TMC3    C3 5748   1.510   0.548  16.464  0.2434 -0.3429 -1.3022
  381TMC3    C4 5749   1.269   0.439  16.540 -0.1400 -0.2763 -0.6167
  381TMC3    C5 5750   1.382   0.380  16.573  0.1229  0.5144 -0.3393
  381TMC3    C6 5751   1.505   0.427  16.530 -0.0027 -0.0135  0.7513
  381TMC3     C 5752   1.160   0.646  16.473  0.0368  0.1309 -0.0684
  381TMC3     O 5753   1.052   0.591  16.504 -0.4982 -0.4708  0.1632
  381TMC3     H 5754   1.412   0.717  16.384 -0.9779 -0.9289 -1.8519
  381TMC3    H1 5755   1.180   0.385  16.572  0.7205 -1.3869 -0.0735
  381TMC3    H2 5756   1.599   0.373  16.524 -0.5526 -0.9756  0.8421
  381TMC3    C7 5757   1.368   0.263  16.656  0.2360  0.2209  0.4158
  381TMC3    C8 5758   1.641   0.599  16.443 -0.7252 -0.4774 -0.2454
  381TMC3    O1 5759   1.434   0.167  16.617  0.0336  0.1045  0.8370
  381TMC3    O2 5760   1.719   0.545  16.370 -0.1145 -0.0851  0.3802
  382MPD2     C 5761   0.688   2.559  17.007  0.7274  0.2137 -0.5058
  382MPD2    C1 5762   0.763   2.562  17.118  0.5964 -0.2898  0.1981
  382MPD2    C2 5763   0.759   2.459  17.217  0.5509 -0.5562  0.4167
  382MPD2    C3 5764   0.680   2.346  17.185 -0.8578  0.3716  0.2332
  382MPD2    C4 5765   0.609   2.348  17.066  0.6317 -0.7545 -0.3005
  382MPD2    C5 5766   0.606   2.452  16.980  0.1781 -0.0214  0.4219
  382MPD2     H 5767   0.831   2.458  17.298  0.3650  0.2993  0.5973
  382MPD2    H1 5768   0.544   2.269  17.030  1.9216 -1.9754  0.0326
  382MPD2    H2 5769   0.691   2.630  16.925  1.2143 -0.8717 -1.4418
  382MPD2    H3 5770   0.553   2.441  16.886  3.1214 -2.4135 -0.9576
  382MPD2     N 5771   0.662   2.236  17.268  0.2384 -0.2513 -0.1876
  382MPD2    H5 5772   0.608   2.163  17.223 -0.6110 -0.4855  1.2082
  382MPD2    N1 5773   0.857   2.659  17.150 -0.1698  0.0065  0.1879
  382MPD2    H7 5774   0.908   2.650  17.238 -1.8630  1.9110  1.3641
  383TMC3    C1 5775   0.671   2.091  17.450  0.4012 -0.1401 -0.2615
  383TMC3    C2 5776   0.549   2.047  17.426 -0.3300 -0.9943  0.2714
  383TMC3    C3 5777   0.507   1.934  17.486  0.0880 -0.1016 -0.2873
  383TMC3    C4 5778   0.755   2.033  17.548  0.4810 -0.4611  0.5468
  383TMC3    C5 5779   0.711   1.928  17.619 -0.6201 -0.0591 -0.0057
  383TMC3    C6 5780   0.585   1.883  17.587 -0.4181 -0.1082 -0.6872
  383TMC3     C 5781   0.715   2.214  17.388  0.4770  0.0970 -0.1426
  383TMC3     O 5782   0.809   2.273  17.443  0.3499  0.2452  0.4922
  383TMC3     H 5783   0.482   2.086  17.350  0.7406  1.7172  0.7312
  383TMC3    H1 5784   0.853   2.076  17.566 -0.3934  1.6638  0.2729
  383TMC3    H2 5785   0.544   1.798  17.639  0.0634  1.2079  1.8152
  383TMC3    C7 5786   0.801   1.865  17.722 -0.8007  0.8010  0.5213
  383TMC3    C8 5787   0.386   1.864  17.437  0.2990 -1.1813 -0.5075
  383TMC3    O1 5788   0.894   1.929   0.016 -0.2471 -0.2755 -0.5988
  383TMC3    O2 5789   0.312   1.927  17.362  0.1421  0.6972 -0.5229
  384MPD2     C 5790   2.047   4.535  12.394  0.2184 -0.1659  0.1563
  384MPD2    C1 5791   2.059   4.422  12.474  0.2497  0.4185 -0.4852
  384MPD2    C2 5792   2.181   4.354  12.480  0.4422 -0.2015  0.3173
  384MPD2    C3 5793   2.286   4.385  12.395  0.5873  0.3131  0.0421
  384MPD2    C4 5794   2.274   4.499  12.316 -0.1656 -0.2097 -0.6039
  384MPD2    C5 5795   2.157   4.572  12.318  0.8986 -0.0476 -0.1871
  384MPD2     H 5796   2.191   4.274  12.553 -0.7322 -1.6083 -1.0423
  384MPD2    H1 5797   2.358   4.527  12.253 -0.0751 -0.2727 -0.5126
  384MPD2    H2 5798   1.959   4.595  12.376 -1.2439 -2.2858  0.2014
  384MPD2    H3 5799   2.155   4.654  12.247 -0.6333  0.4964  0.4918
  384MPD2     N 5800   2.406   4.318  12.399 -0.1768 -0.3557 -0.4756
  384MPD2    H5 5801   2.487   4.371  12.369  0.5136 -1.9866 -1.4980
  384MPD2    N1 5802   1.952   4.390  12.564  0.4817 -0.1342 -0.4253
  384MPD2    H7 5803   1.968   4.308  12.623 -0.8893  0.6063  0.9945
  385TMC3    C1 5804   2.566   4.184  12.509  0.4585 -0.5868  0.2465
  385TMC3    C2 5805   2.616   4.058  12.489  0.1150  0.6620  0.1456
  385TMC3    C3 5806   2.692   4.009  12.585  0.6231 -0.2930 -0.1249
  385TMC3    C4 5807   2.587   4.252  12.625  0.2816  0.1921  0.2361
  385TMC3    C5 5808   2.640   4.187  12.728 -0.3768 -0.1532  0.2228
  385TMC3    C6 5809   2.708   4.065  12.708  0.8183  0.2929  0.4120
  385TMC3     C 5810   2.429   4.199  12.462  0.2220  0.5537  0.4395
  385TMC3     O 5811   2.352   4.112  12.497  0.1350 -0.3105  0.7693
  385TMC3     H 5812   2.600   3.999  12.400  0.8845 -1.0595  1.1459
  385TMC3    H1 5813   2.538   4.348  12.638 -1.3544 -0.8647  1.9387
  385TMC3    H2 5814   2.791   4.037  12.772  0.5230 -2.3343 -0.3859
  385TMC3    C7 5815   2.542   4.179  12.834  0.4438 -0.1698  0.7308
  385TMC3    C8 5816   2.700   3.860  12.599 -0.3345  0.1948  0.6368
  385TMC3    O1 5817   2.485   4.284  12.868 -0.1098 -0.1301  0.0857
  385TMC3    O2 5818   2.700   3.833  12.724 -1.1570  0.3571 -0.3271
  386TMC3    C1 5819   3.007   1.391  11.923 -0.2969 -0.4246 -0.1568
  386TMC3    C2 5820   2.928   1.465  11.847  0.1470  0.3567 -0.2965
  386TMC3    C3 5821   2.840   1.552  11.908 -0.1913  0.6970 -0.6778
  386TMC3    C4 5822   2.986   1.373  12.060 -0.3326  0.1054  0.1654
  386TMC3    C5 5823   2.889   1.448  12.111 -0.3316 -0.2321  0.2400
  386TMC3    C6 5824   2.814   1.533  12.042 -0.5661 -0.1996 -0.1133
  386TMC3     C 5825   3.129   1.344  11.856  0.3842  0.3518 -0.3167
  386TMC3     O 5826   3.160   1.397  11.752 -0.1844 -0.4104 -0.2303
  386TMC3     H 5827   2.930   1.465  11.739  0.0026 -3.4565 -0.3122
  386TMC3    H1 5828   3.043   1.302  12.119 -1.2105 -2.2529 -1.8519
  386TMC3    H2 5829   2.733   1.588  12.088  1.0521  3.1259 -1.2804
  386TMC3    C7 5830   2.814   1.398  12.228  0.0222 -0.9797  0.5875
  386TMC3    C8 5831   2.733   1.595  11.818  0.0118 -1.1005 -0.4247
  386TMC3    O1 5832   2.883   1.339  12.311  0.5573 -0.4691 -0.5030
  386TMC3    O2 5833   2.618   1.576  11.851  0.4670 -0.1798 -0.1214
  387MPD2     C 5834   0.572   1.518  10.523 -0.2193 -0.3577  0.2417
  387MPD2    C1 5835   0.677   1.468  10.453  0.3808 -0.2093  0.2401
  387MPD2    C2 5836   0.655   1.368  10.359  0.0277  0.3385  0.2608
  387MPD2    C3 5837   0.530   1.313  10.336 -0.6104  0.0594 -0.1458
  387MPD2    C4 5838   0.424   1.379  10.396 -0.2604  0.2114 -0.4108
  387MPD2    C5 5839   0.446   1.475  10.491 -0.0342  0.2137  0.3514
  387MPD2     H 5840   0.735   1.326  10.299 -0.4398  1.2865 -1.0161
  387MPD2    H1 5841   0.319   1.360  10.381  0.0244  1.0881 -3.4204
  387MPD2    H2 5842   0.589   1.581  10.610  0.5951  2.4378 -1.9625
  387MPD2    H3 5843   0.361   1.518  10.543 -0.6924 -0.4675 -0.1546
  387MPD2     N 5844   0.522   1.182  10.274  0.3922  0.0396  0.6366
  387MPD2    H5 5845   0.613   1.144  10.247  0.7485  1.2502  0.1340
  387MPD2    N1 5846   0.803   1.508  10.481  0.2579 -0.2893  0.1644
  387MPD2    H7 5847   0.879   1.449  10.451  1.5722  0.2810  2.3511
  388TMC3    C1 5848   0.969   1.542  10.634 -0.0831  0.2200 -0.4418
  388TMC3    C2 5849   1.058   1.626  10.701  0.2442 -0.3255 -0.5897
  388TMC3    C3 5850   1.170   1.575  10.760  0.2582  0.0876 -0.2455
  388TMC3    C4 5851   0.989   1.405  10.644  0.7021  0.1544 -0.5412
  388TMC3    C5 5852   1.097   1.355  10.715 -0.2014  0.3734 -0.0490
  388TMC3    C6 5853   1.191   1.435  10.771 -0.4083  0.2166 -0.4083
  388TMC3     C 5854   0.846   1.590  10.580 -0.8482  0.5286  0.6484
  388TMC3     O 5855   0.800   1.699  10.616 -0.2703  0.1959  0.0748
  388TMC3     H 5856   1.039   1.732  10.702  0.6613 -0.2472 -0.7948
  388TMC3    H1 5857   0.915   1.332  10.613 -1.5033  1.1147  2.4266
  388TMC3    H2 5858   1.286   1.399  10.807 -1.1854 -1.4512 -0.0315
  388TMC3    C7 5859   1.123   1.219  10.726 -0.3586  0.6477 -0.2301
  388TMC3    C8 5860   1.269   1.657  10.831 -0.2164 -0.4790  0.6550
  388TMC3    O1 5861   1.238   1.183  10.732 -0.2835 -0.3041  0.0245
  388TMC3    O2 5862   1.330   1.596  10.919 -0.2571  0.0262  0.4695
  389MPD2     C 5863   4.021   4.715  11.508 -0.4511  0.5203 -0.6250
  389MPD2    C1 5864   4.025   4.584  11.467 -0.5783 -0.2489  0.3443
  389MPD2    C2 5865   4.068   4.480  11.548 -0.0773 -0.2485 -0.3960
  389MPD2    C3 5866   4.115   4.511  11.671  0.5195  0.1140 -0.0585
  389MPD2    C4 5867   4.115   4.639  11.716 -0.5649 -0.3464  0.8485
  389MPD2    C5 5868   4.064   0.001  11.635  0.1695  0.3463 -0.3168
  389MPD2     H 5869   4.067   4.377  11.514 -0.8496 -0.4063  0.0801
  389MPD2    H1 5870   4.136   4.673  11.816  0.8225 -1.5255  0.9515
  389MPD2    H2 5871   3.992   0.067  11.452 -1.7706 -0.5756 -1.6502
  389MPD2    H3 5872   4.061   0.102  11.676 -1.6657 -0.3420  1.2862
  389MPD2     N 5873   4.163   4.412  11.762 -0.8523  0.4976 -0.4755
  389MPD2    H5 5874   4.190   4.443  11.854  1.6173 -3.1629  0.0177
  389MPD2    N1 5875   3.979   4.563  11.331 -0.0079  0.0289  0.3998
  389MPD2    H7 5876   3.957   4.649  11.283 -2.3403 -0.4846  0.5854
  390TMC3    C1 5877   4.212   4.218  11.869  0.7459  1.0859 -0.3044
  390TMC3    C2 5878   4.164   4.095  11.893  0.1371 -0.1525  0.4377
  390TMC3    C3 5879   4.158   4.045  12.016  0.1707 -0.4004  0.2902
  390TMC3    C4 5880   4.266   4.295  11.963  0.1740 -0.0987 -0.0313
  390TMC3    C5 5881   4.281   4.241  12.088 -0.2289  0.0188 -0.2361
  390TMC3    C6 5882   4.227   4.113  12.113  0.4099  0.3054 -0.2215
  390TMC3     C 5883   4.163   4.277  11.744  0.0260  0.6547  0.3991
  390TMC3     O 5884   4.117   4.209  11.655 -0.2004 -0.1893 -0.2300
  390TMC3     H 5885   4.099   4.047  11.821 -0.1815  2.1615 -0.8244
  390TMC3    H1 5886   4.311   4.391  11.937 -0.3714  0.3737  0.7681
  390TMC3    H2 5887   4.242   4.062  12.208 -1.1498  0.7929  0.2832
  390TMC3    C7 5888   4.322   4.329  12.203  0.4179 -0.3263 -0.2337
  390TMC3    C8 5889   4.053   3.949  12.057 -0.3473  1.1092 -0.3328
  390TMC3    O1 5890   4.357   4.441  12.175  0.1151  0.0700  0.0576
  390TMC3    O2 5891   4.036   3.847  11.991  0.7980  0.6670 -0.2056
  391MPD2     C 5892   3.760   1.239  11.374 -0.4102 -0.2522 -0.5433
  391MPD2    C1 5893   3.811   1.364  11.391  0.0300 -0.3394 -0.7793
  391MPD2    C2 5894   3.842   1.437  11.281  1.0195 -0.6870  0.4417
  391MPD2    C3 5895   3.805   1.402  11.150  0.2716 -0.0004  0.1092
  391MPD2    C4 5896   3.740   1.282  11.138 -0.3138 -0.5939 -0.3445
  391MPD2    C5 5897   3.728   1.198  11.246 -0.3627 -0.0961 -0.5500
  391MPD2     H 5898   3.884   1.536  11.293 -0.5996  0.1256 -0.5176
  391MPD2    H1 5899   3.691   1.247  11.047  0.1314 -0.6581 -0.5615
  391MPD2    H2 5900   3.720   1.175  11.452  2.1934  1.2084  1.9662
  391MPD2    H3 5901   3.669   1.108  11.228 -1.1560  0.5138 -1.0224
  391MPD2     N 5902   3.824   1.485  11.029 -0.2801 -0.6418 -0.5598
  391MPD2    H5 5903   3.873   1.573  11.045  2.1287 -2.3139  1.0700
  391MPD2    N1 5904   3.828   1.430  11.516  0.4463 -1.3145  0.0305
  391MPD2    H7 5905   3.862   1.525  11.525 -1.5312 -0.7103  1.1240
  392TMC3    C1 5906   3.816   1.550  10.803 -0.1498 -0.2679 -0.4162
  392TMC3    C2 5907   3.729   1.570  10.699 -0.0026  0.0935  0.1175
  392TMC3    C3 5908   3.767   1.660  10.605 -0.2501  0.5946 -0.0152
  392TMC3    C4 5909   3.938   1.604  10.811 -0.0657 -0.4547 -0.7987
  392TMC3    C5 5910   3.971   1.689  10.710  0.0505 -0.1735 -0.3209
  392TMC3    C6 5911   3.891   1.723  10.608  0.7580  0.3581  0.4824
  392TMC3     C 5912   3.760   1.470  10.909  0.3494  0.2546  0.0211
  392TMC3     O 5913   3.663   1.393  10.878  0.2188 -0.1181  0.4726
  392TMC3     H 5914   3.631   1.523  10.693  0.1649 -0.4467  1.6336
  392TMC3    H1 5915   3.991   1.597  10.905 -2.3130 -1.4149  0.4038
  392TMC3    H2 5916   3.916   1.789  10.525 -0.9967 -0.8868 -1.0368
  392TMC3    C7 5917   4.089   1.780  10.738  0.1768 -0.5346  0.0538
  392TMC3    C8 5918   3.662   1.679  10.501  0.4635 -0.3930 -0.5057
  392TMC3    O1 5919   4.163   1.750  10.832  0.1201  0.2817 -0.5789
  392TMC3    O2 5920   3.561   1.615  10.516 -0.1935 -0.0262  0.3401
  393TMC3    C1 5921   2.645   4.247  11.158 -0.2152 -0.0714  0.4018
  393TMC3    C2 5922   2.603   4.254  11.292  0.9257  0.0122  0.3963
  393TMC3    C3 5923   2.584   4.141  11.361  0.8824 -0.1690 -0.0452
  393TMC3    C4 5924   2.645   4.125  11.097  0.2448  0.6258 -0.4773
  393TMC3    C5 5925   2.623   4.015  11.168 -0.2850 -0.5840  1.0785
  393TMC3    C6 5926   2.593   4.017  11.304 -0.4158  0.0408 -0.1650
  393TMC3     C 5927   2.622   4.355  11.069  0.1538 -0.1766 -0.2577
  393TMC3     O 5928   2.605   4.328  10.949  0.6445 -0.2869 -0.0162
  393TMC3     H 5929   2.599   4.351  11.340 -1.6907 -0.7675  1.7205
  393TMC3    H1 5930   2.686   4.114  10.997  0.5548 -1.3225 -0.1296
  393TMC3    H2 5931   2.568   3.923  11.352  0.8878  0.1074  0.6789
  393TMC3    C7 5932   2.722   3.913  11.139 -0.5012  0.2437 -0.5081
  393TMC3    C8 5933   2.500   4.158  11.480 -0.2067  0.4851  0.2102
  393TMC3    O1 5934   2.702   3.845  11.035 -0.7563  0.2706 -0.2908
  393TMC3    O2 5935   2.444   4.267  11.498  0.1457 -0.1356 -0.1498
  394TMC3    C1 5936   3.899   4.459  11.144 -0.3936 -0.7753  0.0597
  394TMC3    C2 5937   3.764   4.458  11.130 -0.2903 -0.8661  0.1864
  394TMC3    C3 5938   3.708   4.530  11.028  0.0668 -0.4681 -0.5119
  394TMC3    C4 5939   3.980   4.546  11.071  0.5747 -0.0766 -0.0040
  394TMC3    C5 5940   3.921   4.613  10.971 -0.4412 -0.3210 -0.3721
  394TMC3    C6 5941   3.791   4.608  10.939 -0.1798 -0.6400  1.2012
  394TMC3     C 5942   3.940   4.445  11.275  0.4320  0.4399  0.0209
  394TMC3     O 5943   3.914   4.345  11.337  0.1294 -1.2259  0.4308
  394TMC3     H 5944   3.706   4.390  11.192 -1.1544  1.7063  2.1938
  394TMC3    H1 5945   4.086   4.550  11.094 -0.0119  1.9673  2.3273
  394TMC3    H2 5946   3.757   4.674  10.860 -1.0994 -1.8014  0.6414
  394TMC3    C7 5947   4.014   4.677  10.875 -0.0862  1.0940  0.4348
  394TMC3    C8 5948   3.582   4.491  10.964 -0.0227  0.3769  0.2918
  394TMC3    O1 5949   3.981   0.033  10.800  1.1084 -0.1881  0.2022
  394TMC3    O2 5950   3.502   4.580  10.945 -0.0750 -0.1114  0.3760
  395TMC3    C1 5951   4.023   1.396  14.998 -0.3832  0.2484  0.1516
  395TMC3    C2 5952   3.941   1.472  14.915  0.7405 -0.0260 -0.9072
  395TMC3    C3 5953   4.001   1.561  14.827  0.4767 -0.3864 -0.4325
  395TMC3    C4 5954   4.155   1.430  15.006  0.3259 -0.3274  0.2131
  395TMC3    C5 5955   4.211   1.520  14.923  0.0441 -0.2800  0.0211
  395TMC3    C6 5956   4.140   1.569  14.816 -0.0515  0.2163  0.2377
  395TMC3     C 5957   3.949   1.320  15.096  0.6161 -0.5296  0.4469
  395TMC3     O 5958   3.848   1.375  15.136  0.0326  0.2048  0.0194
  395TMC3     H 5959   3.834   1.455  14.922  0.2185  4.5121  2.4576
  395TMC3    H1 5960   4.218   1.385  15.082 -0.5038 -0.2820  0.9227
  395TMC3    H2 5961   4.174   1.655  14.761  2.3308 -1.4993 -0.9352
  395TMC3    C7 5962   4.295   1.623  14.985  0.1788 -0.1466 -0.1010
  395TMC3    C8 5963   3.924   1.632  14.730 -0.4812 -0.1321  0.5634
  395TMC3    O1 5964   4.262   1.667  15.094 -0.3233  0.7004  0.3627
  395TMC3    O2 5965   3.986   1.676  14.632 -0.0596 -0.1624 -0.2829
  396MPD2     C 5966   3.594   2.054  17.299  0.2771  0.3829  0.1104
  396MPD2    C1 5967   3.718   2.099  17.319  0.6789  0.4688 -0.9242
  396MPD2    C2 5968   3.767   2.199  17.229  0.3240  0.0381  0.2251
  396MPD2    C3 5969   3.685   2.258  17.136 -0.3575 -0.1275  0.4834
  396MPD2    C4 5970   3.556   2.214  17.131 -0.1891  0.1107  0.2909
  396MPD2    C5 5971   3.503   2.120  17.219 -0.1278 -0.2040  0.1286
  396MPD2     H 5972   3.870   2.233  17.225  0.6936 -0.8064  2.3843
  396MPD2    H1 5973   3.484   2.244  17.055  0.0538 -1.2548 -0.4781
  396MPD2    H2 5974   3.553   1.982  17.369  2.9589  0.0411  1.3036
  396MPD2    H3 5975   3.397   2.098  17.218 -0.2405  0.3538 -0.7862
  396MPD2     N 5976   3.741   2.353  17.046 -0.2171  0.0832 -0.2767
  396MPD2    H5 5977   3.842   2.343  17.035 -0.4789 -0.3875 -2.4085
  396MPD2    N1 5978   3.788   2.034  17.421 -0.2504 -0.5969  0.0763
  396MPD2    H7 5979   3.752   1.946  17.456  1.8139 -2.1057 -1.5839
  397TMC3    C1 5980   4.003   1.980  17.503  0.5914  0.0632 -0.0478
  397TMC3    C2 5981   4.086   1.962  17.395 -1.0274 -0.4600 -0.5412
  397TMC3    C3 5982   4.094   1.839  17.327  0.4092 -0.0827  0.3979
  397TMC3    C4 5983   3.946   1.864  17.551 -0.0090  0.2283 -0.1585
  397TMC3    C5 5984   3.968   1.744  17.493  0.3421 -0.7638 -0.0429
  397TMC3    C6 5985   4.029   1.734  17.371 -0.3775  0.5103  0.6487
  397TMC3     C 5986   3.905   2.081  17.476 -0.0281  0.1970 -0.4158
  397TMC3     O 5987   3.953   2.192  17.473 -0.3738  0.4237  0.2682
  397TMC3     H 5988   4.117   2.055  17.350  0.7705 -1.6347 -1.7499
  397TMC3    H1 5989   3.866   1.879  17.623 -0.4372 -3.4503  0.1010
  397TMC3    H2 5990   4.044   1.639  17.321  2.4635  0.9803  0.6036
  397TMC3    C7 5991   3.888   1.630  17.549 -0.6418 -0.0779  0.0897
  397TMC3    C8 5992   4.100   1.853  17.189  0.2640  0.1293  0.0118
  397TMC3    O1 5993   3.842   1.556  17.457  0.4459 -0.1675  0.3388
  397TMC3    O2 5994   4.031   1.771  17.127  0.2850 -0.2990 -0.4017
  398MPD2     C 5995   2.056   3.233   0.427  0.0669 -0.4987  1.4491
  398MPD2    C1 5996   2.148   3.178   0.509  0.9953  0.3994  0.1348
  398MPD2    C2 5997   2.250   3.256   0.557 -0.2293  0.3216  0.3065
  398MPD2    C3 5998   2.266   3.386   0.521  0.4343 -0.1825 -0.4087
  398MPD2    C4 5999   2.174   3.442   0.429 -0.2554  0.0954 -0.5375
  398MPD2    C5 6000   2.073   3.364   0.387  0.0757  0.6032 -0.2135
  398MPD2     H 6001   2.324   3.209   0.621 -0.1032 -0.4816 -0.4298
  398MPD2    H1 6002   2.184   3.542   0.388 -0.2723  0.8018  1.1808
  398MPD2    H2 6003   1.981   3.166   0.388  0.7752 -0.5377  0.1371
  398MPD2    H3 6004   2.008   3.391   0.305  0.9573 -0.6317 -1.3262
  398MPD2     N 6005   2.382   3.457   0.565 -0.6552  0.9484 -0.0357
  398MPD2    H5 6006   2.435   3.422   0.644  4.6063  0.4056 -3.7818
  398MPD2    N1 6007   2.158   3.041   0.535  0.6954  0.7962 -0.6566
  398MPD2    H7 6008   2.236   3.000   0.586 -0.1017 -0.0401 -0.0956
  399TMC3    C1 6009   2.093   2.816   0.534  0.0707 -0.7853  0.1587
  399TMC3    C2 6010   2.209   2.778   0.603  0.9869 -0.3103 -0.2892
  399TMC3    C3 6011   2.234   2.650   0.644 -0.1497 -0.0296  0.4972
  399TMC3    C4 6012   1.991   2.724   0.530 -0.2236 -0.4600  0.1210
  399TMC3    C5 6013   2.024   2.595   0.561  0.2902 -0.2652 -0.2172
  399TMC3    C6 6014   2.140   2.555   0.624  0.0675 -0.6732 -0.1285
  399TMC3     C 6015   2.056   2.950   0.506  0.6631  0.2645 -0.0039
  399TMC3     O 6016   1.943   2.967   0.468  0.3456 -0.0505 -0.3966
  399TMC3     H 6017   2.278   2.852   0.643 -1.2183  1.0938  0.9564
  399TMC3    H1 6018   1.898   2.745   0.479 -0.8683 -3.3754  0.1219
  399TMC3    H2 6019   2.162   2.451   0.643  0.1101 -0.8301 -1.0263
  399TMC3    C7 6020   1.921   2.487   0.539 -0.4303  0.2202  0.3986
  399TMC3    C8 6021   2.355   2.620   0.713 -0.1372  0.0882 -0.1675
  399TMC3    O1 6022   1.966   2.376   0.514 -0.5579  0.0390  0.5383
  399TMC3    O2 6023   2.420   2.719   0.743  0.2182  0.0334 -0.6397
  400TMC3    C1 6024   0.331   1.585  17.065  0.0228  0.6491 -0.4892
  400TMC3    C2 6025   0.247   1.501  16.999  0.2165  0.3780  0.3917
  400TMC3    C3 6026   0.132   1.548  16.935  0.2118 -0.1159  0.2411
  400TMC3    C4 6027   0.315   1.717  17.065  0.1870 -0.1219  0.6190
  400TMC3    C5 6028   0.200   1.762  17.000 -0.0195 -0.6142  0.0665
  400TMC3    C6 6029   0.108   1.687  16.937 -0.5251  0.4050  0.2874
  400TMC3     C 6030   0.453   1.529  17.123 -0.6118  0.7646 -0.9084
  400TMC3     O 6031   0.480   1.410  17.106  0.1163  0.4680  0.4524
  400TMC3     H 6032   0.262   1.394  17.010  0.0582  0.2331 -0.8641
  400TMC3    H1 6033   0.391   1.789  17.093  0.6648  0.1320 -1.3553
  400TMC3    H2 6034   0.021   1.725  16.885 -0.3142  2.5498  1.5388
  400TMC3    C7 6035   0.202   1.903  16.962  0.2852  0.2664 -0.4638
  400TMC3    C8 6036   0.024   1.453  16.941  0.3689  0.3238  0.2122
  400TMC3    O1 6037   0.121   1.927  16.873 -0.0984 -0.3049 -0.0211
  400TMC3    O2 6038   0.040   1.358  17.016 -0.0544 -0.2861 -0.5392
  401MPD2     C 6039   2.994   0.145   0.919 -0.2731 -0.2613 -0.1312
  401MPD2    C1 6040   3.113   0.097   0.972 -0.6064  0.5713  0.5529
  401MPD2    C2 6041   3.116   4.699   0.980 -0.4980  0.5783  0.6241
  401MPD2    C3 6042   3.005   4.618   0.943  0.4671  0.1022 -0.3928
  401MPD2    C4 6043   2.884   4.669   0.911  0.8274 -0.1012 -0.3910
  401MPD2    C5 6044   2.882   0.064   0.886 -0.2957  0.0965  0.2904
  401MPD2     H 6045   3.205   4.654   1.024  0.6073  2.4141  0.2615
  401MPD2    H1 6046   2.796   4.609   0.890  0.2440  0.4243  0.5801
  401MPD2    H2 6047   2.993   0.253   0.905 -4.3953 -0.5807 -2.2963
  401MPD2    H3 6048   2.789   0.099   0.842  0.0199  0.4873 -0.0728
  401MPD2     N 6049   3.019   4.479   0.955 -0.1090  0.0991  0.1472
  401MPD2    H5 6050   3.107   4.450   0.996 -1.3138 -1.4977  1.6296
  401MPD2    N1 6051   3.227   0.175   1.013  0.1502  0.2820 -0.3666
  401MPD2    H7 6052   3.308   0.129   1.052  0.4327  1.6118  0.6222
  402TMC3    C1 6053   2.993   4.254   0.916  0.0436  0.6188  0.3608
  402TMC3    C2 6054   3.049   4.245   1.038 -0.2779  0.0219  0.3003
  402TMC3    C3 6055   3.138   4.141   1.058 -0.1752 -0.0458  0.5050
  402TMC3    C4 6056   3.017   4.172   0.811 -0.4295 -0.5632 -0.0411
  402TMC3    C5 6057   3.119   4.090   0.834  0.3212  0.2045  0.3427
  402TMC3    C6 6058   3.189   4.069   0.950  0.2835 -0.5852  1.0194
  402TMC3     C 6059   2.933   4.387   0.896 -0.6095  0.4762  0.2672
  402TMC3     O 6060   2.856   4.398   0.806  0.0565  0.2149 -0.0483
  402TMC3     H 6061   3.020   4.301   1.126  0.8905  0.9475  0.0933
  402TMC3    H1 6062   2.991   4.197   0.709  3.6285  0.6663 -0.7985
  402TMC3    H2 6063   3.259   3.987   0.966 -0.8431 -1.7094  0.2377
  402TMC3    C7 6064   3.189   4.058   0.707 -0.0760  0.3052  0.3974
  402TMC3    C8 6065   3.188   4.115   1.199 -0.7331 -0.0254 -0.0497
  402TMC3    O1 6066   3.114   4.053   0.608 -0.5926 -0.1084  0.1540
  402TMC3    O2 6067   3.120   4.155   1.289  0.4811 -0.2709  0.0246
  403MPD2     C 6068   1.717   3.861  13.422  0.9524  0.3632 -0.3769
  403MPD2    C1 6069   1.768   3.782  13.524  0.8048 -1.3491 -0.2273
  403MPD2    C2 6070   1.838   3.842  13.629 -0.1251  0.0772 -0.0249
  403MPD2    C3 6071   1.862   3.980  13.635 -0.3523 -0.3665  0.0262
  403MPD2    C4 6072   1.815   4.053  13.527 -0.0229 -0.5354  0.2793
  403MPD2    C5 6073   1.729   3.997  13.426 -0.2013  0.2979 -0.4395
  403MPD2     H 6074   1.871   3.781  13.712 -0.7511 -0.6987 -0.3414
  403MPD2    H1 6075   1.857   4.153  13.518  0.3210 -0.7972 -1.1423
  403MPD2    H2 6076   1.665   3.822  13.335 -0.3682 -1.2148  1.1278
  403MPD2    H3 6077   1.680   4.058  13.352 -0.6150  1.1699  0.5429
  403MPD2     N 6078   1.955   4.022  13.732 -0.1257  0.6397  0.3489
  403MPD2    H5 6079   1.997   3.953  13.794 -1.4322 -0.8238 -0.3868
  403MPD2    N1 6080   1.746   3.641  13.516 -0.0413 -0.6820 -0.0311
  403MPD2    H7 6081   1.697   3.607  13.434 -3.1580  1.9358  0.6925
  404TMC3    C1 6082   1.779   3.411  13.570 -0.1083  0.0248  0.3728
  404TMC3    C2 6083   1.835   3.317  13.663  0.0161 -0.1793 -0.4907
  404TMC3    C3 6084   1.838   3.189  13.634  0.5221  0.0951 -0.3240
  404TMC3    C4 6085   1.728   3.365  13.453  0.0890  0.4219 -0.7999
  404TMC3    C5 6086   1.732   3.229  13.424 -0.0501  0.2893  0.2283
  404TMC3    C6 6087   1.801   3.144  13.505 -0.1874  0.4359 -0.3924
  404TMC3     C 6088   1.799   3.550  13.605  0.5722 -0.0734 -0.0750
  404TMC3     O 6089   1.852   3.564  13.714  0.3286 -0.8690  0.4165
  404TMC3     H 6090   1.879   3.347  13.757  1.5046 -2.7582 -0.3417
  404TMC3    H1 6091   1.684   3.434  13.383  0.0493  1.3673  0.1610
  404TMC3    H2 6092   1.791   3.036  13.504 -1.2148  0.5254  0.0278
  404TMC3    C7 6093   1.638   3.166  13.327  0.1951 -0.0945  0.2738
  404TMC3    C8 6094   1.877   3.093  13.742  0.0246  0.2898 -0.4261
  404TMC3    O1 6095   1.636   3.044  13.329  0.4360  0.7657 -0.7234
  404TMC3    O2 6096   1.932   2.994  13.698  0.3145  0.2015  0.1480
  405MPD2     C 6097   2.201   4.219  15.068 -0.0225  0.2282  0.1976
  405MPD2    C1 6098   2.083   4.169  15.025 -0.0404 -0.6335 -0.0635
  405MPD2    C2 6099   1.969   4.246  15.029  0.3034 -0.5898 -0.2258
  405MPD2    C3 6100   1.985   4.379  15.079  0.6366 -0.3756  0.0309
  405MPD2    C4 6101   2.105   4.435  15.120  0.3097 -0.1740  0.2035
  405MPD2    C5 6102   2.215   4.354  15.111 -0.3475  0.5532  0.0396
  405MPD2     H 6103   1.867   4.210  15.015 -0.1938  0.5270  0.5002
  405MPD2    H1 6104   2.116   4.531  15.169 -2.7701  0.1479  0.2966
  405MPD2    H2 6105   2.293   4.164  15.055  0.4794  1.6167 -2.0762
  405MPD2    H3 6106   2.313   4.395  15.136 -0.0398 -0.7362  0.9817
  405MPD2     N 6107   1.857   4.442  15.102  1.4594 -0.9547  0.5026
  405MPD2    H5 6108   1.774   4.396  15.066  0.2324  0.6772  1.2776
  405MPD2    N1 6109   2.084   4.034  14.987 -0.6778 -0.5084  0.3340
  405MPD2    H7 6110   2.164   3.972  14.999  0.4292  0.7403 -0.5832
  406TMC3    C1 6111   1.476   4.690  15.148 -0.5180 -0.2168  0.1591
  406TMC3    C2 6112   1.402   4.575  15.158 -0.4329  0.6877 -0.5855
  406TMC3    C3 6113   1.465   4.457  15.172  0.1659 -0.1711  0.0240
  406TMC3    C4 6114   1.609   4.680  15.161 -0.5535  0.0856  0.0920
  406TMC3    C5 6115   1.671   4.563  15.186 -0.4127  0.1405 -0.8473
  406TMC3    C6 6116   1.598   4.443  15.182 -0.5290 -0.1919  0.3322
  406TMC3     C 6117   1.416   0.057  15.076  0.7742 -0.9130  0.3914
  406TMC3     O 6118   1.301   0.079  15.101  0.4117  0.2861 -0.6553
  406TMC3     H 6119   1.295   4.580  15.142 -0.9650  0.9762  3.1075
  406TMC3    H1 6120   1.655   0.040  15.148 -0.6500  0.5060  2.9759
  406TMC3    H2 6121   1.643   4.348  15.208  2.6721  1.1160 -0.5457
  406TMC3    C7 6122   1.821   4.557  15.173  0.2713  0.1932 -0.2789
  406TMC3    C8 6123   1.389   4.341  15.139  0.0305  0.0529 -0.0185
  406TMC3    O1 6124   1.886   4.630  15.246  0.2357 -0.5857 -0.5138
  406TMC3    O2 6125   1.276   4.327  15.185  0.6172 -0.3214 -0.0417
  407MPD2     C 6126   0.365   1.523  10.102 -0.2493 -0.4308  0.3393
  407MPD2    C1 6127   0.380   1.638  10.168 -0.3774  0.7763  0.0350
  407MPD2    C2 6128   0.268   1.705  10.210 -0.0378 -0.2609  0.4053
  407MPD2    C3 6129   0.138   1.657  10.193  0.7292 -0.4011  0.1258
  407MPD2    C4 6130   0.128   1.535  10.122 -0.2834 -0.2021  0.1302
  407MPD2    C5 6131   0.241   1.477  10.071 -0.6585 -0.0967 -0.2360
  407MPD2     H 6132   0.284   1.804  10.249 -0.2859 -1.2020  2.8958
  407MPD2    H1 6133   0.037   1.485  10.094  0.0935 -0.9573  0.2414
  407MPD2    H2 6134   0.450   1.458  10.081  0.2383  0.3922 -0.2100
  407MPD2    H3 6135   0.229   1.383  10.020  1.9106 -0.9251  0.7030
  407MPD2     N 6136   0.027   1.730  10.246 -0.6516  0.1328  0.2091
  407MPD2    H5 6137   0.050   1.811  10.302 -0.0163 -0.4471  0.7911
  407MPD2    N1 6138   0.511   1.695  10.192  0.6846 -0.4831 -0.0410
  407MPD2    H7 6139   0.504   1.784  10.242  4.0656 -0.7831  0.9376
  408TMC3    C1 6140   0.736   1.733  10.195 -0.0733 -0.2556 -0.5772
  408TMC3    C2 6141   0.814   1.785  10.093 -0.4135 -0.5946  0.7367
  408TMC3    C3 6142   0.874   1.901  10.114 -0.5984  0.0198 -0.3742
  408TMC3    C4 6143   0.705   1.797  10.317 -0.8280 -0.1435 -0.0285
  408TMC3    C5 6144   0.795   1.900  10.338 -0.3892 -0.4710  0.2441
  408TMC3    C6 6145   0.869   1.964  10.235  0.6546 -0.2547 -0.1373
  408TMC3     C 6146   0.635   1.650  10.152  0.1561 -0.0045 -0.2418
  408TMC3     O 6147   0.662   1.566  10.068  0.2472  0.3062 -0.2151
  408TMC3     H 6148   0.799   1.757   9.989 -2.5732 -1.9056  1.4085
  408TMC3    H1 6149   0.636   1.753  10.388  0.2115  1.0079  1.6931
  408TMC3    H2 6150   0.938   2.048  10.242  0.9324 -0.6132  1.5936
  408TMC3    C7 6151   0.766   1.994  10.443  0.7062 -0.4499 -0.0555
  408TMC3    C8 6152   0.965   1.940  10.004  0.1817 -0.7123 -0.2291
  408TMC3    O1 6153   0.775   2.111  10.413  0.4327  0.4290  0.4047
  408TMC3    O2 6154   0.985   1.857   9.911  0.1683  0.4891 -0.5309
  409MPD2     C 6155   3.942   1.097  17.045  0.5551 -0.5348 -0.2011
  409MPD2    C1 6156   4.036   1.115  17.146  0.1429 -0.4043 -0.6942
  409MPD2    C2 6157   4.104   1.232  17.160  0.1672  0.3263  0.1103
  409MPD2    C3 6158   4.079   1.333  17.066 -0.5836 -0.7169 -0.5675
  409MPD2    C4 6159   3.979   1.317  16.967 -0.3443 -0.0747  0.0273
  409MPD2    C5 6160   3.917   1.194  16.958  0.2557 -0.7925 -1.1540
  409MPD2     H 6161   4.180   1.239  17.238 -0.3004 -0.8942  0.6786
  409MPD2    H1 6162   3.965   1.394  16.892  0.5835  1.3065  1.2556
  409MPD2    H2 6163   3.889   1.003  17.032 -0.0486 -0.1034 -0.8349
  409MPD2    H3 6164   3.855   1.172  16.873  1.2811 -3.6196 -1.1694
  409MPD2     N 6165   4.152   1.452  17.061 -0.6039  0.6571  0.2144
  409MPD2    H5 6166   4.152   1.506  16.975  0.5366 -0.6928 -0.6443
  409MPD2    N1 6167   4.065   1.021  17.248 -0.2916  0.6613  0.6765
  409MPD2    H7 6168   4.137   1.054  17.311  2.7269 -0.0692 -2.3553
  410TMC3    C1 6169   4.342   1.602  17.112 -0.0288 -0.0781  0.4659
  410TMC3    C2 6170   4.438   1.633  17.206  0.0528  0.0082  0.0241
  410TMC3    C3 6171   4.533   1.726  17.173 -0.0303 -0.2267 -0.3656
  410TMC3    C4 6172   4.352   1.647  16.981 -0.6100  0.3858  0.4584
  410TMC3    C5 6173   4.453   1.734  16.951 -0.0490 -0.3154 -0.2741
  410TMC3    C6 6174   4.541   1.778  17.046 -0.6585 -0.3739 -0.0328
  410TMC3     C 6175   4.257   1.485  17.156  1.1916 -0.4482 -0.0687
  410TMC3     O 6176   4.285   1.433  17.260  0.6404  0.0532 -0.6264
  410TMC3     H 6177   4.442   1.591  17.306 -1.1361 -2.1949 -0.8702
  410TMC3    H1 6178   4.284   1.623  16.900  1.2981 -1.2223 -0.6528
  410TMC3    H2 6179   4.623   1.841  17.011  0.5775 -1.4205  0.9877
  410TMC3    C7 6180   4.459   1.793  16.814  0.3740  0.2016 -0.4015
  410TMC3    C8 6181   4.649   1.741  17.251 -0.2661 -0.0795  0.4275
  410TMC3    O1 6182   4.389   1.748  16.722  0.6323  0.3365  0.1341
  410TMC3    O2 6183   4.712   1.844  17.222 -0.3182  0.1871 -0.0527
  411MPD2     C 6184   0.158   2.315  15.031  0.2744  0.2789 -0.2682
  411MPD2    C1 6185   0.025   2.359  15.050 -0.3330 -0.6602  0.4430
  411MPD2    C2 6186   4.652   2.283  15.000  0.6987  0.0189  0.2805
  411MPD2    C3 6187   4.680   2.180  14.909  0.4392 -0.5322  0.0742
  411MPD2    C4 6188   0.070   2.148  14.880  0.5399 -0.1027  0.2270
  411MPD2    C5 6189   0.174   2.204  14.954 -0.4030  1.2400  0.3128
  411MPD2     H 6190   4.547   2.302  15.015  0.6755  1.7847 -2.1219
  411MPD2    H1 6191   0.087   2.054  14.830  0.5869  0.3018 -0.5191
  411MPD2    H2 6192   0.243   2.369  15.071 -1.0170  0.3534  2.3506
  411MPD2    H3 6193   0.276   2.168  14.948 -2.0793 -3.3009 -0.8488
  411MPD2     N 6194   4.582   2.105  14.845 -0.2356 -0.3263  0.0365
  411MPD2    H5 6195   4.614   2.043  14.771  0.4275  0.6601 -0.5053
  411MPD2    N1 6196   4.735   2.478  15.111 -0.4422 -0.2744  0.0882
  411MPD2    H7 6197   0.066   2.553  15.107 -2.0316  1.2028  1.1468
  412TMC3    C1 6198   4.367   2.028  14.784 -0.1382  0.5044 -0.3220
  412TMC3    C2 6199   4.256   1.969  14.831  0.2610 -0.1614 -0.5272
  412TMC3    C3 6200   4.175   1.910  14.742 -0.4903  0.1696 -0.2397
  412TMC3    C4 6201   4.402   2.038  14.653 -0.1735 -0.0290  0.4264
  412TMC3    C5 6202   4.317   1.992  14.561  0.3620  0.2808 -0.0401
  412TMC3    C6 6203   4.208   1.921  14.607  0.3343 -0.2314  0.0365
  412TMC3     C 6204   4.448   2.096  14.879 -0.9493 -0.4769  0.4786
  412TMC3     O 6205   4.388   2.129  14.981  0.0599 -0.3756  0.3758
  412TMC3     H 6206   4.241   1.952  14.937  3.8488 -0.7947 -0.1217
  412TMC3    H1 6207   4.494   2.084  14.619 -0.7194 -0.5596 -1.7763
  412TMC3    H2 6208   4.141   1.885  14.529 -0.1168 -0.2052  0.4117
  412TMC3    C7 6209   4.263   2.087  14.469 -0.0004 -0.8427  0.2768
  412TMC3    C8 6210   4.041   1.944  14.782  0.6587  0.1282 -1.0001
  412TMC3    O1 6211   4.145   2.108  14.472 -0.3988 -0.0521 -0.2025
  412TMC3    O2 6212   4.012   1.923  14.899  0.5973  0.3409  0.1625
  413MPD2     C 6213   1.717   0.894  15.162 -0.3548 -0.7974 -0.6698
  413MPD2    C1 6214   1.626   0.794  15.155 -0.2541  0.3168 -0.7580
  413MPD2    C2 6215   1.672   0.664  15.126 -0.0132  0.0974  0.3972
  413MPD2    C3 6216   1.806   0.642  15.113  0.1261  0.3064  0.3336
  413MPD2    C4 6217   1.896   0.746  15.112  0.4499 -0.3090 -0.0784
  413MPD2    C5 6218   1.849   0.873  15.141 -0.0790 -0.1277 -0.1932
  413MPD2     H 6219   1.604   0.581  15.110 -1.7997  2.0926 -2.1474
  413MPD2    H1 6220   2.003   0.737  15.094 -0.0243 -2.4393 -1.7828
  413MPD2    H2 6221   1.687   0.995  15.184  0.9882 -0.9691  1.9060
  413MPD2    H3 6222   1.927   0.948  15.138  0.5210 -0.7374  0.0171
  413MPD2     N 6223   1.842   0.504  15.101 -0.3811 -0.1031  0.0645
  413MPD2    H5 6224   1.769   0.434  15.106  1.5861 -2.1877 -0.2376
  413MPD2    N1 6225   1.487   0.823  15.186  0.3211  0.2757 -0.5200
  413MPD2    H7 6226   1.466   0.920  15.211  0.3076  0.0008  0.5498
  414TMC3    C1 6227   1.987   0.324  15.112 -0.2239  0.0610 -0.2722
  414TMC3    C2 6228   2.095   0.277  15.182  0.4242  0.2572 -0.0423
  414TMC3    C3 6229   2.125   0.140  15.170  0.4395  0.2822  0.2049
  414TMC3    C4 6230   1.916   0.243  15.020 -0.0673 -1.1427  0.0186
  414TMC3    C5 6231   1.964   0.117  14.998  0.5157  0.9232 -0.0646
  414TMC3    C6 6232   2.047   0.060  15.089  0.0898 -0.2772  0.0483
  414TMC3     C 6233   1.975   0.467  15.117 -0.3320 -0.0613  0.8602
  414TMC3     O 6234   2.076   0.527  15.149 -0.1430 -0.2963 -0.1140
  414TMC3     H 6235   2.147   0.340  15.254 -0.5346 -0.9285  1.6618
  414TMC3    H1 6236   1.830   0.288  14.971  0.4231 -0.6640 -0.3933
  414TMC3    H2 6237   2.057   4.690  15.073  3.8174 -0.3041  2.6408
  414TMC3    C7 6238   1.893   0.034  14.905  0.4892 -0.4571  0.0379
  414TMC3    C8 6239   2.232   0.073  15.232 -0.3265  0.5307  0.5368
  414TMC3    O1 6240   1.769   0.041  14.919  0.4708 -0.0392  0.2732
  414TMC3    O2 6241   2.274   4.708  15.186  0.7364  0.2216 -0.3025
  415TMC3    C1 6242   2.217   3.831  10.789 -0.7218  0.0713 -0.3355
  415TMC3    C2 6243   2.325   3.865  10.714 -0.0041 -0.4920  0.3458
  415TMC3    C3 6244   2.329   3.794  10.593  0.0422  0.2684  0.2902
  415TMC3    C4 6245   2.107   3.766  10.746  0.7548 -0.2067  0.2361
  415TMC3    C5 6246   2.115   3.708  10.619  0.0021 -0.0689 -0.7081
  415TMC3    C6 6247   2.232   3.711  10.550  0.3818 -0.1524  0.1798
  415TMC3     C 6248   2.209   3.891  10.919 -0.1608 -0.5208  0.6148
  415TMC3     O 6249   2.115   3.849  10.982  0.1026  0.0386  0.1745
  415TMC3     H 6250   2.416   3.886  10.768  0.8968 -0.7428 -1.0736
  415TMC3    H1 6251   2.021   3.742  10.808 -0.5926 -0.5483 -1.7723
  415TMC3    H2 6252   2.239   3.651  10.461 -0.3896  2.4624 -1.6458
  415TMC3    C7 6253   2.022   3.600  10.579  0.1692  0.0850 -0.1553
  415TMC3    C8 6254   2.456   3.779  10.520  0.6481  0.4017 -0.1312
  415TMC3    O1 6255   2.033   3.545  10.466 -0.1300 -0.6317  0.8989
  415TMC3    O2 6256   2.478   3.683  10.446 -0.1811  0.2186 -0.8224
  416MPD2     C 6257   3.653   2.532  11.730 -0.4260 -0.5167  0.3097
  416MPD2    C1 6258   3.595   2.441  11.806 -0.6219  0.5541  0.1342
  416MPD2    C2 6259   3.608   2.306  11.767 -0.2457  0.4542 -0.5277
  416MPD2    C3 6260   3.652   2.272  11.645  0.3199 -0.0610 -0.3202
  416MPD2    C4 6261   3.711   2.366  11.565 -0.7955 -0.1844  0.0430
  416MPD2    C5 6262   3.724   2.494  11.621 -0.1430  0.5995  0.2247
  416MPD2     H 6263   3.541   2.237  11.816  0.2730 -0.3123 -0.9008
  416MPD2    H1 6264   3.770   2.333  11.480 -0.8974 -0.2168 -0.0139
  416MPD2    H2 6265   3.652   2.638  11.754 -1.1532  0.2480 -2.9376
  416MPD2    H3 6266   3.775   2.568  11.560  0.0786 -1.0580 -1.6100
  416MPD2     N 6267   3.639   2.140  11.601  0.1287 -0.5644  0.2277
  416MPD2    H5 6268   3.654   2.127  11.501  0.4732  0.2528  0.1748
  416MPD2    N1 6269   3.533   2.487  11.923 -0.1409  0.0713  0.1912
  416MPD2    H7 6270   3.511   2.586  11.936 -0.9615 -0.0744 -0.0864
  417TMC3    C1 6271   3.418   2.476  12.127 -0.3329 -0.2996 -0.1046
  417TMC3    C2 6272   3.359   2.396  12.220  0.3389  0.4938  0.5510
  417TMC3    C3 6273   3.245   2.438  12.287 -0.1235 -0.3815 -0.4838
  417TMC3    C4 6274   3.366   2.603  12.112 -0.0542 -0.1549 -0.0856
  417TMC3    C5 6275   3.243   2.628  12.153 -0.1685  1.0968  0.4324
  417TMC3    C6 6276   3.178   2.545  12.234  0.7164 -0.1212  0.2219
  417TMC3     C 6277   3.499   2.408  12.030  0.4165 -0.1060  0.7072
  417TMC3     O 6278   3.526   2.294  12.053  0.2036  0.1144 -0.5010
  417TMC3     H 6279   3.411   2.310  12.259  0.1637 -0.1290 -0.5755
  417TMC3    H1 6280   3.417   2.672  12.046  0.5209 -2.0090 -1.5920
  417TMC3    H2 6281   3.080   2.577  12.269  0.7909 -0.1487  0.4566
  417TMC3    C7 6282   3.189   2.760  12.119 -0.0112  0.1625 -0.3184
  417TMC3    C8 6283   3.233   2.420  12.429  0.2398  0.1773 -0.4834
  417TMC3    O1 6284   3.229   2.811  12.018 -0.1058 -0.0912  0.1671
  417TMC3    O2 6285   3.133   2.475  12.470 -0.4906 -0.0423 -0.3438
  418TMC3    C1 6286   2.789   3.571   0.523 -0.3848 -0.2663 -0.2964
  418TMC3    C2 6287   2.668   3.592   0.465 -0.1395  0.0644  0.2985
  418TMC3    C3 6288   2.565   3.590   0.545 -0.2388 -0.1297  0.3239
  418TMC3    C4 6289   2.810   3.547   0.658 -0.2537 -0.4730  0.4685
  418TMC3    C5 6290   2.696   3.550   0.738  0.7651  0.5401 -0.5668
  418TMC3    C6 6291   2.569   3.572   0.682  0.0795  0.1957  0.2281
  418TMC3     C 6292   2.897   3.527   0.429  0.5091 -0.5194 -0.0815
  418TMC3     O 6293   2.894   3.574   0.317 -0.4199  0.2475 -0.3963
  418TMC3     H 6294   2.662   3.597   0.357 -0.6068  0.8534  0.3561
  418TMC3    H1 6295   2.897   3.500   0.701 -0.1200 -0.3644  0.3153
  418TMC3    H2 6296   2.483   3.575   0.748 -0.5841 -1.1502 -0.5693
  418TMC3    C7 6297   2.674   3.466   0.852 -0.0941  0.4057 -0.8237
  418TMC3    C8 6298   2.433   3.568   0.493  0.6982 -0.0633 -0.2417
  418TMC3    O1 6299   2.566   3.403   0.856 -0.2578  0.1036 -0.3837
  418TMC3    O2 6300   2.420   3.594   0.373  0.2249  0.1170  0.0773
  419MPD2     C 6301   0.776   2.681  12.949 -0.8424 -0.1353 -0.2701
  419MPD2    C1 6302   0.647   2.730  12.935 -0.2341 -0.1170  0.2009
  419MPD2    C2 6303   0.567   2.731  13.053 -0.8046 -0.4143  0.2796
  419MPD2    C3 6304   0.617   2.695  13.174 -0.0980  0.8022  0.1882
  419MPD2    C4 6305   0.749   2.657  13.184  0.0024  0.2081  0.5138
  419MPD2    C5 6306   0.829   2.652  13.068  1.3551  0.3255  0.3658
  419MPD2     H 6307   0.465   2.766  13.048 -0.3425  0.7312 -1.2017
  419MPD2    H1 6308   0.805   2.627  13.272  0.8284 -1.9115 -0.7107
  419MPD2    H2 6309   0.836   2.648  12.865 -0.5116  0.9973 -0.4794
  419MPD2    H3 6310   0.935   2.631  13.070  0.5979 -3.7611 -2.0038
  419MPD2     N 6311   0.535   2.700  13.291  0.1050  0.6962  0.2103
  419MPD2    H5 6312   0.435   2.706  13.274 -0.0219 -0.5390  0.4601
  419MPD2    N1 6313   0.587   2.759  12.812  0.1016 -0.3629  0.3599
  419MPD2    H7 6314   0.490   2.787  12.825  0.1931  0.4478 -0.6709
  420TMC3    C1 6315   0.469   2.705  13.511 -0.1563 -1.0041 -0.0337
  420TMC3    C2 6316   0.346   2.723  13.457  0.4004  0.1783 -0.1060
  420TMC3    C3 6317   0.231   2.675  13.523 -0.0484  0.0191 -0.1400
  420TMC3    C4 6318   0.483   2.650  13.637 -0.0118  0.5216  0.1919
  420TMC3    C5 6319   0.370   2.592  13.691  0.3304 -0.4569  0.3456
  420TMC3    C6 6320   0.243   2.604  13.635 -0.2600 -0.8438  0.5945
  420TMC3     C 6321   0.579   2.702  13.421 -0.2773  0.9257  0.7780
  420TMC3     O 6322   0.692   2.690  13.472  0.1655  0.0565 -0.3635
  420TMC3     H 6323   0.324   2.785  13.370  1.7123 -0.7691 -1.1159
  420TMC3    H1 6324   0.583   2.626  13.671  1.8034  2.2436 -4.0370
  420TMC3    H2 6325   0.154   2.571  13.688 -1.2764  1.4047  0.2965
  420TMC3    C7 6326   0.379   2.520  13.819  0.2149  0.0104 -0.7747
  420TMC3    C8 6327   0.100   2.705  13.472 -1.3163 -0.0544  0.4197
  420TMC3    O1 6328   0.474   2.551  13.885 -0.7398  0.3300  0.1187
  420TMC3    O2 6329   0.077   2.825  13.453 -0.1683  0.2154  0.0780
  421TMC3    C1 6330   2.127   4.155  13.828  0.1726 -0.1302  0.0739
  421TMC3    C2 6331   2.158   4.279  13.878  0.9587 -0.3665 -0.1022
  421TMC3    C3 6332   2.288   4.306  13.909 -0.3935 -0.2384 -0.3281
  421TMC3    C4 6333   2.216   4.050  13.831 -0.2969  0.6088  0.0006
  421TMC3    C5 6334   2.347   4.080  13.858 -0.7224 -0.2813 -0.4737
  421TMC3    C6 6335   2.383   4.206  13.892  0.0488  0.5320 -0.7517
  421TMC3     C 6336   2.006   4.147  13.748  0.9445  0.7233  0.0683
  421TMC3     O 6337   1.956   4.252  13.721 -0.2466 -0.0463 -0.1027
  421TMC3     H 6338   2.091   4.365  13.874  0.4488 -0.7360  0.6584
  421TMC3    H1 6339   2.185   3.955  13.789  2.0673  0.2815 -1.0156
  421TMC3    H2 6340   2.489   4.226  13.904  0.0486  0.0635 -0.0062
  421TMC3    C7 6341   2.436   3.975  13.908 -0.0164  0.4039 -0.2876
  421TMC3    C8 6342   2.329   4.432  13.963 -0.0444  0.2197  0.8876
  421TMC3    O1 6343   2.543   4.009  13.943  0.4976 -0.4782 -0.0270
  421TMC3    O2 6344   2.443   4.443  13.997 -0.2693  0.2365  0.3215
  422TMC3    C1 6345   4.576   0.641  12.732 -0.2552 -0.0372  0.1667
  422TMC3    C2 6346   4.522   0.764  12.746  0.0041 -0.0562 -0.1547
  422TMC3    C3 6347   4.414   0.785  12.830 -0.3794  0.7104  0.0301
  422TMC3    C4 6348   4.533   0.535  12.800 -0.2438 -0.1010 -0.0788
  422TMC3    C5 6349   4.426   0.555  12.880 -0.3782 -0.2774  0.1748
  422TMC3    C6 6350   4.368   0.676  12.901 -0.2211 -0.1576  0.0610
  422TMC3     C 6351   4.681   0.637  12.628  0.2154 -0.4688 -0.2423
  422TMC3     O 6352   0.000   0.743  12.601  0.2528 -0.4821 -0.0958
  422TMC3     H 6353   4.556   0.849  12.688  1.3077 -0.1075  0.5363
  422TMC3    H1 6354   4.575   0.437  12.785 -0.9300 -0.3537 -0.3523
  422TMC3    H2 6355   4.274   0.682  12.955 -0.5875  0.1998 -0.6151
  422TMC3    C7 6356   4.357   0.432  12.920 -0.3837  0.5635  0.6551
  422TMC3    C8 6357   4.411   0.916  12.893  0.6217 -0.4173 -0.0079
  422TMC3    O1 6358   4.417   0.327  12.887 -0.1714 -0.2119 -0.0425
  422TMC3    O2 6359   4.453   1.013  12.831 -0.0409 -0.3462 -0.0706
  423MPD2     C 6360   0.873   0.587   1.005 -0.0743  0.1678 -0.0283
  423MPD2    C1 6361   1.009   0.565   1.020 -0.4475  0.9426  0.2249
  423MPD2    C2 6362   1.074   0.522   0.912  0.1573  0.7718 -0.4839
  423MPD2    C3 6363   1.009   0.520   0.788  0.0475  0.1021  0.1424
  423MPD2    C4 6364   0.876   0.548   0.777 -0.1779  1.1413  0.2449
  423MPD2    C5 6365   0.808   0.568   0.891  0.2305 -1.2741  0.2391
  423MPD2     H 6366   1.182   0.524   0.912  0.1569  0.7720  0.3983
  423MPD2    H1 6367   0.815   0.546   0.687  1.4541  0.4679 -0.8400
  423MPD2    H2 6368   0.810   0.612   1.090 -0.8382 -0.5848 -0.3843
  423MPD2    H3 6369   0.703   0.595   0.896  0.2206 -1.0851 -0.8886
  423MPD2     N 6370   1.074   0.494   0.667 -0.1390 -0.1847 -0.1785
  423MPD2    H5 6371   1.034   0.542   0.587  0.0249  0.7221  0.2846
  423MPD2    N1 6372   1.078   0.599   1.142  0.1461  0.4512 -0.0624
  423MPD2    H7 6373   1.170   0.558   1.146  0.1530  0.1500 -3.0563
  424TMC3    C1 6374   1.116   0.686   1.364  0.8293  0.2469  0.2090
  424TMC3    C2 6375   1.218   0.604   1.381  0.3664 -0.9119  0.3751
  424TMC3    C3 6376   1.278   0.596   1.506  0.7322 -0.8321  0.1821
  424TMC3    C4 6377   1.067   0.768   1.459  0.2485 -0.3274  0.2452
  424TMC3    C5 6378   1.130   0.761   1.581  0.2147  0.3579 -0.6857
  424TMC3    C6 6379   1.227   0.669   1.608 -0.4211 -0.1607 -0.0355
  424TMC3     C 6380   1.024   0.665   1.253  0.3376  0.5592  0.7224
  424TMC3     O 6381   0.912   0.712   1.263  0.3826  0.0331  0.3972
  424TMC3     H 6382   1.235   0.527   1.306  0.5867  0.4549 -0.9770
  424TMC3    H1 6383   0.966   0.807   1.451 -0.3612 -1.9896  0.0140
  424TMC3    H2 6384   1.272   0.662   1.706 -0.2181  0.2017 -0.1020
  424TMC3    C7 6385   1.065   0.838   1.689  0.2603  0.7072 -0.6801
  424TMC3    C8 6386   1.398   0.508   1.528  0.2999 -0.2329 -0.2609
  424TMC3    O1 6387   1.113   0.823   1.801 -0.2788 -0.3971 -0.1939
  424TMC3    O2 6388   1.466   0.468   1.436 -0.3671 -0.6867 -0.2226
  425MPD2     C 6389   0.513   0.249  17.679  0.1372 -0.1112 -0.4810
  425MPD2    C1 6390   0.473   0.117  17.652 -0.5684 -0.2140 -0.7300
  425MPD2    C2 6391   0.336   0.096  17.642 -0.1569  0.4829  0.1230
  425MPD2    C3 6392   0.249   0.200  17.648 -0.6261 -0.5465  0.4666
  425MPD2    C4 6393   0.294   0.328  17.672 -0.5377 -0.1955  0.3854
  425MPD2    C5 6394   0.430   0.355  17.673  0.1364 -0.2589 -0.3989
  425MPD2     H 6395   0.290   4.735  17.633 -0.3230  0.6733 -1.0513
  425MPD2    H1 6396   0.224   0.411  17.674  1.5199  1.5537 -0.4209
  425MPD2    H2 6397   0.619   0.269  17.692 -0.1930  0.8522  0.7554
  425MPD2    H3 6398   0.469   0.455  17.689 -2.0890  0.7087 -1.0135
  425MPD2     N 6399   0.111   0.173  17.636 -0.3462 -1.0733 -0.2005
  425MPD2    H5 6400   0.093   0.082  17.596 -1.1642 -1.0117  0.0334
  425MPD2    N1 6401   0.563   0.006  17.649  0.3144 -0.1400  0.1575
  425MPD2    H7 6402   0.515   4.654  17.662  2.3020 -1.1537  0.5831
  426TMC3    C1 6403   0.759   4.615  17.663 -0.0999 -0.0444 -0.7799
  426TMC3    C2 6404   0.750   4.557  17.543  0.3003  0.3075 -0.2399
  426TMC3    C3 6405   0.695   4.430  17.534 -0.3805  0.2579 -0.1649
  426TMC3    C4 6406   0.702   4.555   0.028  0.4051  0.1221  0.2932
  426TMC3    C5 6407   0.669   4.426   0.023 -0.4085 -0.4573  0.5401
  426TMC3    C6 6408   0.660   4.358  17.650  0.2480 -0.0413  0.4326
  426TMC3     C 6409   0.701   0.003  17.635  0.5575  0.0538 -0.1176
  426TMC3     O 6410   0.779   0.090  17.608 -0.2318  0.0794 -0.2169
  426TMC3     H 6411   0.751   4.619  17.453 -2.1158 -0.8623 -1.0849
  426TMC3    H1 6412   0.708   4.606   0.123 -0.7549 -0.0390  0.4536
  426TMC3    H2 6413   0.608   4.263  17.644  0.7688 -0.1670 -2.1141
  426TMC3    C7 6414   0.584   4.369   0.123  0.1168 -0.4124  0.0041
  426TMC3    C8 6415   0.687   4.381  17.398 -0.2504 -0.5400  0.9791
  426TMC3    O1 6416   0.532   4.259   0.111 -0.4961 -0.0906 -0.1414
  426TMC3    O2 6417   0.691   4.459  17.304 -0.0436  0.1428  0.5130
  427MPD2     C 6418   3.764   2.744  15.279 -0.5003  0.0629  0.5816
  427MPD2    C1 6419   3.702   2.644  15.351  0.6582  0.0627  0.5242
  427MPD2    C2 6420   3.566   2.650  15.354  0.1816  0.8391 -0.0084
  427MPD2    C3 6421   3.487   2.745  15.295  0.0625  0.0654 -0.3865
  427MPD2    C4 6422   3.557   2.857  15.246 -0.4143  0.0101 -0.1764
  427MPD2    C5 6423   3.687   2.851  15.227 -0.2069  0.2480  0.2703
  427MPD2     H 6424   3.519   2.569  15.408  1.1560 -0.0803 -0.5340
  427MPD2    H1 6425   3.499   2.943  15.213 -1.5284  0.3063  2.6120
  427MPD2    H2 6426   3.871   2.726  15.272 -0.4234  0.0039  1.8653
  427MPD2    H3 6427   3.738   2.931  15.173 -1.8388  0.9385 -0.2292
  427MPD2     N 6428   3.345   2.746  15.292 -0.3990 -0.7225  0.1439
  427MPD2    H5 6429   3.298   2.821  15.243 -1.5549 -1.5872 -0.0716
  427MPD2    N1 6430   3.761   2.539  15.426  0.1207  0.0231 -0.0423
  427MPD2    H7 6431   3.698   2.473  15.471  0.3094 -0.7564 -0.9150
  428TMC3    C1 6432   3.910   2.375  15.469  0.4486  0.0511  0.4256
  428TMC3    C2 6433   3.803   2.295  15.496  0.3496  0.2709  0.3818
  428TMC3    C3 6434   3.829   2.186  15.577 -0.3554 -0.4255 -0.5450
  428TMC3    C4 6435   4.022   2.372  15.548 -0.1234  0.5194 -0.2435
  428TMC3    C5 6436   4.044   2.262  15.636 -0.0188 -0.2629  0.4452
  428TMC3    C6 6437   3.951   2.161  15.646 -0.1274 -0.3029 -0.3770
  428TMC3     C 6438   3.884   2.495  15.399 -0.2074  0.4324  0.2170
  428TMC3     O 6439   3.970   2.532  15.317  0.8753 -0.3451 -0.1443
  428TMC3     H 6440   3.715   2.295  15.433  1.5467 -0.4625 -1.2974
  428TMC3    H1 6441   4.096   2.451  15.549  0.2213  0.2093 -1.0423
  428TMC3    H2 6442   3.964   2.091  15.728  2.4999  2.0309  1.1968
  428TMC3    C7 6443   4.151   2.273  15.730 -1.3517  0.6090 -0.2115
  428TMC3    C8 6444   3.709   2.152  15.650 -0.3695 -0.0042  0.7561
  428TMC3    O1 6445   4.145   2.216  15.836  0.0483  0.8149 -0.2674
  428TMC3    O2 6446   3.616   2.231  15.645  0.8158 -0.9334  0.1898
  429MPD2     C 6447   4.390   2.139   0.176  0.2039  0.3336 -0.3813
  429MPD2    C1 6448   4.501   2.069   0.142  0.4213 -0.3140  0.0014
  429MPD2    C2 6449   4.613   2.138   0.098  0.2046  0.1335 -0.3497
  429MPD2    C3 6450   4.593   2.266   0.052 -0.1239 -1.1208  0.2690
  429MPD2    C4 6451   4.475   2.331   0.079  0.3208 -1.0997 -0.0708
  429MPD2    C5 6452   4.377   2.275   0.156  0.2051  1.0656  0.3255
  429MPD2     H 6453   4.710   2.089   0.100 -1.3201 -2.8262  1.8388
  429MPD2    H1 6454   4.453   2.435   0.059  0.7605 -1.2703 -1.4539
  429MPD2    H2 6455   4.310   2.096   0.235  0.5215  0.0689 -0.1485
  429MPD2    H3 6456   4.294   2.336   0.191  1.3799  2.3792  0.8199
  429MPD2     N 6457   4.708   2.334   0.007  0.0971 -0.0625  0.0130
  429MPD2    H5 6458   0.043   2.267  17.729  1.0430  1.8914 -2.6865
  429MPD2    N1 6459   4.515   1.927   0.158  0.3129  0.1242  0.5659
  429MPD2    H7 6460   4.602   1.882   0.131  0.7294  0.5941  1.1115
  430TMC3    C1 6461   0.090   2.510  17.644  0.4848  0.3688  0.9379
  430TMC3    C2 6462   0.096   2.637  17.591 -0.1917 -0.1575  0.5646
  430TMC3    C3 6463   0.204   2.671  17.515 -0.1558  0.5033 -0.9875
  430TMC3    C4 6464   0.194   2.425  17.626 -0.4815  0.1855 -0.0786
  430TMC3    C5 6465   0.295   2.460  17.534  0.0174  0.1004 -0.2897
  430TMC3    C6 6466   0.309   2.589  17.490 -0.4642  0.5145  0.3588
  430TMC3     C 6467   4.705   2.468  17.719  0.3894 -0.2737  0.4025
  430TMC3     O 6468   4.614   2.544  17.716  0.0416 -0.2374 -0.2590
  430TMC3     H 6469   0.012   2.703  17.611 -0.9601 -0.4440 -1.7936
  430TMC3    H1 6470   0.208   2.326  17.668  1.6534  0.7888  0.6507
  430TMC3    H2 6471   0.377   2.610  17.408 -0.0928 -1.2954  0.2047
  430TMC3    C7 6472   0.303   2.358  17.428  0.1641  0.1564 -0.2216
  430TMC3    C8 6473   0.154   2.727  17.388  0.3746 -0.9685  0.5244
  430TMC3    O1 6474   0.326   2.246  17.466  0.1668 -0.1125  0.3040
  430TMC3    O2 6475   0.043   2.686  17.361  0.7088  0.2032 -0.1439
  431MPD2     C 6476   0.766   3.568  12.420  0.0021 -0.2651  0.9835
  431MPD2    C1 6477   0.839   3.478  12.494  0.3362  0.6629  0.9480
  431MPD2    C2 6478   0.783   3.358  12.531  0.4764  0.0288 -0.5130
  431MPD2    C3 6479   0.657   3.331  12.499  0.2679 -0.1348  0.0340
  431MPD2    C4 6480   0.585   3.428  12.424  0.3335 -0.0263 -0.0244
  431MPD2    C5 6481   0.638   3.548  12.387  0.0421  0.1108 -0.1994
  431MPD2     H 6482   0.843   3.281  12.579 -0.7455  0.6356  1.9971
  431MPD2    H1 6483   0.483   3.403  12.398 -0.3363  1.5453  1.0799
  431MPD2    H2 6484   0.819   3.657  12.389 -2.4301  0.0970 -2.1112
  431MPD2    H3 6485   0.587   3.623  12.328  1.4234  2.4606  1.5947
  431MPD2     N 6486   0.611   3.200  12.517 -0.1120  0.7500 -0.2841
  431MPD2    H5 6487   0.658   3.140  12.584  1.2965  0.2071 -1.7714
  431MPD2    N1 6488   0.971   3.494  12.525  0.4146  0.1333 -0.0157
  431MPD2    H7 6489   1.012   3.425  12.588 -2.0377 -1.4273 -0.1574
  432TMC3    C1 6490   0.478   3.016  12.488 -0.1508  0.0413 -0.4374
  432TMC3    C2 6491   0.458   2.947  12.366  0.4312  0.3468  0.0422
  432TMC3    C3 6492   0.515   2.822  12.357 -0.2718  0.7428  0.1940
  432TMC3    C4 6493   0.533   2.952  12.597  0.3446 -0.3913 -0.7868
  432TMC3    C5 6494   0.555   2.820  12.586  0.0402  0.1199  0.3808
  432TMC3    C6 6495   0.562   2.757  12.463 -0.3087 -1.3947  0.2094
  432TMC3     C 6496   0.486   3.156  12.478  1.2955 -0.2710 -0.0857
  432TMC3     O 6497   0.406   3.199  12.396 -0.4025  0.4992 -0.0452
  432TMC3     H 6498   0.440   3.014  12.282 -1.6113  0.0358  0.2253
  432TMC3    H1 6499   0.550   3.008  12.688 -1.3927 -0.9853 -0.1055
  432TMC3    H2 6500   0.587   2.652  12.450  2.8062 -1.0532  3.2752
  432TMC3    C7 6501   0.640   2.755  12.684  0.4983 -0.3716 -0.4538
  432TMC3    C8 6502   0.612   2.824  12.242  0.1146 -0.4806  0.0991
  432TMC3    O1 6503   0.745   2.703  12.650 -0.0516 -0.5304 -0.6512
  432TMC3    O2 6504   0.581   2.882  12.144  0.5814  0.4343 -0.2045
  433MPD2     C 6505   4.241   1.304  10.879 -0.0842  0.1508 -0.2826
  433MPD2    C1 6506   4.360   1.357  10.905  0.1644 -0.6886 -0.8239
  433MPD2    C2 6507   4.383   1.414  11.030 -0.3686  0.2257  0.4260
  433MPD2    C3 6508   4.284   1.408  11.127 -0.4932  0.4492  0.5366
  433MPD2    C4 6509   4.154   1.373  11.093 -0.5882 -0.7509  0.3916
  433MPD2    C5 6510   4.138   1.317  10.968 -0.1920 -0.2204 -0.8747
  433MPD2     H 6511   4.476   1.462  11.057  0.5863 -1.6318  0.4544
  433MPD2    H1 6512   4.065   1.360  11.153 -0.3047 -1.7786  0.5989
  433MPD2    H2 6513   4.218   1.248  10.789 -1.5414  0.9681 -0.4296
  433MPD2    H3 6514   4.039   1.275  10.953 -1.4545  2.9918 -1.6546
  433MPD2     N 6515   4.317   1.446  11.255  0.5540  0.4443  0.2431
  433MPD2    H5 6516   4.406   1.495  11.251  0.3408  0.7607 -0.8730
  433MPD2    N1 6517   4.462   1.332  10.807 -0.4913  0.4714 -0.0870
  433MPD2    H7 6518   4.425   1.297  10.719 -0.0839 -2.0198  0.7335
  434TMC3    C1 6519   4.680   1.270  10.737 -0.2821 -0.5576  0.3544
  434TMC3    C2 6520   0.034   1.216  10.829 -0.3729 -0.5567 -0.1682
  434TMC3    C3 6521   0.043   1.082  10.838  0.3663  0.1683  0.6493
  434TMC3    C4 6522   4.616   1.196  10.645  0.5427 -0.6876 -0.4785
  434TMC3    C5 6523   4.643   1.060  10.647 -0.0581  0.1131  0.0332
  434TMC3    C6 6524   4.717   1.001  10.746 -0.3162 -0.4864  0.4737
  434TMC3     C 6525   4.598   1.361  10.812 -0.2204  0.0532 -1.1906
  434TMC3     O 6526   4.657   1.410  10.905 -0.5985 -0.2473 -0.3360
  434TMC3     H 6527   0.104   1.278  10.884 -1.1654 -1.7288  2.1669
  434TMC3    H1 6528   4.548   1.234  10.569  0.7290  0.5879  0.0078
  434TMC3    H2 6529   0.004   0.895  10.742 -1.1132 -0.6094 -1.1113
  434TMC3    C7 6530   4.541   0.967  10.591  0.3662 -0.6709 -0.1417
  434TMC3    C8 6531   0.150   1.026  10.925  0.6507  0.9566 -0.0895
  434TMC3    O1 6532   4.493   0.993  10.481 -0.2218  0.6473  0.0546
  434TMC3    O2 6533   0.229   1.112  10.960 -0.3418 -0.4022  0.0576
  435MPD2     C 6534   1.935   1.335  15.546 -0.6240  0.6247 -0.2251
  435MPD2    C1 6535   1.917   1.351  15.680 -0.2541  0.3837  0.1152
  435MPD2    C2 6536   1.972   1.263  15.763  0.1495  0.3682 -0.6587
  435MPD2    C3 6537   2.059   1.164  15.720 -0.0285  0.6311  0.6958
  435MPD2    C4 6538   2.094   1.160  15.589  0.2147  0.0824 -0.2434
  435MPD2    C5 6539   2.026   1.243  15.505  0.0075 -0.7286 -0.0339
  435MPD2     H 6540   1.950   1.268  15.869 -0.7319  0.3819 -0.8386
  435MPD2    H1 6541   2.161   1.086  15.545 -0.3191 -0.3388 -0.3560
  435MPD2    H2 6542   1.903   1.403  15.467 -0.0499  0.2983 -0.7409
  435MPD2    H3 6543   2.052   1.233  15.400  2.3799 -1.9982  0.6787
  435MPD2     N 6544   2.100   1.078  15.820  0.4621 -0.0691 -0.1788
  435MPD2    H5 6545   2.074   1.086  15.917  0.6417  1.0909 -0.2251
  435MPD2    N1 6546   1.830   1.435  15.750  0.0888 -0.2064 -0.0610
  435MPD2    H7 6547   1.817   1.409  15.847 -1.0231  3.2738  0.7268
  436TMC3    C1 6548   1.580   1.648  15.992  0.2136  0.0325 -0.4849
  436TMC3    C2 6549   1.671   1.583  15.912 -0.1210  0.1807 -0.2961
  436TMC3    C3 6550   1.664   1.604  15.778  0.0585 -0.2363  0.2194
  436TMC3    C4 6551   1.472   1.721  15.939  0.1198 -0.2397  0.2249
  436TMC3    C5 6552   1.460   1.726  15.807 -0.4459 -0.2770 -0.2525
  436TMC3    C6 6553   1.560   1.676  15.723 -0.4891 -0.5633  0.3905
  436TMC3     C 6554   1.631   1.673  16.127 -0.6349 -0.3873  0.1632
  436TMC3     O 6555   1.751   1.667  16.147  0.2134  0.0268  0.0195
  436TMC3     H 6556   1.760   1.546  15.961  0.4072  1.6343 -0.1424
  436TMC3    H1 6557   1.409   1.784  16.002  0.2633  0.1379 -0.0054
  436TMC3    H2 6558   1.551   1.694  15.616 -0.2202  0.6013  0.5679
  436TMC3    C7 6559   1.350   1.810  15.755  0.4587 -0.0541  0.1365
  436TMC3    C8 6560   1.758   1.538  15.688  1.2038  0.9504  0.0113
  436TMC3    O1 6561   1.363   1.880  15.658 -0.5437  0.7368  0.0079
  436TMC3    O2 6562   1.767   1.577  15.573 -0.2055 -0.0044 -0.0071
  437TMC3    C1 6563   0.214   3.133  13.308  0.4575 -0.2672 -0.2904
  437TMC3    C2 6564   0.083   3.142  13.363 -0.1572  0.6423 -0.5491
  437TMC3    C3 6565   4.736   3.227  13.290 -0.2852 -0.5028  0.8940
  437TMC3    C4 6566   0.250   3.220  13.205  0.2179  0.4364  0.2255
  437TMC3    C5 6567   0.166   3.298  13.146 -0.3774  0.2069 -0.5556
  437TMC3    C6 6568   0.040   3.312  13.196  0.0921 -0.0194 -0.7806
  437TMC3     C 6569   0.319   3.099  13.400 -0.0808 -0.0065  0.5437
  437TMC3     O 6570   0.435   3.108  13.360  0.1677 -0.1411  1.0516
  437TMC3     H 6571   0.052   3.100  13.458 -2.9824 -0.5947 -2.0319
  437TMC3    H1 6572   0.349   3.212  13.163 -0.5221  1.2479 -1.6728
  437TMC3    H2 6573   4.704   3.385  13.161  0.4272  0.1572 -1.1234
  437TMC3    C7 6574   0.206   3.387  13.038 -0.1367 -0.9371  0.1220
  437TMC3    C8 6575   4.613   3.263  13.357  0.4707 -0.9640 -0.8302
  437TMC3    O1 6576   0.119   3.426  12.964  0.1519 -0.2170  0.5786
  437TMC3    O2 6577   4.609   3.377  13.399 -0.6942  0.6438 -0.1090
  438MPD2     C 6578   2.547   3.889  16.951 -0.5174  0.2081 -0.7771
  438MPD2    C1 6579   2.657   3.815  16.993 -0.1480  0.2078 -0.1355
  438MPD2    C2 6580   2.680   3.800  17.124  0.6188 -0.0319  0.5652
  438MPD2    C3 6581   2.584   3.841  17.219 -0.3567 -0.4949  0.2866
  438MPD2    C4 6582   2.469   3.900  17.176  0.5055  0.5176  0.2891
  438MPD2    C5 6583   2.448   3.922  17.043 -0.1966 -0.4624 -0.0172
  438MPD2     H 6584   2.769   3.743  17.146 -0.5348 -1.4068  1.6943
  438MPD2    H1 6585   2.399   3.942  17.246  0.1900 -2.2142  1.5924
  438MPD2    H2 6586   2.516   3.911  16.850 -0.4789 -0.3929 -0.9153
  438MPD2    H3 6587   2.355   3.962  17.002 -0.8272 -2.4878 -0.5371
  438MPD2     N 6588   2.594   3.821  17.358  0.7480 -0.1581  0.3688
  438MPD2    H5 6589   2.516   3.858  17.412 -0.1917 -0.0154 -1.1101
  438MPD2    N1 6590   2.753   3.763  16.909  0.0879  0.4178 -0.7295
  438MPD2    H7 6591   2.823   3.703  16.951 -1.7896 -0.5144  1.0882
  439TMC3    C1 6592   2.855   3.688  16.707  0.3204  0.1822 -0.0994
  439TMC3    C2 6593   2.860   3.708  16.572  0.7162 -0.0782  0.1109
  439TMC3    C3 6594   2.956   3.632  16.498 -0.0757  0.0912  0.2337
  439TMC3    C4 6595   2.937   3.598  16.771 -0.5233  0.2712  0.1934
  439TMC3    C5 6596   3.038   3.541  16.702 -0.8146  0.0469 -0.0185
  439TMC3    C6 6597   3.049   3.554  16.566 -0.2872  0.5334 -0.1951
  439TMC3     C 6598   2.760   3.779  16.777  0.3469  0.3614  0.2009
  439TMC3     O 6599   2.688   3.842  16.699 -0.2304  0.2739  0.3580
  439TMC3     H 6600   2.790   3.775  16.524  1.2267  0.5175  0.1975
  439TMC3    H1 6601   2.933   3.573  16.877  1.7771 -1.9426 -0.2319
  439TMC3    H2 6602   3.130   3.515  16.506  0.6738 -0.2422  1.5936
  439TMC3    C7 6603   3.139   3.440  16.758  0.1581 -0.0081 -0.1775
  439TMC3    C8 6604   2.981   3.682  16.367 -0.1828 -0.1720  0.7192
  439TMC3    O1 6605   3.214   3.397  16.670  0.6870 -0.0501 -0.8690
  439TMC3    O2 6606   2.952   3.799  16.335 -0.3996  0.1586  0.1213
  440MPD2     C 6607   1.602   4.224  15.435  0.9297 -0.2914 -0.2339
  440MPD2    C1 6608   1.706   4.314  15.468  0.5496  0.7519 -0.5333
  440MPD2    C2 6609   1.838   4.274  15.452 -0.2090 -0.7561 -0.6610
  440MPD2    C3 6610   1.871   4.151  15.396 -0.4899  0.2979 -0.1837
  440MPD2    C4 6611   1.767   4.062  15.356 -0.0722  0.2858 -0.0107
  440MPD2    C5 6612   1.633   4.099  15.379  0.1821 -0.3429 -0.4375
  440MPD2     H 6613   1.920   4.343  15.470  1.0324 -2.4287  0.1650
  440MPD2    H1 6614   1.795   3.961  15.326 -1.0604 -0.4270  1.4545
  440MPD2    H2 6615   1.502   4.261  15.453  0.5641 -2.1542  1.5696
  440MPD2    H3 6616   1.554   4.032  15.349  0.5035  0.0481 -2.1100
  440MPD2     N 6617   2.004   4.106  15.386  0.4223  0.4277 -0.6457
  440MPD2    H5 6618   2.026   4.009  15.362 -1.3835 -0.0823 -0.2778
  440MPD2    N1 6619   1.695   4.449  15.508  0.1836 -0.1194 -0.1269
  440MPD2    H7 6620   1.780   4.504  15.516 -0.0587  0.0595  1.1783
  441TMC3    C1 6621   2.227   4.110  15.444 -0.7078  0.3632 -0.0707
  441TMC3    C2 6622   2.335   4.196  15.455  0.1026 -0.6474 -1.0318
  441TMC3    C3 6623   2.403   4.197  15.572 -0.7561  0.7219 -0.6444
  441TMC3    C4 6624   2.202   4.016  15.540 -0.7882  0.6359  0.3187
  441TMC3    C5 6625   2.279   4.007  15.652  0.7797 -0.0964  0.0242
  441TMC3    C6 6626   2.378   4.102  15.672  0.5928  0.6672 -0.2605
  441TMC3     C 6627   2.110   4.185  15.406 -0.1281  0.4744 -0.0363
  441TMC3     O 6628   2.134   4.309  15.401 -0.2744 -0.2794  0.1260
  441TMC3     H 6629   2.357   4.264  15.372  1.5825  0.7419  0.4971
  441TMC3    H1 6630   2.116   3.951  15.533 -1.4460  1.8231 -2.8751
  441TMC3    H2 6631   2.437   4.110  15.763 -0.1578  1.4290  0.1690
  441TMC3    C7 6632   2.252   3.897  15.738 -0.2926 -0.1801 -0.2418
  441TMC3    C8 6633   2.453   4.334  15.606  0.0185 -0.7063 -0.7659
  441TMC3    O1 6634   2.157   3.830  15.695  0.3003 -0.0430  0.0879
  441TMC3    O2 6635   2.542   4.349  15.688 -0.5526  0.0357  0.3125
  442MPD2     C 6636   0.140   0.079  16.416  0.5709  0.1717 -0.3386
  442MPD2    C1 6637   0.062   4.717  16.473 -0.3994  0.1871  0.3489
  442MPD2    C2 6638   0.053   4.594  16.403 -0.0008  0.3181 -0.5477
  442MPD2    C3 6639   0.131   4.565  16.290 -0.2196 -0.5417 -0.2466
  442MPD2    C4 6640   0.209   4.669  16.238 -0.2761  0.3655  0.4620
  442MPD2    C5 6641   0.211   0.056  16.302 -0.2519 -0.2030 -0.0904
  442MPD2     H 6642   4.720   4.517  16.433 -3.1434  2.9978 -0.9267
  442MPD2    H1 6643   0.282   4.650  16.160 -0.1867  0.1678  0.5913
  442MPD2    H2 6644   0.167   0.175  16.460  0.3747  0.8328 -1.6517
  442MPD2    H3 6645   0.285   0.129  16.270  0.3522 -0.9523 -0.4252
  442MPD2     N 6646   0.131   4.437  16.235 -0.1491 -0.1103 -0.1436
  442MPD2    H5 6647   0.202   4.422  16.164  0.5832 -0.5293  0.6777
  442MPD2    N1 6648   4.718   4.735  16.584 -0.0244  0.3467 -0.5936
  442MPD2    H7 6649   4.668   4.650  16.606 -0.6352  0.0782 -3.0827
  443TMC3    C1 6650   4.601   0.110  16.763  1.1927  0.4159  0.1667
  443TMC3    C2 6651   4.531   0.229  16.781 -0.9307 -0.8786 -0.1602
  443TMC3    C3 6652   4.428   0.229  16.870 -0.1927 -0.1683 -0.3091
  443TMC3    C4 6653   4.590   4.736  16.842 -0.0847 -0.5184  0.7680
  443TMC3    C5 6654   4.502   0.013  16.946 -0.0617  0.2406 -0.3340
  443TMC3    C6 6655   4.423   0.125  16.961 -0.5109  0.1461 -0.7753
  443TMC3     C 6656   4.694   0.114  16.653  0.0411  0.1480 -0.2005
  443TMC3     O 6657   0.005   0.224  16.620  0.0704  0.7471  0.3852
  443TMC3     H 6658   4.539   0.313  16.713 -0.8751 -1.7195 -1.1759
  443TMC3    H1 6659   4.651   4.647  16.830 -0.5640 -0.7581  0.0859
  443TMC3    H2 6660   4.349   0.135  17.040 -0.2607 -0.8919 -0.4022
  443TMC3    C7 6661   4.461   4.626  17.021 -0.4530  0.0408  0.2437
  443TMC3    C8 6662   4.330   0.338  16.865  0.6030 -0.4843  0.2219
  443TMC3    O1 6663   4.517   4.525  16.992  0.0736  0.2131 -0.0978
  443TMC3    O2 6664   4.368   0.456  16.865 -0.2901  0.1279 -0.1963
  444MPD2     C 6665   0.144   4.029  16.833 -0.0532  1.0135  0.0481
  444MPD2    C1 6666   0.119   3.908  16.880  0.1316 -0.2592 -0.2963
  444MPD2    C2 6667   0.199   3.796  16.850 -0.5202  0.1333  0.6624
  444MPD2    C3 6668   0.320   3.820  16.787 -0.3000 -0.3175 -0.4090
  444MPD2    C4 6669   0.351   3.943  16.737 -0.8976  0.3919  0.1714
  444MPD2    C5 6670   0.263   4.050  16.764 -0.1939 -0.6041 -0.8028
  444MPD2     H 6671   0.180   3.700  16.897  0.2304  0.2915  1.3049
  444MPD2    H1 6672   0.443   3.963  16.684  0.5309 -2.5890  1.5062
  444MPD2    H2 6673   0.074   4.110  16.847 -3.5533 -2.0778  0.4868
  444MPD2    H3 6674   0.288   4.149  16.729 -1.6241  0.2556  0.6265
  444MPD2     N 6675   0.410   3.711  16.780  0.0932  0.6587  0.3367
  444MPD2    H5 6676   0.367   3.624  16.808 -0.7924  1.6458  2.0073
  444MPD2    N1 6677   4.735   3.886  16.958  0.5371  0.2873 -0.1988
  444MPD2    H7 6678   4.713   3.788  16.973 -2.3743  0.8913 -0.5879
  445TMC3    C1 6679   0.613   3.589  16.788  0.5696  0.1548 -0.6522
  445TMC3    C2 6680   0.557   3.501  16.875  0.4535  0.0729 -0.0123
  445TMC3    C3 6681   0.631   3.387  16.900  0.3531 -0.2535 -0.6602
  445TMC3    C4 6682   0.741   3.579  16.752 -0.4619 -0.8229 -0.3246
  445TMC3    C5 6683   0.814   3.475  16.795 -0.6148  0.5236 -0.3814
  445TMC3    C6 6684   0.758   3.367  16.848  0.4226  0.0641  0.2170
  445TMC3     C 6685   0.544   3.715  16.752  0.3725  0.1407  0.0343
  445TMC3     O 6686   0.610   3.797  16.692  0.6679 -0.2057 -0.4455
  445TMC3     H 6687   0.465   3.508  16.932  1.3136  2.7602  1.0290
  445TMC3    H1 6688   0.803   3.662  16.720 -1.0035 -0.2232  0.1852
  445TMC3    H2 6689   0.814   3.277  16.869 -1.8364 -0.7552  2.7435
  445TMC3    C7 6690   0.954   3.466  16.752  0.3086  0.8056 -0.0111
  445TMC3    C8 6691   0.610   3.309  17.019 -0.9009  0.3356 -0.7078
  445TMC3    O1 6692   0.981   3.541  16.659 -0.0798  0.0689  0.6939
  445TMC3    O2 6693   0.643   3.192  17.007 -0.1175  0.3659 -0.0179
  446MPD2     C 6694   4.625   0.671  11.351  0.4345 -0.4362 -0.2919
  446MPD2    C1 6695   4.549   0.769  11.293  0.1468 -0.5341 -0.4702
  446MPD2    C2 6696   4.601   0.893  11.272 -0.7988 -0.1759 -0.2308
  446MPD2    C3 6697   4.729   0.914  11.319  0.2605  0.6962  0.2961
  446MPD2    C4 6698   0.065   0.817  11.388  0.2209 -0.6080 -0.5496
  446MPD2    C5 6699   0.015   0.697  11.401 -0.6334  0.5118  0.1773
  446MPD2     H 6700   4.542   0.974  11.231  0.8147  1.4273  0.6249
  446MPD2    H1 6701   0.167   0.834  11.421  0.1890 -1.9066  0.2029
  446MPD2    H2 6702   4.583   0.571  11.358  1.4934 -0.8571  0.0754
  446MPD2    H3 6703   0.082   0.621  11.440  0.7326  2.7094  2.1148
  446MPD2     N 6704   0.064   1.039  11.308  0.1142  0.0104 -0.4514
  446MPD2    H5 6705   0.153   1.038  11.356 -0.1031  0.8000 -0.0316
  446MPD2    N1 6706   4.422   0.749  11.243 -0.3749  0.1032 -0.7189
  446MPD2    H7 6707   4.375   0.830  11.205 -2.2296 -0.5836  0.1064
  447TMC3    C1 6708   0.115   1.250  11.213  0.0052  0.0466  0.0673
  447TMC3    C2 6709   0.072   1.376  11.175  0.4977 -0.3715  0.1263
  447TMC3    C3 6710   0.170   1.473  11.167  0.6549 -0.0954  0.0765
  447TMC3    C4 6711   0.245   1.224  11.241 -0.0055 -0.7917  0.3315
  447TMC3    C5 6712   0.340   1.325  11.236 -0.0939 -0.1855 -0.6523
  447TMC3    C6 6713   0.304   1.456  11.198  0.2541 -0.1280 -0.1139
  447TMC3     C 6714   0.017   1.149  11.245 -0.0461  0.4278  0.2756
  447TMC3     O 6715   4.639   1.176  11.205  0.0662 -0.0376 -0.3619
  447TMC3     H 6716   4.704   1.398  11.163  0.6493  0.9960  1.2583
  447TMC3    H1 6717   0.281   1.126  11.272  1.8261  0.1101  1.0309
  447TMC3    H2 6718   0.374   1.538  11.186  2.3604 -1.5923  1.9574
  447TMC3    C7 6719   0.482   1.284  11.244  0.9066  0.1867  0.0745
  447TMC3    C8 6720   0.122   1.610  11.154 -0.4048  0.7535 -0.2239
  447TMC3    O1 6721   0.515   1.164  11.224  0.4527  0.3315  0.5474
  447TMC3    O2 6722   0.184   1.692  11.221 -0.5165  0.4213 -0.2998
  448TMC3    C1 6723   2.613   0.057  17.365  0.3025 -0.7295  0.1240
  448TMC3    C2 6724   2.657   0.019  17.236 -1.1382  0.8694  1.2554
  448TMC3    C3 6725   2.708   4.629  17.219 -0.2256  0.2815 -0.6667
  448TMC3    C4 6726   2.638   4.710  17.466 -0.2145  0.3823  0.3098
  448TMC3    C5 6727   2.681   4.592  17.444 -0.1087  0.5484  0.3441
  448TMC3    C6 6728   2.707   4.541  17.320 -0.2968  0.1605 -0.9810
  448TMC3     C 6729   2.576   0.194  17.385  0.3031  0.2317 -0.2499
  448TMC3     O 6730   2.596   0.246  17.497 -0.5013 -0.1102  0.4438
  448TMC3     H 6731   2.663   0.097  17.161  1.0145 -0.3802  0.1189
  448TMC3    H1 6732   2.610   0.010  17.565 -1.1045  1.1947 -0.2369
  448TMC3    H2 6733   2.750   4.444  17.303  1.6626  1.4635 -3.3905
  448TMC3    C7 6734   2.702   4.507  17.566 -0.2459  0.5176  0.0600
  448TMC3    C8 6735   2.742   4.568  17.099  0.3950 -0.2890  0.0590
  448TMC3    O1 6736   2.677   4.553  17.675 -0.0439 -0.0688  0.3188
  448TMC3    O2 6737   2.807   4.462  17.098 -0.2770 -0.1829 -0.0721
  449MPD2     C 6738   4.257   3.800  14.331 -0.1226  0.9958  0.2262
  449MPD2    C1 6739   4.184   3.901  14.274 -0.4500  0.2509 -0.0646
  449MPD2    C2 6740   4.054   3.898  14.293  0.2332 -0.6213 -0.3119
  449MPD2    C3 6741   3.986   3.798  14.365  0.5163  0.5184  0.3767
  449MPD2    C4 6742   4.060   3.698  14.423  0.7350  0.6622  0.3147
  449MPD2    C5 6743   4.195   3.702  14.400 -0.0979  0.0083 -0.1233
  449MPD2     H 6744   4.001   3.980  14.246  0.9167 -1.6871 -2.9287
  449MPD2    H1 6745   4.008   3.619  14.477 -0.0090  0.2336 -1.0370
  449MPD2    H2 6746   4.363   3.783  14.316 -0.2613  0.0335  0.3281
  449MPD2    H3 6747   4.259   3.624  14.440  1.2184  0.7635 -0.7804
  449MPD2     N 6748   3.847   3.789  14.360 -0.7558 -0.3009  0.1158
  449MPD2    H5 6749   3.805   3.868  14.312 -0.4411  0.0656  0.4441
  449MPD2    N1 6750   4.242   4.005  14.193 -0.6990  0.2781  0.3314
  449MPD2    H7 6751   4.180   4.082  14.170  0.4202  0.4035 -2.2705
  450TMC3    C1 6752   4.380   4.135  14.063 -0.0221 -0.3616  0.3069
  450TMC3    C2 6753   4.405   4.110  13.928  0.2028  0.2175 -0.0229
  450TMC3    C3 6754   4.343   4.194  13.834 -0.7993  0.5712 -0.1892
  450TMC3    C4 6755   4.294   4.235  14.106 -0.2862  0.5043  0.1067
  450TMC3    C5 6756   4.217   4.292  14.010  0.3782 -0.8313  0.6945
  450TMC3    C6 6757   4.246   4.280  13.877  0.0412 -0.1774  0.4048
  450TMC3     C 6758   4.365   4.010  14.136 -0.4884 -0.1120 -0.4960
  450TMC3     O 6759   4.460   3.933  14.148 -0.3691  0.2127 -0.1529
  450TMC3     H 6760   4.459   4.019  13.906  1.8790  0.1495  4.2984
  450TMC3    H1 6761   4.279   4.253  14.212  0.0681  0.7633  0.1131
  450TMC3    H2 6762   4.176   4.317  13.804  0.0540 -1.0800 -0.0595
  450TMC3    C7 6763   4.076   4.291  14.047 -0.4390  0.0235  0.1648
  450TMC3    C8 6764   4.353   4.170  13.686 -0.8164  0.0552  0.0292
  450TMC3    O1 6765   4.047   4.221  14.146  0.0323  0.3551  0.1308
  450TMC3    O2 6766   4.293   4.250  13.620 -0.3077  0.6566 -0.1946
  451MPD2     C 6767   0.933   1.560   1.592 -0.3368 -0.0153 -0.6265
  451MPD2    C1 6768   0.989   1.567   1.470 -0.2514 -0.6715  1.0647
  451MPD2    C2 6769   1.101   1.483   1.436 -0.1171 -0.3944 -0.1285
  451MPD2    C3 6770   1.161   1.402   1.537  0.1118  0.0534 -0.0286
  451MPD2    C4 6771   1.107   1.400   1.663 -0.1628  0.1716 -0.4683
  451MPD2    C5 6772   0.991   1.469   1.688  0.2872 -0.4634 -0.3443
  451MPD2     H 6773   1.151   1.502   1.341 -1.8049 -0.5354 -1.0443
  451MPD2    H1 6774   1.151   1.336   1.739  1.4672  1.5694 -0.2169
  451MPD2    H2 6775   0.844   1.613   1.624 -0.5153  0.1733 -1.4387
  451MPD2    H3 6776   0.948   1.459   1.787  1.2857  0.9297  0.2399
  451MPD2     N 6777   1.276   1.325   1.513  0.1800 -0.0831 -0.2027
  451MPD2    H5 6778   1.293   1.255   1.585  1.0941  1.8372  1.4434
  451MPD2    N1 6779   0.944   1.669   1.387  0.0330  0.3458 -0.1027
  451MPD2    H7 6780   0.884   1.744   1.419  2.2845  2.0343  0.1243
  452TMC3    C1 6781   1.457   1.224   1.414 -0.1398 -0.3287  0.3511
  452TMC3    C2 6782   1.396   1.101   1.417  0.0940 -0.7874 -0.0008
  452TMC3    C3 6783   1.434   1.004   1.330  0.6303 -0.4356  0.8352
  452TMC3    C4 6784   1.548   1.251   1.316 -1.4166 -0.2956 -0.4692
  452TMC3    C5 6785   1.590   1.152   1.230 -0.5526 -0.6065  1.5388
  452TMC3    C6 6786   1.534   1.027   1.242  0.6330  0.3435  0.1424
  452TMC3     C 6787   1.358   1.327   1.404 -0.8679  0.2015  0.3428
  452TMC3     O 6788   1.348   1.402   1.304  0.0013 -0.0774 -0.2226
  452TMC3     H 6789   1.299   1.082   1.461  0.0102  0.4469  0.3516
  452TMC3    H1 6790   1.570   1.355   1.293  3.4980 -1.0249  0.9558
  452TMC3    H2 6791   1.568   0.950   1.173 -2.2146  1.6462 -2.7185
  452TMC3    C7 6792   1.617   1.208   1.096  0.1236  1.0267 -1.0656
  452TMC3    C8 6793   1.323   0.958   1.243 -0.4237  0.0263 -1.0767
  452TMC3    O1 6794   1.639   1.329   1.089 -0.2901  0.3558  0.2120
  452TMC3    O2 6795   1.214   1.018   1.233 -0.5982 -0.0155 -0.3098
  453TMC3    C1 6796   1.764   0.122  12.286  0.0189 -0.4173 -0.4111
  453TMC3    C2 6797   1.673   0.049  12.348  0.2571 -0.4273 -0.2448
  453TMC3    C3 6798   1.559   4.736  12.284  0.3700  0.1292  0.7562
  453TMC3    C4 6799   1.740   0.150  12.152 -0.6550  0.6554 -0.6678
  453TMC3    C5 6800   1.642   0.090  12.089  0.0828 -0.0521 -0.0386
  453TMC3    C6 6801   1.547   0.013  12.146  0.7113 -0.3103 -0.1889
  453TMC3     C 6802   1.888   0.162  12.349  0.1629 -0.5680  0.7236
  453TMC3     O 6803   1.945   0.254  12.292  0.3207  0.5603  0.1104
  453TMC3     H 6804   1.681   0.018  12.452  1.7776  0.1817 -0.1886
  453TMC3    H1 6805   1.811   0.217  12.105  0.2514  0.5289  0.5017
  453TMC3    H2 6806   1.468   4.699  12.092 -0.4287  0.9168  0.3469
  453TMC3    C7 6807   1.646   0.091  11.950 -1.0319 -0.3945  0.0237
  453TMC3    C8 6808   1.504   4.621  12.338 -0.5058 -0.4300  0.3379
  453TMC3    O1 6809   1.598   4.726  11.902  0.2394  0.0096  0.0220
  453TMC3    O2 6810   1.397   4.628  12.394 -0.3957 -0.1688  0.4843
  454MPD2     C 6811   1.266   3.860  16.551 -0.1359 -0.2560  0.1283
  454MPD2    C1 6812   1.143   3.874  16.484  0.2355  0.2019  0.2029
  454MPD2    C2 6813   1.079   3.991  16.490  0.1266 -0.2049  0.2257
  454MPD2    C3 6814   1.130   4.097  16.558  0.4793  0.3690 -0.6204
  454MPD2    C4 6815   1.249   4.083  16.637  0.8626  0.6056 -0.6480
  454MPD2    C5 6816   1.311   3.961  16.627 -0.8809  0.2767 -0.5550
  454MPD2     H 6817   0.980   4.014  16.451 -0.3788 -1.8598  0.5418
  454MPD2    H1 6818   1.295   4.167  16.688  0.9532  0.0390  0.2153
  454MPD2    H2 6819   1.324   3.769  16.540  0.6673  0.2766 -0.0879
  454MPD2    H3 6820   1.406   3.948  16.676 -1.0043 -1.6793 -0.8405
  454MPD2     N 6821   1.054   4.219  16.563 -0.5281 -0.0359  0.9826
  454MPD2    H5 6822   1.056   4.283  16.642  1.4081  1.4285 -0.2411
  454MPD2    N1 6823   1.081   3.781  16.403  0.0332 -0.6636 -0.1395
  454MPD2    H7 6824   0.991   3.806  16.363 -0.6194 -1.8592  0.5867
  455TMC3    C1 6825   0.866   4.343  16.508  0.4121  0.0723  0.9638
  455TMC3    C2 6826   0.859   4.344  16.645  0.5137  0.1130 -0.4497
  455TMC3    C3 6827   0.748   4.285  16.703  0.3367  0.3294 -0.3429
  455TMC3    C4 6828   0.762   4.302  16.430  0.1115 -0.2798  0.4692
  455TMC3    C5 6829   0.652   4.248  16.490  0.0907 -0.3386 -0.1695
  455TMC3    C6 6830   0.642   4.230  16.626  0.4840 -0.3712 -0.4968
  455TMC3     C 6831   0.987   4.274  16.461 -0.2964 -0.2716 -0.2108
  455TMC3     O 6832   0.990   4.251  16.340  0.5001  0.1348 -0.1782
  455TMC3     H 6833   0.938   4.376  16.711 -0.4740  0.9577  0.3090
  455TMC3    H1 6834   0.763   4.301  16.321 -2.1308 -3.4912  0.4832
  455TMC3    H2 6835   0.554   4.191  16.676  0.9575 -2.0060 -0.9596
  455TMC3    C7 6836   0.583   4.147  16.422 -0.7508 -0.4636 -0.0711
  455TMC3    C8 6837   0.747   4.280  16.845 -0.3982  0.2817  0.5529
  455TMC3    O1 6838   0.651   4.069  16.352 -0.0543  0.0228 -0.0577
  455TMC3    O2 6839   0.748   4.388  16.901 -0.3121 -0.1328 -0.1352
  456MPD2     C 6840   3.257   4.086  15.813  0.5734 -0.3958  0.2904
  456MPD2    C1 6841   3.362   4.040  15.890 -0.1861 -0.1123 -0.2663
  456MPD2    C2 6842   3.338   4.049  16.026  0.3405  0.1773 -0.3279
  456MPD2    C3 6843   3.208   4.080  16.076 -0.2925 -0.4157 -0.1735
  456MPD2    C4 6844   3.100   4.103  15.992 -0.2748 -0.1582 -0.2431
  456MPD2    C5 6845   3.130   4.116  15.858 -0.0980 -0.0705 -0.3295
  456MPD2     H 6846   3.419   4.030  16.096 -1.4989 -2.2124  1.1812
  456MPD2    H1 6847   2.996   4.120  16.016 -0.1080 -0.4460  0.6897
  456MPD2    H2 6848   3.278   4.094  15.707 -0.8915  3.2131  0.2855
  456MPD2    H3 6849   3.053   4.142  15.786 -0.9354  0.1311  0.6428
  456MPD2     N 6850   3.189   4.064  16.219 -0.2713  0.7789 -0.5879
  456MPD2    H5 6851   3.269   4.037  16.277 -0.7523 -0.3722 -0.4627
  456MPD2    N1 6852   3.489   4.021  15.834  0.0270 -0.5592  0.6365
  456MPD2    H7 6853   3.559   4.008  15.906  2.3143  0.4025 -1.4096
  457TMC3    C1 6854   3.074   4.077  16.424  0.0790 -0.1247 -0.3478
  457TMC3    C2 6855   2.967   4.134  16.494 -0.1125 -0.5710  0.2939
  457TMC3    C3 6856   2.972   4.131  16.633  0.0373 -0.3385 -0.1819
  457TMC3    C4 6857   3.177   4.016  16.491  0.7512  0.1923 -0.1054
  457TMC3    C5 6858   3.174   4.008  16.630  0.5651 -0.0797  0.1203
  457TMC3    C6 6859   3.076   4.072  16.700  0.1678  0.1201  1.0952
  457TMC3     C 6860   3.076   4.103  16.284  0.1263 -0.2409  0.6303
  457TMC3     O 6861   2.983   4.167  16.237 -0.9170 -0.1805 -0.1559
  457TMC3     H 6862   2.879   4.177  16.449 -0.3096  0.1493  1.3703
  457TMC3    H1 6863   3.239   3.939  16.447 -0.3400 -0.2596 -0.8404
  457TMC3    H2 6864   3.093   4.085  16.806  0.6726 -1.9293  1.2722
  457TMC3    C7 6865   3.294   3.979  16.703 -0.0009 -0.4426 -0.2509
  457TMC3    C8 6866   2.909   4.240  16.709 -0.4287  0.6700  0.6711
  457TMC3    O1 6867   3.272   3.931  16.813 -0.5256  0.0726  0.5528
  457TMC3    O2 6868   2.909   4.232  16.829  0.0102  0.3212 -0.2044
  458MPD2     C 6869   0.578   3.615  12.753  0.0714 -0.3326 -0.0439
  458MPD2    C1 6870   0.627   3.556  12.865  0.4984 -0.0635 -0.0066
  458MPD2    C2 6871   0.544   3.501  12.959  0.8446  0.1574 -0.0346
  458MPD2    C3 6872   0.407   3.487  12.939 -0.1484  0.5277  0.2582
  458MPD2    C4 6873   0.353   3.550  12.827  0.1427 -0.0018 -0.2136
  458MPD2    C5 6874   0.439   3.605  12.733 -0.2435  0.3156 -0.3729
  458MPD2     H 6875   0.582   3.454  13.049  0.6863 -0.0322 -0.0693
  458MPD2    H1 6876   0.252   3.531  12.793 -0.4379  2.6323  0.0289
  458MPD2    H2 6877   0.647   3.653  12.679 -0.2942 -0.1990 -0.3139
  458MPD2    H3 6878   0.393   3.644  12.644 -0.5860 -1.4827 -0.9782
  458MPD2     N 6879   0.339   3.409  13.029  0.2055  0.2361  0.0384
  458MPD2    H5 6880   0.394   3.356  13.097  0.5130 -0.5389 -0.8164
  458MPD2    N1 6881   0.764   3.545  12.869  0.3084  0.3358 -0.3377
  458MPD2    H7 6882   0.815   3.615  12.814 -0.5705  1.4197  0.2385
  459TMC3    C1 6883   0.983   3.500  12.968 -0.6315 -0.2207 -0.2124
  459TMC3    C2 6884   1.025   3.622  12.927 -0.6876 -0.3074 -0.7296
  459TMC3    C3 6885   1.138   3.679  12.992 -0.2937 -0.0303  0.0611
  459TMC3    C4 6886   1.046   3.428  13.064  0.3090  0.4266  0.0624
  459TMC3    C5 6887   1.155   3.481  13.124  0.1108  0.1509  0.0436
  459TMC3    C6 6888   1.208   3.603  13.087 -0.0201  0.3808 -0.4060
  459TMC3     C 6889   0.839   3.471  12.958  1.1828  0.4751  0.4505
  459TMC3     O 6890   0.798   3.382  13.030  0.2405  0.5185 -0.0469
  459TMC3     H 6891   0.965   3.679  12.856  0.4799  1.2487 -0.4607
  459TMC3    H1 6892   1.031   3.321  13.076 -0.7028  0.4605 -0.9786
  459TMC3    H2 6893   1.303   3.634  13.130  0.3221 -0.6823 -0.4141
  459TMC3    C7 6894   1.202   3.414  13.247 -1.1294 -0.4182  0.0067
  459TMC3    C8 6895   1.194   3.809  12.959  0.1687  0.4142 -0.5209
  459TMC3    O1 6896   1.159   3.305  13.275 -0.5343 -0.3950 -0.1187
  459TMC3    O2 6897   1.283   3.849  13.026 -0.1398 -0.5025  0.3575
  460MPD2     C 6898   0.052   1.859  11.035 -0.0739 -1.0251  0.0305
  460MPD2    C1 6899   4.736   1.742  10.988 -0.0731  0.3825  0.9990
  460MPD2    C2 6900   4.665   1.750  10.869  0.1319  1.0057  0.2628
  460MPD2    C3 6901   4.648   1.872  10.795  0.1041 -0.2080  0.6502
  460MPD2    C4 6902   4.690   1.991  10.850  0.2856  0.0047 -0.5074
  460MPD2    C5 6903   0.032   1.979  10.966 -0.6184 -1.0621 -0.6160
  460MPD2     H 6904   4.626   1.665  10.814  2.1225  0.1336  0.2062
  460MPD2    H1 6905   4.691   2.088  10.800  5.5565 -0.2989 -0.9580
  460MPD2    H2 6906   0.116   1.865  11.123 -0.1110  0.7563 -0.0745
  460MPD2    H3 6907   0.088   2.068  10.994  0.5417 -1.9774 -0.0631
  460MPD2     N 6908   4.586   1.863  10.672  0.8421 -0.2922  0.3155
  460MPD2    H5 6909   4.553   1.772  10.640 -2.6419  2.2904 -3.6178
  460MPD2    N1 6910   0.031   1.620  11.052  0.3424  0.2270 -0.4735
  460MPD2    H7 6911   4.730   1.539  11.004 -0.8427  0.0592  0.7331
  461TMC3    C1 6912   4.503   1.937  10.459  0.3366 -0.0315  0.3747
  461TMC3    C2 6913   4.554   1.826  10.397  0.5660  0.1697  0.3513
  461TMC3    C3 6914   4.542   1.815  10.260  0.2720 -0.5448 -0.4913
  461TMC3    C4 6915   4.463   2.049  10.382  0.2409 -0.2998  0.1426
  461TMC3    C5 6916   4.467   2.044  10.247 -0.2054 -0.0094 -0.7433
  461TMC3    C6 6917   4.505   1.924  10.183 -0.5010 -0.3052 -0.1442
  461TMC3     C 6918   4.553   1.973  10.590 -0.5272 -0.6390 -0.3282
  461TMC3     O 6919   4.579   2.095  10.605 -0.3308  0.1406 -0.5688
  461TMC3     H 6920   4.607   1.748  10.450  0.5974  0.5954  0.9385
  461TMC3    H1 6921   4.427   2.136  10.436 -2.3346 -1.8984  0.9942
  461TMC3    H2 6922   4.505   1.905  10.077 -1.6022  1.2475 -0.4140
  461TMC3    C7 6923   4.477   2.171  10.176  0.5771 -0.0355  0.2817
  461TMC3    C8 6924   4.637   1.725  10.201 -0.7538  0.2125 -0.3360
  461TMC3    O1 6925   4.419   2.264  10.224 -0.2453  0.2151 -0.5846
  461TMC3    O2 6926   4.590   1.642  10.123  0.1464  0.8858 -0.6574
  462TMC3    C1 6927   0.323   1.472   0.955  0.4509  0.6568 -0.1668
  462TMC3    C2 6928   0.422   1.386   0.924 -0.0988 -0.1630 -0.0489
  462TMC3    C3 6929   0.428   1.326   0.804  0.2364 -0.5909 -0.2320
  462TMC3    C4 6930   0.230   1.497   0.863  0.7369  0.3030  0.3079
  462TMC3    C5 6931   0.234   1.437   0.741  0.6674 -0.1051  0.7520
  462TMC3    C6 6932   0.332   1.346   0.709  0.5656 -0.0720  0.4097
  462TMC3     C 6933   0.292   1.498   1.092 -0.0902  0.6040  0.1057
  462TMC3     O 6934   0.237   1.610   1.113  0.1885  0.4673 -0.4844
  462TMC3     H 6935   0.506   1.367   0.991 -0.7155  0.1207  0.7953
  462TMC3    H1 6936   0.149   1.556   0.904  1.8857  3.3184 -1.7037
  462TMC3    H2 6937   0.315   1.273   0.630 -0.6119  0.2230  0.3782
  462TMC3    C7 6938   0.100   1.405   0.685 -0.4665  0.7614 -0.8887
  462TMC3    C8 6939   0.540   1.233   0.781 -0.6489 -0.1004  0.3403
  462TMC3    O1 6940   0.078   1.290   0.646 -0.1152 -0.5193  0.1391
  462TMC3    O2 6941   0.611   1.199   0.875  0.0150  0.2705  0.0978
  463MPD2     C 6942   0.112   0.834   2.709  0.4194 -0.1229  0.3118
  463MPD2    C1 6943   0.241   0.793   2.682  0.0602 -0.2466  0.5840
  463MPD2    C2 6944   0.337   0.890   2.656  0.5728 -0.3779  0.2378
  463MPD2    C3 6945   0.297   1.022   2.665  0.3329 -0.5531  0.0698
  463MPD2    C4 6946   0.167   1.060   2.669  0.4455 -0.5418  0.1025
  463MPD2    C5 6947   0.074   0.962   2.702 -0.6754  0.0472 -0.4780
  463MPD2     H 6948   0.439   0.866   2.630 -0.1214 -2.3387 -0.7349
  463MPD2    H1 6949   0.136   1.164   2.660 -0.0152 -0.7598 -0.8010
  463MPD2    H2 6950   0.033   0.765   2.737  0.0677  0.0171 -0.3558
  463MPD2    H3 6951   4.709   0.991   2.723 -0.9814 -0.5827 -1.0969
  463MPD2     N 6952   0.381   1.124   2.645  0.0406 -0.3597  0.1564
  463MPD2    H5 6953   0.344   1.219   2.642 -1.0175 -0.7270  1.3978
  463MPD2    N1 6954   0.285   0.660   2.666  0.1957  0.4785  0.9074
  463MPD2    H7 6955   0.385   0.647   2.651 -0.3550  1.2275 -3.1688
  464TMC3    C1 6956   0.256   0.437   2.582  0.2669 -1.3442  0.3908
  464TMC3    C2 6957   0.362   0.455   2.501  0.4977 -0.6194  0.3301
  464TMC3    C3 6958   0.361   0.392   2.377  0.9843  0.0494 -0.1756
  464TMC3    C4 6959   0.148   0.355   2.546  0.1511 -0.7482 -1.1056
  464TMC3    C5 6960   0.152   0.292   2.423  0.2022  0.2704 -0.0265
  464TMC3    C6 6961   0.254   0.313   2.332  0.0231 -0.7231 -0.7750
  464TMC3     C 6962   0.208   0.549   2.657  0.4947 -0.1000  0.2870
  464TMC3     O 6963   0.088   0.545   2.672 -0.0050  0.3353  0.0623
  464TMC3     H 6964   0.439   0.526   2.527  0.4681  0.1261 -1.6225
  464TMC3    H1 6965   0.053   0.345   2.597  1.1596  1.4543  1.1912
  464TMC3    H2 6966   0.259   0.276   2.230  1.4596 -1.6835 -0.3589
  464TMC3    C7 6967   0.086   0.165   2.415 -0.3660  0.8155 -0.3440
  464TMC3    C8 6968   0.454   0.435   2.268 -0.5984  0.3449 -0.2981
  464TMC3    O1 6969   0.059   0.118   2.523  0.5325 -0.7493  0.7657
  464TMC3    O2 6970   0.413   0.426   2.156  0.0251 -0.3962 -0.3054
  465MPD2     C 6971   2.265   4.513  17.406 -0.3613  0.4876 -0.5007
  465MPD2    C1 6972   2.239   4.396  17.347 -0.1561 -0.1923 -0.2501
  465MPD2    C2 6973   2.280   4.377  17.213 -0.2308 -1.0405  0.1249
  465MPD2    C3 6974   2.330   4.478  17.136 -0.3000 -0.3733  0.3938
  465MPD2    C4 6975   2.342   4.600  17.195  0.1903  0.0825  0.1710
  465MPD2    C5 6976   2.309   4.617  17.325  0.1196 -1.1741  0.8759
  465MPD2     H 6977   2.256   4.282  17.166  1.0721 -0.8653 -0.8850
  465MPD2    H1 6978   2.370   4.691  17.143  2.0435 -2.2278 -2.8156
  465MPD2    H2 6979   2.246   4.529  17.511 -0.2201  1.3429 -0.6072
  465MPD2    H3 6980   2.330   4.714  17.369  1.4381 -0.6405 -0.9450
  465MPD2     N 6981   2.352   4.442  17.001  0.0293 -0.2109  0.9750
  465MPD2    H5 6982   2.340   4.343  16.985  1.6381 -0.1456 -0.6565
  465MPD2    N1 6983   2.189   4.285  17.419 -0.0338 -0.9345 -0.3096
  465MPD2    H7 6984   2.185   4.203  17.360  0.9316 -0.1822 -1.4282
  466TMC3    C1 6985   2.296   4.238  16.710  0.1502 -0.0346 -0.0964
  466TMC3    C2 6986   2.214   4.307  16.615 -0.4533 -0.0939  0.1438
  466TMC3    C3 6987   2.225   4.446  16.611 -0.5296  0.7666  0.0987
  466TMC3    C4 6988   2.391   4.312  16.769 -0.3607  0.1870  0.5041
  466TMC3    C5 6989   2.389   4.449  16.774  0.3287 -0.3918 -0.1185
  466TMC3    C6 6990   2.309   4.518  16.690 -0.5621  0.3972 -0.3929
  466TMC3     C 6991   2.214   4.166  16.809 -0.8653  0.2798  0.1711
  466TMC3     O 6992   2.243   4.181  16.927  0.0092  0.8571 -0.3642
  466TMC3     H 6993   2.146   4.246  16.557  0.2871 -1.4824  0.7195
  466TMC3    H1 6994   2.441   4.256  16.848  0.2765  0.4803  0.3089
  466TMC3    H2 6995   2.296   4.625  16.699 -1.3604  0.2383  0.4187
  466TMC3    C7 6996   2.401   4.517  16.897 -0.2296  0.0075 -0.6204
  466TMC3    C8 6997   2.122   4.519  16.535  0.3306 -0.1400 -0.1433
  466TMC3    O1 6998   2.401   4.639  16.903  0.2571  0.2116  0.1134
  466TMC3    O2 6999   2.083   4.481  16.423 -0.5300  0.8079  0.1239
  467TMC3    C1 7000   3.268   2.949  14.450 -0.4023  0.0469 -0.5923
  467TMC3    C2 7001   3.247   2.981  14.322 -0.0804 -0.4668  0.3097
  467TMC3    C3 7002   3.115   2.959  14.279 -0.7528  0.5575  0.5291
  467TMC3    C4 7003   3.168   2.888  14.529 -0.0162  0.5348 -0.2926
  467TMC3    C5 7004   3.045   2.872  14.482 -0.4433 -0.3228  0.3858
  467TMC3    C6 7005   3.013   2.896  14.352  0.3711  0.4474 -0.3255
  467TMC3     C 7006   3.395   2.958  14.505  0.0492 -0.2435  0.0027
  467TMC3     O 7007   3.401   2.985  14.624 -0.5344 -0.0180 -0.3566
  467TMC3     H 7008   3.320   3.042  14.269 -1.2945  0.8909  0.1849
  467TMC3    H1 7009   3.189   2.866  14.633  1.5321 -1.3493 -1.0047
  467TMC3    H2 7010   2.915   2.882  14.309 -0.7934 -2.3483  3.3622
  467TMC3    C7 7011   2.958   2.791  14.573  0.4854  0.2102 -0.0075
  467TMC3    C8 7012   3.078   3.048  14.170 -0.3505  0.2326  0.5452
  467TMC3    O1 7013   3.009   2.768  14.682  0.0729  0.5234 -0.4952
  467TMC3    O2 7014   3.144   3.154  14.157 -0.2395  0.0787  0.1388
  468MPD2     C 7015   1.687   1.518  11.026 -0.5018  0.9760 -0.2206
  468MPD2    C1 7016   1.824   1.508  11.050 -0.0590  0.7598  0.4170
  468MPD2    C2 7017   1.887   1.397  11.001 -0.8330  0.5047 -0.7058
  468MPD2    C3 7018   1.817   1.294  10.930 -0.0565 -0.2525 -0.1416
  468MPD2    C4 7019   1.684   1.313  10.889  0.2621 -0.0980  0.1568
  468MPD2    C5 7020   1.617   1.423  10.945  0.3520  0.2836 -0.7875
  468MPD2     H 7021   1.994   1.389  11.016 -1.3854 -2.8635  1.4830
  468MPD2    H1 7022   1.621   1.240  10.838 -1.1271  0.6543  0.7958
  468MPD2    H2 7023   1.630   1.602  11.065 -0.6713 -0.1169  1.8802
  468MPD2    H3 7024   1.512   1.443  10.924 -0.1273 -1.9893 -0.5924
  468MPD2     N 7025   1.870   1.164  10.905 -0.0109 -0.3787 -0.7838
  468MPD2    H5 7026   1.804   1.093  10.877 -0.7941 -1.4084  3.5728
  468MPD2    N1 7027   1.895   1.595  11.138  0.1263  0.1285  0.3480
  468MPD2    H7 7028   1.996   1.585  11.134  0.1328  0.3932 -0.0965
  469TMC3    C1 7029   1.929   1.731  11.314 -0.2580  0.8397  0.4163
  469TMC3    C2 7030   2.066   1.712  11.290  0.1626  0.1561  0.6841
  469TMC3    C3 7031   2.154   1.730  11.392 -0.4162  0.1666 -0.3419
  469TMC3    C4 7032   1.885   1.764  11.437  0.7156 -0.0011  1.3301
  469TMC3    C5 7033   1.975   1.787  11.534 -0.3616  0.2836  0.8134
  469TMC3    C6 7034   2.110   1.760  11.519  0.2213  0.2783  0.0180
  469TMC3     C 7035   1.836   1.684  11.224  0.2668  0.6759  0.3300
  469TMC3     O 7036   1.716   1.717  11.237 -0.4825 -0.2069  0.0669
  469TMC3     H 7037   2.097   1.704  11.187  0.4724  0.1230  0.7775
  469TMC3    H1 7038   1.780   1.786  11.448  1.3072  3.1755  0.5368
  469TMC3    H2 7039   2.177   1.768  11.604  0.1552  0.6876  0.0332
  469TMC3    C7 7040   1.914   1.770  11.665  0.0362 -0.2810  0.1922
  469TMC3    C8 7041   2.288   1.740  11.351  0.2928  0.4515 -0.5079
  469TMC3    O1 7042   1.792   1.754  11.668  0.8092 -0.2936  0.0457
  469TMC3    O2 7043   2.310   1.757  11.233 -0.0918  1.0964  0.0899
  470TMC3    C1 7044   4.089   1.553   0.966 -0.2522 -0.2948  0.3512
  470TMC3    C2 7045   4.204   1.619   0.990  1.0257  0.6141  0.0410
  470TMC3    C3 7046   4.200   1.718   1.084 -0.2443  0.7426  0.5376
  470TMC3    C4 7047   3.972   1.589   1.028  0.0150  0.4903 -0.7955
  470TMC3    C5 7048   3.970   1.694   1.115  0.8600 -0.0819  0.8498
  470TMC3    C6 7049   4.084   1.764   1.141 -0.3898  0.7972 -0.5882
  470TMC3     C 7050   4.088   1.414   0.918 -0.1191 -0.2863  0.8436
  470TMC3     O 7051   3.986   1.364   0.872 -0.7905 -0.1326  0.0945
  470TMC3     H 7052   4.292   1.601   0.930 -0.4298 -0.8125 -1.6773
  470TMC3    H1 7053   3.885   1.535   0.993  1.6109 -0.2703 -3.5444
  470TMC3    H2 7054   4.086   1.860   1.192 -0.5121  0.4243  0.1131
  470TMC3    C7 7055   3.845   1.756   1.136 -0.2159  0.0331  1.0589
  470TMC3    C8 7056   4.314   1.803   1.117 -0.1555  0.1412  0.0995
  470TMC3    O1 7057   3.752   1.704   1.079  0.0492 -0.5800 -0.6041
  470TMC3    O2 7058   4.296   1.901   1.185  0.3669  0.0365  1.1576
  471MPD2     C 7059   0.144   3.041  16.983 -0.0711  0.1769  0.0713
  471MPD2    C1 7060   0.081   2.919  17.002  0.0285  0.3594  0.3538
  471MPD2    C2 7061   0.112   2.854  17.116  0.2760 -0.2279  0.6086
  471MPD2    C3 7062   0.191   2.901  17.223 -0.8957 -0.5129  0.0223
  471MPD2    C4 7063   0.246   3.027  17.207  0.3276 -0.0778  0.2476
  471MPD2    C5 7064   0.227   3.089  17.084 -0.6382  0.4682 -0.3387
  471MPD2     H 7065   0.077   2.753  17.131  1.0382 -0.7229 -0.9158
  471MPD2    H1 7066   0.302   3.081  17.283  1.9808 -1.2644 -0.1153
  471MPD2    H2 7067   0.144   3.093  16.888  0.8053  0.4337  0.2154
  471MPD2    H3 7068   0.270   3.186  17.062  2.0888 -0.1716  2.1814
  471MPD2     N 7069   0.222   2.833  17.342  0.8668  0.3940 -0.2105
  471MPD2    H5 7070   0.285   2.874  17.409 -1.6184  0.2630  2.1911
  471MPD2    N1 7071   0.022   2.847  16.901  0.4235 -0.0567 -0.1722
  471MPD2    H7 7072   4.722   2.757  16.931  0.1776  0.0614 -0.1145
  472TMC3    C1 7073   4.656   2.782  16.689 -0.2696 -0.2325 -0.3570
  472TMC3    C2 7074   4.571   2.819  16.589  0.5034  0.0732  0.0307
  472TMC3    C3 7075   4.509   2.722  16.513  0.5760  0.2640 -0.0604
  472TMC3    C4 7076   4.693   2.651  16.708 -0.1136 -0.9642  0.2615
  472TMC3    C5 7077   4.623   2.557  16.639 -0.8227  0.0496 -0.0450
  472TMC3    C6 7078   4.531   2.587  16.540  0.0022  0.2789  0.2088
  472TMC3     C 7079   4.722   2.891  16.771  0.2720 -0.3906  0.3808
  472TMC3     O 7080   4.731   3.002  16.720 -0.2755  0.4719  0.2061
  472TMC3     H 7081   4.553   2.923  16.563 -0.2394 -0.4537 -1.5940
  472TMC3    H1 7082   0.037   2.613  16.769  0.0034  0.5376  1.0158
  472TMC3    H2 7083   4.477   2.519  16.475  0.5018 -0.5581  0.6824
  472TMC3    C7 7084   4.636   2.414  16.680 -0.6487 -0.0326 -0.4534
  472TMC3    C8 7085   4.407   2.762  16.411  0.0354 -0.0611  0.6450
  472TMC3    O1 7086   4.699   2.391  16.783  0.4317  0.5655  0.0914
  472TMC3    O2 7087   4.412   2.875  16.365  1.3583  0.2955  0.3404
  473MPD2     C 7088   0.068   0.466  14.153 -0.0942  0.3289 -0.3076
  473MPD2    C1 7089   4.692   0.544  14.169 -0.0855  0.3530  0.0188
  473MPD2    C2 7090   4.699   0.649  14.264  0.6064  0.4353  0.6484
  473MPD2    C3 7091   0.076   0.673  14.338  0.4923  0.4812  0.1286
  473MPD2    C4 7092   0.186   0.598  14.309  0.3524 -0.2317  0.5098
  473MPD2    C5 7093   0.182   0.488  14.228  0.3728 -0.1914  0.6177
  473MPD2     H 7094   4.617   0.719  14.278 -1.4858 -1.8717 -0.2428
  473MPD2    H1 7095   0.282   0.616  14.356  0.5930 -1.6331  0.5501
  473MPD2    H2 7096   0.071   0.386  14.081  2.6989  1.4530 -1.4384
  473MPD2    H3 7097   0.271   0.430  14.206 -0.4487 -1.3555  0.4206
  473MPD2     N 7098   0.096   0.769  14.433 -0.0332  0.3076 -1.1294
  473MPD2    H5 7099   0.187   0.812  14.443  0.1594 -0.5577  0.9888
  473MPD2    N1 7100   4.572   0.520  14.108  0.2200  0.0044  0.2463
  473MPD2    H7 7101   4.492   0.581  14.122  0.1132  0.3513 -1.9059
  474TMC3    C1 7102   0.057   0.965  14.557 -0.2340  0.6929  0.3471
  474TMC3    C2 7103   4.708   1.075  14.552  0.1607 -0.5363  0.6081
  474TMC3    C3 7104   0.023   1.196  14.605 -0.6440 -0.0182 -0.4207
  474TMC3    C4 7105   0.177   0.968  14.623  0.3297  0.1419  0.1264
  474TMC3    C5 7106   0.227   1.087  14.667 -0.4624 -0.0606 -0.2482
  474TMC3    C6 7107   0.147   1.199  14.666 -0.1537  0.0051 -0.1491
  474TMC3     C 7108   0.001   0.844  14.499  0.2994  0.0265 -0.4998
  474TMC3     O 7109   4.618   0.833  14.503 -0.4957 -0.6288 -0.8242
  474TMC3     H 7110   4.623   1.077  14.486  1.0278  0.6918 -0.4828
  474TMC3    H1 7111   0.241   0.881  14.620  1.3663  0.8926  0.2718
  474TMC3    H2 7112   0.189   1.293  14.701  1.2007 -0.1268 -1.3923
  474TMC3    C7 7113   0.368   1.100  14.692  0.2113 -0.5422  0.3808
  474TMC3    C8 7114   4.687   1.316  14.563 -0.3939 -0.6232  0.2339
  474TMC3    O1 7115   0.440   1.025  14.624  0.3956 -0.0744  0.2563
  474TMC3    O2 7116   4.569   1.290  14.554 -0.1849 -0.3809 -0.4045
  475MPD2     C 7117   3.224   3.807  11.127 -0.4639 -0.1056 -0.2539
  475MPD2    C1 7118   3.189   3.857  11.249  0.3993  0.1810  0.1534
  475MPD2    C2 7119   3.061   3.889  11.276 -0.1531 -0.4877 -0.3455
  475MPD2    C3 7120   2.955   3.866  11.190 -0.3382  0.1848 -0.3651
  475MPD2    C4 7121   2.985   3.787  11.079 -0.5035  0.6223  0.2814
  475MPD2    C5 7122   3.118   3.762  11.040  0.5060 -0.2220  0.3581
  475MPD2     H 7123   3.023   3.941  11.363 -1.9752 -1.6853 -0.4267
  475MPD2    H1 7124   2.912   3.749  11.009 -1.3494 -0.8334  1.9505
  475MPD2    H2 7125   3.324   3.780  11.097 -0.6613  0.6749 -1.6356
  475MPD2    H3 7126   3.138   3.708  10.949  0.2737  0.9851 -0.4052
  475MPD2     N 7127   2.831   3.927  11.216  0.0344 -0.1122  1.0623
  475MPD2    H5 7128   2.823   3.990  11.296  1.1923  1.3904 -0.0155
  475MPD2    N1 7129   3.288   3.884  11.344  0.0748  0.5784  0.2869
  475MPD2    H7 7130   3.383   3.862  11.316 -0.8007  1.0447 -3.0348
  476TMC3    C1 7131   3.374   4.012  11.524 -0.3373  0.4137  0.1642
  476TMC3    C2 7132   3.439   4.086  11.429 -0.7870  0.0942  1.0642
  476TMC3    C3 7133   3.459   4.219  11.445  0.0580 -0.5793 -0.2962
  476TMC3    C4 7134   3.342   4.071  11.643  0.1503  0.0495  0.7278
  476TMC3    C5 7135   3.365   4.205  11.661 -0.4898 -0.2370  0.0553
  476TMC3    C6 7136   3.438   4.283  11.566 -0.1569  0.4101  0.2660
  476TMC3     C 7137   3.268   3.940  11.464 -0.7790 -0.7992  0.3833
  476TMC3     O 7138   3.168   3.924  11.533 -0.0333  0.2725  0.1210
  476TMC3     H 7139   3.483   4.038  11.342  1.2665  4.2647 -0.2406
  476TMC3    H1 7140   3.284   4.008  11.709 -0.3893 -0.4050 -0.1839
  476TMC3    H2 7141   3.450   4.390  11.570 -0.8516  0.4270  1.9039
  476TMC3    C7 7142   3.277   4.268  11.752  0.1858  0.3947  0.5221
  476TMC3    C8 7143   3.380   4.302  11.351 -0.2158 -0.4752  0.3137
  476TMC3    O1 7144   3.236   4.215  11.854  0.2868 -0.2160  0.0746
  476TMC3    O2 7145   3.344   4.411  11.384 -0.4191  0.1349 -0.2296
  477MPD2     C 7146   0.887   1.037  12.117 -0.0204  0.1890  0.0204
  477MPD2    C1 7147   0.848   0.935  12.031 -0.8277 -0.7535 -0.3779
  477MPD2    C2 7148   0.817   0.808  12.080 -0.6175  0.0149  0.3202
  477MPD2    C3 7149   0.823   0.782  12.218 -0.0795 -0.7686 -0.2974
  477MPD2    C4 7150   0.855   0.885  12.303 -0.2902 -0.4449  0.1907
  477MPD2    C5 7151   0.890   1.007  12.253 -0.2564 -0.3099  0.6805
  477MPD2     H 7152   0.790   0.723  12.018 -2.2601  2.4929 -2.3427
  477MPD2    H1 7153   0.870   0.863  12.408 -0.3634 -1.4155 -0.0010
  477MPD2    H2 7154   0.917   1.135  12.083 -3.5558  0.7597 -1.4972
  477MPD2    H3 7155   0.927   1.087  12.317 -0.3831  2.2393 -2.4094
  477MPD2     N 7156   0.804   0.651  12.263  0.0447 -0.1024  0.8029
  477MPD2    H5 7157   0.799   0.581  12.190 -1.5052 -0.5140  1.2901
  477MPD2    N1 7158   0.836   0.971  11.893 -0.4184 -0.3017 -0.1005
  477MPD2    H7 7159   0.868   1.063  11.864  0.5475 -0.8779 -0.8940
  478TMC3    C1 7160   0.763   0.952  11.684 -0.5126  0.2536 -0.0109
  478TMC3    C2 7161   0.733   1.086  11.689  0.1104 -0.2914  0.8033
  478TMC3    C3 7162   0.629   1.141  11.620 -0.6127 -0.3045  0.1354
  478TMC3    C4 7163   0.695   0.879  11.591 -0.2384  0.0440 -0.0753
  478TMC3    C5 7164   0.603   0.944  11.506 -0.3831 -0.1796  0.4098
  478TMC3    C6 7165   0.559   1.071  11.523 -0.8755 -0.2903  0.0542
  478TMC3     C 7166   0.783   0.886  11.800 -0.0379  0.4831  0.7002
  478TMC3     O 7167   0.729   0.778  11.812 -0.3032 -0.2830 -0.4535
  478TMC3     H 7168   0.789   1.156  11.749  1.5693 -1.3272  0.6428
  478TMC3    H1 7169   0.715   0.775  11.564  2.7629  0.8038 -0.8031
  478TMC3    H2 7170   0.468   1.108  11.477  0.0650  1.7419 -0.1557
  478TMC3    C7 7171   0.524   0.845  11.429  0.1670 -0.2063 -0.0454
  478TMC3    C8 7172   0.579   1.275  11.661  0.4709 -0.0151  0.3683
  478TMC3    O1 7173   0.521   0.727  11.461  0.2578 -0.2726 -0.1897
  478TMC3    O2 7174   0.661   1.345  11.721  0.0591 -0.2427  0.4300
  479MPD2     C 7175   4.452   2.479  15.708  0.0098 -0.3622 -0.7766
  479MPD2    C1 7176   4.367   2.390  15.763  0.3906  0.3277  1.0334
  479MPD2    C2 7177   4.371   2.368  15.900 -0.0904 -0.3306 -0.2533
  479MPD2    C3 7178   4.450   2.444  15.987 -0.3028 -0.1751 -0.0737
  479MPD2    C4 7179   4.545   2.527  15.926  0.8413  0.5934  0.7814
  479MPD2    C5 7180   4.543   2.543  15.786 -0.1517 -0.3336  0.2232
  479MPD2     H 7181   4.305   2.297  15.949  1.8918 -2.4662 -0.7042
  479MPD2    H1 7182   4.606   2.590  15.991 -1.2769  1.4195  1.9533
  479MPD2    H2 7183   4.472   2.480  15.602 -1.7318  0.6297 -1.0979
  479MPD2    H3 7184   4.609   2.614  15.737 -1.1546  0.3599 -0.1321
  479MPD2     N 7185   4.443   2.438  16.129 -0.7176 -0.5604  0.1212
  479MPD2    H5 7186   4.520   2.473  16.185 -1.0150  0.0054  0.1797
  479MPD2    N1 7187   4.265   2.337  15.685  0.4074  0.2013  0.2996
  479MPD2    H7 7188   4.267   2.349  15.584  0.5955 -1.2266  0.1339
  480TMC3    C1 7189   4.002   2.259  16.141 -0.2579  0.1932  0.1280
  480TMC3    C2 7190   3.945   2.351  16.068  0.2312 -0.2864  0.1420
  480TMC3    C3 7191   4.026   2.461  16.036  0.2429  0.3674 -0.2519
  480TMC3    C4 7192   4.133   2.273  16.184 -0.6994 -0.9789 -0.8950
  480TMC3    C5 7193   4.207   2.388  16.159 -0.5272  0.3071 -0.2061
  480TMC3    C6 7194   4.158   2.479  16.081  0.1194  0.3004  0.3660
  480TMC3     C 7195   3.943   2.135  16.179 -0.2139 -0.0343 -0.3602
  480TMC3     O 7196   4.008   2.054  16.246  0.3897  1.1625  0.3185
  480TMC3     H 7197   3.839   2.353  16.046  0.5306 -2.9381 -1.5198
  480TMC3    H1 7198   4.174   2.194  16.245  0.8089  1.1271  0.7964
  480TMC3    H2 7199   4.209   2.575  16.080 -0.0127  0.3795  1.5367
  480TMC3    C7 7200   4.339   2.389  16.216  0.3083 -0.9781  0.0134
  480TMC3    C8 7201   3.975   2.559  15.949  0.0551  0.6648 -0.6678
  480TMC3    O1 7202   4.344   2.361  16.334 -0.6151  0.4532  0.0801
  480TMC3    O2 7203   3.852   2.557  15.932  0.4381  0.0957 -0.5849
  481MPD2     C 7204   1.310   2.309  14.272  0.5440 -0.7082  0.5169
  481MPD2    C1 7205   1.197   2.301  14.355  0.0758 -0.0020  0.1641
  481MPD2    C2 7206   1.213   2.263  14.491  0.0726  0.0457 -0.2588
  481MPD2    C3 7207   1.340   2.250  14.539 -0.4621 -0.3438 -0.0462
  481MPD2    C4 7208   1.450   2.275  14.461 -0.3100 -0.0560  0.3255
  481MPD2    C5 7209   1.431   2.297  14.326 -0.7757 -0.1613 -0.5141
  481MPD2     H 7210   1.122   2.250  14.549 -0.2948  0.9220 -0.6292
  481MPD2    H1 7211   1.551   2.270  14.502  0.0381  1.4933 -0.3233
  481MPD2    H2 7212   1.311   2.309  14.164  1.6821  1.1085  0.5162
  481MPD2    H3 7213   1.521   2.316  14.270 -1.6610  1.8233 -1.2649
  481MPD2     N 7214   1.362   2.218  14.680  0.5854 -0.7750  0.6279
  481MPD2    H5 7215   1.459   2.238  14.702  0.3560  1.2190 -0.1988
  481MPD2    N1 7216   1.074   2.288  14.283 -0.0097  0.1823 -0.0793
  481MPD2    H7 7217   1.080   2.273  14.183  1.8322  0.5302 -0.0215
  482TMC3    C1 7218   0.845   2.229  14.280  0.0592 -0.0019 -0.3759
  482TMC3    C2 7219   0.875   2.138  14.174 -0.1617  0.4837  0.7169
  482TMC3    C3 7220   0.804   2.025  14.165 -0.5560 -0.3320 -0.0698
  482TMC3    C4 7221   0.728   2.221  14.352  0.4288 -0.0979  0.1115
  482TMC3    C5 7222   0.651   2.114  14.330 -0.6245 -0.4272  0.1692
  482TMC3    C6 7223   0.689   2.014  14.240  0.3910  0.0254 -1.3530
  482TMC3     C 7224   0.950   2.296  14.347 -0.4921  0.0766  0.3410
  482TMC3     O 7225   0.919   2.342  14.454  0.1913 -0.6676 -0.6834
  482TMC3     H 7226   0.944   2.168  14.096 -1.0137 -0.3626 -0.3460
  482TMC3    H1 7227   0.689   2.299  14.417 -0.1401 -1.3274  1.2516
  482TMC3    H2 7228   0.608   1.946  14.216  1.5102 -1.3669 -1.2125
  482TMC3    C7 7229   0.507   2.133  14.326  0.0492  0.2151 -0.5930
  482TMC3    C8 7230   0.776   1.981  14.033 -0.0407 -0.7270 -0.6935
  482TMC3    O1 7231   0.434   2.047  14.378 -0.0942  0.0366  0.3146
  482TMC3    O2 7232   0.766   1.859  14.027  0.1524  0.0911 -0.2357
  483TMC3    C1 7233   3.367   0.348   1.057  0.2685 -0.0099  0.3865
  483TMC3    C2 7234   3.418   0.466   1.005 -0.1491 -0.2001 -0.7324
  483TMC3    C3 7235   3.539   0.503   1.054  0.2095 -0.0540 -0.2545
  483TMC3    C4 7236   3.421   0.279   1.168  0.3161  0.2442 -0.4149
  483TMC3    C5 7237   3.546   0.319   1.205  0.0952 -0.0761  0.3351
  483TMC3    C6 7238   3.609   0.431   1.150  0.0527  0.0184  0.1793
  483TMC3     C 7239   3.242   0.314   1.014  0.5095  0.3746  0.9168
  483TMC3     O 7240   3.162   0.400   0.976 -0.2115  0.5610 -0.2715
  483TMC3     H 7241   3.364   0.513   0.924  0.7733 -0.8054 -1.6948
  483TMC3    H1 7242   3.361   0.200   1.212  2.0577  0.2104  1.8648
  483TMC3    H2 7243   3.710   0.449   1.185  0.4019 -1.4013 -0.1043
  483TMC3    C7 7244   3.623   0.229   1.281 -0.3826 -0.0437 -0.0832
  483TMC3    C8 7245   3.608   0.605   0.978 -0.1584 -0.6751 -0.6261
  483TMC3    O1 7246   3.742   0.221   1.260  0.0976 -0.3858 -0.1114
  483TMC3    O2 7247   3.731   0.602   0.988 -0.2491 -0.0403  0.1328
  484MPD2     C 7248   1.081   4.061  12.726 -0.5642  0.1616 -0.8403
  484MPD2    C1 7249   1.171   3.994  12.802 -0.1974  0.2413  0.0126
  484MPD2    C2 7250   1.296   4.053  12.825 -0.9195  0.0891  0.1407
  484MPD2    C3 7251   1.331   4.176  12.767  0.1029 -0.0590 -0.0135
  484MPD2    C4 7252   1.234   4.247  12.698 -0.6179  0.1632  0.2757
  484MPD2    C5 7253   1.115   4.190  12.676 -0.0547 -0.3015  0.6328
  484MPD2     H 7254   1.365   4.002  12.890  3.6812  3.4244 -2.0990
  484MPD2    H1 7255   1.256   4.341  12.648 -1.0586 -0.5945 -1.3195
  484MPD2    H2 7256   0.985   4.015  12.705 -0.8367 -0.3386  1.4694
  484MPD2    H3 7257   1.048   4.244  12.610  0.4374 -0.4992 -0.0224
  484MPD2     N 7258   1.460   4.225  12.772 -0.6748  0.3469  0.1145
  484MPD2    H5 7259   1.471   4.318  12.731 -0.3235  1.0774  1.8837
  484MPD2    N1 7260   1.126   3.871  12.858  0.7007 -0.0692 -0.0597
  484MPD2    H7 7261   1.038   3.833  12.824 -0.5454  1.7629  1.1029
  485TMC3    C1 7262   1.695   4.223  12.798  0.2481 -0.0843 -0.2137
  485TMC3    C2 7263   1.798   4.199  12.886  0.2529  0.1704  0.5860
  485TMC3    C3 7264   1.902   4.289  12.890 -0.2253 -0.2060  0.1513
  485TMC3    C4 7265   1.708   4.321  12.702 -0.0148  0.5199 -0.2201
  485TMC3    C5 7266   1.795   4.425  12.722 -0.2106  0.4648 -0.1836
  485TMC3    C6 7267   1.890   4.404  12.817 -0.8839 -0.4720  0.1305
  485TMC3     C 7268   1.572   4.155  12.827 -0.3280 -0.2296 -0.7277
  485TMC3     O 7269   1.584   4.039  12.861  0.1704  0.7034 -0.0978
  485TMC3     H 7270   1.792   4.121  12.960 -1.4993  0.1710  0.4407
  485TMC3    H1 7271   1.634   4.323  12.624  0.2063 -2.3993 -0.4746
  485TMC3    H2 7272   1.958   4.488  12.818  0.0852 -1.2880  3.6124
  485TMC3    C7 7273   1.845   4.471  12.596  0.0383 -0.1169 -0.4100
  485TMC3    C8 7274   2.034   4.259  12.929 -0.4558 -0.1343 -0.2848
  485TMC3    O1 7275   1.801   4.578  12.549  0.3017 -0.4222  0.1762
  485TMC3    O2 7276   2.114   4.339  12.883 -0.3109 -0.2078  0.4464
  486MPD2     C 7277   3.520   2.888  13.436 -0.6068 -0.5238  0.2395
  486MPD2    C1 7278   3.516   2.844  13.302 -0.4881 -0.0752  0.0162
  486MPD2    C2 7279   3.446   2.931  13.216  0.4348 -0.0853 -0.3235
  486MPD2    C3 7280   3.381   3.049  13.259  0.7602 -0.1228 -0.1118
  486MPD2    C4 7281   3.385   3.074  13.391 -0.3148  0.3742  0.6144
  486MPD2    C5 7282   3.450   2.995  13.478  0.0465 -0.0522 -0.2352
  486MPD2     H 7283   3.457   2.907  13.111 -0.1318  1.3095 -0.7016
  486MPD2    H1 7284   3.333   3.163  13.424 -0.5015  1.3249 -2.2068
  486MPD2    H2 7285   3.573   2.838  13.516 -1.5344 -1.7698  0.0782
  486MPD2    H3 7286   3.452   3.023  13.583 -3.2199 -1.3152  0.1694
  486MPD2     N 7287   3.307   3.122  13.163  0.1043 -0.1726 -0.0684
  486MPD2    H5 7288   3.307   3.088  13.067  2.6296 -1.2896  0.3482
  486MPD2    N1 7289   3.583   2.727  13.269 -0.5130  0.2811  0.2719
  486MPD2    H7 7290   3.625   2.675  13.345 -0.2780  0.6256  0.3738
  487TMC3    C1 7291   3.654   2.546  13.147  0.4526 -0.5286 -0.7532
  487TMC3    C2 7292   3.586   2.438  13.095  0.2960 -0.7027 -0.2298
  487TMC3    C3 7293   3.636   2.310  13.119  0.2906  0.3924  0.3632
  487TMC3    C4 7294   3.765   2.527  13.225 -0.2299 -0.4866  0.4858
  487TMC3    C5 7295   3.816   2.398  13.244 -0.0004 -0.4388 -0.2669
  487TMC3    C6 7296   3.758   2.289  13.182 -0.0353 -0.3914 -0.6497
  487TMC3     C 7297   3.580   2.666  13.146  0.6412 -1.0019 -0.6668
  487TMC3     O 7298   3.505   2.683  13.054 -0.5660  0.1379  0.1596
  487TMC3     H 7299   3.496   2.455  13.037  0.7920 -0.4380 -0.9180
  487TMC3    H1 7300   3.813   2.612  13.271  2.7716 -1.3156 -1.0774
  487TMC3    H2 7301   3.801   2.191  13.194  1.1939  0.5713  2.7573
  487TMC3    C7 7302   3.832   2.379  13.395 -0.4215  0.3150  0.0753
  487TMC3    C8 7303   3.527   2.243  13.187  0.1796 -0.5595  0.5313
  487TMC3    O1 7304   3.872   2.472  13.467 -0.3805 -0.1677  0.3813
  487TMC3    O2 7305   3.433   2.307  13.230 -0.1075  0.1503 -0.3029
  488MPD2     C 7306   4.157   4.055  16.249  0.1407  0.4011  0.0858
  488MPD2    C1 7307   4.181   4.146  16.347 -0.0037  0.0422  0.2274
  488MPD2    C2 7308   4.172   4.113  16.482  0.0630  0.8247 -0.5380
  488MPD2    C3 7309   4.141   3.984  16.521  0.2104  0.1913 -0.2216
  488MPD2    C4 7310   4.120   3.885  16.424  0.0138 -0.0651  1.0118
  488MPD2    C5 7311   4.133   3.926  16.290 -0.3281  0.2260 -0.1952
  488MPD2     H 7312   4.187   4.188  16.559 -0.9315  1.8642 -1.3531
  488MPD2    H1 7313   4.095   3.782  16.447 -0.2620 -0.4717 -1.1529
  488MPD2    H2 7314   4.155   4.070  16.142 -1.1187  0.0377  0.0611
  488MPD2    H3 7315   4.100   3.853  16.217 -0.7201 -0.8779  1.0991
  488MPD2     N 7316   4.154   3.968  16.656 -0.2311 -0.6906 -0.1128
  488MPD2    H5 7317   4.159   4.047  16.720 -3.2493 -0.9972  0.4990
  488MPD2    N1 7318   4.225   4.279  16.326 -0.5948 -0.2324  0.9413
  488MPD2    H7 7319   4.249   4.327  16.412  0.3943 -1.9588  1.6301
  489TMC3    C1 7320   4.205   3.862  16.855  0.0875 -0.4596  0.0493
  489TMC3    C2 7321   4.255   3.977  16.903  0.4389  0.3453  0.2372
  489TMC3    C3 7322   4.249   3.996  17.038  0.4203  0.7222 -0.4119
  489TMC3    C4 7323   4.156   3.769  16.940  0.7468 -0.3348 -0.0454
  489TMC3    C5 7324   4.141   3.799  17.070 -0.1311  0.1353 -0.5231
  489TMC3    C6 7325   4.190   3.911  17.125 -0.3200  0.0953  0.4131
  489TMC3     C 7326   4.151   3.848  16.719  0.0806 -0.0591  0.7502
  489TMC3     O 7327   4.111   3.739  16.676  0.0783 -0.1671 -0.7358
  489TMC3     H 7328   4.298   4.047  16.831  0.7525 -0.0536  0.0366
  489TMC3    H1 7329   4.120   3.677  16.894  0.2123  0.6692 -1.6461
  489TMC3    H2 7330   4.170   3.923  17.231  2.1542 -1.0658  1.0015
  489TMC3    C7 7331   4.089   3.699  17.164 -0.5551  0.4186  0.1615
  489TMC3    C8 7332   4.282   4.133  17.068 -0.4267  0.5909 -0.5809
  489TMC3    O1 7333   4.120   3.711  17.279 -0.2283 -0.0524  0.6608
  489TMC3    O2 7334   4.375   4.181  17.001  0.3885  0.2486  0.0770
  490MPD2     C 7335   0.066   3.616  17.294 -1.0210 -0.1611 -0.3492
  490MPD2    C1 7336   0.049   3.520  17.396 -0.6704 -0.9879 -0.6911
  490MPD2    C2 7337   0.117   3.551  17.522 -0.2268  0.0757  0.4569
  490MPD2    C3 7338   0.190   3.667  17.537 -1.2195 -0.6504 -0.9136
  490MPD2    C4 7339   0.195   3.754  17.433 -0.1260 -0.4219 -0.1752
  490MPD2    C5 7340   0.133   3.734  17.312  0.5176  0.8979 -0.2997
  490MPD2     H 7341   0.114   3.479  17.604 -1.4780 -0.6984 -0.2744
  490MPD2    H1 7342   0.243   3.846  17.463 -0.0615 -0.5450  0.0950
  490MPD2    H2 7343   0.018   3.602  17.198  0.2744 -0.1341 -0.9918
  490MPD2    H3 7344   0.144   3.810  17.235 -1.3497  1.5766  0.1063
  490MPD2     N 7345   0.254   3.704  17.656 -0.0627 -0.6509 -0.1182
  490MPD2    H5 7346   0.298   3.796  17.663  0.5922 -0.8769 -1.3601
  490MPD2    N1 7347   4.727   3.397  17.369  0.3438  0.4119  0.1762
  490MPD2    H7 7348   4.710   3.350  17.458 -0.0365 -1.7100 -1.0208
  491TMC3    C1 7349   4.655   3.193  17.269  0.2134 -0.5062 -0.2973
  491TMC3    C2 7350   4.661   3.127  17.388 -0.1660  0.2776  0.1658
  491TMC3    C3 7351   4.594   3.014  17.416 -0.4472  0.1503  0.0266
  491TMC3    C4 7352   4.575   3.139  17.171  0.0154 -0.0401  0.3449
  491TMC3    C5 7353   4.510   3.017  17.194  0.0983  0.5863 -0.6792
  491TMC3    C6 7354   4.504   2.962  17.322 -0.2591 -0.4487 -0.0638
  491TMC3     C 7355   4.709   3.330  17.250  0.5623  0.2742 -0.5091
  491TMC3     O 7356   4.718   3.370  17.134  0.5306  0.0014 -0.0680
  491TMC3     H 7357   4.730   3.163  17.463 -0.6163  0.6154  0.4213
  491TMC3    H1 7358   4.558   3.204  17.086 -1.6449 -0.9020  0.0238
  491TMC3    H2 7359   4.434   2.884  17.351 -0.7522 -0.2954 -0.8479
  491TMC3    C7 7360   4.455   2.939  17.088  0.3935 -0.0125  0.0248
  491TMC3    C8 7361   4.564   2.995  17.560 -0.2533  0.6369  0.0737
  491TMC3    O1 7362   4.389   2.845  17.129 -0.8041  0.3374  0.6063
  491TMC3    O2 7363   4.458   2.940  17.589  0.1475 -0.2266 -0.5269
  492MPD2     C 7364   4.692   3.513  11.827  0.0676  0.2284  0.5787
  492MPD2    C1 7365   4.581   3.497  11.751  0.3904  0.3656 -0.1670
  492MPD2    C2 7366   4.470   3.420  11.795  0.0719 -0.6976 -0.4705
  492MPD2    C3 7367   4.477   3.366  11.918  0.8185 -0.7085  0.4943
  492MPD2    C4 7368   4.584   3.392  11.999  0.2273 -0.3900  0.3828
  492MPD2    C5 7369   4.691   3.465  11.956 -0.3819 -0.3374 -0.2499
  492MPD2     H 7370   4.382   3.408  11.734  0.0487  1.1253 -0.8072
  492MPD2    H1 7371   4.585   3.346  12.098  0.2669 -0.0513  0.5412
  492MPD2    H2 7372   0.043   3.569  11.798 -0.1448  0.2672 -0.0023
  492MPD2    H3 7373   0.040   3.477  12.020  0.5948  1.4633 -1.8876
  492MPD2     N 7374   4.373   3.289  11.972 -0.1842 -0.4762 -0.4370
  492MPD2    H5 7375   4.391   3.264  12.069 -1.2918 -0.2241 -0.1600
  492MPD2    N1 7376   4.567   3.568  11.625 -0.1310  0.2401  1.0793
  492MPD2    H7 7377   4.639   3.638  11.611  0.4884 -0.7672 -0.7002
  493TMC3    C1 7378   4.502   3.648  11.417 -0.1725 -0.6751  0.3985
  493TMC3    C2 7379   4.606   3.735  11.433  0.0029 -0.3480  0.2719
  493TMC3    C3 7380   4.613   3.824  11.339 -0.3394  0.1718 -0.6236
  493TMC3    C4 7381   4.406   3.657  11.325  0.4985  0.5532 -0.0592
  493TMC3    C5 7382   4.422   3.758  11.234 -0.5623  0.0581 -0.6826
  493TMC3    C6 7383   4.524   3.847  11.235 -0.6728  0.7053  0.2896
  493TMC3     C 7384   4.476   3.550  11.524  0.0154  0.2956  0.6929
  493TMC3     O 7385   4.372   3.487  11.519 -0.2392  0.2003  0.5327
  493TMC3     H 7386   4.688   3.728  11.504 -0.2265  3.8748  0.9594
  493TMC3    H1 7387   4.322   3.587  11.319  1.9117 -0.9434 -2.3174
  493TMC3    H2 7388   4.548   3.911  11.151 -1.6374  0.4536 -0.1788
  493TMC3    C7 7389   4.316   3.764  11.133  1.0058  0.3635  0.3265
  493TMC3    C8 7390   4.736   3.915  11.344 -0.0352 -0.4717 -0.6350
  493TMC3    O1 7391   4.236   3.672  11.139 -0.6590 -0.1571  0.6027
  493TMC3    O2 7392   0.079   3.898  11.436  0.3203  0.2343 -0.1648
  494TMC3    C1 7393   0.993   0.129   0.879 -0.4083 -0.3835  0.1210
  494TMC3    C2 7394   1.076   0.016   0.858  0.4042 -0.3618 -0.0951
  494TMC3    C3 7395   1.094   4.691   0.737 -0.0995  0.2654 -0.4534
  494TMC3    C4 7396   0.930   0.183   0.765 -0.2781 -0.2299  0.1696
  494TMC3    C5 7397   0.958   0.124   0.644 -0.4027 -0.6489 -0.2490
  494TMC3    C6 7398   1.035   0.012   0.626  0.6939 -0.0196  0.0739
  494TMC3     C 7399   0.956   0.172   1.008 -0.3225 -0.4549 -0.6487
  494TMC3     O 7400   0.860   0.244   1.009 -0.0420  0.0190 -0.2240
  494TMC3     H 7401   1.117   4.701   0.944  0.3211  0.6197  0.5406
  494TMC3    H1 7402   0.862   0.267   0.772 -1.0711 -0.8638 -0.0013
  494TMC3    H2 7403   1.029   4.692   0.534 -0.8294  0.1487  0.0776
  494TMC3    C7 7404   0.905   0.184   0.525 -0.0402  0.4418  0.1426
  494TMC3    C8 7405   1.197   4.590   0.724 -0.2331 -0.1564  0.5889
  494TMC3    O1 7406   0.964   0.143   0.424  0.6049  0.4768 -0.0763
  494TMC3    O2 7407   1.292   4.587   0.803 -0.0379  0.0678  0.2954
  495TMC3    C1 7408   4.593   2.627  15.223 -0.0814  0.1703  0.5392
  495TMC3    C2 7409   4.550   2.691  15.109  0.0508  0.8543 -0.3544
  495TMC3    C3 7410   4.443   2.778  15.110  0.2907  0.4937  0.0721
  495TMC3    C4 7411   4.529   2.636  15.345  0.2090  0.1191  0.0195
  495TMC3    C5 7412   4.417   2.719  15.342  0.1665 -0.1359 -0.2323
  495TMC3    C6 7413   4.378   2.798  15.230 -0.4761  0.2284 -0.6738
  495TMC3     C 7414   4.620   2.489  15.186 -0.1537  0.4141  0.5741
  495TMC3     O 7415   4.557   2.409  15.251 -0.0003  0.0997  0.3931
  495TMC3     H 7416   4.613   2.685  15.021  1.3303 -1.7990  0.7472
  495TMC3    H1 7417   4.554   2.579  15.434  0.0170 -2.0951 -1.3627
  495TMC3    H2 7418   4.284   2.852  15.221 -0.5257  0.0846 -1.0416
  495TMC3    C7 7419   4.350   2.751  15.464  0.7509  0.3425 -0.6074
  495TMC3    C8 7420   4.359   2.780  14.992  0.8456 -0.4245  0.3093
  495TMC3    O1 7421   4.411   2.723  15.564 -0.1912 -0.0014  0.3653
  495TMC3    O2 7422   4.272   2.864  14.984 -0.1308 -0.2691  0.4229
  496MPD2     C 7423   1.280   3.273  15.809 -0.1767 -0.0954  0.2363
  496MPD2    C1 7424   1.228   3.150  15.774  0.5853 -0.6752 -0.4616
  496MPD2    C2 7425   1.108   3.100  15.811  0.0237  0.4441 -1.0342
  496MPD2    C3 7426   1.035   3.187  15.898 -0.2244 -0.5229  0.0673
  496MPD2    C4 7427   1.082   3.304  15.940  0.0464  0.2013  1.0388
  496MPD2    C5 7428   1.208   3.342  15.901  0.8234  0.1403  0.0287
  496MPD2     H 7429   1.064   3.006  15.780 -1.2359  0.3566  1.0341
  496MPD2    H1 7430   1.031   3.358  16.018  1.1514  4.1877 -0.9913
  496MPD2    H2 7431   1.378   3.306  15.774  0.2644 -0.6697  0.9512
  496MPD2    H3 7432   1.248   3.430  15.951  2.0761 -0.6135  0.3519
  496MPD2     N 7433   0.912   3.133  15.950  0.1031 -0.3080 -0.9116
  496MPD2    H5 7434   0.890   3.036  15.927 -0.0801 -1.2101  3.0011
  496MPD2    N1 7435   1.311   3.081  15.673 -0.0736  0.4844 -0.0589
  496MPD2    H7 7436   1.397   3.132  15.653  0.7487 -0.7534  0.3091
  497TMC3    C1 7437   0.744   3.103  16.106 -0.0056  0.8039  0.4624
  497TMC3    C2 7438   0.626   3.155  16.155 -0.0878  0.1045 -0.4109
  497TMC3    C3 7439   0.557   3.069  16.238 -1.0211 -0.1032 -0.1195
  497TMC3    C4 7440   0.802   2.980  16.149  0.0164  0.0453 -0.4215
  497TMC3    C5 7441   0.733   2.911  16.239 -0.4623 -0.0106 -0.4919
  497TMC3    C6 7442   0.610   2.954  16.290 -0.7818 -0.5058 -0.2672
  497TMC3     C 7443   0.819   3.192  16.020  0.6302  0.8405  0.0020
  497TMC3     O 7444   0.803   3.313  16.044 -0.2058  0.1978  0.5287
  497TMC3     H 7445   0.589   3.251  16.121 -1.3932 -0.0598  0.5346
  497TMC3    H1 7446   0.892   2.943  16.102 -0.5984 -0.5822 -1.1211
  497TMC3    H2 7447   0.546   2.894  16.354 -1.6613  1.3603  0.5817
  497TMC3    C7 7448   0.781   2.782  16.284  0.6904 -0.0577  0.1302
  497TMC3    C8 7449   0.425   3.096  16.292  0.1945  0.0943 -0.4963
  497TMC3    O1 7450   0.703   2.710  16.341  0.1564  0.1470  0.3889
  497TMC3    O2 7451   0.349   2.998  16.316  0.5507  0.0082  0.5712
  498MPD2     C 7452   2.910   3.954  10.348 -0.2945 -0.1933 -0.2952
  498MPD2    C1 7453   2.849   4.055  10.417 -0.6029 -0.9688 -0.7408
  498MPD2    C2 7454   2.725   4.029  10.470 -0.0448  0.6093  0.2972
  498MPD2    C3 7455   2.661   3.902  10.466  0.5280  0.0226 -0.3566
  498MPD2    C4 7456   2.736   3.804  10.399  0.3434 -0.1293  0.4734
  498MPD2    C5 7457   2.855   3.833  10.338  0.1004 -0.3870  0.6136
  498MPD2     H 7458   2.673   4.111  10.518 -2.9778 -2.5322  2.5391
  498MPD2    H1 7459   2.704   3.701  10.395  0.4939 -0.0515 -2.3481
  498MPD2    H2 7460   3.008   3.965  10.303 -0.7528 -0.9937 -1.4703
  498MPD2    H3 7461   2.902   3.747  10.292 -0.9146 -0.7508  0.2422
  498MPD2     N 7462   2.532   3.892  10.532 -0.7085  0.2030 -0.5117
  498MPD2    H5 7463   2.493   3.971  10.583 -0.3568 -0.2828  0.5242
  498MPD2    N1 7464   2.898   4.187  10.422  1.0061  1.0121 -0.0882
  498MPD2    H7 7465   2.839   4.254  10.470  0.5777  1.0246 -0.6322
  499TMC3    C1 7466   3.044   4.375  10.387  0.3777 -0.6996  0.3416
  499TMC3    C2 7467   3.169   4.415  10.416 -0.4010 -0.5068  0.1199
  499TMC3    C3 7468   3.198   4.541  10.393 -0.1148 -0.2414 -0.3484
  499TMC3    C4 7469   2.933   4.453  10.362 -0.0535  0.2342  0.6300
  499TMC3    C5 7470   2.973   4.587  10.349 -0.3662  0.3357  0.7187
  499TMC3    C6 7471   3.100   4.636  10.362 -0.2778 -0.8040 -0.3174
  499TMC3     C 7472   3.026   4.226  10.395  0.4390  0.0799 -0.6010
  499TMC3     O 7473   3.124   4.149  10.369 -0.7770 -0.5965  0.0549
  499TMC3     H 7474   3.247   4.341  10.431  1.0927  1.0635  0.1205
  499TMC3    H1 7475   2.835   4.410  10.344 -0.5465  0.5331  2.5291
  499TMC3    H2 7476   3.133   4.735  10.333 -0.9879 -0.2595  0.7192
  499TMC3    C7 7477   2.901   4.660  10.246  0.4286  0.0115 -0.1636
  499TMC3    C8 7478   3.332   4.604  10.425 -0.8811 -0.1288  0.3248
  499TMC3    O1 7479   2.961   0.000  10.169 -0.3163  0.2505  0.6053
  499TMC3    O2 7480   3.333   4.732  10.428  0.2331  0.1805 -0.4636
  500MPD2     C 7481   3.695   0.194  11.158 -0.3787 -1.0944 -0.1124
  500MPD2    C1 7482   3.763   0.221  11.042 -0.5294 -0.2759 -0.1283
  500MPD2    C2 7483   3.693   0.244  10.926  0.3311 -0.1157 -0.1930
  500MPD2    C3 7484   3.557   0.247  10.933  0.3563 -0.2698 -0.0487
  500MPD2    C4 7485   3.492   0.219  11.053 -0.0016  0.8411  0.2686
  500MPD2    C5 7486   3.564   0.190  11.162  0.3646 -0.4921  0.3189
  500MPD2     H 7487   3.749   0.269  10.837 -1.8855  2.1502 -0.9393
  500MPD2    H1 7488   3.384   0.216  11.055  0.0760 -1.1728  1.3017
  500MPD2    H2 7489   3.751   0.167  11.247  2.0609 -1.0397 -1.6433
  500MPD2    H3 7490   3.518   0.167  11.257 -0.3836  1.0772  0.3431
  500MPD2     N 7491   3.475   0.270  10.819  0.0576  0.2061  0.2383
  500MPD2    H5 7492   3.377   0.288  10.835  0.3257  0.7788  1.2138
  500MPD2    N1 7493   3.902   0.232  11.036 -0.6098  0.4655 -0.2673
  500MPD2    H7 7494   3.942   0.270  10.951 -2.0146 -0.2246 -1.2348
  501TMC3    C1 7495   4.131   0.197  11.090  0.2833  0.7926  0.1880
  501TMC3    C2 7496   4.153   0.322  11.041 -0.4927 -0.5335  0.3976
  501TMC3    C3 7497   4.285   0.366  11.023  0.0046  0.9761  0.2113
  501TMC3    C4 7498   4.241   0.121  11.141  0.4289  0.3623  0.9799
  501TMC3    C5 7499   4.367   0.165  11.120  0.0822 -0.2869 -0.4989
  501TMC3    C6 7500   4.390   0.280  11.048  0.1543 -0.2929 -0.2427
  501TMC3     C 7501   3.993   0.165  11.118  0.3121 -0.0468  0.3939
  501TMC3     O 7502   3.980   0.079  11.205  0.4295  0.3400 -0.1102
  501TMC3     H 7503   4.073   0.390  11.013 -0.9060 -0.8489  0.8199
  501TMC3    H1 7504   4.219   0.036  11.204 -1.0612 -0.3660 -0.5315
  501TMC3    H2 7505   4.491   0.317  11.037 -0.5737  1.4580 -1.0459
  501TMC3    C7 7506   4.471   0.089  11.183  0.7549 -0.1963 -0.1796
  501TMC3    C8 7507   4.327   0.484  10.953  0.0657  0.3359  0.4724
  501TMC3    O1 7508   4.443   4.710  11.211 -0.2602  0.6325 -0.0469
  501TMC3    O2 7509   4.439   0.526  10.984  0.0892 -0.3694 -0.0726
  502TMC3    C1 7510   3.676   3.718  15.225 -0.7911  0.3716  0.2778
  502TMC3    C2 7511   3.640   3.843  15.213 -0.0118 -0.1950  0.5040
  502TMC3    C3 7512   3.507   3.878  15.229  0.2772 -0.3023 -0.7734
  502TMC3    C4 7513   3.586   3.613  15.229 -0.8730 -0.6369 -0.6145
  502TMC3    C5 7514   3.453   3.644  15.238  0.0741  0.6395  1.0157
  502TMC3    C6 7515   3.413   3.778  15.239  0.9046 -0.4695 -0.0591
  502TMC3     C 7516   3.755   3.712  15.348  0.3245  0.5765  0.5554
  502TMC3     O 7517   3.853   3.785  15.362  0.0533  0.4136 -0.3516
  502TMC3     H 7518   3.715   3.921  15.206 -1.2887  1.3583  4.3218
  502TMC3    H1 7519   3.619   3.510  15.229  0.8566 -0.0777  1.5668
  502TMC3    H2 7520   3.309   3.808  15.251  1.6817  1.4722  1.9518
  502TMC3    C7 7521   3.373   3.553  15.309  0.3634  0.0053 -0.1581
  502TMC3    C8 7522   3.472   4.023  15.231 -0.4041 -0.1028  0.0528
  502TMC3    O1 7523   3.427   3.451  15.352  0.0099  0.1877  0.4626
  502TMC3    O2 7524   3.561   4.100  15.186  0.2059 -0.3855  0.3986
  503MPD2     C 7525   1.038   3.979  16.904  0.0470 -0.2946  0.2062
  503MPD2    C1 7526   1.055   3.998  17.037 -0.3262 -0.2207  0.1203
  503MPD2    C2 7527   1.082   3.893  17.122 -0.7544 -0.1190 -0.5738
  503MPD2    C3 7528   1.106   3.771  17.073  0.3167 -0.3851  0.4513
  503MPD2    C4 7529   1.090   3.746  16.942 -0.0248 -0.8540  0.3685
  503MPD2    C5 7530   1.052   3.846  16.858  0.7000  0.7817 -0.1220
  503MPD2     H 7531   1.092   3.922  17.226  0.0797 -0.1788 -0.6357
  503MPD2    H1 7532   1.092   3.645  16.902 -0.4265 -0.7772  0.1524
  503MPD2    H2 7533   0.995   4.055  16.840  2.0844  0.8133  0.1376
  503MPD2    H3 7534   1.037   3.833  16.752  0.1581 -0.4683  0.1102
  503MPD2     N 7535   1.174   3.676  17.166 -0.7762  0.2614 -0.0314
  503MPD2    H5 7536   1.174   3.690  17.266  0.7041 -3.0435  0.4415
  503MPD2    N1 7537   1.055   4.139  17.086 -0.0226  0.0630 -0.2059
  503MPD2    H7 7538   1.032   4.157  17.184  2.0483  0.6197  0.1784
  504TMC3    C1 7539   1.336   3.510  17.228 -0.6131 -0.1794 -0.5108
  504TMC3    C2 7540   1.275   3.470  17.344  0.8306 -0.1731 -0.0538
  504TMC3    C3 7541   1.361   3.398  17.426 -0.3710 -0.3386  0.5463
  504TMC3    C4 7542   1.459   3.472  17.187 -0.6453 -0.1342 -0.1483
  504TMC3    C5 7543   1.535   3.390  17.266 -0.1604  0.3394 -0.2488
  504TMC3    C6 7544   1.488   3.360  17.391 -1.0010  0.1541  1.0372
  504TMC3     C 7545   1.259   3.581  17.123  0.4216  0.5005 -0.1720
  504TMC3     O 7546   1.291   3.557  17.009  0.3957 -0.1765 -0.0625
  504TMC3     H 7547   1.195   3.525  17.392  0.2809 -1.3804  0.4065
  504TMC3    H1 7548   1.488   3.513  17.090 -1.8021  1.5979  0.2376
  504TMC3    H2 7549   1.539   3.297  17.462  1.5056  2.9166  1.6976
  504TMC3    C7 7550   1.681   3.393  17.227 -0.5170 -0.5959 -0.3463
  504TMC3    C8 7551   1.288   3.325  17.533 -0.4948 -0.0886  0.0377
  504TMC3    O1 7552   1.705   3.424  17.110  0.7934  0.6984 -0.3574
  504TMC3    O2 7553   1.165   3.327  17.529  0.0197  0.4869  0.1080
  505MPD2     C 7554   1.327   3.926  11.123 -0.4227  0.3863  0.0150
  505MPD2    C1 7555   1.361   3.834  11.217  0.0800 -0.3087 -0.0215
  505MPD2    C2 7556   1.448   3.856  11.314  0.8688 -0.1359 -1.0783
  505MPD2    C3 7557   1.517   3.983  11.317 -0.0700  0.4166 -0.1961
  505MPD2    C4 7558   1.476   4.076  11.227  0.2823 -0.2463 -0.0441
  505MPD2    C5 7559   1.386   4.045  11.126  0.2780 -0.0923 -0.0449
  505MPD2     H 7560   1.488   3.778  11.378  1.8977  0.2915 -1.1924
  505MPD2    H1 7561   1.535   4.167  11.223 -0.9853  0.6708  1.9167
  505MPD2    H2 7562   1.260   3.901  11.042  0.3663 -2.3675  0.1824
  505MPD2    H3 7563   1.351   4.122  11.058  1.2596 -2.7970 -3.6437
  505MPD2     N 7564   1.620   4.008  11.405  0.0501  0.2123 -0.1256
  505MPD2    H5 7565   1.664   4.100  11.411 -0.6705  0.5275  0.3797
  505MPD2    N1 7566   1.321   3.700  11.194  0.5719 -0.2985  0.6749
  505MPD2    H7 7567   1.258   3.674  11.120 -0.8881 -0.1238  1.8509
  506TMC3    C1 7568   1.313   3.458  11.221  0.1370 -0.5456  0.2762
  506TMC3    C2 7569   1.368   3.436  11.095  0.0312 -0.2612 -0.4891
  506TMC3    C3 7570   1.404   3.310  11.063  0.0397 -0.0825 -0.2364
  506TMC3    C4 7571   1.302   3.354  11.313 -0.1755 -0.4078  0.0021
  506TMC3    C5 7572   1.348   3.233  11.275 -0.0272 -0.2787 -0.7677
  506TMC3    C6 7573   1.391   3.202  11.146  1.0838 -0.4845  0.1847
  506TMC3     C 7574   1.332   3.592  11.288 -0.2023 -0.5869  1.1124
  506TMC3     O 7575   1.383   3.582  11.397  0.1683 -0.4218  0.6515
  506TMC3     H 7576   1.380   3.515  11.021  1.5093  1.8814  2.0381
  506TMC3    H1 7577   1.261   3.379  11.410 -1.3199  0.5495 -0.7187
  506TMC3    H2 7578   1.441   3.110  11.120  1.2538 -0.3680  0.1067
  506TMC3    C7 7579   1.461   3.189  11.360 -1.0719  0.0122  0.0713
  506TMC3    C8 7580   1.462   3.272  10.932 -0.1878  0.8230  0.4457
  506TMC3    O1 7581   1.522   3.090  11.325  0.3389  0.1863 -0.2645
  506TMC3    O2 7582   1.433   3.158  10.893 -0.4315 -0.0486 -0.8688
  507TMC3    C1 7583   1.950   3.700  15.137 -0.6579  0.2957  0.1608
  507TMC3    C2 7584   1.850   3.629  15.088  0.0536 -0.1463 -0.6214
  507TMC3    C3 7585   1.805   3.661  14.964 -0.0710  0.1198 -0.7175
  507TMC3    C4 7586   2.024   3.791  15.059 -0.6103 -0.2233 -0.2528
  507TMC3    C5 7587   1.981   3.829  14.940  0.0792  0.0413  0.0328
  507TMC3    C6 7588   1.875   3.758  14.892  0.3215 -0.8377 -0.2776
  507TMC3     C 7589   1.939   3.731  15.276 -0.2514  0.0349 -0.5106
  507TMC3     O 7590   2.023   3.806  15.319  0.2518  0.1635 -0.4240
  507TMC3     H 7591   1.809   3.541  15.135  0.4831  0.6393  1.2362
  507TMC3    H1 7592   2.108   3.837  15.110 -0.5066 -0.8240  0.1184
  507TMC3    H2 7593   1.834   3.788  14.797 -0.8255  0.6166  0.6921
  507TMC3    C7 7594   1.978   3.975  14.926 -0.5727  0.5235 -0.1042
  507TMC3    C8 7595   1.662   3.681  14.972  0.0103 -0.5105  0.4076
  507TMC3    O1 7596   1.881   4.028  14.878 -0.2856 -0.0363  0.2825
  507TMC3    O2 7597   1.594   3.603  15.035 -0.0293 -0.0132  0.0384
  508MPD2     C 7598   2.955   1.058  15.861 -0.2428  0.4198  0.1537
  508MPD2    C1 7599   2.914   1.106  15.982 -0.2063 -0.0845  0.5128
  508MPD2    C2 7600   2.852   1.226  15.980 -0.3015 -0.2678  0.3031
  508MPD2    C3 7601   2.846   1.303  15.867  0.1437  0.2662 -0.2308
  508MPD2    C4 7602   2.899   1.262  15.750  0.5630  0.4687  0.4435
  508MPD2    C5 7603   2.949   1.137  15.751  0.3338  0.1356 -0.5796
  508MPD2     H 7604   2.822   1.277  16.071 -0.4898  0.1821 -0.0091
  508MPD2    H1 7605   2.908   1.315  15.655 -1.1872 -1.2886 -0.6913
  508MPD2    H2 7606   2.998   0.960  15.843 -0.1233  0.6880 -1.0006
  508MPD2    H3 7607   2.971   1.092  15.655  2.3979 -0.0561 -0.0135
  508MPD2     N 7608   2.801   1.437  15.884 -0.1556  0.3143 -0.0323
  508MPD2    H5 7609   2.779   1.462  15.980 -0.8006 -0.7877  0.1034
  508MPD2    N1 7610   2.925   1.022  16.095 -0.5174  0.0823  0.2283
  508MPD2    H7 7611   2.980   0.938  16.077  0.1949  0.7273 -0.6437
  509TMC3    C1 7612   2.758   1.890  15.763  0.2520 -0.3216 -0.7647
  509TMC3    C2 7613   2.820   1.930  15.876 -0.1257  0.1132  0.3993
  509TMC3    C3 7614   2.853   1.831  15.966 -0.1048 -0.1815  0.1171
  509TMC3    C4 7615   2.722   1.761  15.748 -0.0289  0.2225  0.8845
  509TMC3    C5 7616   2.749   1.667  15.840  0.3769  0.3743 -0.4209
  509TMC3    C6 7617   2.817   1.698  15.960 -0.2708  0.2339 -0.5831
  509TMC3     C 7618   2.674   1.984  15.699 -0.5761  0.4430  1.2005
  509TMC3     O 7619   2.565   1.952  15.661 -0.3521  0.5302  0.7534
  509TMC3     H 7620   2.843   2.034  15.896  0.8622  0.1762 -1.0191
  509TMC3    H1 7621   2.684   1.722  15.654  0.6465 -0.8889  1.0688
  509TMC3    H2 7622   2.864   1.629  16.029 -1.3844 -0.4986 -0.5737
  509TMC3    C7 7623   2.775   1.532  15.786 -0.3341  0.5691  0.0635
  509TMC3    C8 7624   2.935   1.872  16.077  0.3545 -0.0758 -0.9365
  509TMC3    O1 7625   2.778   1.513  15.666 -0.2367  0.3515  0.4905
  509TMC3    O2 7626   2.926   1.810  16.182 -0.5159 -0.1683 -0.1580
  510MPD2     C 7627   0.878   3.216  14.797 -0.0400 -0.1407 -0.9593
  510MPD2    C1 7628   0.929   3.101  14.838  0.3176  0.2571  0.4657
  510MPD2    C2 7629   1.066   3.085  14.818 -1.0308  0.4616 -0.4812
  510MPD2    C3 7630   1.141   3.174  14.745  0.0522 -0.7450  0.4104
  510MPD2    C4 7631   1.091   3.297  14.711 -0.4626 -0.0483  0.7934
  510MPD2    C5 7632   0.956   3.314  14.734  0.5070  0.4766 -0.5001
  510MPD2     H 7633   1.118   2.996  14.849 -0.9247  0.3189 -1.0742
  510MPD2    H1 7634   1.141   3.383  14.669 -2.4215  1.1832  0.9881
  510MPD2    H2 7635   0.772   3.238  14.811  0.0414  1.1459 -2.3250
  510MPD2    H3 7636   0.909   3.408  14.707 -0.1806  0.8622  2.0379
  510MPD2     N 7637   1.275   3.143  14.723  0.3819  0.1368  0.5896
  510MPD2    H5 7638   1.298   3.046  14.740  0.8011  0.6313  2.7953
  510MPD2    N1 7639   0.846   3.008  14.907  0.3951  0.9210  0.1826
  510MPD2    H7 7640   0.746   3.023  14.914 -0.1858 -1.7123 -2.5499
  511TMC3    C1 7641   0.791   2.825  15.027 -0.0184 -0.4478  0.6105
  511TMC3    C2 7642   0.718   2.895  15.119  0.5888 -0.0765  0.1147
  511TMC3    C3 7643   0.681   2.827  15.232  0.0687  0.6879 -0.3877
  511TMC3    C4 7644   0.826   2.695  15.042  0.1726 -0.6265  0.2098
  511TMC3    C5 7645   0.784   2.632  15.157  0.1651 -0.2139 -0.3851
  511TMC3    C6 7646   0.720   2.696  15.251 -0.0362 -0.4227  0.5969
  511TMC3     C 7647   0.899   2.891  14.954 -0.2211 -0.3294 -0.1936
  511TMC3     O 7648   1.010   2.844  14.950  0.0438  0.0462  0.3596
  511TMC3     H 7649   0.693   3.000  15.106  0.2931 -0.2152 -0.4245
  511TMC3    H1 7650   0.903   2.648  14.982  1.4448  2.5215 -0.6304
  511TMC3    H2 7651   0.695   2.640  15.341  0.2496 -0.0067  0.9349
  511TMC3    C7 7652   0.829   2.491  15.183 -0.0833 -0.0040  0.4801
  511TMC3    C8 7653   0.616   2.905  15.336 -0.2562 -0.0484 -0.2875
  511TMC3    O1 7654   0.938   2.466  15.140  0.2291 -0.1861  0.6162
  511TMC3    O2 7655   0.607   3.025  15.311  0.5870 -0.6383 -0.3529
  512TMC3    C1 7656   4.286   2.754  13.793  0.5503  0.3185 -0.1961
  512TMC3    C2 7657   4.417   2.755  13.816  0.2031  0.4803 -0.3816
  512TMC3    C3 7658   4.499   2.663  13.749  0.0883  0.3642  0.7084
  512TMC3    C4 7659   4.242   2.676  13.688  0.3057  0.5978 -0.1996
  512TMC3    C5 7660   4.314   2.580  13.624 -0.3928 -0.2144  0.5680
  512TMC3    C6 7661   4.450   2.579  13.643 -0.5643  0.0125  0.3442
  512TMC3     C 7662   4.203   2.858  13.862 -0.2460 -0.5717  0.6593
  512TMC3     O 7663   4.258   2.952  13.914  0.1154 -0.0190 -0.4954
  512TMC3     H 7664   4.452   2.822  13.893 -0.3715  1.3405 -0.8635
  512TMC3    H1 7665   4.136   2.688  13.669  0.1993  0.0094  0.0151
  512TMC3    H2 7666   4.516   2.513  13.587 -0.1270  0.1251  0.7306
  512TMC3    C7 7667   4.248   2.503  13.514 -0.1080 -0.0180 -0.2596
  512TMC3    C8 7668   4.605   2.613  13.831 -0.1284  0.0906  0.7698
  512TMC3    O1 7669   4.150   2.555  13.460 -0.5481 -0.2516  0.4616
  512TMC3    O2 7670   4.625   2.492  13.813  0.5655  0.3385 -0.0419
  513MPD2     C 7671   1.530   2.166  13.823  1.0399 -0.2255  0.3535
  513MPD2    C1 7672   1.555   2.184  13.691  0.2253 -0.0412  0.2796
  513MPD2    C2 7673   1.609   2.315  13.655 -0.3693  0.6752 -0.4123
  513MPD2    C3 7674   1.645   2.411  13.744 -0.3585 -0.5830  1.0260
  513MPD2    C4 7675   1.613   2.393  13.879 -0.6036  0.0934 -0.0115
  513MPD2    C5 7676   1.553   2.270  13.911 -0.5608 -1.0657  0.1033
  513MPD2     H 7677   1.636   2.332  13.551  0.7350 -0.0554 -0.2454
  513MPD2    H1 7678   1.635   2.466  13.955 -0.8074  1.0744 -0.8927
  513MPD2    H2 7679   1.502   2.066  13.857 -1.6560 -0.5279 -2.8379
  513MPD2    H3 7680   1.528   2.248  14.015  0.0996  0.1517  0.5200
  513MPD2     N 7681   1.701   2.530  13.690 -0.8889 -0.1839 -0.2387
  513MPD2    H5 7682   1.710   2.536  13.589  0.4301 -0.7561 -0.1626
  513MPD2    N1 7683   1.523   2.084  13.597 -0.1879  0.1847 -0.1467
  513MPD2    H7 7684   1.493   1.995  13.637 -0.1615  1.0106  1.7118
  514TMC3    C1 7685   1.572   1.953  13.399  0.2255 -0.6875  0.1214
  514TMC3    C2 7686   1.449   1.936  13.344  0.2747  0.0891  0.7462
  514TMC3    C3 7687   1.441   1.919  13.208 -0.6052  0.1875  1.1039
  514TMC3    C4 7688   1.683   1.944  13.317  0.3612  0.2724 -0.6039
  514TMC3    C5 7689   1.668   1.925  13.183  0.2721 -0.1457 -0.0766
  514TMC3    C6 7690   1.548   1.906  13.127  0.3127 -0.3547  0.0677
  514TMC3     C 7691   1.573   2.087  13.466  0.0872 -0.5144 -0.3433
  514TMC3     O 7692   1.611   2.172  13.387  0.0628 -0.4627  0.7176
  514TMC3     H 7693   1.357   1.958  13.396 -0.0394  0.8114 -0.1106
  514TMC3    H1 7694   1.782   1.974  13.350 -0.5296  2.1004  0.4215
  514TMC3    H2 7695   1.545   1.892  13.019 -0.5034 -0.1242  0.0611
  514TMC3    C7 7696   1.744   2.018  13.101 -0.0388  0.7927 -0.5533
  514TMC3    C8 7697   1.316   1.958  13.147  0.2456 -0.4014  0.0629
  514TMC3    O1 7698   1.747   1.999  12.982 -0.0522  0.5767 -0.0889
  514TMC3    O2 7699   1.212   1.961  13.211  0.4323 -0.4000  0.0521
  515MPD2     C 7700   4.403   4.716  15.165  0.6070  0.0446  0.2092
  515MPD2    C1 7701   4.433   4.583  15.177  0.7252 -0.1258  0.0777
  515MPD2    C2 7702   4.555   4.544  15.226 -0.0224 -0.8367 -0.9587
  515MPD2    C3 7703   4.647   4.641  15.264  0.0063  0.7768  0.0864
  515MPD2    C4 7704   4.616   0.041  15.246 -0.4713  0.5016 -0.2859
  515MPD2    C5 7705   4.499   0.074  15.186  0.3392 -0.2702 -0.5781
  515MPD2     H 7706   4.584   4.440  15.228  0.4642 -0.6441  1.7640
  515MPD2    H1 7707   4.678   0.121  15.286 -0.1036 -0.8865  1.9591
  515MPD2    H2 7708   4.306   0.008  15.125  0.4583  0.7345  1.0492
  515MPD2    H3 7709   4.469   0.178  15.187  2.3382  0.2807  0.8276
  515MPD2     N 7710   0.044   4.622  15.305  0.2358  0.1018  0.2667
  515MPD2    H5 7711   0.097   4.707  15.317 -0.3970  0.6057 -0.4675
  515MPD2    N1 7712   4.331   4.488  15.143  0.6334  0.5676  0.7582
  515MPD2    H7 7713   4.245   4.528  15.107 -0.2373 -2.4345 -0.5011
  516TMC3    C1 7714   4.207   4.306  15.100 -0.1598 -0.4965  0.8989
  516TMC3    C2 7715   4.164   4.365  14.984  0.3197  0.6399 -0.2554
  516TMC3    C3 7716   4.083   4.282  14.908  0.5087 -0.6536  0.1978
  516TMC3    C4 7717   4.173   4.176  15.126  0.5330 -0.6560  0.3572
  516TMC3    C5 7718   4.107   4.094  15.041 -0.5974  0.1379  0.7346
  516TMC3    C6 7719   4.056   4.151  14.927 -0.7160  0.0136 -0.4329
  516TMC3     C 7720   4.327   4.354  15.156 -0.4650  0.2211 -0.4081
  516TMC3     O 7721   4.393   4.274  15.218  0.1266 -0.4013 -0.0511
  516TMC3     H 7722   4.182   4.468  14.956 -0.7386  1.3374  1.6753
  516TMC3    H1 7723   4.224   4.126  15.207 -0.5678 -2.6585 -0.2050
  516TMC3    H2 7724   3.994   4.103  14.852  0.9512 -1.7328 -0.6841
  516TMC3    C7 7725   4.095   3.954  15.075  0.1259 -0.6848 -0.1471
  516TMC3    C8 7726   4.049   4.338  14.774 -0.5045 -0.3150  0.2372
  516TMC3    O1 7727   4.091   3.935  15.192 -0.0512 -1.2036  0.3618
  516TMC3    O2 7728   3.955   4.293  14.717 -0.2036  0.2205  0.1831
  517MPD2     C 7729   4.058   0.489  17.675 -0.4608 -0.9478  0.0085
  517MPD2    C1 7730   4.162   0.478   0.017  0.5239 -0.1980  1.1471
  517MPD2    C2 7731   4.178   0.566   0.122  0.2241 -0.0646 -0.6304
  517MPD2    C3 7732   4.081   0.658   0.156 -0.2011  0.1296 -0.3730
  517MPD2    C4 7733   3.969   0.664   0.071 -0.1486  0.1574 -0.5231
  517MPD2    C5 7734   3.963   0.579  17.710  0.0319  0.3062  0.7633
  517MPD2     H 7735   4.269   0.551   0.179 -0.5710 -0.3291  0.5699
  517MPD2    H1 7736   3.883   0.720   0.105  0.3052  0.8487 -0.5270
  517MPD2    H2 7737   4.040   0.430  17.586  1.2569  0.4564 -1.2592
  517MPD2    H3 7738   3.877   0.584  17.644 -0.8118 -0.3871  1.8265
  517MPD2     N 7739   4.092   0.740   0.263 -0.8715  0.4560 -0.0945
  517MPD2    H5 7740   4.008   0.791   0.288 -1.6167 -0.6990 -0.2364
  517MPD2    N1 7741   4.259   0.373  17.739 -0.5834  0.7458  0.3080
  517MPD2    H7 7742   4.330   0.366   0.066  1.4015 -2.2107 -1.9527
  518TMC3    C1 7743   4.380   0.203  17.637 -0.4828 -0.2536  1.0033
  518TMC3    C2 7744   4.364   0.086  17.576  0.2401 -1.2793  0.1446
  518TMC3    C3 7745   4.475   0.024  17.532 -0.6762  0.5028  0.7572
  518TMC3    C4 7746   4.496   0.265  17.659 -0.5152  0.0923 -0.4524
  518TMC3    C5 7747   4.611   0.199  17.626 -0.0486  0.6476 -0.3643
  518TMC3    C6 7748   4.598   0.072  17.562 -0.0200 -0.2894  0.5353
  518TMC3     C 7749   4.267   0.293  17.631 -0.2845 -0.2778 -0.2223
  518TMC3     O 7750   4.201   0.285  17.529 -0.1908  0.3090 -0.4960
  518TMC3     H 7751   4.265   0.050  17.552 -0.2888 -0.7817  1.5931
  518TMC3    H1 7752   4.494   0.363  17.706  1.5296 -0.8712  1.6248
  518TMC3    H2 7753   4.687   0.018  17.533  1.5995  1.9886  1.2844
  518TMC3    C7 7754   0.007   0.260  17.649 -0.2018  0.0069 -0.5807
  518TMC3    C8 7755   4.467   4.614  17.503 -0.2221  0.4839  0.2702
  518TMC3    O1 7756   0.007   0.371  17.696 -0.3923 -0.3508  0.5630
  518TMC3    O2 7757   4.568   4.564  17.455  0.5627 -0.1998  0.5656
  519MPD2     C 7758   1.256   4.206  14.379  0.1672  0.1361 -0.4633
  519MPD2    C1 7759   1.138   4.136  14.361  0.1564  0.2192 -0.7017
  519MPD2    C2 7760   1.142   3.996  14.369 -0.3825 -0.0019  0.1985
  519MPD2    C3 7761   1.266   3.928  14.385 -0.2734  0.1650  0.1717
  519MPD2    C4 7762   1.374   4.004  14.418  0.5610  0.4685 -0.2125
  519MPD2    C5 7763   1.373   4.138  14.409 -0.3953  0.2795 -0.3975
  519MPD2     H 7764   1.051   3.939  14.358 -0.9224  1.0282 -0.6986
  519MPD2    H1 7765   1.466   3.950  14.435 -0.7910 -2.3982 -1.8518
  519MPD2    H2 7766   1.274   4.313  14.378  0.0209  0.1576 -0.8473
  519MPD2    H3 7767   1.454   4.203  14.439 -0.4200 -0.4938  1.3298
  519MPD2     N 7768   1.275   3.786  14.397  0.4636  0.3178 -0.2314
  519MPD2    H5 7769   1.367   3.748  14.419  1.2550  2.6675  0.5079
  519MPD2    N1 7770   1.008   4.199  14.336 -0.6368 -0.0968 -0.1941
  519MPD2    H7 7771   0.930   4.139  14.312  0.7377 -2.1160  0.4019
  520TMC3    C1 7772   1.248   3.566  14.322  0.3944  0.1978 -0.3370
  520TMC3    C2 7773   1.183   3.500  14.221 -0.3238  0.7465  0.1300
  520TMC3    C3 7774   1.250   3.411  14.141  0.3852  0.6442 -0.3510
  520TMC3    C4 7775   1.386   3.546  14.336  0.2767  0.7829 -0.5727
  520TMC3    C5 7776   1.456   3.470  14.242  0.6485  0.2828 -0.1589
  520TMC3    C6 7777   1.384   3.385  14.161 -0.1725  0.5916  0.4158
  520TMC3     C 7778   1.185   3.696  14.350 -0.2738  0.1226  0.2988
  520TMC3     O 7779   1.076   3.718  14.299  0.0894  1.0616  0.3513
  520TMC3     H 7780   1.076   3.518  14.217 -0.1058  1.7780 -0.8879
  520TMC3    H1 7781   1.451   3.603  14.402 -0.3021 -0.2896  0.9392
  520TMC3    H2 7782   1.427   3.337  14.074  1.9357  1.2042  1.1306
  520TMC3    C7 7783   1.598   3.458  14.270 -0.0251 -0.3901 -0.0805
  520TMC3    C8 7784   1.197   3.371  14.011 -0.4759 -0.0572  0.0556
  520TMC3    O1 7785   1.638   3.446  14.383  0.0766  0.3562  0.5797
  520TMC3    O2 7786   1.232   3.266  13.965 -0.4232 -0.3216  0.0713
  521MPD2     C 7787   1.653   1.138   0.001 -0.7411  0.0866 -0.5050
  521MPD2    C1 7788   1.661   1.244  17.657  0.1363 -1.0626 -0.5645
  521MPD2    C2 7789   1.761   1.244  17.556  0.4479  0.1118  0.1259
  521MPD2    C3 7790   1.847   1.136  17.544  0.1469  0.0279  0.1628
  521MPD2    C4 7791   1.837   1.035  17.634  0.1495 -0.3118  0.0942
  521MPD2    C5 7792   1.743   1.037  17.733  0.2229  1.3915 -0.7468
  521MPD2     H 7793   1.758   1.325  17.485  2.0737 -1.1339 -1.3603
  521MPD2    H1 7794   1.891   0.941  17.631 -0.2045 -0.4818 -1.0682
  521MPD2    H2 7795   1.576   1.133   0.078  0.9310 -3.6431  0.9000
  521MPD2    H3 7796   1.733   0.958   0.062 -1.0497  1.1729 -1.1514
  521MPD2     N 7797   1.936   1.129  17.429 -0.8962  0.3633  0.1905
  521MPD2    H5 7798   1.928   1.203  17.360 -2.1879  0.1724  0.1520
  521MPD2    N1 7799   1.567   1.346  17.677  0.1796 -0.1115 -0.3170
  521MPD2    H7 7800   1.485   1.317  17.730  1.6790 -1.7750  1.0594
  522TMC3    C1 7801   2.086   1.045  17.268  0.2404 -0.2755  0.3906
  522TMC3    C2 7802   2.122   0.943  17.190  0.0234  0.0744 -0.2939
  522TMC3    C3 7803   2.216   0.953  17.096  0.3241  0.2905 -0.1757
  522TMC3    C4 7804   2.159   1.166  17.263 -0.7158 -0.1322  0.6914
  522TMC3    C5 7805   2.241   1.185  17.151  0.3000  0.2575  0.6397
  522TMC3    C6 7806   2.272   1.075  17.067  0.2783 -0.3499 -0.5938
  522TMC3     C 7807   2.009   1.019  17.384 -0.0815 -0.2129 -1.0200
  522TMC3     O 7808   1.990   0.898  17.411  0.3044  0.5314 -0.6367
  522TMC3     H 7809   2.053   0.861  17.202  0.6437 -0.0013  2.9406
  522TMC3    H1 7810   2.140   1.247  17.333 -0.1690 -0.0730  0.7672
  522TMC3    H2 7811   2.351   1.091  16.994  0.5523  0.1220 -0.1952
  522TMC3    C7 7812   2.320   1.302  17.134 -0.5572  0.1032 -0.4019
  522TMC3    C8 7813   2.203   0.856  16.989  0.1512  0.6292 -0.6919
  522TMC3    O1 7814   2.426   1.300  17.074 -0.0061 -0.2423  0.7864
  522TMC3    O2 7815   2.101   0.794  16.979 -0.0103 -0.5803  0.1401
  523MPD2     C 7816   4.658   2.231   9.861 -0.0191 -0.1332 -0.1655
  523MPD2    C1 7817   4.570   2.262   9.967 -0.0624  0.9536 -0.7642
  523MPD2    C2 7818   4.536   2.396   9.995  0.6526 -0.2404  0.0905
  523MPD2    C3 7819   4.581   2.495   9.910 -0.0056 -0.0338 -0.3368
  523MPD2    C4 7820   4.657   2.463   9.795 -0.7400 -0.0657  0.6919
  523MPD2    C5 7821   4.695   2.330   9.777  0.0192  0.3011 -0.3593
  523MPD2     H 7822   4.475   2.414  10.083  0.4259  0.4956 -0.2171
  523MPD2    H1 7823   4.663   2.536   9.716  4.0582 -1.1949  0.0118
  523MPD2    H2 7824   4.679   2.127   9.835 -0.8265  0.3707 -2.8179
  523MPD2    H3 7825   0.017   2.301   9.691  2.0875 -0.4703  1.2977
  523MPD2     N 7826   4.543   2.632   9.923 -0.8554 -0.0823  0.2732
  523MPD2    H5 7827   4.567   2.700   9.851 -0.8538 -1.1439 -0.7479
  523MPD2    N1 7828   4.544   2.157  10.059  0.2298  0.7123 -0.1760
  523MPD2    H7 7829   4.584   2.067  10.036 -0.3283  0.5849 -0.6362
  524TMC3    C1 7830   4.490   2.822  10.039 -0.2724  0.0664  0.0735
  524TMC3    C2 7831   4.608   2.882  10.001 -0.2454 -0.1780  0.1949
  524TMC3    C3 7832   4.628   3.009  10.049  0.2082 -0.0274 -0.0621
  524TMC3    C4 7833   4.392   2.887  10.109  1.0096 -0.0414 -0.4659
  524TMC3    C5 7834   4.417   3.012  10.152 -0.4183  0.4036 -0.8457
  524TMC3    C6 7835   4.534   3.076  10.119  0.1138 -0.3326 -0.1508
  524TMC3     C 7836   4.474   2.677  10.032 -0.2092 -0.0312  0.1198
  524TMC3     O 7837   4.389   2.630  10.102 -0.0903 -0.2140  0.1577
  524TMC3     H 7838   4.695   2.829   9.964 -1.0224 -0.9753 -0.4949
  524TMC3    H1 7839   4.302   2.831  10.130  0.2960  1.0377 -0.6486
  524TMC3    H2 7840   4.543   3.181  10.144 -0.5126 -0.2177 -0.4081
  524TMC3    C7 7841   4.320   3.077  10.244  0.1270 -0.2457  0.3672
  524TMC3    C8 7842   4.728   3.092   9.985  0.3510  0.7150  0.2713
  524TMC3    O1 7843   4.257   3.001  10.316  0.0088 -1.0441 -0.4756
  524TMC3    O2 7844   0.024   3.068   9.874 -0.1185 -0.1948 -0.4445
  525MPD2     C 7845   2.527   3.576  14.607 -0.6287 -0.1815  0.6971
  525MPD2    C1 7846   2.625   3.638  14.674  1.0012 -0.3140  0.5501
  525MPD2    C2 7847   2.690   3.735  14.607 -0.0148  0.0091  0.3768
  525MPD2    C3 7848   2.664   3.773  14.475 -0.4477 -0.0433 -0.4978
  525MPD2    C4 7849   2.561   3.711  14.418  0.2349 -0.8894 -0.4429
  525MPD2    C5 7850   2.496   3.607  14.480 -0.3259  0.8212 -0.0608
  525MPD2     H 7851   2.769   3.780  14.666  1.1679 -2.3584  0.6223
  525MPD2    H1 7852   2.516   3.741  14.324  0.9468 -1.0712 -0.8445
  525MPD2    H2 7853   2.467   3.497  14.650 -0.1105 -1.5340 -1.0714
  525MPD2    H3 7854   2.417   3.555  14.427  2.7843 -2.4073 -1.4863
  525MPD2     N 7855   2.712   3.899  14.431  1.0609  0.3442 -0.4890
  525MPD2    H5 7856   2.655   3.945  14.361  2.7503  2.8548 -0.2372
  525MPD2    N1 7857   2.666   3.596  14.809 -0.1257  0.7801 -0.7253
  525MPD2    H7 7858   2.739   3.650  14.855  0.3976 -0.1451 -0.4632
  526TMC3    C1 7859   2.679   3.433  14.991 -0.7792 -0.7613  0.0609
  526TMC3    C2 7860   2.619   3.355  15.087 -0.2104 -0.1413 -0.5198
  526TMC3    C3 7861   2.709   3.294  15.175  0.2196 -0.2553  0.0934
  526TMC3    C4 7862   2.811   3.449  14.973  0.5674  0.5158 -0.6356
  526TMC3    C5 7863   2.891   3.390  15.066 -0.6973 -0.0070  0.1827
  526TMC3    C6 7864   2.844   3.302  15.155  0.4134  0.5672  0.3518
  526TMC3     C 7865   2.596   3.497  14.887  0.9349 -0.4262  0.6351
  526TMC3     O 7866   2.487   3.442  14.870  0.7604  0.1209  0.4863
  526TMC3     H 7867   2.514   3.330  15.083 -0.2848  0.3368 -1.5492
  526TMC3    H1 7868   2.857   3.511  14.897 -0.6918  0.3731 -1.5153
  526TMC3    H2 7869   2.916   3.262  15.226  0.3100  0.2426  0.2723
  526TMC3    C7 7870   3.032   3.414  15.044 -0.2555  0.0095 -0.3599
  526TMC3    C8 7871   2.665   3.248  15.307  0.1465 -0.0378  0.4434
  526TMC3    O1 7872   3.057   3.523  14.996  0.6122 -0.1078  0.2196
  526TMC3    O2 7873   2.754   3.251  15.396  0.0095 -0.1570 -0.5682
  527MPD2     C 7874   0.730   1.174   1.880  0.4025  0.6534  0.1847
  527MPD2    C1 7875   0.745   1.205   1.748 -0.1421  1.1764 -0.1156
  527MPD2    C2 7876   0.828   1.125   1.676  0.7559  0.3403  0.1500
  527MPD2    C3 7877   0.899   1.018   1.734  0.4623 -0.2333 -0.1278
  527MPD2    C4 7878   0.879   0.990   1.867  0.6179  0.8748  0.0290
  527MPD2    C5 7879   0.790   1.064   1.936 -0.2599  0.9253 -0.3183
  527MPD2     H 7880   0.829   1.146   1.570  0.5088 -1.4275 -0.2035
  527MPD2    H1 7881   0.915   0.896   1.907  0.2800  0.3003 -1.0085
  527MPD2    H2 7882   0.659   1.225   1.944  0.9691  1.6644  0.0184
  527MPD2    H3 7883   0.770   1.029   2.036 -0.4762 -0.8306 -0.9697
  527MPD2     N 7884   0.970   0.929   1.645 -0.2150 -0.1744 -0.0027
  527MPD2    H5 7885   0.978   0.946   1.545 -2.6795  0.5689 -0.0729
  527MPD2    N1 7886   0.679   1.309   1.679 -0.7471  0.1952  0.5763
  527MPD2    H7 7887   0.705   1.319   1.582 -2.9180  1.2469  0.1191
  528TMC3    C1 7888   0.560   1.496   1.633  0.5025 -0.0514  0.0821
  528TMC3    C2 7889   0.602   1.476   1.503  0.0176  0.4397 -0.0440
  528TMC3    C3 7890   0.559   1.567   1.410  0.2467 -0.3838  0.1196
  528TMC3    C4 7891   0.480   1.601   1.668  0.5046 -0.0238 -0.1400
  528TMC3    C5 7892   0.443   1.691   1.569  0.7334 -0.2817  0.0502
  528TMC3    C6 7893   0.465   1.664   1.438  0.2132 -0.5763 -0.2671
  528TMC3     C 7894   0.607   1.405   1.738 -0.2164 -0.2300  0.1122
  528TMC3     O 7895   0.572   1.423   1.852 -0.2636 -0.2713 -0.2495
  528TMC3     H 7896   0.668   1.401   1.461 -1.3964 -0.8122 -0.0315
  528TMC3    H1 7897   0.454   1.615   1.772 -1.7561  2.5779 -1.0351
  528TMC3    H2 7898   0.415   1.726   1.364 -0.2961  1.5823  1.9042
  528TMC3    C7 7899   0.321   1.770   1.591 -0.3962  0.4789  0.2156
  528TMC3    C8 7900   0.609   1.556   1.277  0.3492  0.1299  0.4205
  528TMC3    O1 7901   0.238   1.769   1.501  0.2954  0.0380 -0.7128
  528TMC3    O2 7902   0.674   1.455   1.260  0.1537 -0.3398  0.3148
  529MPD2     C 7903   2.932   3.889   1.276  0.5068 -0.3296  0.6839
  529MPD2    C1 7904   2.988   3.839   1.165 -0.1866 -0.0357 -0.5333
  529MPD2    C2 7905   2.932   3.871   1.044 -0.2115 -0.4469 -0.6831
  529MPD2    C3 7906   2.814   3.942   1.044  0.1544  0.2804 -1.0909
  529MPD2    C4 7907   2.760   3.995   1.162  0.1311  0.8126 -0.1116
  529MPD2    C5 7908   2.828   3.969   1.282 -0.3083  1.0018 -0.6976
  529MPD2     H 7909   2.989   3.829   0.961  2.2535 -3.4968  2.5462
  529MPD2    H1 7910   2.678   4.065   1.174 -0.9001 -0.5591  0.7953
  529MPD2    H2 7911   2.982   3.862   1.369  1.0160  0.6577  0.6927
  529MPD2    H3 7912   2.793   3.994   1.381 -0.4043  0.1949 -0.5282
  529MPD2     N 7913   2.737   3.981   0.929  0.0342  0.3494 -0.3014
  529MPD2    H5 7914   2.667   4.052   0.947 -0.2016  0.1252 -0.3335
  529MPD2    N1 7915   3.095   3.745   1.169 -0.4170  0.6001  0.1470
  529MPD2    H7 7916   3.142   3.733   1.080 -1.4046 -1.9125 -0.0412
  530TMC3    C1 7917   3.234   3.571   1.259  0.9510  1.1728  0.0942
  530TMC3    C2 7918   3.332   3.596   1.170  0.0110 -0.7023  0.4166
  530TMC3    C3 7919   3.442   3.516   1.174 -0.2956  0.4265 -0.0728
  530TMC3    C4 7920   3.226   3.467   1.351 -0.3930 -0.3941  0.5588
  530TMC3    C5 7921   3.340   3.391   1.348  0.3934 -0.1393 -0.1794
  530TMC3    C6 7922   3.444   3.410   1.257 -0.7018  0.3402 -0.3733
  530TMC3     C 7923   3.129   3.668   1.283  0.6888  0.5810 -0.2516
  530TMC3     O 7924   3.074   3.659   1.391 -0.2755 -0.4549  0.4666
  530TMC3     H 7925   3.330   3.682   1.104  2.2929 -1.3765 -0.5475
  530TMC3    H1 7926   3.134   3.444   1.404 -0.2940 -1.7026  0.1587
  530TMC3    H2 7927   3.510   3.325   1.243  0.3844  1.4684 -2.0865
  530TMC3    C7 7928   3.365   3.282   1.441  0.1717  0.2223  0.0691
  530TMC3    C8 7929   3.531   3.508   1.061 -0.6788  0.2464  0.9694
  530TMC3    O1 7930   3.466   3.217   1.435 -0.0489  0.0176 -0.0959
  530TMC3    O2 7931   3.498   3.570   0.962 -0.4613 -0.0139 -0.6189
  531MPD2     C 7932   1.949   2.477  13.030  0.1345 -0.2238  0.0488
  531MPD2    C1 7933   1.892   2.473  13.153  0.5441 -0.4407  0.1116
  531MPD2    C2 7934   1.835   2.353  13.194  0.1990 -0.0720 -0.6928
  531MPD2    C3 7935   1.832   2.240  13.116  0.5750  0.0895 -0.0414
  531MPD2    C4 7936   1.885   2.253  12.990  0.2730 -0.6116  0.3696
  531MPD2    C5 7937   1.938   2.368  12.948  0.6765 -0.1431  0.6851
  531MPD2     H 7938   1.794   2.345  13.295  1.3307  1.5315 -0.1032
  531MPD2    H1 7939   1.885   2.168  12.923  0.6403  1.0093 -1.6538
  531MPD2    H2 7940   1.974   2.575  12.991  2.0642 -0.0936  1.6069
  531MPD2    H3 7941   1.983   2.377  12.850 -1.9310 -2.1501 -0.6622
  531MPD2     N 7942   1.768   2.126  13.170  0.4423 -0.0263 -0.1769
  531MPD2    H5 7943   1.724   2.140  13.261  2.3765 -2.7750  1.1643
  531MPD2    N1 7944   1.900   2.595  13.234  0.0151  0.1631  0.5766
  531MPD2    H7 7945   1.952   2.671  13.191  1.6819 -0.6603  1.1310
  532TMC3    C1 7946   1.894   2.704  13.444 -0.6784 -0.5412  0.9699
  532TMC3    C2 7947   1.799   2.718  13.539 -0.3664  0.6314 -0.4495
  532TMC3    C3 7948   1.823   2.727  13.675  0.0705 -0.2857  0.0554
  532TMC3    C4 7949   2.019   2.664  13.480 -0.1880 -0.3507 -0.5767
  532TMC3    C5 7950   2.047   2.669  13.616  0.6405  0.0345  0.8912
  532TMC3    C6 7951   1.953   2.711  13.706  0.5486 -0.1268 -0.2408
  532TMC3     C 7952   1.841   2.608  13.355  0.8491 -0.2660  0.1031
  532TMC3     O 7953   1.784   2.529  13.425  0.6935  0.1991  0.0609
  532TMC3     H 7954   1.699   2.735  13.501 -0.9657 -0.7907  0.4715
  532TMC3    H1 7955   2.083   2.621  13.403  2.0059  1.3164  0.3160
  532TMC3    H2 7956   1.979   2.691  13.809  1.9734  2.3373 -0.1059
  532TMC3    C7 7957   2.175   2.627  13.675 -0.2795  0.0070 -0.0143
  532TMC3    C8 7958   1.749   2.642  13.761 -0.3730  0.8412  0.5902
  532TMC3    O1 7959   2.226   2.692  13.776  0.5530 -0.2670 -0.2970
  532TMC3    O2 7960   1.771   2.654  13.885 -0.1720  0.2052 -0.4631
  533TMC3    C1 7961   2.835   4.106  14.464 -0.0500 -0.6663 -0.4364
  533TMC3    C2 7962   2.952   4.173  14.492  0.3778  0.7306 -0.0610
  533TMC3    C3 7963   2.952   4.286  14.573  0.1595  0.5604  0.6458
  533TMC3    C4 7964   2.718   4.173  14.499  0.4453 -0.4155 -0.1307
  533TMC3    C5 7965   2.720   4.280  14.588  0.4918  0.1117  0.0876
  533TMC3    C6 7966   2.833   4.338  14.624  0.0201  0.3511 -0.3576
  533TMC3     C 7967   2.825   3.963  14.488 -0.3702  0.2267  0.1183
  533TMC3     O 7968   2.929   3.915  14.531  0.3025 -0.0493  0.6051
  533TMC3     H 7969   3.048   4.136  14.457 -0.2494 -1.5063  0.5950
  533TMC3    H1 7970   2.622   4.128  14.479  0.6376 -0.3026 -1.3075
  533TMC3    H2 7971   2.844   4.430  14.681 -0.1845 -0.7318  1.4226
  533TMC3    C7 7972   2.626   4.246  14.694  0.6507  0.0544 -0.8192
  533TMC3    C8 7973   3.078   4.345  14.623 -0.1804 -1.0431  0.1762
  533TMC3    O1 7974   2.598   4.128  14.695  0.1108 -0.5004 -0.4198
  533TMC3    O2 7975   3.066   4.358  14.745  0.2826  0.3384  0.3708
  534MPD2     C 7976   0.062   4.614   2.338 -0.7139 -0.9989  0.1168
  534MPD2    C1 7977   0.058   4.723   2.248 -0.3140 -0.0635 -0.3842
  534MPD2    C2 7978   0.061   4.690   2.111  0.1868  0.2457  0.0294
  534MPD2    C3 7979   0.052   4.556   2.064 -0.3397  0.3139 -0.8306
  534MPD2    C4 7980   0.050   4.452   2.154 -0.1231  0.6837 -0.0198
  534MPD2    C5 7981   0.060   4.481   2.286  0.6272 -0.6481  0.0127
  534MPD2     H 7982   0.075   0.036   2.042 -1.2085 -0.7456 -1.4389
  534MPD2    H1 7983   0.039   4.351   2.116  1.5038  0.4564  0.1086
  534MPD2    H2 7984   0.061   4.630   2.445  2.0329  0.1667 -0.0210
  534MPD2    H3 7985   0.059   4.406   2.364 -2.4506 -1.4340 -0.7986
  534MPD2     N 7986   0.034   4.528   1.928  0.1512 -0.0450  0.2693
  534MPD2    H5 7987   0.021   4.429   1.912 -1.1255  0.4872 -1.9104
  534MPD2    N1 7988   0.076   0.121   2.285 -0.4243 -0.9132 -0.9255
  534MPD2    H7 7989   0.080   0.183   2.206  0.7774  3.3099  2.4615
  535TMC3    C1 7990   0.057   4.532   1.700 -0.2999 -0.0846 -0.6161
  535TMC3    C2 7991   4.703   4.427   1.679 -0.1168 -0.0229  0.1551
  535TMC3    C3 7992   4.724   4.368   1.563  0.0190  0.2553  0.5831
  535TMC3    C4 7993   0.144   4.579   1.607 -0.8665  0.2899 -0.0643
  535TMC3    C5 7994   0.140   4.521   1.480  0.3681  0.2399  0.2492
  535TMC3    C6 7995   0.061   4.416   1.459 -0.0850 -0.0609  0.2803
  535TMC3     C 7996   0.050   4.611   1.822  0.0566  0.1824  0.0111
  535TMC3     O 7997   0.065   4.735   1.809  0.5357  0.6402 -0.2606
  535TMC3     H 7998   4.645   4.383   1.759 -0.9221  1.6680  0.4975
  535TMC3    H1 7999   0.206   4.666   1.627 -2.1356  0.6469  2.2990
  535TMC3    H2 8000   0.057   4.364   1.364 -0.7955 -1.7437  1.2188
  535TMC3    C7 8001   0.241   4.527   1.378  0.0156  0.2207 -0.0766
  535TMC3    C8 8002   4.649   4.249   1.531  0.9397  0.7127 -0.2528
  535TMC3    O1 8003   0.254   4.439   1.293  0.4506 -0.0190  0.1941
  535TMC3    O2 8004   4.627   4.216   1.416  0.4656  0.5312 -0.2951
  536MPD2     C 8005   3.341   2.953  16.687 -0.4533  0.9704 -0.4494
  536MPD2    C1 8006   3.430   2.887  16.606  0.0964 -0.9113  0.3145
  536MPD2    C2 8007   3.436   2.926  16.468 -0.4299  0.0138 -0.0403
  536MPD2    C3 8008   3.367   3.030  16.418 -0.0255  0.5898 -0.1294
  536MPD2    C4 8009   3.278   3.088  16.498 -0.3068 -0.4416  0.1066
  536MPD2    C5 8010   3.264   3.054  16.631  0.1678 -0.3655 -0.2972
  536MPD2     H 8011   3.496   2.864  16.403 -1.4387 -1.5068  0.4668
  536MPD2    H1 8012   3.219   3.166  16.452 -0.0828  0.0960  0.7223
  536MPD2    H2 8013   3.327   2.932  16.792 -0.4419 -1.5530 -0.9654
  536MPD2    H3 8014   3.197   3.108  16.696  2.9996  1.9495  0.6821
  536MPD2     N 8015   3.365   3.071  16.285 -0.6593  0.0253 -0.1926
  536MPD2    H5 8016   3.306   3.150  16.260  1.0347  2.1121  2.3549
  536MPD2    N1 8017   3.513   2.793  16.670 -0.0639  0.6339  0.3045
  536MPD2    H7 8018   3.492   2.759  16.763  0.4970  3.2055  1.3713
  537TMC3    C1 8019   3.714   2.680  16.705  0.2991  0.0010 -0.1030
  537TMC3    C2 8020   3.849   2.688  16.703  1.0518 -0.9373 -0.1619
  537TMC3    C3 8021   3.917   2.608  16.780 -0.6681 -0.0608 -0.6235
  537TMC3    C4 8022   3.656   2.590  16.787 -0.4277  0.4311 -0.1499
  537TMC3    C5 8023   3.735   2.502  16.860 -0.1661  0.2679 -0.7007
  537TMC3    C6 8024   3.868   2.512  16.865  0.3609  0.0963  0.0587
  537TMC3     C 8025   3.631   2.758  16.617 -0.2119 -0.2734 -1.0539
  537TMC3     O 8026   3.695   2.809  16.527 -0.0529 -0.0303  0.2762
  537TMC3     H 8027   3.883   2.765  16.634 -3.4481  2.6490  1.5684
  537TMC3    H1 8028   3.549   2.570  16.779 -0.0345 -1.9430  0.3173
  537TMC3    H2 8029   3.933   2.454  16.929  1.4521 -0.0620 -1.1905
  537TMC3    C7 8030   3.661   2.421  16.957 -0.9198  0.1936  0.7847
  537TMC3    C8 8031   4.044   2.667  16.824  0.8621 -0.9082 -0.2577
  537TMC3    O1 8032   3.542   2.433  16.948  0.3842  0.2366 -0.5834
  537TMC3    O2 8033   4.090   2.634  16.936 -0.1227  0.2699 -0.5173
  538TMC3    C1 8034   0.849   1.812  11.018 -0.0961  0.0835  0.3028
  538TMC3    C2 8035   0.919   1.877  10.924  0.3714 -0.4096  0.3482
  538TMC3    C3 8036   0.872   1.986  10.861 -0.6070 -0.5036 -0.5423
  538TMC3    C4 8037   0.721   1.849  11.044  0.4206  0.1197  0.1341
  538TMC3    C5 8038   0.677   1.973  10.992 -0.3106  0.2617  0.5533
  538TMC3    C6 8039   0.750   2.039  10.895  0.6118 -0.0285 -0.1428
  538TMC3     C 8040   0.881   1.672  11.048  0.1757  0.0117 -0.3369
  538TMC3     O 8041   0.788   1.591  11.054  0.3619  0.1155 -0.6754
  538TMC3     H 8042   1.011   1.833  10.886  0.0016 -1.2049  0.3669
  538TMC3    H1 8043   0.651   1.796  11.108  2.2389  0.0607  2.0707
  538TMC3    H2 8044   0.701   2.114  10.835  1.2845 -0.7586 -1.5882
  538TMC3    C7 8045   0.560   2.037  11.057 -0.1384 -0.5654  0.4775
  538TMC3    C8 8046   0.953   2.043  10.756 -0.2044  0.1569  0.4459
  538TMC3    O1 8047   0.481   1.974  11.124 -0.5326  0.0472 -0.1712
  538TMC3    O2 8048   1.055   1.998  10.708 -0.1176 -0.4014  0.0190
  539MPD2     C 8049   0.435   1.535  11.725  0.3783 -0.1961  0.3043
  539MPD2    C1 8050   0.377   1.421  11.673  0.0227  0.3250 -0.1775
  539MPD2    C2 8051   0.242   1.420  11.649  0.1991 -0.1336 -0.1471
  539MPD2    C3 8052   0.171   1.538  11.671 -0.5510  0.9548 -0.6402
  539MPD2    C4 8053   0.226   1.646  11.729 -0.0837 -0.6285  0.6974
  539MPD2    C5 8054   0.359   1.643  11.755 -0.0057  0.4373  0.2430
  539MPD2     H 8055   0.204   1.329  11.605 -1.3230  1.0221 -1.2171
  539MPD2    H1 8056   0.175   1.741  11.745  2.4262  0.6815  0.9143
  539MPD2    H2 8057   0.542   1.544  11.742  0.5776  0.5347 -1.3033
  539MPD2    H3 8058   0.402   1.739  11.781  1.2962  0.4652 -2.0190
  539MPD2     N 8059   0.036   1.550  11.640  1.3741  0.2105 -0.8663
  539MPD2    H5 8060   4.726   1.637  11.665 -0.0356 -1.1941  1.3927
  539MPD2    N1 8061   0.444   1.295  11.644 -0.0895  0.2807 -0.2275
  539MPD2    H7 8062   0.388   1.214  11.617 -0.0685 -0.0874  0.8575
  540TMC3    C1 8063   4.567   1.501  11.562  0.1354 -0.0597 -0.2755
  540TMC3    C2 8064   4.483   1.463  11.462  0.2563  0.3806 -0.1190
  540TMC3    C3 8065   4.349   1.460  11.484 -0.4521  0.3330 -0.0204
  540TMC3    C4 8066   4.514   1.548  11.677 -0.1779 -0.7237  0.1149
  540TMC3    C5 8067   4.377   1.546  11.696  0.4884  0.6748 -0.2733
  540TMC3    C6 8068   4.293   1.489  11.604  0.7449  0.0806  0.0936
  540TMC3     C 8069   4.702   1.461  11.560 -0.5430  0.0594  0.0229
  540TMC3     O 8070   0.007   1.384  11.477 -0.1070  0.6834 -0.3361
  540TMC3     H 8071   4.530   1.426  11.371 -0.8138 -1.0756 -0.0688
  540TMC3    H1 8072   4.579   1.585  11.755 -0.6508  2.9779 -1.2581
  540TMC3    H2 8073   4.187   1.478  11.622  0.6926 -1.5168 -1.1895
  540TMC3    C7 8074   4.318   1.590  11.825  0.3756 -0.1534 -0.0174
  540TMC3    C8 8075   4.264   1.420  11.375 -0.4862  0.1829 -0.2444
  540TMC3    O1 8076   4.219   1.529  11.861  0.1417  0.2427  0.5990
  540TMC3    O2 8077   4.157   1.369  11.405 -0.1031  0.3633 -0.3232
  541MPD2     C 8078   3.251   2.717  13.893  0.0703 -0.1748  0.6958
  541MPD2    C1 8079   3.212   2.605  13.818  0.0357 -0.0456  0.3701
  541MPD2    C2 8080   3.154   2.622  13.685 -0.6253 -0.2036 -0.3230
  541MPD2    C3 8081   3.149   2.749  13.637 -0.6618 -0.0402  1.0753
  541MPD2    C4 8082   3.160   2.855  13.721  1.2608 -0.1454  0.2551
  541MPD2    C5 8083   3.223   2.840  13.841  0.0880  0.1118 -0.1327
  541MPD2     H 8084   3.116   2.536  13.631  2.3737 -1.3580 -0.5862
  541MPD2    H1 8085   3.142   2.956  13.687  3.8509  1.4087  3.5087
  541MPD2    H2 8086   3.308   2.711  13.985 -1.9677 -2.0191  1.8274
  541MPD2    H3 8087   3.248   2.933  13.891  3.0587 -0.0918 -1.2512
  541MPD2     N 8088   3.128   2.779  13.501 -0.4755  0.2146 -0.3062
  541MPD2    H5 8089   3.097   2.875  13.492  1.5407  0.9064  0.2688
  541MPD2    N1 8090   3.233   2.472  13.862 -0.7536 -0.4369 -0.1294
  541MPD2    H7 8091   3.217   2.398  13.795  2.0251 -0.8490 -0.3089
  542TMC3    C1 8092   3.130   2.743  13.260 -0.4283 -0.6478 -0.0302
  542TMC3    C2 8093   3.163   2.661  13.162  0.9469 -0.1333 -0.1452
  542TMC3    C3 8094   3.131   2.694  13.036 -0.0429  0.3301 -0.6512
  542TMC3    C4 8095   3.055   2.851  13.239 -0.5268 -0.4499 -0.0472
  542TMC3    C5 8096   3.016   2.874  13.114  0.5506  0.9319 -0.5311
  542TMC3    C6 8097   3.054   2.801  13.006  0.1887  0.2348  0.1395
  542TMC3     C 8098   3.155   2.695  13.395  0.8601 -0.2812 -0.1696
  542TMC3     O 8099   3.218   2.587  13.397 -0.6017 -0.2839 -0.5500
  542TMC3     H 8100   3.234   2.584  13.191  1.2443 -0.4325 -1.6344
  542TMC3    H1 8101   3.014   2.906  13.323 -0.2812  0.1293 -0.3107
  542TMC3    H2 8102   3.035   2.843  12.908  3.2357  1.8146  0.2207
  542TMC3    C7 8103   2.931   2.990  13.097 -0.3835 -0.2126  0.0216
  542TMC3    C8 8104   3.176   2.621  12.919  0.2942  0.1091 -0.0318
  542TMC3    O1 8105   2.929   3.078  13.183  1.0312  0.0739 -0.3214
  542TMC3    O2 8106   3.154   2.673  12.809  0.6595 -0.1841 -0.4015
  543TMC3    C1 8107   2.663   3.750  17.567 -0.6872 -0.4232 -0.0401
  543TMC3    C2 8108   2.701   3.639  17.642 -0.0142  0.1525 -0.2364
  543TMC3    C3 8109   2.640   3.613   0.018  0.3859 -0.5297  0.1600
  543TMC3    C4 8110   2.563   3.832  17.615 -0.3206  0.1197 -0.0930
  543TMC3    C5 8111   2.514   3.808  17.745  0.1583  0.4647  0.5888
  543TMC3    C6 8112   2.549   3.698   0.074  0.5351 -0.1888 -0.2911
  543TMC3     C 8113   2.690   3.750  17.422 -0.5171 -0.1025  0.7582
  543TMC3     O 8114   2.769   3.667  17.379 -0.9404 -0.2402  0.0771
  543TMC3     H 8115   2.757   3.562  17.589 -1.7177 -0.3724 -1.2461
  543TMC3    H1 8116   2.528   3.926  17.574 -1.8942 -0.8750 -1.0230
  543TMC3    H2 8117   2.536   3.702   0.181 -1.4782 -1.9133 -0.4715
  543TMC3    C7 8118   2.412   3.893   0.051  0.2799  0.7087  0.3549
  543TMC3    C8 8119   2.698   3.496   0.085  0.4629  0.3734 -0.0957
  543TMC3    O1 8120   2.400   4.004   0.001 -0.0325 -0.1873 -0.2345
  543TMC3    O2 8121   2.799   3.447   0.038  0.1017  0.4028 -0.0982
  544MPD2     C 8122   2.618   3.070   0.371 -0.5599  0.2795 -0.1103
  544MPD2    C1 8123   2.729   3.120   0.304 -0.0701  0.2892 -0.0971
  544MPD2    C2 8124   2.729   3.245   0.238 -0.3623  0.0013 -0.7373
  544MPD2    C3 8125   2.618   3.327   0.247 -0.2403  0.5402 -0.2511
  544MPD2    C4 8126   2.513   3.282   0.321 -0.0736 -0.4829  0.5871
  544MPD2    C5 8127   2.515   3.158   0.380 -0.2748  0.3230  0.0380
  544MPD2     H 8128   2.817   3.264   0.178 -0.2391 -1.3161 -0.9814
  544MPD2    H1 8129   2.424   3.343   0.335 -0.6809 -1.1450 -0.3342
  544MPD2    H2 8130   2.617   2.971   0.416 -0.1687 -0.3329 -1.4272
  544MPD2    H3 8131   2.431   3.116   0.435  1.1446 -1.5656  0.7441
  544MPD2     N 8132   2.608   3.451   0.182  0.1742  0.1420  0.3046
  544MPD2    H5 8133   2.526   3.509   0.197 -0.2698 -0.0505 -1.3780
  544MPD2    N1 8134   2.833   3.023   0.290 -0.2744  0.0082 -0.1229
  544MPD2    H7 8135   2.827   2.938   0.344  0.9159  1.6237  2.6146
  545TMC3    C1 8136   3.041   2.942   0.229 -0.1381 -0.0391 -0.2848
  545TMC3    C2 8137   3.093   2.890   0.117 -0.1950 -0.8636 -0.8365
  545TMC3    C3 8138   3.127   2.756   0.124 -0.1547 -0.1245  0.0616
  545TMC3    C4 8139   3.027   2.868   0.344  0.3107  0.1843  0.1662
  545TMC3    C5 8140   3.064   2.737   0.348  0.2088  0.4669 -0.2599
  545TMC3    C6 8141   3.108   2.677   0.235  0.4336  0.4718  0.5860
  545TMC3     C 8142   2.943   3.043   0.212 -0.2044  0.3684 -0.3182
  545TMC3     O 8143   2.966   3.121   0.124  0.4918 -0.4332 -0.3180
  545TMC3     H 8144   3.109   2.952   0.029 -0.6858 -0.9594 -0.9946
  545TMC3    H1 8145   2.992   2.915   0.436 -0.6850 -0.5838  0.1849
  545TMC3    H2 8146   3.148   2.576   0.240  0.6323  0.5434  0.4134
  545TMC3    C7 8147   3.055   2.667   0.472  0.2739 -0.2573 -0.5630
  545TMC3    C8 8148   3.196   2.708   0.005 -0.0674 -0.0884 -0.8776
  545TMC3    O1 8149   3.047   2.733   0.575 -0.4258 -0.0089 -0.3879
  545TMC3    O2 8150   3.244   2.797  17.680  0.4789 -0.2111  0.1727
  546MPD2     C 8151   4.209   3.156  17.328  0.8190  0.1717  0.6173
  546MPD2    C1 8152   4.191   3.222  17.206  0.0230 -0.8663 -0.1904
  546MPD2    C2 8153   4.267   3.334  17.186 -0.1277  0.4712  0.0806
  546MPD2    C3 8154   4.343   3.387  17.291  0.3381 -0.3747  0.2137
  546MPD2    C4 8155   4.345   3.325  17.410 -0.3640  0.6043 -0.4397
  546MPD2    C5 8156   4.280   3.204  17.431  0.6442  0.9981  0.4492
  546MPD2     H 8157   4.275   3.362  17.082  0.2663 -1.1740 -0.3301
  546MPD2    H1 8158   4.398   3.374  17.491  1.0582  1.3143 -1.8056
  546MPD2    H2 8159   4.160   3.060  17.340 -1.2891  1.0635 -0.8409
  546MPD2    H3 8160   4.270   3.150  17.524 -0.2356 -0.0060 -0.2246
  546MPD2     N 8161   4.404   3.512  17.287 -0.1962 -0.0158 -0.0847
  546MPD2    H5 8162   4.451   3.542  17.371  1.3200 -3.6836  0.3731
  546MPD2    N1 8163   4.107   3.158  17.109 -0.1110 -0.2399  0.4258
  546MPD2    H7 8164   4.070   3.071  17.145 -3.1224  0.7530 -0.1959
  547TMC3    C1 8165   3.946   3.124  16.949 -0.6717  0.0575 -0.0862
  547TMC3    C2 8166   3.844   3.197  16.914  0.0704 -0.1493  0.5366
  547TMC3    C3 8167   3.728   3.131  16.895 -0.0114 -0.3321 -0.2039
  547TMC3    C4 8168   3.941   2.993  16.967  0.5514 -0.0154 -0.0435
  547TMC3    C5 8169   3.821   2.927  16.954  0.5840 -0.6237  0.5763
  547TMC3    C6 8170   3.711   2.997  16.926 -0.2507  0.3262  0.4501
  547TMC3     C 8171   4.060   3.208  17.000  0.0873  0.0329 -0.0410
  547TMC3     O 8172   4.086   3.310  16.935  0.4136  0.9769  0.8475
  547TMC3     H 8173   3.838   3.305  16.921 -0.5577 -0.2084  0.9922
  547TMC3    H1 8174   4.033   2.943  16.994  1.3677  0.1834 -2.5308
  547TMC3    H2 8175   3.614   2.949  16.916  0.3071 -0.6464 -0.3221
  547TMC3    C7 8176   3.793   2.854  17.078 -0.7843  0.0450  0.4609
  547TMC3    C8 8177   3.607   3.212  16.902  0.3162  0.3444  0.3545
  547TMC3    O1 8178   3.687   2.887  17.137 -0.0007  0.0587 -0.2874
  547TMC3    O2 8179   3.624   3.324  16.864  0.2123 -0.6734  0.1345
  548MPD2     C 8180   3.680   4.548  13.154  0.2459  0.4719 -0.2982
  548MPD2    C1 8181   3.605   4.436  13.116 -0.6817 -0.6320  0.3761
  548MPD2    C2 8182   3.671   4.319  13.098  1.1633 -0.2514  0.1771
  548MPD2    C3 8183   3.808   4.318  13.096 -0.1679 -0.0565  0.4164
  548MPD2    C4 8184   3.886   4.423  13.139 -0.3069 -0.5116 -0.1417
  548MPD2    C5 8185   3.813   4.535  13.177 -0.7439 -0.5202 -0.2962
  548MPD2     H 8186   3.627   4.225  13.066 -1.3900  0.5875  1.2133
  548MPD2    H1 8187   3.994   4.433  13.133 -0.2467 -0.8190  0.4182
  548MPD2    H2 8188   3.638   4.646  13.175 -1.0093  0.0786 -0.9737
  548MPD2    H3 8189   3.870   4.618  13.217 -1.3074  0.6064 -1.8561
  548MPD2     N 8190   3.882   4.203  13.059 -0.8311 -0.3548  0.3528
  548MPD2    H5 8191   3.823   4.122  13.046 -0.6679 -0.4864  0.4252
  548MPD2    N1 8192   3.466   4.444  13.098 -0.4289  0.2344 -0.0304
  548MPD2    H7 8193   3.431   4.539  13.087 -0.0653  0.6429  2.3273
  549TMC3    C1 8194   3.239   4.386  13.047 -0.5984  0.1748 -0.3724
  549TMC3    C2 8195   3.219   4.511  12.996 -0.0475  0.5430  0.1476
  549TMC3    C3 8196   3.103   4.544  12.940  0.8788  0.7444 -0.5945
  549TMC3    C4 8197   3.146   4.288  13.037  0.2246  0.2175 -0.1024
  549TMC3    C5 8198   3.027   4.332  12.991 -0.3083 -0.1892 -0.5349
  549TMC3    C6 8199   2.999   4.455  12.943 -0.0396 -0.2974 -0.0197
  549TMC3     C 8200   3.375   4.341  13.082 -0.0140 -0.1348 -0.6114
  549TMC3     O 8201   3.392   4.227  13.114  0.0008  0.0142  0.1439
  549TMC3     H 8202   3.304   4.577  12.983 -0.5014  1.3935  1.4817
  549TMC3    H1 8203   3.172   4.187  13.066 -0.0167  0.0302 -0.5568
  549TMC3    H2 8204   2.900   4.480  12.907  0.4301  0.1898 -0.9923
  549TMC3    C7 8205   2.912   4.246  13.015  0.3426  0.3060  0.0378
  549TMC3    C8 8206   3.099   4.649  12.836 -0.0619 -0.0819  0.1751
  549TMC3    O1 8207   2.799   4.295  13.022  0.0275  0.0887 -0.2530
  549TMC3    O2 8208   2.986   4.640  12.783 -0.5783  0.4111  0.3613
  550TMC3    C1 8209   2.555   2.082  12.698 -0.0726  0.1310  0.6820
  550TMC3    C2 8210   2.573   2.147  12.817 -0.5210  0.5478 -0.1255
  550TMC3    C3 8211   2.467   2.226  12.864  0.6422 -0.1604  0.1403
  550TMC3    C4 8212   2.443   2.107  12.621  0.0261  0.1642 -0.3118
  550TMC3    C5 8213   2.343   2.185  12.667  0.1096  0.5133  0.2148
  550TMC3    C6 8214   2.352   2.244  12.792  0.7066  0.6229  0.5174
  550TMC3     C 8215   2.673   2.056  12.622  0.3668  0.0850  0.3155
  550TMC3     O 8216   2.664   2.061  12.499  0.3555 -0.3447 -0.3699
  550TMC3     H 8217   2.665   2.133  12.874  0.1281  1.0203 -1.0585
  550TMC3    H1 8218   2.440   2.051  12.528 -2.8300 -3.5778  2.0402
  550TMC3    H2 8219   2.267   2.287  12.844  0.4804  0.8295 -0.0151
  550TMC3    C7 8220   2.213   2.196  12.595  0.0587  0.1004  0.1663
  550TMC3    C8 8221   2.494   2.307  12.981 -0.0434  0.6542 -0.3248
  550TMC3    O1 8222   2.139   2.282  12.631  0.3328 -0.7438  0.2741
  550TMC3    O2 8223   2.581   2.264  13.053  0.7584  0.3463  0.4866
  551TMC3    C1 8224   0.339   0.627  13.510 -0.2320 -0.5693 -0.1595
  551TMC3    C2 8225   0.446   0.637  13.432  0.5999  0.6394 -0.3246
  551TMC3    C3 8226   0.558   0.693  13.487 -0.7486  0.8510  0.1233
  551TMC3    C4 8227   0.334   0.684  13.633  0.0615  0.2454  0.2815
  551TMC3    C5 8228   0.445   0.742  13.684  0.3980  0.0261 -0.4507
  551TMC3    C6 8229   0.559   0.753  13.610 -0.3351  0.1228 -0.4568
  551TMC3     C 8230   0.213   0.585  13.449  0.1173  0.3875 -0.5805
  551TMC3     O 8231   0.218   0.529  13.344 -0.7987 -0.2749 -0.3952
  551TMC3     H 8232   0.456   0.574  13.344 -0.8139  2.0565 -1.5048
  551TMC3    H1 8233   0.251   0.676  13.703  1.5032  0.5539  1.9971
  551TMC3    H2 8234   0.650   0.801  13.644  1.0838 -2.8668 -0.0409
  551TMC3    C7 8235   0.464   0.727  13.824 -0.1840 -0.5049  0.5001
  551TMC3    C8 8236   0.663   0.722  13.403 -0.5109  0.4811  0.1469
  551TMC3    O1 8237   0.389   0.656  13.886  0.3868 -0.0818 -0.0808
  551TMC3    O2 8238   0.779   0.723  13.455  0.4639 -0.4057 -0.0050
  552MPD2     C 8239   2.127   2.325  14.272  0.0990 -1.0532 -0.4250
  552MPD2    C1 8240   2.107   2.210  14.343 -0.7335 -0.5350  0.0811
  552MPD2    C2 8241   2.189   2.178  14.451 -0.1060  0.1430  0.2924
  552MPD2    C3 8242   2.286   2.270  14.494 -0.7267 -0.3655 -0.8272
  552MPD2    C4 8243   2.298   2.388  14.429  0.3821 -0.6522  0.3742
  552MPD2    C5 8244   2.222   2.412  14.318 -0.1324  0.2347  0.2737
  552MPD2     H 8245   2.182   2.078  14.492  0.6189  0.0794  0.2548
  552MPD2    H1 8246   2.388   2.444  14.451  0.1412 -0.5870  1.1894
  552MPD2    H2 8247   2.066   2.353  14.187  1.0253  0.5887 -0.5499
  552MPD2    H3 8248   2.227   2.508  14.269 -0.2238 -0.2696 -0.7211
  552MPD2     N 8249   2.387   2.254  14.590  0.2742 -0.0098  0.0183
  552MPD2    H5 8250   2.458   2.326  14.593  0.4942 -0.3683  2.8398
  552MPD2    N1 8251   2.017   2.105  14.306  0.5699 -0.2805  0.1876
  552MPD2    H7 8252   2.035   2.019  14.357 -0.6288  0.2585  1.5099
  553TMC3    C1 8253   1.893   1.982  14.137  0.4987 -0.4514 -0.3903
  553TMC3    C2 8254   1.842   1.992  14.009 -0.0072 -0.4903 -0.5878
  553TMC3    C3 8255   1.839   1.881  13.930 -0.2750  0.0971 -0.3761
  553TMC3    C4 8256   1.926   1.866  14.191  1.0850 -0.2125 -0.0675
  553TMC3    C5 8257   1.910   1.758  14.116  0.1938 -0.1646 -0.1144
  553TMC3    C6 8258   1.862   1.760  13.985 -0.0388  0.1490  0.2762
  553TMC3     C 8259   1.937   2.114  14.191 -0.1600  0.1541  0.6774
  553TMC3     O 8260   1.912   2.215  14.123  0.5581 -0.3408  0.4282
  553TMC3     H 8261   1.811   2.088  13.970 -1.1515 -0.9595 -0.8335
  553TMC3    H1 8262   1.939   1.856  14.298  0.0794 -1.2278 -0.0352
  553TMC3    H2 8263   1.859   1.671  13.923  0.2227  1.4455 -1.6092
  553TMC3    C7 8264   1.992   1.637  14.141 -0.5346  0.0452 -0.3646
  553TMC3    C8 8265   1.876   1.895  13.788 -0.9217 -0.8499  0.3389
  553TMC3    O1 8266   1.939   1.542  14.086  0.3523 -0.6720  0.0092
  553TMC3    O2 8267   1.931   1.797  13.745  0.4894  0.0717 -0.5783
  554TMC3    C1 8268   3.898   1.492  11.958  0.1454 -0.3369  0.4296
  554TMC3    C2 8269   3.865   1.406  11.863 -0.0875 -0.3509  0.2306
  554TMC3    C3 8270   3.837   1.462  11.743  0.4923 -0.0023  0.3162
  554TMC3    C4 8271   3.908   1.624  11.939  0.6276  0.3309  0.2551
  554TMC3    C5 8272   3.876   1.674  11.821 -0.3189 -0.8360  0.0489
  554TMC3    C6 8273   3.834   1.599  11.719 -0.1218 -0.0664  0.0644
  554TMC3     C 8274   3.934   1.441  12.090  0.6862 -0.1927  0.5844
  554TMC3     O 8275   3.948   1.520  12.182  0.3634  0.3186 -0.2468
  554TMC3     H 8276   3.859   1.300  11.884  2.2237 -0.2935  1.1768
  554TMC3    H1 8277   3.937   1.689  12.020 -1.3543  2.5969 -0.8633
  554TMC3    H2 8278   3.801   1.643  11.626 -2.1451  0.8632  1.2253
  554TMC3    C7 8279   3.964   1.774  11.770  0.1994  0.2124  0.0478
  554TMC3    C8 8280   3.810   1.371  11.638  0.1652 -0.3726 -0.3300
  554TMC3    O1 8281   3.983   1.779  11.651 -0.2278 -0.1436 -0.3502
  554TMC3    O2 8282   3.801   1.256  11.665 -0.5459  0.6267  0.4408
  555TMC3    C1 8283   3.112   0.810  15.199  0.0060 -0.3185 -0.0303
  555TMC3    C2 8284   3.190   0.844  15.307  0.1378 -0.3449  0.0830
  555TMC3    C3 8285   3.181   0.762  15.420  0.7434  0.1500 -0.1302
  555TMC3    C4 8286   3.053   0.689  15.192 -0.3027  0.7574  0.3505
  555TMC3    C5 8287   3.071   0.607  15.296 -0.1986  0.1283 -0.3399
  555TMC3    C6 8288   3.121   0.642  15.420  0.9219  0.3742  0.1167
  555TMC3     C 8289   3.077   0.917  15.103 -0.1725 -0.2560 -0.6231
  555TMC3     O 8290   3.150   1.015  15.105  0.2073 -0.2510 -0.1473
  555TMC3     H 8291   3.237   0.938  15.334  0.8176 -0.4769 -0.6619
  555TMC3    H1 8292   2.993   0.665  15.105  1.1908 -1.7810  0.0204
  555TMC3    H2 8293   3.140   0.576  15.504  0.3843 -0.1115 -0.1429
  555TMC3    C7 8294   3.028   0.467  15.295 -0.2042  0.1566 -0.1204
  555TMC3    C8 8295   3.295   0.780  15.512 -0.6018  0.2605 -0.4532
  555TMC3    O1 8296   2.959   0.419  15.387 -0.3130  0.3009 -0.1843
  555TMC3    O2 8297   3.388   0.844  15.465  0.5009  0.2937 -0.1411
  556MPD2     C 8298   0.526   3.025  11.511  0.5051  1.0826 -0.6156
  556MPD2    C1 8299   0.606   2.916  11.483 -0.1553 -0.3232 -0.6429
  556MPD2    C2 8300   0.638   2.893  11.353  0.1957 -0.1805  0.1168
  556MPD2    C3 8301   0.579   2.966  11.244  0.0051 -0.4990 -0.5043
  556MPD2    C4 8302   0.484   3.065  11.281 -0.2835 -0.4500 -0.0391
  556MPD2    C5 8303   0.462   3.086  11.415  0.0192 -0.8839 -0.3093
  556MPD2     H 8304   0.717   2.823  11.328  0.2502 -0.0122 -0.1751
  556MPD2    H1 8305   0.435   3.124  11.203  0.9184 -0.2157 -0.6261
  556MPD2    H2 8306   0.510   3.053  11.614 -1.3352  0.0758 -0.6393
  556MPD2    H3 8307   0.387   3.159  11.441 -1.2035 -2.1202 -0.3453
  556MPD2     N 8308   0.629   2.951  11.114  0.2975 -0.3335  0.1399
  556MPD2    H5 8309   0.709   2.888  11.107 -0.1837 -0.9215 -0.0951
  556MPD2    N1 8310   0.675   2.836  11.575 -0.1805  0.3671 -0.4093
  556MPD2    H7 8311   0.750   2.777  11.540 -0.4352  0.5661 -1.2832
  557TMC3    C1 8312   0.655   2.973  10.880  0.5608 -0.0840  0.2044
  557TMC3    C2 8313   0.698   3.068  10.785 -0.1882  0.3098  0.0764
  557TMC3    C3 8314   0.782   3.021  10.682  0.0376  0.1453 -0.6123
  557TMC3    C4 8315   0.698   2.843  10.872 -0.7060 -0.4841  0.5461
  557TMC3    C5 8316   0.781   2.815  10.762  0.2055  0.5305  0.4952
  557TMC3    C6 8317   0.820   2.894  10.662 -0.7223 -0.4799 -0.3872
  557TMC3     C 8318   0.592   3.020  11.004  0.4789  0.1618  0.2840
  557TMC3     O 8319   0.500   3.102  10.990 -0.0034 -0.0972  0.5656
  557TMC3     H 8320   0.668   3.171  10.798  1.4782  0.9940 -1.6020
  557TMC3    H1 8321   0.679   2.771  10.950 -1.1334 -0.9260  0.0300
  557TMC3    H2 8322   0.869   2.861  10.570  1.3766 -1.9520  1.2575
  557TMC3    C7 8323   0.817   2.672  10.752 -0.2691  0.3233 -0.5525
  557TMC3    C8 8324   0.823   3.126  10.593  0.4376  0.1918  0.4940
  557TMC3    O1 8325   0.726   2.600  10.796 -0.0898 -0.3062  0.9186
  557TMC3    O2 8326   0.826   3.242  10.628  0.0311  0.3126 -0.2057
  558TMC3    C1 8327   3.403   0.335  10.609 -0.1597 -0.3048  0.0863
  558TMC3    C2 8328   3.273   0.307  10.649  0.2023 -0.2146 -0.1989
  558TMC3    C3 8329   3.168   0.363  10.577 -0.3131  0.4614  0.3558
  558TMC3    C4 8330   3.432   0.411  10.494 -0.5073  0.2230 -0.2583
  558TMC3    C5 8331   3.325   0.455  10.426 -0.0175  0.2701 -0.3241
  558TMC3    C6 8332   3.191   0.438  10.469 -0.8253  0.3110  0.4307
  558TMC3     C 8333   3.517   0.297  10.694  0.0383  1.0657  0.5528
  558TMC3     O 8334   3.625   0.303  10.643  0.6615  0.4052  0.1880
  558TMC3     H 8335   3.250   0.242  10.733  2.3310 -1.1966 -0.3965
  558TMC3    H1 8336   3.534   0.433  10.463 -0.1456 -0.2429  0.6028
  558TMC3    H2 8337   3.116   0.505  10.428 -0.7057  0.5541  0.6146
  558TMC3    C7 8338   3.347   0.534  10.301 -0.3405 -0.1038 -0.4553
  558TMC3    C8 8339   3.046   0.391  10.648  0.5791 -0.4060  0.3001
  558TMC3    O1 8340   3.444   0.603  10.287  0.0595  0.1655  0.1882
  558TMC3    O2 8341   2.940   0.382  10.584  0.9425  0.3538 -0.8412
  559MPD2     C 8342   3.669   1.117  10.750  0.0443  0.0301  0.2618
  559MPD2    C1 8343   3.610   0.993  10.759 -0.7804  0.4907  0.3806
  559MPD2    C2 8344   3.693   0.893  10.801 -0.3695  0.1392  0.1525
  559MPD2    C3 8345   3.826   0.921  10.837  0.8287  0.5262 -0.4089
  559MPD2    C4 8346   3.877   1.046  10.828 -0.0498 -0.3959  0.3154
  559MPD2    C5 8347   3.800   1.144  10.780  0.5990  0.1823 -0.0156
  559MPD2     H 8348   3.649   0.795  10.809 -0.3905  0.1954  0.6826
  559MPD2    H1 8349   3.977   1.067  10.864  1.5072 -1.0422 -3.5333
  559MPD2    H2 8350   3.609   1.198  10.709 -0.8030 -0.4942  0.4635
  559MPD2    H3 8351   3.837   1.242  10.755  1.5349 -0.1926 -0.1033
  559MPD2     N 8352   3.894   0.815  10.906 -0.0807  0.0753  0.4997
  559MPD2    H5 8353   3.841   0.729  10.898  2.2060 -1.5043  2.2328
  559MPD2    N1 8354   3.471   0.992  10.759 -0.3886 -0.6181 -0.0946
  559MPD2    H7 8355   3.420   1.079  10.744  1.2259  0.9162  3.4203
  560TMC3    C1 8356   4.046   0.718  11.059 -0.2807 -0.7513  0.0226
  560TMC3    C2 8357   3.953   0.640  11.110 -0.5682 -0.5698  0.2313
  560TMC3    C3 8358   3.984   0.563  11.220 -0.2600 -0.2373 -0.0603
  560TMC3    C4 8359   4.172   0.726  11.117 -0.5084 -0.5996  0.4628
  560TMC3    C5 8360   4.202   0.657  11.227 -0.7811 -0.6716 -0.7183
  560TMC3    C6 8361   4.109   0.573  11.282 -0.2187 -0.0984 -0.5431
  560TMC3     C 8362   4.014   0.825  10.968 -0.4871  0.6616  1.0105
  560TMC3     O 8363   4.107   0.902  10.941 -0.1858  0.0239 -0.8662
  560TMC3     H 8364   3.850   0.663  11.082 -0.7145 -2.0691 -0.4698
  560TMC3    H1 8365   4.249   0.793  11.080 -0.0706 -2.1093 -1.3135
  560TMC3    H2 8366   4.145   0.526  11.372 -0.7370 -0.5804 -0.5843
  560TMC3    C7 8367   4.343   0.637  11.269  0.4034  0.1150  0.2512
  560TMC3    C8 8368   3.878   0.499  11.298 -0.3096  0.1081 -0.4976
  560TMC3    O1 8369   4.369   0.536  11.328  0.1748  0.2378  0.2017
  560TMC3    O2 8370   3.766   0.531  11.266 -0.3569 -1.3147  0.1892
  561TMC3    C1 8371   1.429   0.021  11.428 -0.0796  0.0915  0.2987
  561TMC3    C2 8372   1.369   4.710  11.539 -0.4459 -0.0214  0.1667
  561TMC3    C3 8373   1.358   0.052  11.650 -0.0548 -0.4826  0.0880
  561TMC3    C4 8374   1.462   0.158  11.425 -0.3743 -1.1061 -0.3200
  561TMC3    C5 8375   1.453   0.233  11.537 -0.6300 -0.8041 -0.1744
  561TMC3    C6 8376   1.407   0.180  11.655 -0.3765 -0.2646 -0.3866
  561TMC3     C 8377   1.466   4.666  11.314  0.0723  0.2688  0.6129
  561TMC3     O 8378   1.454   4.547  11.339  0.0115 -0.0878 -0.0704
  561TMC3     H 8379   1.336   4.607  11.544 -0.6204  0.0284  0.0577
  561TMC3    H1 8380   1.474   0.201  11.326 -0.5716  0.7183  0.4616
  561TMC3    H2 8381   1.415   0.239  11.745  0.3328  0.6852 -1.0840
  561TMC3    C7 8382   1.485   0.371  11.541 -0.3677 -0.0004 -0.6612
  561TMC3    C8 8383   1.290   4.726  11.763 -0.0833  0.7531 -0.2934
  561TMC3    O1 8384   1.445   0.435  11.637 -0.2908 -0.4757  0.0488
  561TMC3    O2 8385   1.267   4.605  11.766  0.5579  0.1819  0.0700
  562TMC3    C1 8386   2.795   0.443  16.301  1.4607 -0.2138 -0.4297
  562TMC3    C2 8387   2.703   0.549  16.281 -0.2418 -0.4740 -0.0244
  562TMC3    C3 8388   2.720   0.620  16.166 -0.0254  0.2206  0.2601
  562TMC3    C4 8389   2.888   0.404  16.207  0.0928  0.6891 -0.3701
  562TMC3    C5 8390   2.900   0.483  16.093 -0.3984 -0.3239 -0.1856
  562TMC3    C6 8391   2.813   0.591  16.066 -0.0732  0.0570 -0.2112
  562TMC3     C 8392   2.812   0.389  16.437  0.7598  0.0728  0.7565
  562TMC3     O 8393   2.927   0.369  16.473  0.3982 -0.1648 -0.4005
  562TMC3     H 8394   2.636   0.576  16.362 -0.3035  0.9401 -0.5447
  562TMC3    H1 8395   2.956   0.321  16.222 -2.3613 -1.4266 -0.8899
  562TMC3    H2 8396   2.820   0.639  15.969 -0.5127 -1.5866 -1.0685
  562TMC3    C7 8397   2.974   0.430  15.980 -0.2357  0.5238 -0.1264
  562TMC3    C8 8398   2.636   0.741  16.152 -0.2870  0.6370  0.3129
  562TMC3    O1 8399   2.968   0.505  15.885  0.6299 -0.5746  0.0497
  562TMC3    O2 8400   2.576   0.765  16.256 -0.1604  0.3884  0.1342
  563MPD2     C 8401   0.598   2.443  16.144 -0.1266  0.0392  0.2581
  563MPD2    C1 8402   0.591   2.305  16.134 -0.5198  0.4027 -0.3013
  563MPD2    C2 8403   0.701   2.223  16.099  0.6897  0.5575  0.2968
  563MPD2    C3 8404   0.818   2.289  16.069  0.1231 -0.1335 -0.1073
  563MPD2    C4 8405   0.819   2.431  16.048 -0.6250  0.4320 -0.3863
  563MPD2    C5 8406   0.711   2.503  16.088 -0.0585  1.0125  0.2640
  563MPD2     H 8407   0.690   2.115  16.102  1.4247  0.4630 -0.3765
  563MPD2    H1 8408   0.913   2.485  16.042 -0.0009 -0.6262 -0.1677
  563MPD2    H2 8409   0.523   2.504  16.192  1.4816  1.6239  0.7349
  563MPD2    H3 8410   0.711   2.611  16.098  2.7284  1.0784 -0.5117
  563MPD2     N 8411   0.939   2.212  16.065  0.1068  0.0824  0.0209
  563MPD2    H5 8412   0.929   2.112  16.079  0.0247  0.1176  0.2059
  563MPD2    N1 8413   0.472   2.249  16.191 -0.5880 -0.7185 -0.1517
  563MPD2    H7 8414   0.413   2.301  16.255  2.0799 -0.4949  2.1351
  564TMC3    C1 8415   0.318   2.085  16.236  0.1156 -0.5312  0.2745
  564TMC3    C2 8416   0.225   1.996  16.186  0.4667  0.2564 -0.0376
  564TMC3    C3 8417   0.149   1.927  16.285 -0.5493  0.0406 -0.0262
  564TMC3    C4 8418   0.352   2.097  16.371  0.0253 -0.0497  0.1862
  564TMC3    C5 8419   0.273   2.027  16.457 -0.2445  0.0721  0.1021
  564TMC3    C6 8420   0.157   1.961  16.421 -0.1253 -0.2559 -0.8112
  564TMC3     C 8421   0.424   2.133  16.143  0.1943 -0.0430  0.1421
  564TMC3     O 8422   0.446   2.075  16.038  0.0488  0.2493  0.3453
  564TMC3     H 8423   0.234   1.968  16.082  0.6154  1.0200 -0.2233
  564TMC3    H1 8424   0.443   2.150  16.398 -0.7861  1.7284 -0.5843
  564TMC3    H2 8425   0.089   1.922  16.497 -0.2460  0.3128 -0.6248
  564TMC3    C7 8426   0.356   1.981  16.564  0.2380 -0.1603 -0.3867
  564TMC3    C8 8427   0.057   1.816  16.251  0.8855 -0.0772 -0.6525
  564TMC3    O1 8428   0.448   2.053  16.601 -0.1575 -0.6698 -0.1948
  564TMC3    O2 8429   4.732   1.767  16.346 -0.0660 -0.0251 -0.1579
  565TMC3    C1 8430   0.399   3.723  11.012 -0.4154 -0.1414 -0.4077
  565TMC3    C2 8431   0.517   3.673  11.070  0.2540 -0.3401 -0.0095
  565TMC3    C3 8432   0.530   3.535  11.092 -1.2705 -0.2790 -0.1168
  565TMC3    C4 8433   0.297   3.638  10.989 -0.7130 -0.5475 -0.4966
  565TMC3    C5 8434   0.317   3.506  11.018  0.6025  0.2034  0.3471
  565TMC3    C6 8435   0.430   3.448  11.075 -0.0622 -0.2757  0.8262
  565TMC3     C 8436   0.398   3.842  10.924 -0.4274  0.3096  0.3713
  565TMC3     O 8437   0.316   3.845  10.836  0.2738 -0.2779 -0.6762
  565TMC3     H 8438   0.608   3.731  11.074  0.5025 -0.6583 -0.9116
  565TMC3    H1 8439   0.205   3.673  10.944 -1.8493  0.0454  2.2715
  565TMC3    H2 8440   0.462   3.349  11.044  0.7547 -0.7643  3.2750
  565TMC3    C7 8441   0.215   3.412  10.964 -0.0531 -0.1127  0.0471
  565TMC3    C8 8442   0.663   3.484  11.072 -0.4655  0.6449  0.4109
  565TMC3    O1 8443   0.160   3.439  10.857  0.6815 -0.4058  0.0674
  565TMC3    O2 8444   0.730   3.529  10.978 -0.0530  0.1841  0.0575
  566MPD2     C 8445   2.722   0.678  14.739  0.0001  0.4092  0.2585
  566MPD2    C1 8446   2.763   0.778  14.653  0.5693 -0.6806 -0.1359
  566MPD2    C2 8447   2.667   0.822  14.562  0.1243  0.8582  0.0725
  566MPD2    C3 8448   2.550   0.750  14.536  0.4135  0.1166  0.3430
  566MPD2    C4 8449   2.511   0.644  14.613  0.7453  0.0070  0.3526
  566MPD2    C5 8450   2.599   0.623  14.721  0.6050 -0.5607  0.7454
  566MPD2     H 8451   2.681   0.902  14.491 -0.7088 -1.1438 -2.3405
  566MPD2    H1 8452   2.420   0.586  14.609  0.7582 -0.0406  0.7969
  566MPD2    H2 8453   2.790   0.657  14.820 -0.6503  0.7033  0.8775
  566MPD2    H3 8454   2.566   0.542  14.786 -0.8061  0.5084  1.3644
  566MPD2     N 8455   2.470   0.805  14.434  0.6765 -0.3992 -0.0175
  566MPD2    H5 8456   2.511   0.881  14.381  0.4100 -0.2595 -0.0218
  566MPD2    N1 8457   2.885   0.840  14.666  1.1565 -0.4114  0.2597
  566MPD2    H7 8458   2.952   0.801  14.731 -0.5178 -0.9821  1.6666
  567TMC3    C1 8459   3.075   0.965  14.592 -0.0807  0.3619 -0.2660
  567TMC3    C2 8460   3.117   0.973  14.461 -0.4836  0.4739 -0.4102
  567TMC3    C3 8461   3.203   0.879  14.416  1.4127  0.2626  0.3063
  567TMC3    C4 8462   3.134   0.879  14.679  0.0715  0.2427  0.0302
  567TMC3    C5 8463   3.216   0.784  14.634 -0.0957 -0.4707 -0.7488
  567TMC3    C6 8464   3.244   0.770  14.496 -0.3562  0.4787 -0.1340
  567TMC3     C 8465   2.934   0.946  14.582  0.0146  0.7807 -0.1564
  567TMC3     O 8466   2.880   1.020  14.504  0.7220 -0.4210 -0.2210
  567TMC3     H 8467   3.103   1.061  14.400  0.7086  0.6802 -0.3718
  567TMC3    H1 8468   3.120   0.894  14.785 -3.2375 -1.1086 -0.1931
  567TMC3    H2 8469   3.315   0.696  14.462 -1.0812 -0.1280 -0.3407
  567TMC3    C7 8470   3.181   0.665  14.704 -0.1016 -0.3023  0.6815
  567TMC3    C8 8471   3.248   0.894  14.282  0.0066  0.1257 -0.1644
  567TMC3    O1 8472   3.140   0.671  14.818 -0.6274 -1.0091  0.2289
  567TMC3    O2 8473   3.166   0.941  14.200  0.4568  0.4737 -0.2022
  568MPD2     C 8474   4.591   0.402  16.420 -0.3848  0.0090 -0.4147
  568MPD2    C1 8475   4.628   0.510  16.493  0.3003 -0.3074  0.5789
  568MPD2    C2 8476   4.570   0.635  16.463  0.3330 -0.2351 -0.9903
  568MPD2    C3 8477   4.483   0.655  16.358  0.0629  0.1842  0.4023
  568MPD2    C4 8478   4.460   0.535  16.280 -0.3477 -0.1092  0.0742
  568MPD2    C5 8479   4.514   0.414  16.315  0.4334  0.1040 -0.3985
  568MPD2     H 8480   4.601   0.718  16.526  0.4268 -0.5778 -0.5811
  568MPD2    H1 8481   4.389   0.536  16.198 -0.3704 -0.6034  0.0897
  568MPD2    H2 8482   4.647   0.311  16.435 -1.3190 -0.5146 -0.1166
  568MPD2    H3 8483   4.501   0.327  16.252 -2.1538  0.8759 -0.8990
  568MPD2     N 8484   4.433   0.789  16.323 -0.1863 -0.0522  0.5014
  568MPD2    H5 8485   4.472   0.864  16.379  0.7464 -0.5619  0.5367
  568MPD2    N1 8486   4.723   0.490  16.588 -0.2047  0.0135 -0.0390
  568MPD2    H7 8487   0.024   0.397  16.598  1.4502  0.7897  1.0250
  569TMC3    C1 8488   4.338   0.968  16.225 -0.9758  0.6616 -0.3170
  569TMC3    C2 8489   4.279   1.023  16.335  0.0683  0.4255 -0.6218
  569TMC3    C3 8490   4.301   1.156  16.364  0.0520  0.5773 -0.9105
  569TMC3    C4 8491   4.414   1.044  16.141 -0.1423  0.6940  0.0782
  569TMC3    C5 8492   4.419   1.178  16.169 -0.5617 -0.6425 -0.8728
  569TMC3    C6 8493   4.375   1.237  16.286 -0.3429 -0.0298  0.3081
  569TMC3     C 8494   4.348   0.829  16.219  0.0621  0.1192 -0.9552
  569TMC3     O 8495   4.278   0.766  16.145  0.1558 -0.2715 -0.1062
  569TMC3     H 8496   4.213   0.958  16.392 -1.3671  0.8057 -1.8754
  569TMC3    H1 8497   4.456   1.005  16.048  1.8822  1.8886  0.4789
  569TMC3    H2 8498   4.371   1.345  16.298 -2.9088  0.0931 -1.7222
  569TMC3    C7 8499   4.478   1.266  16.073  0.4507  0.7837 -0.6313
  569TMC3    C8 8500   4.278   1.197  16.500 -0.0487 -0.0651  0.4904
  569TMC3    O1 8501   4.477   1.228  15.957  0.6160 -0.2462  0.2239
  569TMC3    O2 8502   4.193   1.132  16.559 -0.4421 -0.2020  0.2193
  570TMC3    C1 8503   4.328   4.458  16.229  0.6682 -0.3017  0.6909
  570TMC3    C2 8504   4.437   4.494  16.156 -0.6784  0.0828 -0.0873
  570TMC3    C3 8505   4.491   4.616  16.191 -0.6469 -0.4238  0.0739
  570TMC3    C4 8506   4.271   4.535  16.327  0.2532 -0.3895  0.0301
  570TMC3    C5 8507   4.330   4.651  16.361  0.1913 -0.5791 -0.0059
  570TMC3    C6 8508   4.436   4.695  16.287 -0.4418  0.8715 -0.9751
  570TMC3     C 8509   4.271   4.331  16.205  0.3214  0.0580  1.1192
  570TMC3     O 8510   4.281   4.280  16.093  0.0708  0.4516  0.5418
  570TMC3     H 8511   4.481   4.432  16.079  0.6598  2.3732 -1.1668
  570TMC3    H1 8512   4.174   4.506  16.367  1.1676 -1.4750  1.4813
  570TMC3    H2 8513   4.483   0.055  16.301  1.8949 -0.2774 -0.7230
  570TMC3    C7 8514   4.292   0.002  16.469 -0.8716 -0.0181  0.2515
  570TMC3    C8 8515   4.565   4.693  16.097 -0.6583  0.3044  0.1956
  570TMC3    O1 8516   4.345   0.114  16.470  0.0312  0.0843  0.1564
  570TMC3    O2 8517   4.627   0.051  16.140  0.2295 -0.5928 -0.8083
  571MPD2     C 8518   1.924   0.686   0.357 -0.3409 -0.0812 -0.6475
  571MPD2    C1 8519   1.876   0.657   0.483  0.0100 -0.9319  0.3319
  571MPD2    C2 8520   1.883   0.751   0.582 -0.5256  0.1199 -0.8822
  571MPD2    C3 8521   1.961   0.866   0.558 -0.5865 -0.0363 -0.0792
  571MPD2    C4 8522   2.028   0.890   0.438 -0.7701 -0.2490 -0.4137
  571MPD2    C5 8523   2.005   0.797   0.340  0.3240  0.1257  0.3451
  571MPD2     H 8524   1.842   0.728   0.680  2.1848 -0.0516  0.2005
  571MPD2    H1 8525   2.095   0.974   0.422  0.0189 -1.2948 -2.5732
  571MPD2    H2 8526   1.907   0.619   0.275  0.1514  0.8564 -1.5159
  571MPD2    H3 8527   2.041   0.822   0.241  2.3826 -0.3399  0.9748
  571MPD2     N 8528   1.976   0.970   0.650 -0.8191  0.8373 -0.2014
  571MPD2    H5 8529   2.021   1.054   0.618 -1.6086  1.2826 -0.1514
  571MPD2    N1 8530   1.813   0.528   0.495  0.1159  0.0047 -0.6417
  571MPD2    H7 8531   1.822   0.472   0.411 -0.1397  0.4669 -0.9698
  572TMC3    C1 8532   1.979   1.072   0.860  0.1646 -0.4982  0.9063
  572TMC3    C2 8533   1.998   1.040   0.995 -0.1081 -0.2460  0.0198
  572TMC3    C3 8534   2.003   1.154   1.076  0.0668  0.1821 -0.5255
  572TMC3    C4 8535   1.983   1.201   0.814  0.1423 -0.5852 -0.5472
  572TMC3    C5 8536   2.013   1.302   0.903 -0.0538 -0.2850  0.0798
  572TMC3    C6 8537   2.020   1.285   1.038  0.2705  0.2591  0.5154
  572TMC3     C 8538   1.945   0.957   0.777 -0.0438  0.2835  0.0094
  572TMC3     O 8539   1.896   0.870   0.843  0.7056  0.8156  0.6495
  572TMC3     H 8540   1.969   0.946   1.040 -0.7224 -0.1132 -0.0959
  572TMC3    H1 8541   1.984   1.225   0.709  2.4109  1.8758  0.0432
  572TMC3    H2 8542   2.021   1.367   1.110 -2.7105  0.6316  0.1232
  572TMC3    C7 8543   2.069   1.423   0.837  0.8416 -0.2713 -0.0006
  572TMC3    C8 8544   1.998   1.120   1.217 -0.0596 -0.5751  0.4690
  572TMC3    O1 8545   2.022   1.455   0.728 -0.1567  0.5919 -0.0715
  572TMC3    O2 8546   2.059   1.018   1.249  0.0907 -0.2459  0.4961
  573MPD2     C 8547   2.912   1.071   0.358 -0.1505 -0.2597  0.1813
  573MPD2    C1 8548   2.906   1.121   0.484  0.0832  0.1247  0.2955
  573MPD2    C2 8549   2.957   1.244   0.513  0.1197 -0.0426  0.4048
  573MPD2    C3 8550   3.031   1.313   0.424 -0.1791  0.3782 -0.0107
  573MPD2    C4 8551   3.045   1.253   0.298 -0.2209  0.0797 -0.1777
  573MPD2    C5 8552   2.979   1.145   0.268  0.2082  0.7464 -0.5456
  573MPD2     H 8553   2.935   1.282   0.612  1.7314  0.0354  0.7399
  573MPD2    H1 8554   3.112   1.301   0.227  0.4427  0.9209  1.0206
  573MPD2    H2 8555   2.886   0.970   0.327 -0.1631  0.2612 -1.5379
  573MPD2    H3 8556   2.990   1.097   0.171 -0.0821 -2.3432  0.9620
  573MPD2     N 8557   3.093   1.441   0.442  0.2660  0.4540 -0.5593
  573MPD2    H5 8558   3.125   1.485   0.356  2.4605 -2.0450 -1.0537
  573MPD2    N1 8559   2.837   1.046   0.578  0.1355  0.2394 -0.4413
  573MPD2    H7 8560   2.807   0.958   0.538  1.6757 -0.2375 -0.5499
  574TMC3    C1 8561   3.170   1.633   0.550  0.0064  0.1718  0.5796
  574TMC3    C2 8562   3.111   1.738   0.618 -0.4212 -0.1534 -0.8307
  574TMC3    C3 8563   3.151   1.864   0.588  0.4458 -0.4855  0.1359
  574TMC3    C4 8564   3.274   1.652   0.463  0.5478 -0.7902  0.3345
  574TMC3    C5 8565   3.314   1.779   0.444 -0.4323  0.7831  0.6168
  574TMC3    C6 8566   3.255   1.886   0.501  0.1943 -0.0634 -0.0332
  574TMC3     C 8567   3.107   1.507   0.561 -0.3792  0.8527  0.0294
  574TMC3     O 8568   3.060   1.473   0.670 -0.2490  0.0098  0.2502
  574TMC3     H 8569   3.053   1.719   0.707  0.0292 -0.2902 -0.5657
  574TMC3    H1 8570   3.304   1.567   0.403 -1.1507 -1.1206 -0.0702
  574TMC3    H2 8571   3.302   1.984   0.499  0.6763 -0.2352  2.0152
  574TMC3    C7 8572   3.402   1.806   0.331 -0.9117 -0.1967 -0.1418
  574TMC3    C8 8573   3.093   1.971   0.668 -0.3148 -0.4583 -0.2927
  574TMC3    O1 8574   3.415   1.712   0.247 -0.3022  0.5113 -0.1761
  574TMC3    O2 8575   3.032   1.943   0.768  0.3199  0.3488  0.3220
  575TMC3    C1 8576   1.230   3.068  10.544 -0.1389  0.2084 -0.3088
  575TMC3    C2 8577   1.295   3.155  10.461  0.2116 -0.5790  0.7609
  575TMC3    C3 8578   1.308   3.279  10.515  0.5600  0.0385  0.4732
  575TMC3    C4 8579   1.166   3.102  10.661 -0.2867 -0.2171 -0.0963
  575TMC3    C5 8580   1.186   3.220  10.710  0.6810 -0.2423  0.3743
  575TMC3    C6 8581   1.254   3.312  10.633  0.9068 -0.4995  0.3185
  575TMC3     C 8582   1.197   2.937  10.493 -0.4260  0.3644 -0.2354
  575TMC3     O 8583   1.106   2.874  10.547  0.4635 -0.2023  0.0975
  575TMC3     H 8584   1.334   3.131  10.362 -0.2562  0.9883  0.1907
  575TMC3    H1 8585   1.109   3.026  10.713 -0.0835  0.8337  1.6623
  575TMC3    H2 8586   1.275   3.410  10.674  0.0136 -0.6096  1.0368
  575TMC3    C7 8587   1.098   3.271  10.820 -0.5644 -0.5273  0.0674
  575TMC3    C8 8588   1.398   3.385  10.462 -0.1332  0.0024  0.3835
  575TMC3    O1 8589   1.088   3.390  10.839 -0.2353 -0.0699 -0.2859
  575TMC3    O2 8590   1.391   3.501  10.499  0.2297  0.1039  0.7919
  576MPD2     C 8591   0.252   0.203  12.746 -0.2137  0.1953  0.8032
  576MPD2    C1 8592   0.313   0.326  12.733 -0.2089  0.9627 -0.0881
  576MPD2    C2 8593   0.261   0.434  12.796  0.1700  0.2503 -0.5478
  576MPD2    C3 8594   0.147   0.430  12.876  0.4473 -0.7241 -0.6716
  576MPD2    C4 8595   0.094   0.304  12.911 -0.3248 -0.0194 -0.3595
  576MPD2    C5 8596   0.142   0.198  12.830  0.0242 -0.1963 -0.0690
  576MPD2     H 8597   0.325   0.521  12.788 -0.6404  1.0226  1.6207
  576MPD2    H1 8598   0.014   0.290  12.983 -0.3493  1.5308 -0.0918
  576MPD2    H2 8599   0.279   0.118  12.685 -0.4944  1.7879 -1.5334
  576MPD2    H3 8600   0.089   0.103  12.835  0.4609 -0.3565  1.6461
  576MPD2     N 8601   0.116   0.557  12.937 -0.0698  0.2021  0.6622
  576MPD2    H5 8602   0.184   0.630  12.917 -1.9897  1.3192 -1.6903
  576MPD2    N1 8603   0.430   0.343  12.653 -0.4417  0.4781  0.3492
  576MPD2    H7 8604   0.477   0.432  12.665 -0.3130  0.5423 -0.6172
  577TMC3    C1 8605   0.629   0.307  12.535 -0.2371 -0.3820  0.5440
  577TMC3    C2 8606   0.726   0.219  12.492  0.5638 -0.0834  0.3292
  577TMC3    C3 8607   0.832   0.260  12.415  0.3157  0.2829  0.4147
  577TMC3    C4 8608   0.631   0.429  12.477  0.2356 -0.3186  0.6478
  577TMC3    C5 8609   0.744   0.474  12.400 -0.0482  0.4813  0.1911
  577TMC3    C6 8610   0.839   0.387  12.358  0.2873 -0.4445  0.2054
  577TMC3     C 8611   0.510   0.245  12.596 -0.3750 -0.3676  0.0600
  577TMC3     O 8612   0.478   0.130  12.566  0.0475 -0.2002 -0.1977
  577TMC3     H 8613   0.722   0.117  12.530 -2.0378  0.2841  1.0391
  577TMC3    H1 8614   0.543   0.491  12.488  1.6674  1.6506  1.1293
  577TMC3    H2 8615   0.929   0.424  12.311 -1.5678  2.2622 -1.2443
  577TMC3    C7 8616   0.761   0.617  12.391  0.1963  0.3638 -0.3417
  577TMC3    C8 8617   0.935   0.155  12.385 -0.0658 -0.5070  0.3409
  577TMC3    O1 8618   0.727   0.682  12.488 -0.4746 -0.5618  0.1017
  577TMC3    O2 8619   0.944   0.058  12.459  0.2348 -0.3983 -0.4962
  578MPD2     C 8620   3.278   3.923   1.398  0.1477  0.2679  0.5492
  578MPD2    C1 8621   3.360   3.967   1.294 -0.4538 -0.3193  0.6751
  578MPD2    C2 8622   3.490   3.923   1.281 -0.5769 -0.2034  0.1765
  578MPD2    C3 8623   3.548   3.830   1.366 -0.1991 -0.2066 -0.1361
  578MPD2    C4 8624   3.465   3.777   1.467 -0.2139  0.1017  0.6562
  578MPD2    C5 8625   3.329   3.827   1.480 -0.0109  0.0707  0.2632
  578MPD2     H 8626   3.548   3.969   1.201 -0.0545 -3.1044 -1.0881
  578MPD2    H1 8627   3.498   3.691   1.524  0.3924  0.4386  0.8149
  578MPD2    H2 8628   3.176   3.957   1.412 -0.6232 -1.1438 -1.7704
  578MPD2    H3 8629   3.261   3.776   1.547 -0.3786  0.5898  0.2834
  578MPD2     N 8630   3.680   3.793   1.338 -0.0777  0.4330 -0.2400
  578MPD2    H5 8631   3.721   3.838   1.257  0.7781 -0.4670 -0.3139
  578MPD2    N1 8632   3.311   4.048   1.194  0.7075  0.1107  0.4770
  578MPD2    H7 8633   3.362   4.064   1.108  2.0936 -2.6764  0.7824
  579TMC3    C1 8634   3.893   3.698   1.358  0.6130 -0.3565 -0.8041
  579TMC3    C2 8635   3.994   3.711   1.446 -0.3856  1.1069 -0.0692
  579TMC3    C3 8636   4.120   3.740   1.405 -0.1934  0.3158 -0.4504
  579TMC3    C4 8637   3.917   3.736   1.221 -0.1884  0.6603 -0.0977
  579TMC3    C5 8638   4.045   3.762   1.175  0.4549  0.2523  0.1393
  579TMC3    C6 8639   4.144   3.770   1.272  0.4700 -0.1843  0.4620
  579TMC3     C 8640   3.758   3.714   1.415 -0.0576 -0.6710 -0.5378
  579TMC3     O 8641   3.737   3.673   1.527  0.0058  0.1194 -0.4199
  579TMC3     H 8642   3.974   3.714   1.553  0.5429  4.4798  0.0205
  579TMC3    H1 8643   3.833   3.723   1.154 -0.3154  3.2795 -0.4728
  579TMC3    H2 8644   4.249   3.774   1.246  0.4937  0.7314  0.7277
  579TMC3    C7 8645   4.076   3.762   1.036 -0.1926  0.1107 -0.3906
  579TMC3    C8 8646   4.221   3.760   1.512  0.1189 -0.0144 -0.0721
  579TMC3    O1 8647   4.193   3.781   1.004  0.7966 -0.4682 -0.1597
  579TMC3    O2 8648   4.185   3.695   1.613  0.8601  0.1816 -0.2698
  580TMC3    C1 8649   3.540   4.287  12.767 -0.4427  0.3847 -0.7826
  580TMC3    C2 8650   3.678   4.305  12.747 -0.3106  0.5530 -0.5777
  580TMC3    C3 8651   3.765   4.199  12.756 -0.3225 -0.6162 -0.0948
  580TMC3    C4 8652   3.490   4.159  12.787 -0.4628 -0.1400  0.1246
  580TMC3    C5 8653   3.575   4.057  12.782  0.5308  0.0057 -0.6113
  580TMC3    C6 8654   3.712   4.073  12.775  0.7560 -0.8093  0.1706
  580TMC3     C 8655   3.448   4.385  12.724  0.0485  0.1364  0.3415
  580TMC3     O 8656   3.491   4.499  12.723  0.0088  0.5339  0.3526
  580TMC3     H 8657   3.715   4.394  12.697 -2.3478  2.4139  1.1613
  580TMC3    H1 8658   3.383   4.139  12.792 -0.9335  2.3578  0.2756
  580TMC3    H2 8659   3.783   3.995  12.799  2.3299  0.4043 -0.5651
  580TMC3    C7 8660   3.513   3.923  12.763  0.3679  0.3530  0.7335
  580TMC3    C8 8661   3.898   4.209  12.692  0.4226 -0.2930 -0.5754
  580TMC3    O1 8662   3.392   3.906  12.789  0.1088 -0.2417 -0.0745
  580TMC3    O2 8663   3.929   4.109  12.627  0.2632  0.0918  0.6283
  581MPD2     C 8664   0.782   3.293  15.146 -0.1578  0.0409 -0.1671
  581MPD2    C1 8665   0.864   3.399  15.116 -0.1888 -0.8354 -0.3590
  581MPD2    C2 8666   0.813   3.505  15.038  0.0516 -0.2748 -0.0272
  581MPD2    C3 8667   0.677   3.511  15.001 -0.9276 -0.2660 -0.0451
  581MPD2    C4 8668   0.598   3.404  15.045 -0.3693 -0.0669  0.6600
  581MPD2    C5 8669   0.651   3.293  15.110 -0.6356  0.3080  0.5113
  581MPD2     H 8670   0.880   3.582  15.001  2.6206 -3.5195 -2.0854
  581MPD2    H1 8671   0.491   3.399  15.031 -0.6317  0.2983  2.5935
  581MPD2    H2 8672   0.815   3.203  15.198 -1.3639 -1.3414 -1.8073
  581MPD2    H3 8673   0.603   3.199  15.133  0.3473 -0.2381  0.3269
  581MPD2     N 8674   0.635   3.618  14.914 -0.5241 -0.8848  0.0374
  581MPD2    H5 8675   0.707   3.678  14.876  0.5633 -2.5027 -0.4732
  581MPD2    N1 8676   1.003   3.387  15.137 -0.7888  0.5070 -0.1960
  581MPD2    H7 8677   1.032   3.294  15.167  0.3716  1.2812  1.0619
  582TMC3    C1 8678   1.227   3.411  15.108  0.4838 -0.7944  0.9870
  582TMC3    C2 8679   1.332   3.469  15.176  0.4903 -0.2181  0.2251
  582TMC3    C3 8680   1.427   3.387  15.220  0.2517 -0.2789  0.3585
  582TMC3    C4 8681   1.221   3.278  15.077  0.1046 -0.0823  0.0980
  582TMC3    C5 8682   1.310   3.199  15.148  0.0035  0.1738 -0.1613
  582TMC3    C6 8683   1.418   3.249  15.215  0.6931  0.5900 -0.4980
  582TMC3     C 8684   1.103   3.480  15.109 -0.8951 -0.6982 -0.6582
  582TMC3     O 8685   1.103   3.601  15.084  0.7193 -0.4018 -0.2004
  582TMC3     H 8686   1.321   3.573  15.205 -0.3674 -0.9374  2.5183
  582TMC3    H1 8687   1.136   3.229  15.031  1.1139  1.8759 -3.8835
  582TMC3    H2 8688   1.488   3.188  15.271  1.8692  1.4080 -1.0510
  582TMC3    C7 8689   1.233   3.107  15.230  0.0218 -0.5218 -0.0135
  582TMC3    C8 8690   1.473   3.427  15.352  0.6211  0.8602  0.5882
  582TMC3    O1 8691   1.156   3.026  15.179 -0.1202 -0.2276  0.3004
  582TMC3    O2 8692   1.385   3.457  15.429 -0.1277 -0.4228 -0.6716
  583MPD2     C 8693   1.325   0.096  16.898  0.5346 -0.4103  0.3922
  583MPD2    C1 8694   1.276   0.222  16.884  1.0922 -0.4452 -0.0489
  583MPD2    C2 8695   1.206   0.280  16.994 -1.0256 -0.3584  0.0242
  583MPD2    C3 8696   1.191   0.214  17.112  0.2479 -0.4248  0.0617
  583MPD2    C4 8697   1.248   0.088  17.125 -0.2010  0.3241 -0.9282
  583MPD2    C5 8698   1.302   0.025  17.018  0.0770 -0.1454  1.1428
  583MPD2     H 8699   1.164   0.378  16.974 -0.7531 -0.1844  0.2978
  583MPD2    H1 8700   1.240   0.041  17.222  2.7535  0.9560 -0.3777
  583MPD2    H2 8701   1.381   0.049  16.819  1.2002  1.7865 -0.4347
  583MPD2    H3 8702   1.334   4.659  17.030  3.0329  0.5073 -1.3969
  583MPD2     N 8703   1.136   0.294  17.219  0.2002  0.3103  0.8732
  583MPD2    H5 8704   1.118   0.392  17.198 -1.1661  0.2219  1.6206
  583MPD2    N1 8705   1.304   0.303  16.775  0.2062 -0.5349 -0.1731
  583MPD2    H7 8706   1.260   0.395  16.784 -1.1518 -1.1815 -0.1949
  584TMC3    C1 8707   1.065   0.354  17.436  0.4579 -0.2010  1.0607
  584TMC3    C2 8708   1.097   0.479  17.403 -0.3918  0.2948 -0.2924
  584TMC3    C3 8709   1.069   0.572  17.497  0.1485  0.6652  0.5074
  584TMC3    C4 8710   1.016   0.322  17.554 -0.1508  0.6272 -0.1134
  584TMC3    C5 8711   0.962   0.418  17.637 -0.2525 -0.9282  0.0327
  584TMC3    C6 8712   0.999   0.549  17.613  0.0546 -0.1218  0.3041
  584TMC3     C 8713   1.098   0.245  17.340 -0.1080 -0.0238 -0.4706
  584TMC3     O 8714   1.084   0.128  17.371 -0.5752 -0.4133  1.0313
  584TMC3     H 8715   1.148   0.510  17.313 -0.1915 -2.3956 -1.0957
  584TMC3    H1 8716   0.984   0.219  17.569 -0.9843  0.5964 -2.1707
  584TMC3    H2 8717   0.970   0.634  17.674 -2.2833 -0.3803 -0.4262
  584TMC3    C7 8718   0.941   0.384   0.031  0.0048 -0.5365  0.7218
  584TMC3    C8 8719   1.083   0.713  17.470 -0.1465 -0.3422  0.1183
  584TMC3    O1 8720   1.004   0.289   0.075  0.3459 -0.1232 -0.0428
  584TMC3    O2 8721   1.099   0.786  17.570  0.4821 -0.0914  0.3116
  585MPD2     C 8722   0.394   3.883   0.794 -0.1951 -0.4757  0.2058
  585MPD2    C1 8723   0.507   3.897   0.720  0.0267  0.5491 -0.7232
  585MPD2    C2 8724   0.529   3.815   0.618  0.4744  1.4867 -0.3812
  585MPD2    C3 8725   0.440   3.704   0.594  0.0033  0.0910  0.0875
  585MPD2    C4 8726   0.329   3.690   0.677 -0.4177 -0.4853  0.2652
  585MPD2    C5 8727   0.306   3.776   0.777  0.2699  0.1747 -0.2475
  585MPD2     H 8728   0.627   3.824   0.573  1.8119 -1.8022  1.8396
  585MPD2    H1 8729   0.268   3.602   0.659  0.8954 -1.3030 -0.1397
  585MPD2    H2 8730   0.361   3.947   0.876  1.4892  1.9153 -0.9886
  585MPD2    H3 8731   0.209   3.763   0.824  0.0459 -0.7391 -0.9687
  585MPD2     N 8732   0.452   3.613   0.488 -0.1436 -0.4393 -0.2826
  585MPD2    H5 8733   0.368   3.560   0.467  0.0021 -1.0716  0.7290
  585MPD2    N1 8734   0.604   3.998   0.743  0.4506 -0.2197 -0.6071
  585MPD2    H7 8735   0.681   3.991   0.678  0.1604 -0.8759 -0.8778
  586TMC3    C1 8736   0.519   3.571   0.270  0.1821  0.8911  0.3262
  586TMC3    C2 8737   0.627   3.549   0.193 -0.6555 -0.7261  0.1389
  586TMC3    C3 8738   0.614   3.581   0.057  0.0830 -0.1280 -0.5468
  586TMC3    C4 8739   0.395   3.612   0.223  0.7360  0.5200 -0.5507
  586TMC3    C5 8740   0.387   3.647   0.084 -0.7078  0.0196  0.1121
  586TMC3    C6 8741   0.494   3.627   0.002 -0.0193  0.5824  0.4194
  586TMC3     C 8742   0.559   3.613   0.408  0.2498  0.0048  0.1220
  586TMC3     O 8743   0.671   3.669   0.412  0.2084 -0.2387 -0.3281
  586TMC3     H 8744   0.721   3.519   0.238 -0.6168  0.1928  0.6682
  586TMC3    H1 8745   0.309   3.636   0.285  1.8118  2.8004  0.0700
  586TMC3    H2 8746   0.480   3.641  17.641  2.5977  1.2643  0.1695
  586TMC3    C7 8747   0.257   3.634   0.030  0.1403  0.2742  0.0676
  586TMC3    C8 8748   0.706   3.534  17.705  0.2116 -0.1812 -0.2695
  586TMC3    O1 8749   0.186   3.541   0.062 -0.6425 -0.2666 -0.0344
  586TMC3    O2 8750   0.782   3.451   0.006  0.2609 -0.1240 -0.3031
  587TMC3    C1 8751   2.702   2.528  16.705 -0.8908  0.5272 -0.1857
  587TMC3    C2 8752   2.680   2.566  16.575 -0.3036  0.1832 -0.0007
  587TMC3    C3 8753   2.743   2.680  16.535 -0.3109 -0.0239  0.3538
  587TMC3    C4 8754   2.804   2.588  16.777 -0.3590 -0.1157  0.5441
  587TMC3    C5 8755   2.872   2.701  16.729 -0.0684  0.5901 -0.2498
  587TMC3    C6 8756   2.840   2.745  16.608  0.3318 -0.3179  0.9890
  587TMC3     C 8757   2.591   2.483  16.796 -0.5998 -0.7530 -0.1537
  587TMC3     O 8758   2.622   2.470  16.912  0.2860  0.2970  0.2565
  587TMC3     H 8759   2.605   2.526  16.507 -0.2723  0.3632 -0.1443
  587TMC3    H1 8760   2.831   2.550  16.874  0.6675 -1.4812 -0.2750
  587TMC3    H2 8761   2.867   2.846  16.579 -0.2455 -0.4828 -0.1286
  587TMC3    C7 8762   2.867   2.811  16.827  0.1754  0.0847 -0.2280
  587TMC3    C8 8763   2.660   2.764  16.457  0.0722 -0.6578  0.0122
  587TMC3    O1 8764   2.813   2.914  16.789 -0.0372  0.8203  0.2259
  587TMC3    O2 8765   2.610   2.714  16.354 -0.4256 -0.1892  0.0745
  588TMC3    C1 8766   0.446   0.960  10.257  0.0983  0.1544  0.4512
  588TMC3    C2 8767   0.347   0.872  10.237  0.3880 -0.4042 -0.6514
  588TMC3    C3 8768   0.371   0.745  10.262  0.1780  0.6418  0.8268
  588TMC3    C4 8769   0.570   0.922  10.311 -0.9147 -0.0803 -0.0984
  588TMC3    C5 8770   0.575   0.795  10.355 -0.1004 -0.4712 -0.3861
  588TMC3    C6 8771   0.482   0.697  10.324  0.7620  0.3145 -0.4773
  588TMC3     C 8772   0.411   1.098  10.275 -0.5319  0.0409  0.8777
  588TMC3     O 8773   0.294   1.131  10.279  0.2389  0.1077  0.8486
  588TMC3     H 8774   0.247   0.897  10.204 -0.7004 -0.8249  2.3463
  588TMC3    H1 8775   0.656   0.986  10.326 -1.8112  0.7943  1.3405
  588TMC3    H2 8776   0.500   0.591  10.340 -0.5442  0.3852  1.3486
  588TMC3    C7 8777   0.698   0.753  10.415  0.2669 -0.3606  0.4018
  588TMC3    C8 8778   0.259   0.653  10.258  0.8819 -0.0236  0.4259
  588TMC3    O1 8779   0.739   0.640  10.404 -0.3749  0.4967  0.0512
  588TMC3    O2 8780   0.158   0.678  10.194  0.5065 -0.5231 -0.1878
  589TMC3    C1 8781   4.573   2.627   1.157 -0.3087 -0.5332 -0.2597
  589TMC3    C2 8782   4.708   2.657   1.179  0.0550  0.8520  0.4193
  589TMC3    C3 8783   0.060   2.552   1.156  0.1809  0.2665  0.4112
  589TMC3    C4 8784   4.535   2.504   1.110  0.4661 -0.6249 -0.7794
  589TMC3    C5 8785   4.628   2.408   1.081 -0.6185 -0.6711  0.6133
  589TMC3    C6 8786   0.021   2.431   1.109 -0.4784  0.7265  0.7398
  589TMC3     C 8787   4.464   2.708   1.199  0.1597 -0.2272  0.2061
  589TMC3     O 8788   4.349   2.687   1.157 -0.2989 -0.1148 -0.5071
  589TMC3     H 8789   0.008   2.754   1.211 -1.9532  1.9578 -0.6842
  589TMC3    H1 8790   4.435   2.472   1.082  0.2860  0.0047 -0.8539
  589TMC3    H2 8791   0.087   2.345   1.122  0.1802  1.2073  0.5703
  589TMC3    C7 8792   4.583   2.272   1.059  0.5296  0.6818  0.1720
  589TMC3    C8 8793   0.196   2.571   1.210  0.8840  0.0018  0.1502
  589TMC3    O1 8794   4.463   2.245   1.085 -0.2869  0.1902  0.1028
  589TMC3    O2 8795   0.216   2.675   1.268  0.4797  0.3927 -0.7438
  590MPD2     C 8796   3.464   0.756  16.527 -0.4358 -0.1220 -0.6294
  590MPD2    C1 8797   3.407   0.854  16.450  0.3172 -0.4107  0.6114
  590MPD2    C2 8798   3.484   0.963  16.414  0.0071 -0.4918  0.3871
  590MPD2    C3 8799   3.616   0.966  16.450  0.0189  0.2384  0.6184
  590MPD2    C4 8800   3.676   0.855  16.513  0.2782  0.0006 -0.7015
  590MPD2    C5 8801   3.593   0.752  16.553 -0.3319  1.0131 -0.4127
  590MPD2     H 8802   3.425   1.029  16.352  0.9451  0.5476  0.5945
  590MPD2    H1 8803   3.784   0.849  16.525  0.1330  1.2602  1.1089
  590MPD2    H2 8804   3.411   0.662  16.539  0.0463 -0.1052  1.6050
  590MPD2    H3 8805   3.635   0.661  16.593 -2.1863  1.0241  1.5687
  590MPD2     N 8806   3.683   1.080  16.394  0.0474 -0.6387 -0.1711
  590MPD2    H5 8807   3.625   1.147  16.343  3.1741  1.6552 -0.6999
  590MPD2    N1 8808   3.271   0.863  16.407  1.0883 -0.6100  0.0921
  590MPD2    H7 8809   3.233   0.944  16.359  1.7475 -1.3983 -1.7470
  591TMC3    C1 8810   3.855   1.221  16.318 -0.5033  0.2314 -0.7026
  591TMC3    C2 8811   3.941   1.208  16.218 -0.5925 -0.6756  0.6905
  591TMC3    C3 8812   3.936   1.314  16.128 -0.2470 -0.3983 -0.2872
  591TMC3    C4 8813   3.765   1.321  16.334  0.5429  0.0428  0.0571
  591TMC3    C5 8814   3.770   1.424  16.245  1.0769  0.4854 -0.1790
  591TMC3    C6 8815   3.852   1.417  16.133  0.1249  0.3155  0.4038
  591TMC3     C 8816   3.824   1.102  16.385  0.3539 -0.7854  0.3251
  591TMC3     O 8817   3.911   1.016  16.393  0.1309  0.0852 -0.0343
  591TMC3     H 8818   4.009   1.124  16.212  1.1018  0.8250 -1.1772
  591TMC3    H1 8819   3.717   1.337  16.430  0.4420  0.6747 -0.0982
  591TMC3    H2 8820   3.853   1.499  16.062 -0.0813  2.0833  2.4197
  591TMC3    C7 8821   3.685   1.539  16.260 -0.9546  0.0527  0.7518
  591TMC3    C8 8822   4.037   1.301  16.021  0.6547  0.8829  0.0892
  591TMC3    O1 8823   3.576   1.521  16.310 -0.5544 -0.5482 -0.0340
  591TMC3    O2 8824   4.113   1.208  16.030  0.1850 -0.5964 -0.0535
  592MPD2     C 8825   3.873   3.435  12.041  0.1421 -0.2332 -0.2828
  592MPD2    C1 8826   3.917   3.463  12.172 -0.3962  0.0014  0.4500
  592MPD2    C2 8827   3.859   3.401  12.283  1.4387 -0.4084 -0.7629
  592MPD2    C3 8828   3.770   3.298  12.262 -0.3703  0.3636 -0.2495
  592MPD2    C4 8829   3.721   3.274  12.130  0.8759 -0.3931 -0.3970
  592MPD2    C5 8830   3.763   3.350  12.026 -0.4074 -1.1350  0.0298
  592MPD2     H 8831   3.894   3.418  12.384  2.0111 -1.6818 -0.7382
  592MPD2    H1 8832   3.653   3.194  12.102  0.8689 -0.2071 -0.9068
  592MPD2    H2 8833   3.908   3.490  11.955 -1.6985 -1.2986 -1.6926
  592MPD2    H3 8834   3.728   3.323  11.927 -0.5464 -0.7365 -0.0307
  592MPD2     N 8835   3.734   3.215  12.376  0.3641  0.3400 -0.3241
  592MPD2    H5 8836   3.768   3.241  12.467 -2.5319  1.9006  0.3190
  592MPD2    N1 8837   4.022   3.559  12.192  0.3079 -0.1807  0.1961
  592MPD2    H7 8838   4.053   3.593  12.101 -2.6244 -1.6921 -1.3816
  593TMC3    C1 8839   4.197   3.674  12.297  0.2315 -0.6311 -0.4194
  593TMC3    C2 8840   4.253   3.746  12.402 -0.4619  0.2745  0.1156
  593TMC3    C3 8841   4.369   3.809  12.384 -0.4278 -0.0726  0.1878
  593TMC3    C4 8842   4.260   3.663  12.176  0.1682  0.0717 -0.1269
  593TMC3    C5 8843   4.378   3.732  12.163 -0.4892  0.6092  0.7986
  593TMC3    C6 8844   4.442   3.791  12.270 -0.0976  0.1913 -0.5604
  593TMC3     C 8845   4.067   3.615  12.307  0.1415 -0.5387  0.4793
  593TMC3     O 8846   4.011   3.617  12.416  0.4464 -0.6265  0.1689
  593TMC3     H 8847   4.191   3.761  12.490 -0.6114 -0.9313  0.2248
  593TMC3    H1 8848   4.230   3.596  12.096  1.3329  0.1404 -0.6242
  593TMC3    H2 8849   4.530   3.853  12.265 -0.6076  0.7607 -2.4161
  593TMC3    C7 8850   4.439   3.763  12.033  0.2639  0.8406 -0.1742
  593TMC3    C8 8851   4.389   3.929  12.466 -0.3044  0.7964  1.0562
  593TMC3    O1 8852   4.554   3.804  12.040  0.5987  0.1077 -0.3992
  593TMC3    O2 8853   4.291   3.993  12.501  0.0225  0.1437 -0.1853
  594MPD2     C 8854   2.964   2.419  14.453 -0.4595  0.3506 -0.0920
  594MPD2    C1 8855   2.973   2.394  14.587  0.6282  0.4094 -0.1842
  594MPD2    C2 8856   3.091   2.424  14.660  0.0289  0.2844  0.0868
  594MPD2    C3 8857   3.196   2.486  14.593  0.1130 -0.2038 -0.0361
  594MPD2    C4 8858   3.180   2.519  14.458  0.8664 -0.4238  0.5897
  594MPD2    C5 8859   3.071   2.482  14.389  0.1832 -1.0390  0.0510
  594MPD2     H 8860   3.093   2.410  14.768 -0.2637 -0.3286  0.0112
  594MPD2    H1 8861   3.248   2.587  14.408  1.0267 -2.8128 -2.4055
  594MPD2    H2 8862   2.871   2.408  14.398 -0.7855  0.0282  0.5223
  594MPD2    H3 8863   3.052   2.516  14.288 -1.8955  1.0277  1.1479
  594MPD2     N 8864   3.308   2.523  14.674 -0.2543 -0.4678 -0.2250
  594MPD2    H5 8865   3.291   2.518  14.774 -3.2087  0.1207 -0.6770
  594MPD2    N1 8866   2.870   2.333  14.652 -0.0690 -0.3870  0.1206
  594MPD2    H7 8867   2.800   2.285  14.596 -1.8056  2.7270 -0.3350
  595TMC3    C1 8868   3.703   2.727  14.811  0.0382 -0.4190  0.4787
  595TMC3    C2 8869   3.636   2.648  14.720 -0.0121 -0.2058 -0.0580
  595TMC3    C3 8870   3.499   2.642  14.737 -0.2430  0.3353 -0.5592
  595TMC3    C4 8871   3.634   2.825  14.883 -0.8800 -0.0459 -0.7514
  595TMC3    C5 8872   3.505   2.829  14.872  0.4070 -0.0470 -0.3218
  595TMC3    C6 8873   3.434   2.731  14.811 -0.2222 -0.9646 -0.0043
  595TMC3     C 8874   3.845   2.720  14.829  0.1810  0.0059 -0.0537
  595TMC3     O 8875   3.892   2.796  14.914  0.3627  0.1106  1.5050
  595TMC3     H 8876   3.680   2.586  14.642  0.8412  3.2003 -2.2984
  595TMC3    H1 8877   3.691   2.902  14.933  0.3282 -0.9143 -0.7682
  595TMC3    H2 8878   3.326   2.724  14.825 -0.2240  1.6010  1.1649
  595TMC3    C7 8879   3.425   2.926  14.942  0.2341 -0.0875  0.5696
  595TMC3    C8 8880   3.426   2.578  14.625 -0.0098 -0.4635 -0.1606
  595TMC3    O1 8881   3.308   2.899  14.967 -0.4241 -0.6592  0.2670
  595TMC3    O2 8882   3.468   2.571  14.510 -0.4567  0.0449 -0.4859
  596MPD2     C 8883   2.059   0.307  17.053  0.2288  0.3243 -0.1129
  596MPD2    C1 8884   2.015   0.411  16.977 -0.0644  0.8039  0.5201
  596MPD2    C2 8885   2.034   0.420  16.841  1.6852  0.4062 -1.0481
  596MPD2    C3 8886   2.098   0.315  16.775  0.2045 -0.9002  0.1712
  596MPD2    C4 8887   2.144   0.214  16.846  1.1161  0.4031  0.2163
  596MPD2    C5 8888   2.131   0.212  16.988 -0.1827  0.4077  0.1372
  596MPD2     H 8889   1.985   0.494  16.778 -1.5109  1.0349  2.2481
  596MPD2    H1 8890   2.202   0.146  16.784 -0.1049 -0.1487 -0.3203
  596MPD2    H2 8891   2.046   0.305  17.160  0.2000  0.2134 -0.1179
  596MPD2    H3 8892   2.181   0.129  17.035 -0.1228  0.0654 -0.5337
  596MPD2     N 8893   2.117   0.319  16.631 -0.0135 -0.7738  0.0025
  596MPD2    H5 8894   2.186   0.256  16.591  0.5792 -0.4995  0.5841
  596MPD2    N1 8895   1.929   0.514  17.027  0.2142  0.5936  0.7846
  596MPD2    H7 8896   1.912   0.592  16.964  2.5874 -0.1103 -0.7612
  597TMC3    C1 8897   1.783   0.633  17.180 -0.3103 -0.3270 -0.5998
  597TMC3    C2 8898   1.788   0.746  17.109  0.5049 -0.5166 -0.3359
  597TMC3    C3 8899   1.739   0.857  17.173 -0.0139 -0.3442  0.5437
  597TMC3    C4 8900   1.723   0.616  17.305  0.3182  0.5291 -0.7520
  597TMC3    C5 8901   1.677   0.727  17.360  0.7507  0.0149  0.0358
  597TMC3    C6 8902   1.687   0.853  17.300 -0.0173  0.0376 -0.1795
  597TMC3     C 8903   1.867   0.515  17.150 -0.3931  0.0267  0.7643
  597TMC3     O 8904   1.841   0.412  17.206  0.1006  0.9200 -0.0119
  597TMC3     H 8905   1.848   0.758  17.020 -0.1333  0.0053 -0.6971
  597TMC3    H1 8906   1.714   0.521  17.356 -1.5732  1.0339 -0.1436
  597TMC3    H2 8907   1.659   0.943  17.354  0.9313  0.5752 -0.5822
  597TMC3    C7 8908   1.614   0.709  17.485  0.3640 -0.1167  0.3793
  597TMC3    C8 8909   1.766   0.990  17.117 -0.0130 -0.7494 -0.2145
  597TMC3    O1 8910   1.621   0.601  17.541  0.8536  0.6153 -0.8554
  597TMC3    O2 8911   1.733   1.085  17.188 -0.1514 -0.2502 -0.2972
  598TMC3    C1 8912   0.432   1.815  15.802 -0.1384  0.4504 -0.4691
  598TMC3    C2 8913   0.305   1.849  15.760 -0.0344  0.7448  0.6181
  598TMC3    C3 8914   0.283   1.878  15.629 -0.3280 -0.2181 -0.2795
  598TMC3    C4 8915   0.531   1.812  15.709 -0.0292 -0.6943  0.1892
  598TMC3    C5 8916   0.500   1.833  15.577 -0.3448  0.1742  0.4937
  598TMC3    C6 8917   0.376   1.866  15.533 -0.3174 -0.4665 -0.1681
  598TMC3     C 8918   0.457   1.782  15.941 -0.3427  0.4715 -0.8261
  598TMC3     O 8919   0.570   1.802  15.988 -0.5378 -0.0337 -0.4941
  598TMC3     H 8920   0.225   1.844  15.832  0.8292 -0.9679  1.4612
  598TMC3    H1 8921   0.636   1.809  15.737  0.4872 -1.2390 -1.8473
  598TMC3    H2 8922   0.341   1.893  15.435 -0.5134  1.6682  0.4916
  598TMC3    C7 8923   0.622   1.873  15.497  0.8256 -0.1606  0.1022
  598TMC3    C8 8924   0.138   1.856  15.597 -0.7091 -0.4011 -0.1819
  598TMC3    O1 8925   0.721   1.803  15.478 -0.0987 -0.2646  0.7459
  598TMC3    O2 8926   0.056   1.912  15.665 -0.3212  0.3546  0.0799
  599MPD2     C 8927   0.852   4.111  16.043 -0.3733  0.1077 -0.5423
  599MPD2    C1 8928   0.763   4.000  16.044  0.4068 -0.6295  0.4369
  599MPD2    C2 8929   0.627   4.025  16.022 -0.1395 -0.0068 -0.4505
  599MPD2    C3 8930   0.581   4.152  16.007 -0.3672  0.4708 -0.1512
  599MPD2    C4 8931   0.667   4.264  16.019  0.7359  0.0768 -0.5314
  599MPD2    C5 8932   0.798   4.240  16.041  0.0875  0.7052  0.4428
  599MPD2     H 8933   0.564   3.939  16.002  1.0581 -1.4044  1.9187
  599MPD2    H1 8934   0.641   4.367  16.000 -0.3088 -0.0180  0.3502
  599MPD2    H2 8935   0.959   4.094  16.046 -0.3002  0.8702  0.8757
  599MPD2    H3 8936   0.871   4.321  16.034  0.4471  0.1624 -1.9898
  599MPD2     N 8937   0.450   4.183  15.986 -0.0842  0.2621  0.4404
  599MPD2    H5 8938   0.424   4.277  16.015 -0.5995  0.1017  0.4946
  599MPD2    N1 8939   0.820   3.883  16.081 -0.0386  0.2117 -0.3282
  599MPD2    H7 8940   0.918   3.886  16.110 -0.4980 -0.7496  1.3345
  600TMC3    C1 8941   0.221   4.103  16.031 -0.2153  0.0590 -0.8034
  600TMC3    C2 8942   0.122   4.013  16.002 -0.2188 -0.7812  1.1078
  600TMC3    C3 8943   0.002   4.022  16.067 -0.8484 -0.3172  0.6554
  600TMC3    C4 8944   0.203   4.203  16.128  0.2325  0.3154  0.3599
  600TMC3    C5 8945   0.078   4.211  16.190  0.6157 -0.1218 -0.2524
  600TMC3    C6 8946   4.711   4.129  16.154 -0.1610 -0.3621  0.0503
  600TMC3     C 8947   0.352   4.083  15.970  0.4627 -0.1878  0.5687
  600TMC3     O 8948   0.367   3.976  15.919 -0.5012 -0.2147  0.0635
  600TMC3     H 8949   0.147   3.930  15.937  0.5710 -0.3710  0.8851
  600TMC3    H1 8950   0.290   4.254  16.168 -0.4096  1.8183 -0.1631
  600TMC3    H2 8951   4.616   4.160  16.195  0.7544  1.2659  0.9494
  600TMC3    C7 8952   0.038   4.338  16.256 -0.2300 -0.2112 -0.5216
  600TMC3    C8 8953   4.648   3.906  16.062  0.3331  0.0608 -0.3311
  600TMC3    O1 8954   4.660   4.346  16.290  0.0441 -0.3800  0.5050
  600TMC3    O2 8955   4.690   3.789  16.043  0.2466 -0.7186  0.0791
  601MPD2     C 8956   2.441   1.768   0.773 -0.1374 -0.2254 -0.9868
  601MPD2    C1 8957   2.316   1.763   0.710 -0.4186 -0.3021  0.1339
  601MPD2    C2 8958   2.223   1.672   0.760  0.2641  0.6421 -0.0316
  601MPD2    C3 8959   2.257   1.577   0.851 -0.0898 -0.6042 -0.1132
  601MPD2    C4 8960   2.383   1.576   0.899  0.6527 -0.4869 -0.5016
  601MPD2    C5 8961   2.479   1.670   0.865 -0.2681 -0.5169 -0.2674
  601MPD2     H 8962   2.124   1.670   0.717  0.5081  1.3442 -0.6298
  601MPD2    H1 8963   2.427   1.505   0.968 -0.7240 -0.2489  0.6159
  601MPD2    H2 8964   2.519   1.839   0.746  1.9501 -1.5121  1.6503
  601MPD2    H3 8965   2.579   1.662   0.906  0.9750  1.1459 -3.0037
  601MPD2     N 8966   2.179   1.471   0.897  0.3590  0.5313 -0.2817
  601MPD2    H5 8967   2.214   1.413   0.972 -0.1501 -0.2042 -0.6220
  601MPD2    N1 8968   2.270   1.854   0.614 -0.5123 -0.4797 -0.6191
  601MPD2    H7 8969   2.174   1.853   0.581 -0.5253 -1.2529 -0.5578
  602TMC3    C1 8970   2.283   2.016   0.446 -0.2139 -0.9843 -0.4417
  602TMC3    C2 8971   2.332   2.142   0.426  0.5559  0.3069 -0.7507
  602TMC3    C3 8972   2.271   2.224   0.331 -0.5862  0.2493 -0.0284
  602TMC3    C4 8973   2.169   1.970   0.383  0.3451 -0.8174 -0.8419
  602TMC3    C5 8974   2.108   2.064   0.305 -0.1728 -0.2059 -0.3807
  602TMC3    C6 8975   2.157   2.185   0.270 -0.2687 -0.3795 -0.1352
  602TMC3     C 8976   2.344   1.959   0.559 -0.0171 -0.1257  0.2233
  602TMC3     O 8977   2.437   2.020   0.609  0.4610 -0.0528 -0.2361
  602TMC3     H 8978   2.433   2.170   0.454  0.5465  1.2014 -1.6304
  602TMC3    H1 8979   2.125   1.873   0.404  0.5704 -0.7141  0.1272
  602TMC3    H2 8980   2.105   2.244   0.195  0.5954  0.6338  0.0649
  602TMC3    C7 8981   1.973   2.026   0.263 -0.3722 -0.3855 -0.8518
  602TMC3    C8 8982   2.310   2.359   0.334  0.0419 -0.3775  0.1409
  602TMC3    O1 8983   1.939   1.912   0.227 -0.2031 -0.3671  0.5462
  602TMC3    O2 8984   2.362   2.403   0.436 -0.6519  0.1543 -0.2232
  603TMC3    C1 8985   0.214   2.908  11.614  0.1627 -0.3337  0.1961
  603TMC3    C2 8986   0.234   2.903  11.753 -0.3232 -0.2928 -0.7045
  603TMC3    C3 8987   0.177   3.007  11.824 -0.3066  0.1933 -0.8385
  603TMC3    C4 8988   0.153   3.015  11.551  0.1546 -0.2311 -0.5646
  603TMC3    C5 8989   0.098   3.110  11.627 -0.1546 -0.2868 -0.4886
  603TMC3    C6 8990   0.116   3.110  11.763  0.1959 -0.1654  0.5506
  603TMC3     C 8991   0.276   2.812  11.525 -0.1725 -0.0623 -0.4170
  603TMC3     O 8992   0.250   2.827  11.406 -0.1930  0.1487 -0.3472
  603TMC3     H 8993   0.286   2.822  11.804 -1.4677 -0.3461  0.3803
  603TMC3    H1 8994   0.135   3.022  11.445 -1.1581 -3.0379 -0.5123
  603TMC3    H2 8995   0.061   3.184  11.821 -0.3048 -1.0053  1.1378
  603TMC3    C7 8996   0.126   3.245  11.574 -0.0325 -0.2495 -0.2484
  603TMC3    C8 8997   0.178   2.995  11.963 -0.0762 -0.3062 -0.1018
  603TMC3    O1 8998   0.198   3.309  11.648 -0.1590 -0.2339 -0.6383
  603TMC3    O2 8999   0.209   2.884  12.009 -0.5413  0.4727  0.0893
  604MPD2     C 9000   1.515   1.863  16.571 -0.5760  0.3683  0.3273
  604MPD2    C1 9001   1.408   1.783  16.534  0.4333  0.0937  0.2054
  604MPD2    C2 9002   1.415   1.704  16.426 -0.5320 -0.0151 -0.1171
  604MPD2    C3 9003   1.526   1.713  16.343 -0.4021  1.0447 -0.0428
  604MPD2    C4 9004   1.636   1.781  16.388  0.5657 -0.2389  0.3880
  604MPD2    C5 9005   1.631   1.862  16.498  0.0871 -0.3321  0.6570
  604MPD2     H 9006   1.326   1.645  16.407 -1.2789  0.9551  0.4242
  604MPD2    H1 9007   1.731   1.792  16.336 -0.5571  0.2674 -1.5683
  604MPD2    H2 9008   1.505   1.937  16.650 -2.8611 -1.3040  1.6196
  604MPD2    H3 9009   1.716   1.924  16.523 -0.7289 -0.1447  2.9814
  604MPD2     N 9010   1.525   1.670  16.208 -0.2393  0.2703 -0.0067
  604MPD2    H5 9011   1.438   1.631  16.175  0.8968 -2.5802  0.4007
  604MPD2    N1 9012   1.303   1.781  16.633 -0.4182  0.2868 -0.5881
  604MPD2    H7 9013   1.316   1.840  16.714  0.3223  0.6569 -0.9685
  605TMC3    C1 9014   1.120   1.704  16.752  0.8348 -0.5723  0.3151
  605TMC3    C2 9015   1.194   1.761  16.849 -0.3482  0.0420 -0.3722
  605TMC3    C3 9016   1.134   1.864  16.924 -0.3233  0.1616  0.3738
  605TMC3    C4 9017   0.987   1.716  16.739  0.5553  0.6411  0.8401
  605TMC3    C5 9018   0.930   1.800  16.831 -0.3220 -0.0081 -0.3152
  605TMC3    C6 9019   1.001   1.881  16.913  0.1068  0.1537 -0.7755
  605TMC3     C 9020   1.192   1.698  16.631 -0.0934  0.1977  0.1389
  605TMC3     O 9021   1.146   1.633  16.538  0.2482  0.0055  0.2208
  605TMC3     H 9022   1.302   1.759  16.854 -0.3267  0.1992 -0.8093
  605TMC3    H1 9023   0.943   1.701  16.641  0.5960  0.3048  0.8736
  605TMC3    H2 9024   0.953   1.956  16.975  0.0864 -0.3840 -0.1271
  605TMC3    C7 9025   0.788   1.811  16.820 -0.3837 -0.1102 -1.6462
  605TMC3    C8 9026   1.214   1.982  16.949 -0.0997 -0.4949 -0.0741
  605TMC3    O1 9027   0.733   1.912  16.863  0.5997  0.2933 -0.1266
  605TMC3    O2 9028   1.306   1.979  16.864  0.2391 -0.2685  0.2844
  606TMC3    C1 9029   2.233   0.503   0.614 -0.1431 -0.0644  0.2100
  606TMC3    C2 9030   2.274   0.382   0.670  0.8631 -0.0641 -0.1036
  606TMC3    C3 9031   2.268   0.275   0.587 -0.1756  0.4481  0.5318
  606TMC3    C4 9032   2.206   0.523   0.486  0.2460  0.2991  0.8032
  606TMC3    C5 9033   2.208   0.416   0.411  0.0159  0.3171 -0.3746
  606TMC3    C6 9034   2.234   0.292   0.456  0.5593 -0.0019  0.2261
  606TMC3     C 9035   2.244   0.621   0.703  0.2034  0.6451 -0.1349
  606TMC3     O 9036   2.240   0.610   0.824 -0.6038 -0.5485  0.2159
  606TMC3     H 9037   2.294   0.380   0.777 -0.4194  2.8281  0.2023
  606TMC3    H1 9038   2.165   0.615   0.446  3.0202  1.0681 -0.2657
  606TMC3    H2 9039   2.240   0.210   0.386 -0.7850  0.1802 -0.0943
  606TMC3    C7 9040   2.215   0.438   0.263  0.4083  0.6990 -0.4384
  606TMC3    C8 9041   2.319   0.146   0.633 -0.3152  0.5660  0.1217
  606TMC3    O1 9042   2.242   0.551   0.227  0.4533  0.5882  0.2430
  606TMC3    O2 9043   2.303   0.052   0.561 -0.6428 -0.4940 -0.0083
  607MPD2     C 9044   3.855   2.615  12.081  0.4862  0.2384 -0.1390
  607MPD2    C1 9045   3.833   2.722  12.163 -0.1226  1.0515 -0.6046
  607MPD2    C2 9046   3.766   2.695  12.279  0.3475 -0.5733 -0.1997
  607MPD2    C3 9047   3.738   2.566  12.326  0.7391  0.2081  0.2427
  607MPD2    C4 9048   3.765   2.457  12.245 -0.4827  0.3461  0.3913
  607MPD2    C5 9049   3.820   2.487  12.122 -0.1002  0.1094  0.0740
  607MPD2     H 9050   3.736   2.779  12.342 -0.1638  0.4135 -1.7557
  607MPD2    H1 9051   3.725   2.364  12.284  1.1709 -0.2238  0.7194
  607MPD2    H2 9052   3.880   2.626  11.976 -0.9519 -1.2442 -0.6370
  607MPD2    H3 9053   3.819   2.411  12.045  0.1324  0.2422 -0.0628
  607MPD2     N 9054   3.691   2.558  12.462 -0.0820 -0.0062  0.4832
  607MPD2    H5 9055   3.696   2.648  12.510  2.5312  0.6692 -1.0902
  607MPD2    N1 9056   3.851   2.856  12.115 -0.4701  0.3354 -0.4007
  607MPD2    H7 9057   3.804   2.926  12.172  0.8826  0.7718  0.1711
  608TMC3    C1 9058   3.979   3.049  12.055 -0.1313 -0.2106 -0.1220
  608TMC3    C2 9059   3.989   3.076  12.188 -0.5410  0.2932  0.3981
  608TMC3    C3 9060   4.089   3.153  12.242 -0.2076 -0.2572  0.3368
  608TMC3    C4 9061   4.070   3.097  11.965 -0.2896  0.0053 -0.7350
  608TMC3    C5 9062   4.172   3.173  12.016  0.2768 -0.7336  0.4784
  608TMC3    C6 9063   4.182   3.209  12.149  0.4448 -0.2088  0.1452
  608TMC3     C 9064   3.961   2.900  12.047  0.7697 -0.2374 -0.0602
  608TMC3     O 9065   4.030   2.837  11.970 -0.2678 -0.6278  0.0109
  608TMC3     H 9066   3.910   3.042  12.254 -1.3835  1.1035 -0.1849
  608TMC3    H1 9067   4.078   3.068  11.860 -2.9412  0.4315 -1.0541
  608TMC3    H2 9068   4.248   3.277  12.201  2.6356 -0.9256 -1.6754
  608TMC3    C7 9069   4.261   3.230  11.914 -0.6896  0.2836 -0.3917
  608TMC3    C8 9070   4.111   3.178  12.385 -0.1750 -0.2714  0.4667
  608TMC3    O1 9071   4.234   3.227  11.794  0.1509 -0.9181 -0.1266
  608TMC3    O2 9072   4.147   3.293  12.412  0.5189  0.5760  0.1124
  609TMC3    C1 9073   3.066   3.021  10.196 -0.2003 -0.1124  0.1187
  609TMC3    C2 9074   3.135   3.142  10.195  0.6619 -0.1699 -0.9206
  609TMC3    C3 9075   3.256   3.148  10.135  0.0845  0.1068 -0.0993
  609TMC3    C4 9076   3.118   2.915  10.122 -0.1504  0.3348  0.3405
  609TMC3    C5 9077   3.238   2.930  10.055  0.3813  0.3123  0.6203
  609TMC3    C6 9078   3.313   3.043  10.058 -0.0953 -0.2337 -0.2182
  609TMC3     C 9079   2.939   3.006  10.256 -0.2416  0.0041  0.1558
  609TMC3     O 9080   2.882   2.906  10.232 -0.2412  0.2877  0.0584
  609TMC3     H 9081   3.089   3.226  10.246  3.2269  0.3219  0.6138
  609TMC3    H1 9082   3.072   2.818  10.135 -2.2894  1.4108  0.7575
  609TMC3    H2 9083   3.414   3.052  10.019 -0.2206  1.0713 -0.2402
  609TMC3    C7 9084   3.307   2.819   9.986  0.5768  0.2976 -0.5649
  609TMC3    C8 9085   3.313   3.286  10.112 -0.0228 -0.7032 -0.5496
  609TMC3    O1 9086   3.390   2.859   9.901 -0.7736 -0.5940  0.1266
  609TMC3    O2 9087   3.303   3.371  10.205 -0.0237 -0.0347  0.0697
  610TMC3    C1 9088   4.474   3.218  12.874 -0.3187  0.1417  0.2856
  610TMC3    C2 9089   4.439   3.172  12.750  0.1093 -0.5786 -0.1005
  610TMC3    C3 9090   4.430   3.033  12.740  0.0700 -0.1826 -0.3365
  610TMC3    C4 9091   4.485   3.137  12.984  0.4052 -0.4456  0.2575
  610TMC3    C5 9092   4.472   3.005  12.973 -0.2410  0.8201 -0.2878
  610TMC3    C6 9093   4.443   2.950  12.852  0.6148  0.0523 -0.7207
  610TMC3     C 9094   4.459   3.362  12.903 -0.6464  0.1270  0.1458
  610TMC3     O 9095   4.463   3.449  12.817  0.1395 -0.5570  0.0907
  610TMC3     H 9096   4.419   3.245  12.671  0.9979  0.0487  0.2569
  610TMC3    H1 9097   4.531   3.170  13.077  0.0403 -1.9223  0.9548
  610TMC3    H2 9098   4.440   2.843  12.831 -1.1002  0.1925 -1.2371
  610TMC3    C7 9099   4.543   2.923  13.068 -0.2483  0.4560 -0.2433
  610TMC3    C8 9100   4.385   2.978  12.610  0.3979 -0.0986 -0.1760
  610TMC3    O1 9101   4.605   2.972  13.159 -0.5969 -0.3535  0.2027
  610TMC3    O2 9102   4.373   3.062  12.521  0.1285 -0.2158 -0.4309
  611MPD2     C 9103   3.801   3.311  11.135  0.3664  0.3055 -0.2595
  611MPD2    C1 9104   3.838   3.265  11.009  0.0642 -0.6405  0.0984
  611MPD2    C2 9105   3.954   3.311  10.945 -0.3245 -0.0399 -0.4443
  611MPD2    C3 9106   4.034   3.396  11.019  0.0858 -0.1055  1.2395
  611MPD2    C4 9107   4.002   3.429  11.146  0.3234  0.1736 -0.2173
  611MPD2    C5 9108   3.882   3.391  11.206  0.1744  0.4131  0.0243
  611MPD2     H 9109   3.977   3.273  10.847  0.8759 -0.8425  0.1452
  611MPD2    H1 9110   4.075   3.483  11.205 -0.2672 -0.0439  0.7121
  611MPD2    H2 9111   3.711   3.267  11.178  1.6290 -0.1867  1.8671
  611MPD2    H3 9112   3.861   3.415  11.309  0.2104  1.0767 -0.1255
  611MPD2     N 9113   4.160   3.447  10.971  0.4476 -0.1820 -0.0314
  611MPD2    H5 9114   4.197   3.514  11.037  1.2672  0.1993 -0.8617
  611MPD2    N1 9115   3.734   3.180  10.955 -0.0354  0.1085  0.2526
  611MPD2    H7 9116   3.656   3.152  11.015  1.9591  0.3078  2.9350
  612TMC3    C1 9117   4.332   3.510  10.823  0.2159  0.0234 -0.4312
  612TMC3    C2 9118   4.414   3.551  10.925  0.2810 -0.4290  0.4345
  612TMC3    C3 9119   4.533   3.618  10.888  0.1688 -0.5443 -0.0075
  612TMC3    C4 9120   4.366   3.536  10.693  0.1204  0.0025 -0.1410
  612TMC3    C5 9121   4.473   3.616  10.663  0.4823  0.6046 -0.7266
  612TMC3    C6 9122   4.555   3.671  10.761 -0.3003 -0.1483 -0.3202
  612TMC3     C 9123   4.214   3.430  10.848 -0.7982  0.1421 -0.3367
  612TMC3     O 9124   4.171   3.352  10.761 -0.4456 -0.4069 -0.7875
  612TMC3     H 9125   4.387   3.527  11.027  0.2180  3.1937  1.2653
  612TMC3    H1 9126   4.309   3.505  10.606  0.6462  1.2379 -0.9218
  612TMC3    H2 9127   4.654   3.703  10.731 -0.2649  2.8759  3.1363
  612TMC3    C7 9128   4.475   3.670  10.529 -0.0119 -0.7783 -0.2745
  612TMC3    C8 9129   4.636   3.634  10.984  0.3152  0.2198 -0.0986
  612TMC3    O1 9130   4.425   3.603  10.435 -0.0287  0.1282  0.2417
  612TMC3    O2 9131   4.699   3.738  10.972  0.0960 -0.3325 -0.1362
  613MPD2     C 9132   3.167   4.692  16.658 -0.2797 -0.7676  0.1193
  613MPD2    C1 9133   3.158   4.736  16.527 -0.6675 -0.3272  0.2564
  613MPD2    C2 9134   3.150   4.645  16.428  0.3988 -1.3767  0.1487
  613MPD2    C3 9135   3.175   4.512  16.453 -0.4480  0.7257 -0.1464
  613MPD2    C4 9136   3.179   4.467  16.583  0.2469  0.0955  0.1354
  613MPD2    C5 9137   3.170   4.557  16.686 -0.8014  0.9204  0.3119
  613MPD2     H 9138   3.147   4.679  16.325 -0.7254 -1.6213  0.0954
  613MPD2    H1 9139   3.208   4.363  16.592  2.0945  0.4736 -1.3406
  613MPD2    H2 9140   3.181   0.019  16.745  2.3676 -2.3518  0.8278
  613MPD2    H3 9141   3.183   4.524  16.788 -0.5381 -1.3685 -0.4598
  613MPD2     N 9142   3.217   4.425  16.348  0.0107  0.0912 -0.2172
  613MPD2    H5 9143   3.264   4.342  16.382  0.9290  0.7547  0.1591
  613MPD2    N1 9144   3.172   0.137  16.512 -0.1588  0.5537 -0.3967
  613MPD2    H7 9145   3.194   0.180  16.602  1.2962 -0.1764 -0.4129
  614TMC3    C1 9146   3.249   0.344  16.411  0.0106 -0.3816 -0.2127
  614TMC3    C2 9147   3.372   0.329  16.468 -0.7639 -0.3746 -0.0111
  614TMC3    C3 9148   3.485   0.390  16.411  0.2656 -0.1158  0.1341
  614TMC3    C4 9149   3.239   0.421  16.302  0.1780 -0.4981  0.5309
  614TMC3    C5 9150   3.346   0.488  16.258  0.2015  0.0567  0.3159
  614TMC3    C6 9151   3.472   0.479  16.307  0.5593  0.2686  0.1211
  614TMC3     C 9152   3.187   0.210  16.392  0.5860  0.2063  0.1658
  614TMC3     O 9153   3.150   0.182  16.280 -0.1668 -0.1618  0.5822
  614TMC3     H 9154   3.366   0.251  16.542  1.1981  2.2557  2.9571
  614TMC3    H1 9155   3.143   0.435  16.253  0.3588  2.0445  0.8856
  614TMC3    H2 9156   3.553   0.545  16.277  1.5969 -0.0535  2.2308
  614TMC3    C7 9157   3.332   0.548  16.134 -0.4128 -0.5162 -0.7749
  614TMC3    C8 9158   3.589   0.293  16.392 -0.4262  0.6737  0.3039
  614TMC3    O1 9159   3.221   0.580  16.103  0.1883  0.0189  0.0026
  614TMC3    O2 9160   3.584   0.184  16.448  0.0655 -1.0526 -0.1622
  615MPD2     C 9161   2.548   1.829  16.145  0.4115 -0.4623  0.0537
  615MPD2    C1 9162   2.529   1.937  16.075  0.1191  0.1143  0.6711
  615MPD2    C2 9163   2.442   1.946  15.966 -0.1568 -0.0641 -0.0023
  615MPD2    C3 9164   2.369   1.830  15.932 -0.4868  0.2374 -0.6147
  615MPD2    C4 9165   2.394   1.712  16.004  0.4379 -0.7536  0.0229
  615MPD2    C5 9166   2.483   1.713  16.109  0.2058 -1.2893 -0.5640
  615MPD2     H 9167   2.420   2.042  15.920  0.6615 -0.3040 -0.8686
  615MPD2    H1 9168   2.344   1.618  15.983 -1.3982 -0.2492  2.1213
  615MPD2    H2 9169   2.608   1.828  16.235 -1.1698 -1.6247  1.0897
  615MPD2    H3 9170   2.489   1.618  16.162  0.7700 -0.0124  1.6546
  615MPD2     N 9171   2.283   1.838  15.826 -0.1440 -0.2646 -0.0660
  615MPD2    H5 9172   2.271   1.930  15.785 -2.3806 -0.4841  0.0937
  615MPD2    N1 9173   2.591   2.051  16.110  0.1461  0.5624  0.1355
  615MPD2    H7 9174   2.564   2.130  16.052  0.3656 -0.7954 -1.8136
  616TMC3    C1 9175   2.746   2.209  16.213  0.9973  0.1685 -0.0760
  616TMC3    C2 9176   2.797   2.249  16.330 -0.7826 -0.0288 -0.7290
  616TMC3    C3 9177   2.855   2.375  16.343  0.2389  0.2043  0.4879
  616TMC3    C4 9178   2.746   2.296  16.108 -0.2316  0.1853 -0.5073
  616TMC3    C5 9179   2.789   2.428  16.136 -0.4189 -0.4281 -0.3126
  616TMC3    C6 9180   2.841   2.472  16.255  0.4177 -0.4303 -0.2105
  616TMC3     C 9181   2.680   2.083  16.217 -0.5088  0.1892  0.3051
  616TMC3     O 9182   2.712   2.012  16.305 -0.4990  0.8535 -0.1819
  616TMC3     H 9183   2.819   2.176  16.408 -2.0830  1.3311  0.9023
  616TMC3    H1 9184   2.734   2.258  16.007 -2.4494 -2.7167  0.8363
  616TMC3    H2 9185   2.896   2.564  16.266  1.7510 -1.3759  0.9381
  616TMC3    C7 9186   2.749   2.519  16.029 -1.0179  0.6381 -0.2419
  616TMC3    C8 9187   2.954   2.394  16.442  0.1857  0.4191 -0.3432
  616TMC3    O1 9188   2.701   2.460  15.933  0.0402  0.0716 -0.0756
  616TMC3    O2 9189   3.043   2.479  16.428  0.0954  0.0129 -0.5139
  617MPD2     C 9190   0.813   0.527  13.872 -0.4300  0.8080 -0.1496
  617MPD2    C1 9191   0.831   0.460  13.990  0.1852 -0.1203  0.7305
  617MPD2    C2 9192   0.748   0.358  14.021  0.2173 -0.2589  0.0609
  617MPD2    C3 9193   0.651   0.316  13.932  0.3462  0.2380 -0.4962
  617MPD2    C4 9194   0.631   0.387  13.813 -0.1138  0.2333  0.2013
  617MPD2    C5 9195   0.720   0.487  13.779 -0.0569  0.3626  0.1173
  617MPD2     H 9196   0.766   0.300  14.111  1.0247  0.2376  0.2245
  617MPD2    H1 9197   0.556   0.359  13.740  1.9933  1.4137 -2.4518
  617MPD2    H2 9198   0.863   0.618  13.843  0.7121  0.9356  2.2249
  617MPD2    H3 9199   0.714   0.542  13.686 -1.7198  2.7781  1.6691
  617MPD2     N 9200   0.556   0.216  13.959  0.3309 -0.0066  0.2045
  617MPD2    H5 9201   0.496   0.179  13.885 -0.9284  2.7157 -0.1348
  617MPD2    N1 9202   0.929   0.503  14.087 -0.1812  0.0682  0.3720
  617MPD2    H7 9203   0.975   0.593  14.075 -1.2978  0.8927  2.2881
  618TMC3    C1 9204   1.061   0.493  14.278 -0.4758  0.1342 -0.1408
  618TMC3    C2 9205   1.190   0.439  14.296  0.5510  0.5605 -0.2832
  618TMC3    C3 9206   1.278   0.522  14.359  0.2074  0.0414 -0.3326
  618TMC3    C4 9207   1.034   0.625  14.286 -0.3443  0.2042  0.3909
  618TMC3    C5 9208   1.132   0.700  14.341  0.7381  0.7481 -0.2754
  618TMC3    C6 9209   1.249   0.647  14.400 -0.0896  0.4434  0.0116
  618TMC3     C 9210   0.976   0.423  14.190  0.1027 -0.9050  0.0669
  618TMC3     O 9211   0.978   0.303  14.208 -0.0818  0.3974 -0.3559
  618TMC3     H 9212   1.210   0.334  14.283  0.0053  0.5784 -1.1981
  618TMC3    H1 9213   0.938   0.671  14.263 -1.0522 -1.1303  0.6326
  618TMC3    H2 9214   1.325   0.710  14.445 -0.0314 -1.1477  2.0919
  618TMC3    C7 9215   1.090   0.838  14.373  0.5571 -0.4838  0.0958
  618TMC3    C8 9216   1.416   0.480  14.348  0.3575  0.2520 -0.0276
  618TMC3    O1 9217   0.983   0.861  14.429  0.2000 -0.5127  0.1204
  618TMC3    O2 9218   1.489   0.503  14.444 -0.7036  0.3283 -0.5595
  619MPD2     C 9219   2.275   1.487  13.781 -0.3647  0.5948  0.2443
  619MPD2    C1 9220   2.212   1.556  13.682  0.3441  0.3337  0.1136
  619MPD2    C2 9221   2.079   1.534  13.666  0.6479 -0.0021 -0.0483
  619MPD2    C3 9222   2.008   1.450  13.753 -0.3448 -0.6414 -0.0058
  619MPD2    C4 9223   2.077   1.369  13.839  0.3175 -0.9346 -0.0502
  619MPD2    C5 9224   2.215   1.388  13.848  0.5839  0.4025  0.8099
  619MPD2     H 9225   2.032   1.594  13.589  0.2315  1.0262  1.0082
  619MPD2    H1 9226   2.027   1.278  13.873 -0.9448 -0.9703 -2.0251
  619MPD2    H2 9227   2.380   1.502  13.801  0.2352 -2.9746 -0.3191
  619MPD2    H3 9228   2.280   1.321  13.903  0.1426 -1.9410 -1.5099
  619MPD2     N 9229   1.866   1.438  13.757  0.1248 -0.2611 -0.3260
  619MPD2    H5 9230   1.825   1.385  13.832  0.7126  1.0094  0.8989
  619MPD2    N1 9231   2.268   1.635  13.587 -0.2062 -0.4547  0.2851
  619MPD2    H7 9232   2.205   1.663  13.513 -0.3926 -2.3153 -0.2681
  620TMC3    C1 9233   2.410   1.739  13.450 -0.0979 -0.5882  0.9272
  620TMC3    C2 9234   2.320   1.710  13.352 -0.6458 -0.2540  0.0822
  620TMC3    C3 9235   2.283   1.819  13.278 -0.9688  0.1249 -0.2153
  620TMC3    C4 9236   2.471   1.859  13.468  0.3154 -0.5060 -0.0077
  620TMC3    C5 9237   2.454   1.952  13.363 -0.6375 -0.3969  0.6797
  620TMC3    C6 9238   2.363   1.928  13.268 -0.3078  1.0046  0.3014
  620TMC3     C 9239   2.401   1.665  13.570  0.0317  0.8935 -0.2065
  620TMC3     O 9240   2.489   1.664  13.653 -0.7103  0.1773  0.4586
  620TMC3     H 9241   2.260   1.621  13.339 -1.0638 -0.0096  0.3323
  620TMC3    H1 9242   2.539   1.873  13.551  0.3436  1.4801 -0.3600
  620TMC3    H2 9243   2.341   1.996  13.187 -0.2384  0.0291 -0.5329
  620TMC3    C7 9244   2.458   2.095  13.409 -0.1850  0.0094  0.6458
  620TMC3    C8 9245   2.154   1.855  13.311 -0.2081  0.1021 -0.2026
  620TMC3    O1 9246   2.393   2.170  13.341  0.0161 -0.1605 -0.4863
  620TMC3    O2 9247   2.106   1.763  13.377  0.0855 -0.2955  0.2811
  621MPD2     C 9248   2.665   1.793  10.193  0.2526  0.2844 -0.0199
  621MPD2    C1 9249   2.760   1.758  10.293 -0.4084 -0.1867 -0.1205
  621MPD2    C2 9250   2.872   1.835  10.308 -0.4907 -0.0245 -0.6235
  621MPD2    C3 9251   2.904   1.934  10.218 -0.2814  0.7853  0.0180
  621MPD2    C4 9252   2.815   1.960  10.123 -0.1870 -0.2217  0.5722
  621MPD2    C5 9253   2.694   1.900  10.117  0.1847 -0.1322  0.6439
  621MPD2     H 9254   2.938   1.807  10.389  0.6198  0.9721 -1.1754
  621MPD2    H1 9255   2.836   2.048  10.064  0.7514 -1.2721 -0.6394
  621MPD2    H2 9256   2.583   1.729  10.162 -0.6053  1.0209  0.7637
  621MPD2    H3 9257   2.630   1.941  10.040  1.0326 -0.2146 -0.1087
  621MPD2     N 9258   3.014   2.016  10.233  0.1629  0.0973 -0.4114
  621MPD2    H5 9259   3.007   2.091  10.166  0.4315  0.8648  0.4253
  621MPD2    N1 9260   2.740   1.650  10.382 -0.5888  0.0855 -0.0230
  621MPD2    H7 9261   2.800   1.641  10.463  0.5567  0.3546 -0.8334
  622TMC3    C1 9262   2.618   1.492  10.504 -0.3775  0.6747 -0.0934
  622TMC3    C2 9263   2.588   1.576  10.610  0.2085 -0.6258  0.3282
  622TMC3    C3 9264   2.515   1.527  10.711 -0.1537 -0.1230  0.1239
  622TMC3    C4 9265   2.562   1.365  10.490  0.1839  0.3576 -0.5634
  622TMC3    C5 9266   2.486   1.318  10.600 -0.1641  0.0547 -0.2054
  622TMC3    C6 9267   2.469   1.396  10.709  0.5364  0.1522 -0.0673
  622TMC3     C 9268   2.629   1.568  10.378 -0.2839  0.3991  0.5995
  622TMC3     O 9269   2.546   1.536  10.290  0.1800 -0.3499  0.2620
  622TMC3     H 9270   2.614   1.681  10.602  1.9074 -0.9805  1.1623
  622TMC3    H1 9271   2.573   1.310  10.397  2.2846 -1.4781  0.8024
  622TMC3    H2 9272   2.403   1.372  10.792 -1.5765 -1.3133 -2.1536
  622TMC3    C7 9273   2.439   1.182  10.604 -0.5039  0.1217  0.7540
  622TMC3    C8 9274   2.442   1.626  10.788  0.7539  0.5058  0.1020
  622TMC3    O1 9275   2.412   1.132  10.714  0.1278 -0.0822  0.0575
  622TMC3    O2 9276   2.498   1.732  10.809 -0.3917 -0.4116 -0.3527
  623MPD2     C 9277   1.777   2.278  16.336  0.0042  0.4423 -0.0236
  623MPD2    C1 9278   1.684   2.219  16.421 -0.3831  0.0472 -0.5757
  623MPD2    C2 9279   1.722   2.193  16.554  0.7140  0.3226 -0.4381
  623MPD2    C3 9280   1.853   2.216  16.602  0.0286  0.3686 -0.1410
  623MPD2    C4 9281   1.949   2.258  16.510  0.6063 -0.2349 -0.5399
  623MPD2    C5 9282   1.911   2.295  16.381 -0.4335 -0.1313  0.3376
  623MPD2     H 9283   1.648   2.183  16.632  1.5544 -2.5292 -0.0017
  623MPD2    H1 9284   2.047   2.293  16.541 -0.5457 -0.7819  3.6063
  623MPD2    H2 9285   1.754   2.311  16.235  1.1588  0.0327 -0.4226
  623MPD2    H3 9286   1.988   2.331  16.314 -0.2897  2.2703  1.7662
  623MPD2     N 9287   1.868   2.193  16.738  0.0731  0.2577 -0.2177
  623MPD2    H5 9288   1.787   2.163  16.792  1.0477 -2.1258 -0.0483
  623MPD2    N1 9289   1.543   2.196  16.393 -0.7718 -0.7614 -0.3024
  623MPD2    H7 9290   1.488   2.157  16.468 -0.6740  1.9385  1.1915
  624TMC3    C1 9291   2.072   2.056  17.124 -0.5985  0.8328  0.4282
  624TMC3    C2 9292   1.975   2.112  17.199  0.5106 -0.4337  0.1449
  624TMC3    C3 9293   1.885   2.200  17.134 -0.0716  0.1459 -0.2918
  624TMC3    C4 9294   2.076   2.077  16.992 -0.2265 -0.3195  0.5051
  624TMC3    C5 9295   1.987   2.164  16.937  0.1487 -0.2803  0.1670
  624TMC3    C6 9296   1.879   2.224  17.004  0.7563 -0.1803 -0.0742
  624TMC3     C 9297   2.102   1.927  17.153  0.1750  0.3610 -0.9768
  624TMC3     O 9298   2.010   1.869  17.207  0.0399  0.0621 -0.1199
  624TMC3     H 9299   1.979   2.097  17.307  0.7543  2.4283  0.5382
  624TMC3    H1 9300   2.141   2.028  16.919  0.2133  3.3321 -1.5373
  624TMC3    H2 9301   1.805   2.292  16.964  0.8924 -0.6769 -1.1821
  624TMC3    C7 9302   1.992   2.181  16.796  0.3207  0.1696 -0.1915
  624TMC3    C8 9303   1.763   2.220  17.216  0.2703  0.2277 -0.1410
  624TMC3    O1 9304   2.107   2.180  16.755 -0.2544  0.9153 -0.7759
  624TMC3    O2 9305   1.780   2.226  17.337  0.2833  0.6761  0.0279
  625MPD2     C 9306   1.861   2.633   0.870  0.8307  0.3107  0.1955
  625MPD2    C1 9307   1.909   2.768   0.857  0.8048 -0.2629 -0.5560
  625MPD2    C2 9308   2.027   2.787   0.929  0.2458 -0.6445  0.5736
  625MPD2    C3 9309   2.096   2.688   1.000  0.5411  0.7206  0.3485
  625MPD2    C4 9310   2.057   2.560   0.993 -0.5003 -0.1219 -0.5668
  625MPD2    C5 9311   1.931   2.532   0.937  0.3302  0.1117  0.2790
  625MPD2     H 9312   2.065   2.888   0.936  0.3876 -0.4949 -2.0705
  625MPD2    H1 9313   2.109   2.482   1.048 -0.7759  0.0274 -0.0903
  625MPD2    H2 9314   1.767   2.612   0.820  0.4358 -0.5246  1.2688
  625MPD2    H3 9315   1.887   2.434   0.949 -1.0596  0.5154 -1.5820
  625MPD2     N 9316   2.218   2.731   1.050  0.0753 -0.2420  0.1355
  625MPD2    H5 9317   2.243   2.827   1.031 -3.3239  0.5824 -0.0460
  625MPD2    N1 9318   1.849   2.875   0.789 -0.3800 -0.8577  0.7626
  625MPD2    H7 9319   1.888   2.968   0.806  2.6039 -1.7123 -1.4662
  626TMC3    C1 9320   1.695   3.003   0.675 -0.0455  0.2273  0.5765
  626TMC3    C2 9321   1.634   3.018   0.548  0.0628  1.0025  0.2469
  626TMC3    C3 9322   1.658   3.141   0.487 -0.5098 -0.1855  0.4419
  626TMC3    C4 9323   1.771   3.101   0.736 -0.6308  0.2529 -0.4234
  626TMC3    C5 9324   1.776   3.226   0.679  0.0591  0.3776  0.5979
  626TMC3    C6 9325   1.715   3.248   0.557  0.4693  0.6170  0.5560
  626TMC3     C 9326   1.732   2.866   0.714  0.4670  0.4948  0.3730
  626TMC3     O 9327   1.670   2.772   0.663  0.2294  0.0456  0.0529
  626TMC3     H 9328   1.591   2.937   0.492  3.1709  0.1923 -0.9794
  626TMC3    H1 9329   1.808   3.092   0.838 -0.1205  0.9675 -0.5496
  626TMC3    H2 9330   1.722   3.345   0.509  0.5815  0.2812 -0.0946
  626TMC3    C7 9331   1.860   3.330   0.743 -0.6091  0.2492 -0.2381
  626TMC3    C8 9332   1.579   3.175   0.363  0.2438 -0.6762  0.5597
  626TMC3    O1 9333   1.953   3.301   0.819 -0.0326 -0.1171 -0.3503
  626TMC3    O2 9334   1.608   3.282   0.313 -0.2596  0.0722 -0.4331
  627MPD2     C 9335   4.580   3.852  14.929  0.0163  0.4044  0.1975
  627MPD2    C1 9336   4.695   3.781  14.947 -0.3997 -0.2804 -1.0640
  627MPD2    C2 9337   4.685   3.664  15.024  0.8510  0.3151 -1.0421
  627MPD2    C3 9338   4.566   3.613  15.064 -0.0589 -0.2551  0.6814
  627MPD2    C4 9339   4.450   3.689  15.043 -0.9898 -0.1046 -0.0724
  627MPD2    C5 9340   4.459   3.803  14.973  0.3341  0.0048  0.3930
  627MPD2     H 9341   0.031   3.594  15.027  0.8776  0.3963  0.1671
  627MPD2    H1 9342   4.348   3.668  15.071 -1.3760  1.6731 -0.1062
  627MPD2    H2 9343   4.583   3.952  14.887 -0.3810 -0.5012 -1.9729
  627MPD2    H3 9344   4.373   3.868  14.958 -0.3281 -0.6728  1.2325
  627MPD2     N 9345   4.566   3.479  15.117  0.5069  0.4049 -0.2213
  627MPD2    H5 9346   4.658   3.438  15.105  0.0696 -0.4118 -0.8011
  627MPD2    N1 9347   0.084   3.814  14.904  0.1003 -0.1961 -0.2576
  627MPD2    H7 9348   0.160   3.751  14.929  0.1781 -0.1705 -0.4261
  628TMC3    C1 9349   0.252   3.882  14.769  0.0936  0.0445 -0.3103
  628TMC3    C2 9350   0.315   3.760  14.788  0.4954 -0.0665 -0.3763
  628TMC3    C3 9351   0.451   3.749  14.797  0.2325  0.4683  0.2492
  628TMC3    C4 9352   0.328   3.987  14.735  0.0664 -0.4991 -0.6272
  628TMC3    C5 9353   0.468   3.977  14.740 -0.0828  0.3546  0.4900
  628TMC3    C6 9354   0.532   3.862  14.786  0.4156 -0.0967  0.1581
  628TMC3     C 9355   0.117   3.908  14.812 -0.0088  0.0310 -0.3768
  628TMC3     O 9356   0.058   4.007  14.764 -0.5305  0.2363  0.3064
  628TMC3     H 9357   0.249   3.675  14.803 -1.2958  1.6754  1.8013
  628TMC3    H1 9358   0.275   4.075  14.700  0.7077  0.0462 -0.2212
  628TMC3    H2 9359   0.640   3.857  14.785  0.3694 -0.9652 -0.3070
  628TMC3    C7 9360   0.552   4.093  14.718 -0.3914 -0.6716 -0.9761
  628TMC3    C8 9361   0.504   3.624  14.858 -0.0927  0.4612 -0.4030
  628TMC3    O1 9362   0.668   4.091  14.767  0.2085 -0.0069  0.1544
  628TMC3    O2 9363   0.415   3.545  14.879 -0.3028 -0.2475  0.3279
  629MPD2     C 9364   3.198   2.215  16.862  0.2251 -0.1305 -0.0480
  629MPD2    C1 9365   3.244   2.260  16.745 -0.3801 -0.1580 -0.3163
  629MPD2    C2 9366   3.154   2.311  16.649  0.1341  0.8632  0.5966
  629MPD2    C3 9367   3.019   2.297  16.664 -0.0036  0.0821 -0.1857
  629MPD2    C4 9368   2.971   2.248  16.784 -0.0171  0.9831  0.6019
  629MPD2    C5 9369   3.062   2.222  16.884  0.0977  0.3311  0.5947
  629MPD2     H 9370   3.198   2.333  16.553 -1.4886  0.2103 -0.2918
  629MPD2    H1 9371   2.866   2.257  16.805 -0.6691 -0.9504 -1.8161
  629MPD2    H2 9372   3.259   2.164  16.935 -0.2079  1.2003  1.2263
  629MPD2    H3 9373   3.029   2.207  16.986  0.9232  0.5826  0.8986
  629MPD2     N 9374   2.930   2.327  16.561 -0.3191 -0.0223 -0.1663
  629MPD2    H5 9375   2.838   2.285  16.567  0.4519 -1.6833 -0.1027
  629MPD2    N1 9376   3.387   2.254  16.737  0.3276 -0.2197  0.0768
  629MPD2    H7 9377   3.421   2.186  16.804  1.0482  1.0544  0.9949
  630TMC3    C1 9378   3.597   2.285  16.632  0.3071  0.0465 -0.5076
  630TMC3    C2 9379   3.664   2.334  16.515  0.1428  0.5599  0.4475
  630TMC3    C3 9380   3.781   2.274  16.484  0.1137 -0.4813  0.1861
  630TMC3    C4 9381   3.651   2.178  16.693  0.4687  0.2445 -0.1207
  630TMC3    C5 9382   3.772   2.132  16.664  0.1015 -1.1854  0.3872
  630TMC3    C6 9383   3.841   2.177  16.554 -0.0790 -0.4442 -0.4257
  630TMC3     C 9384   3.464   2.326  16.650 -0.6602  0.5542  0.0985
  630TMC3     O 9385   3.420   2.419  16.581 -0.2464 -0.1304 -0.2097
  630TMC3     H 9386   3.636   2.427  16.467 -2.7676 -1.0532 -0.9929
  630TMC3    H1 9387   3.608   2.151  16.789  1.5152  0.5536  0.4287
  630TMC3    H2 9388   3.925   2.126  16.510  0.7612 -0.7625  1.5554
  630TMC3    C7 9389   3.863   2.083  16.768  0.2919  0.1936 -0.2888
  630TMC3    C8 9390   3.890   2.369  16.464  0.6352  0.3792  0.2675
  630TMC3    O1 9391   3.814   2.060  16.876  0.5723  0.0154  0.2375
  630TMC3    O2 9392   3.988   2.339  16.531 -0.5342 -0.0351  0.0247
  631MPD2     C 9393   1.435   2.335  15.827 -0.8461 -0.1272 -0.2215
  631MPD2    C1 9394   1.544   2.398  15.772 -0.1575 -0.6631 -0.0980
  631MPD2    C2 9395   1.649   2.317  15.745  0.7562  0.5309  0.3985
  631MPD2    C3 9396   1.654   2.183  15.771 -0.6851  0.4668  1.0007
  631MPD2    C4 9397   1.546   2.124  15.824 -0.1535 -0.6424  0.2586
  631MPD2    C5 9398   1.438   2.200  15.862  0.1269 -0.0865 -0.2951
  631MPD2     H 9399   1.745   2.355  15.711  0.4231 -0.1780 -1.3439
  631MPD2    H1 9400   1.538   2.017  15.838  3.1992 -0.0333  6.6888
  631MPD2    H2 9401   1.350   2.400  15.845 -0.7274 -0.4377  1.4733
  631MPD2    H3 9402   1.352   2.142  15.892  0.2410 -0.0372  0.1271
  631MPD2     N 9403   1.760   2.107  15.721  0.2914  0.4770  0.0268
  631MPD2    H5 9404   1.820   2.153  15.653 -0.2056 -0.5678 -1.1065
  631MPD2    N1 9405   1.535   2.533  15.743  0.1211  0.3477 -0.1105
  631MPD2    H7 9406   1.449   2.580  15.771  1.8582  2.7646  1.1546
  632TMC3    C1 9407   1.586   2.742  15.674 -0.7153  0.9481  0.1072
  632TMC3    C2 9408   1.454   2.778  15.653 -0.1653  0.5564  0.0278
  632TMC3    C3 9409   1.425   2.895  15.593 -0.1864  0.1388 -0.6025
  632TMC3    C4 9410   1.688   2.827  15.639 -0.3071 -0.6842 -0.0540
  632TMC3    C5 9411   1.653   2.946  15.576 -0.8592  0.3786  0.4202
  632TMC3    C6 9412   1.523   2.980  15.556  0.1524  0.2106  0.5633
  632TMC3     C 9413   1.624   2.605  15.672  0.4033  0.3575  0.5611
  632TMC3     O 9414   1.733   2.572  15.627 -0.0587  0.5828  0.2669
  632TMC3     H 9415   1.370   2.711  15.667  1.4519 -1.6422 -0.6146
  632TMC3    H1 9416   1.792   2.803  15.661 -0.5390  0.9706  2.8627
  632TMC3    H2 9417   1.497   3.050  15.477  0.1398 -0.4876 -0.0618
  632TMC3    C7 9418   1.744   2.982  15.470 -0.5125  0.0720 -0.2598
  632TMC3    C8 9419   1.294   2.950  15.630 -0.2370  0.7353  0.9015
  632TMC3    O1 9420   1.700   3.023  15.365  0.2910 -0.2523 -0.2620
  632TMC3    O2 9421   1.211   2.859  15.651 -0.0068 -0.1860 -0.0431
  633MPD2     C 9422   1.449   0.251  17.533  1.1780 -0.5505 -0.3616
  633MPD2    C1 9423   1.497   0.170  17.428 -0.9868 -0.3615 -0.4075
  633MPD2    C2 9424   1.524   0.030  17.457 -0.0736 -0.7238  0.4908
  633MPD2    C3 9425   1.515   4.726  17.586  0.2429  0.1589 -0.1235
  633MPD2    C4 9426   1.476   0.072  17.689  0.8580  0.0795 -0.0327
  633MPD2    C5 9427   1.440   0.204  17.662  0.2383 -0.0732  0.3265
  633MPD2     H 9428   1.560   4.700  17.380  0.4667 -0.5207  0.5695
  633MPD2    H1 9429   1.481   0.038   0.046 -0.3278 -0.8935 -0.2969
  633MPD2    H2 9430   1.439   0.358  17.517  1.2728 -0.2511  1.4872
  633MPD2    H3 9431   1.411   0.270  17.743 -1.9666 -2.5241  1.5368
  633MPD2     N 9432   1.529   4.590  17.626 -0.0601  0.1123  0.2506
  633MPD2    H5 9433   1.477   4.576  17.712  0.9960 -1.5268  0.6240
  633MPD2    N1 9434   1.525   0.223  17.299 -0.5848  0.3823  0.8770
  633MPD2    H7 9435   1.565   0.161  17.229  2.5499  3.2494  0.0804
  634TMC3    C1 9436   1.517   0.360  17.118  0.1217 -0.9817 -0.0760
  634TMC3    C2 9437   1.578   0.264  17.046  0.3786  0.1811  0.7296
  634TMC3    C3 9438   1.629   0.291  16.918 -0.2872  0.7152 -0.2127
  634TMC3    C4 9439   1.482   0.484  17.065 -0.0737 -0.4429  0.6682
  634TMC3    C5 9440   1.518   0.505  16.934 -0.6701  0.0045 -0.2217
  634TMC3    C6 9441   1.597   0.413  16.862  0.9057 -0.0941  1.2111
  634TMC3     C 9442   1.486   0.346  17.257  0.0619 -0.1745 -0.3101
  634TMC3     O 9443   1.432   0.439  17.315 -0.3010 -0.0558 -0.0597
  634TMC3     H 9444   1.592   0.161  17.080  0.4024  0.4305  1.4771
  634TMC3    H1 9445   1.440   0.560  17.131 -2.2722 -1.6329  0.6502
  634TMC3    H2 9446   1.632   0.450  16.766 -1.0238 -0.3873  0.3976
  634TMC3    C7 9447   1.490   0.630  16.872  0.3040  0.2536 -0.5483
  634TMC3    C8 9448   1.712   0.194  16.849 -1.0848 -0.2683  0.0855
  634TMC3    O1 9449   1.534   0.650  16.758  0.3515 -0.4073 -0.6073
  634TMC3    O2 9450   1.752   0.103  16.916 -0.5759 -0.2192 -0.2092
  635TMC3    C1 9451   1.670   0.363   0.579 -0.9251 -0.2502  0.2522
  635TMC3    C2 9452   1.615   0.335   0.456  0.5084 -0.1039  0.4969
  635TMC3    C3 9453   1.559   0.211   0.431  0.1350 -0.0496  0.3605
  635TMC3    C4 9454   1.658   0.274   0.680  0.0796 -0.0735  0.4186
  635TMC3    C5 9455   1.596   0.153   0.661 -0.2384  0.1462  0.3441
  635TMC3    C6 9456   1.535   0.125   0.537  0.3283 -0.3690  0.6141
  635TMC3     C 9457   1.744   0.488   0.604 -0.8221  0.0057  0.2355
  635TMC3     O 9458   1.735   0.536   0.714  0.1846 -0.0574 -0.3038
  635TMC3     H 9459   1.626   0.403   0.372  1.5435  0.0881  0.7878
  635TMC3    H1 9460   1.708   0.306   0.770 -1.5416 -1.3515  1.7693
  635TMC3    H2 9461   1.495   0.025   0.522 -1.4187  0.3996  0.1234
  635TMC3    C7 9462   1.636   0.046   0.745  0.6732 -0.3814 -0.0402
  635TMC3    C8 9463   1.627   0.140   0.325  0.1364  0.2909  0.2491
  635TMC3    O1 9464   1.618   4.674   0.698 -0.5312 -0.5487  0.6783
  635TMC3    O2 9465   1.733   0.191   0.289 -0.2517 -0.0362 -0.7219
  636MPD2     C 9466   3.056   0.260  15.760 -0.5088 -0.2052  0.3711
  636MPD2    C1 9467   3.053   0.218  15.889  0.4619 -0.1288  0.6702
  636MPD2    C2 9468   3.087   0.096  15.925  0.3305  0.1660 -0.9878
  636MPD2    C3 9469   3.132   0.008  15.835 -0.0984  0.1963  0.5666
  636MPD2    C4 9470   3.133   0.045  15.705  0.1375  0.3780  0.1264
  636MPD2    C5 9471   3.099   0.170  15.661  0.2749 -0.2830 -0.2559
  636MPD2     H 9472   3.071   0.058  16.026  2.0724  1.7280 -0.1188
  636MPD2    H1 9473   3.166   4.706  15.634  1.6806 -0.1201  1.3802
  636MPD2    H2 9474   3.038   0.359  15.720  1.7827  0.4420  0.9099
  636MPD2    H3 9475   3.103   0.194  15.555 -1.7938 -1.7124 -0.6497
  636MPD2     N 9476   3.186   4.621  15.881  0.2888  0.3220 -0.1808
  636MPD2    H5 9477   3.152   4.588  15.971 -0.0794  2.2790  0.4008
  636MPD2    N1 9478   3.004   0.297  15.989 -0.1496 -0.3637  0.0639
  636MPD2    H7 9479   3.009   0.265  16.085  3.1448 -1.1960 -0.3681
  637TMC3    C1 9480   3.337   4.450  15.902  1.3144  0.7078  0.4245
  637TMC3    C2 9481   3.246   4.408  15.995  0.6167  0.2290  0.5307
  637TMC3    C3 9482   3.288   4.390  16.121  0.3251  0.7023 -0.0915
  637TMC3    C4 9483   3.471   4.470  15.927  0.3049  0.1012  0.1104
  637TMC3    C5 9484   3.507   4.457  16.057  0.6962 -0.1250 -0.0384
  637TMC3    C6 9485   3.422   4.402  16.151  0.2297  0.8914  0.9391
  637TMC3     C 9486   3.286   4.556  15.816  0.1936  0.0322  0.1059
  637TMC3     O 9487   3.357   4.600  15.727  0.3487 -0.1029  0.2461
  637TMC3     H 9488   3.143   4.400  15.963  0.7215 -1.5899  0.6125
  637TMC3    H1 9489   3.532   4.501  15.843  0.6037 -0.3122  0.1724
  637TMC3    H2 9490   3.454   4.385  16.253  1.0571  0.4882  0.6150
  637TMC3    C7 9491   3.564   4.577  16.106  0.7970  0.2612 -0.0661
  637TMC3    C8 9492   3.198   4.450  16.213 -0.8695  1.0192 -0.2952
  637TMC3    O1 9493   3.515   4.606  16.215  0.3735  0.3339 -0.0127
  637TMC3    O2 9494   3.110   4.517  16.170  0.0417  0.4866 -0.1310
  638MPD2     C 9495   2.604   4.434  15.005 -0.7108  0.2695 -0.3532
  638MPD2    C1 9496   2.591   4.324  14.927 -0.2303  0.0516 -0.3160
  638MPD2    C2 9497   2.579   4.200  14.988  0.8536 -0.1154 -0.0096
  638MPD2    C3 9498   2.572   4.189  15.125  0.4516  0.3347 -0.1614
  638MPD2    C4 9499   2.580   4.299  15.204  0.1365 -0.2072 -0.5293
  638MPD2    C5 9500   2.607   4.425  15.146  0.8075 -0.2216  0.4780
  638MPD2     H 9501   2.558   4.107  14.936 -1.5538  0.8352 -0.7174
  638MPD2    H1 9502   2.574   4.292  15.312  0.7708  1.8336 -0.3777
  638MPD2    H2 9503   2.624   4.526  14.951 -1.1114  0.0387 -0.8981
  638MPD2    H3 9504   2.627   4.515  15.203 -0.1883 -1.3761  2.6199
  638MPD2     N 9505   2.559   4.063  15.180  0.2789 -0.1344  0.2187
  638MPD2    H5 9506   2.547   3.980  15.123 -2.3373  0.8551 -0.6698
  638MPD2    N1 9507   2.624   4.345  14.791  0.2748  0.0113 -0.1673
  638MPD2    H7 9508   2.643   4.439  14.759  0.1041 -0.1403 -0.7020
  639TMC3    C1 9509   2.548   3.902  15.350 -0.3695 -0.1389  0.2203
  639TMC3    C2 9510   2.417   3.856  15.327 -0.4406 -0.2285 -0.0827
  639TMC3    C3 9511   2.376   3.741  15.391 -0.8147 -0.7694  0.2283
  639TMC3    C4 9512   2.638   3.832  15.424  0.1898  0.1675 -0.2023
  639TMC3    C5 9513   2.589   3.713  15.481 -0.0945  0.3374 -0.1306
  639TMC3    C6 9514   2.456   3.679  15.483 -0.1935 -0.5644 -0.3114
  639TMC3     C 9515   2.580   4.039  15.317 -0.0773  0.4193 -0.3022
  639TMC3     O 9516   2.638   4.102  15.404 -0.4809  0.6269  0.4411
  639TMC3     H 9517   2.347   3.910  15.265 -1.1611  0.3115  1.1967
  639TMC3    H1 9518   2.737   3.873  15.438  0.5680 -0.7815 -0.0549
  639TMC3    H2 9519   2.434   3.582  15.526  0.4105 -1.3673 -1.8403
  639TMC3    C7 9520   2.688   3.614  15.515 -0.4704  0.2999 -0.4991
  639TMC3    C8 9521   2.336   3.643  15.289 -0.2775  0.2266 -0.4600
  639TMC3    O1 9522   2.669   3.555  15.620  0.3502 -0.2548  0.3591
  639TMC3    O2 9523   2.350   3.680  15.175  0.3341  0.5284  0.5124
  640MPD2     C 9524   3.485   3.276  10.519  0.0382 -0.7855  0.1691
  640MPD2    C1 9525   3.504   3.399  10.468 -0.3319 -0.2772 -0.0542
  640MPD2    C2 9526   3.422   3.503  10.508  0.1990 -1.1616 -0.1393
  640MPD2    C3 9527   3.321   3.479  10.598 -0.1132 -0.2720  0.3879
  640MPD2    C4 9528   3.322   3.361  10.661  0.0103 -0.0416 -0.4516
  640MPD2    C5 9529   3.398   3.259  10.627  0.4329 -0.3939  0.4327
  640MPD2     H 9530   3.429   3.605  10.472 -0.0727 -1.1388 -0.1237
  640MPD2    H1 9531   3.256   3.346  10.746 -2.0471 -0.1159 -2.0519
  640MPD2    H2 9532   3.533   3.186  10.483  1.0342  0.5716 -1.8783
  640MPD2    H3 9533   3.383   3.156  10.659  2.3950 -1.1068 -0.9344
  640MPD2     N 9534   3.219   3.573  10.632 -0.0202 -0.5109  0.1043
  640MPD2    H5 9535   3.151   3.536  10.697  1.0026 -1.6342  0.5556
  640MPD2    N1 9536   3.608   3.419  10.362  0.4560 -0.2581  0.3903
  640MPD2    H7 9537   3.641   3.331  10.323  2.0643 -0.6487  2.6360
  641TMC3    C1 9538   3.763   3.528  10.217  0.2871  0.1431  0.1962
  641TMC3    C2 9539   3.823   3.407  10.186 -0.0493  0.0997  0.7391
  641TMC3    C3 9540   3.910   3.403  10.080 -0.9645 -0.9265  0.2581
  641TMC3    C4 9541   3.782   3.630  10.130  0.3236  0.8525  0.2643
  641TMC3    C5 9542   3.874   3.616  10.030 -0.0211 -0.4167 -0.5076
  641TMC3    C6 9543   3.941   3.506  10.000 -0.0653  0.0801  0.5041
  641TMC3     C 9544   3.660   3.541  10.321  0.4664  0.6943 -0.0762
  641TMC3     O 9545   3.632   3.653  10.347  0.2893  0.1760  0.2140
  641TMC3     H 9546   3.818   3.319  10.250 -0.1970 -0.8863 -0.6273
  641TMC3    H1 9547   3.747   3.731  10.151 -0.2868  1.0070 -1.4943
  641TMC3    H2 9548   4.011   3.501   9.917 -1.6856  1.6230 -0.9621
  641TMC3    C7 9549   3.916   3.736   9.958 -0.2305 -0.2241  0.0770
  641TMC3    C8 9550   3.959   3.274  10.046 -0.8002 -0.0508  0.2842
  641TMC3    O1 9551   4.032   3.749   9.929 -0.1985  0.0890 -0.8485
  641TMC3    O2 9552   3.890   3.184  10.095 -0.1123 -0.0781  0.1384
  642TMC3    C1 9553   4.055   4.056  12.982 -0.0497 -0.4685 -0.6825
  642TMC3    C2 9554   4.122   4.028  12.865  0.0597  0.2890  0.2469
  642TMC3    C3 9555   4.135   3.898  12.831 -0.5716 -0.4571 -0.0059
  642TMC3    C4 9556   4.000   3.958  13.065 -0.0374  0.6067 -0.2508
  642TMC3    C5 9557   4.008   3.831  13.015 -0.1436 -0.6201  0.2777
  642TMC3    C6 9558   4.075   3.798  12.900 -0.4767 -0.4473  0.4958
  642TMC3     C 9559   4.020   4.189  13.026  0.8861 -0.4986 -0.2767
  642TMC3     O 9560   4.103   4.272  12.997  0.3339 -0.7529  0.6605
  642TMC3     H 9561   4.167   4.103  12.800  1.7462 -2.6918 -2.0084
  642TMC3    H1 9562   3.954   3.978  13.161  0.2991  2.1929 -0.4105
  642TMC3    H2 9563   4.096   3.696  12.868 -1.2293 -0.4769  0.1074
  642TMC3    C7 9564   3.933   3.728  13.078  0.1463  0.3675 -0.1564
  642TMC3    C8 9565   4.271   3.870  12.785  1.0739 -0.3503 -0.0857
  642TMC3    O1 9566   3.894   3.748  13.194 -0.5798 -0.0020 -0.2361
  642TMC3    O2 9567   4.284   3.761  12.731 -0.0152 -0.0067 -1.0155
  643TMC3    C1 9568   3.665   2.859   0.211  0.1769  0.4319  0.2656
  643TMC3    C2 9569   3.588   2.957   0.167 -0.1459 -0.0079 -0.7510
  643TMC3    C3 9570   3.525   2.946   0.048 -0.4184 -0.0116 -0.6517
  643TMC3    C4 9571   3.686   2.739   0.145  0.0282 -0.2021  0.3375
  643TMC3    C5 9572   3.636   2.746   0.020 -0.3702  0.3956  0.8011
  643TMC3    C6 9573   3.554   2.846  17.714  0.7052  0.6646  0.2121
  643TMC3     C 9574   3.721   2.878   0.341 -0.6803 -0.6964  0.0002
  643TMC3     O 9575   3.669   2.954   0.423 -0.0251 -0.5285  0.3662
  643TMC3     H 9576   3.569   3.040   0.234  0.8868  1.1984 -1.9460
  643TMC3    H1 9577   3.750   2.664   0.189 -0.9656 -0.8454  0.6854
  643TMC3    H2 9578   3.501   2.833  17.621 -1.7467 -1.9664  1.9699
  643TMC3    C7 9579   3.695   2.652  17.679  0.4133  0.0494  0.2895
  643TMC3    C8 9580   3.488   3.076  17.740 -0.3452  0.2225  0.3640
  643TMC3    O1 9581   3.752   2.555  17.734  0.0241  0.2662 -0.6758
  643TMC3    O2 9582   3.545   3.171   0.050  0.1471 -0.3941  0.1636
  644MPD2     C 9583   3.677   4.486  10.166 -0.5838 -0.3914  0.5003
  644MPD2    C1 9584   3.664   4.348  10.178 -0.0240  0.4519 -0.0677
  644MPD2    C2 9585   3.544   4.283  10.161  0.2197 -0.0374 -0.3659
  644MPD2    C3 9586   3.431   4.354  10.109 -0.2320 -1.0186  0.2517
  644MPD2    C4 9587   3.443   4.492  10.089 -0.5590 -0.7776 -0.3220
  644MPD2    C5 9588   3.564   4.555  10.121 -0.3093  0.4408  0.5897
  644MPD2     H 9589   3.534   4.175  10.164  2.0433 -0.2113 -0.8144
  644MPD2    H1 9590   3.358   4.543  10.046  0.4798  1.1536 -0.0837
  644MPD2    H2 9591   3.771   4.532  10.195  0.2870 -1.3539 -0.7929
  644MPD2    H3 9592   3.578   4.662  10.114 -0.6093  0.5381  1.4992
  644MPD2     N 9593   3.310   4.285  10.089  0.4369 -0.2566  0.4550
  644MPD2    H5 9594   3.310   4.188  10.119  1.0030 -0.5305 -0.4203
  644MPD2    N1 9595   3.785   4.284  10.224  0.0263  0.6203 -0.2766
  644MPD2    H7 9596   3.871   4.337  10.224  0.3956 -0.0158  2.7149
  645TMC3    C1 9597   3.086   4.240  10.045 -0.5140  0.0442 -0.2578
  645TMC3    C2 9598   3.116   4.109  10.040  0.8009 -0.4238 -0.1143
  645TMC3    C3 9599   3.027   4.010  10.021  0.1498  0.2444 -0.4622
  645TMC3    C4 9600   2.956   4.280  10.044 -0.4823  0.3053  0.0751
  645TMC3    C5 9601   2.861   4.180  10.036  0.2120 -0.6668 -0.3437
  645TMC3    C6 9602   2.896   4.044  10.023 -0.5023  0.0190 -1.2240
  645TMC3     C 9603   3.193   4.334  10.057 -0.2735  0.5532 -0.2451
  645TMC3     O 9604   3.160   4.448  10.052 -0.1057  0.0164 -0.0008
  645TMC3     H 9605   3.218   4.075  10.027  0.7123 -0.2767 -1.1907
  645TMC3    H1 9606   2.925   4.384  10.044  1.2355  0.8282  1.9852
  645TMC3    H2 9607   2.822   3.966  10.033  2.3874 -3.0032 -3.5232
  645TMC3    C7 9608   2.733   4.212  10.099 -0.3659  0.3408  0.2391
  645TMC3    C8 9609   3.080   3.888   9.953 -0.1590 -0.0244 -0.0020
  645TMC3    O1 9610   2.720   4.328  10.125  0.0909  0.0206 -0.2342
  645TMC3    O2 9611   3.201   3.878   9.930 -0.3447  0.2850 -0.4756
  646MPD2     C 9612   3.057   3.054  14.820  0.0731 -0.4490 -0.4453
  646MPD2    C1 9613   2.955   3.024  14.912  1.0815  0.6181  0.4144
  646MPD2    C2 9614   2.832   3.079  14.882  0.3626 -0.1393 -0.3883
  646MPD2    C3 9615   2.806   3.151  14.768 -0.1092  0.3175  0.5178
  646MPD2    C4 9616   2.907   3.179  14.681  0.7137 -0.9734  0.3302
  646MPD2    C5 9617   3.032   3.132  14.710 -0.2170  1.0150  0.8742
  646MPD2     H 9618   2.751   3.052  14.949 -1.5301 -1.0654 -3.0395
  646MPD2    H1 9619   2.889   3.233  14.589 -1.2062 -1.3079  0.5224
  646MPD2    H2 9620   3.159   3.020  14.833 -0.0628 -0.7551 -0.1657
  646MPD2    H3 9621   3.116   3.147  14.643  2.0544  0.6322  3.6422
  646MPD2     N 9622   2.675   3.178  14.732 -0.0629 -0.9490 -0.7093
  646MPD2    H5 9623   2.612   3.133  14.797 -2.5322  0.6388 -1.9957
  646MPD2    N1 9624   2.991   2.951  15.026  0.3238 -0.2018  0.0408
  646MPD2    H7 9625   3.088   2.921  15.033  0.6022  1.0239  1.4837
  647TMC3    C1 9626   2.968   2.848  15.239 -0.0936  0.2955  0.3315
  647TMC3    C2 9627   2.881   2.827  15.340 -0.1413 -0.6075  0.3470
  647TMC3    C3 9628   2.907   2.733  15.432 -0.1702  0.0789 -0.2348
  647TMC3    C4 9629   3.091   2.791  15.235 -0.5215  0.1049 -0.4096
  647TMC3    C5 9630   3.124   2.707  15.332 -0.7635 -0.3453 -0.2814
  647TMC3    C6 9631   3.032   2.668  15.425 -0.3457 -0.1506 -0.1729
  647TMC3     C 9632   2.918   2.946  15.138  0.2417  0.2529 -0.3528
  647TMC3     O 9633   2.809   3.000  15.159 -0.0499 -0.4991 -0.4092
  647TMC3     H 9634   2.787   2.879  15.351  0.3445  0.8960 -2.7866
  647TMC3    H1 9635   3.165   2.816  15.159 -0.2362 -1.0148 -0.5032
  647TMC3    H2 9636   3.067   2.597  15.500  2.0176  0.3777 -0.7842
  647TMC3    C7 9637   3.259   2.656  15.350  0.1369  0.1553 -0.4226
  647TMC3    C8 9638   2.784   2.673  15.493 -0.1001 -0.5537  0.6805
  647TMC3    O1 9639   3.281   2.550  15.411 -0.1359 -0.2298 -0.7658
  647TMC3    O2 9640   2.672   2.728  15.486 -0.1034  0.0990 -0.2526
  648TMC3    C1 9641   2.084   0.393  16.411  0.7143  0.0012  0.3470
  648TMC3    C2 9642   2.224   0.370  16.404  0.1585 -0.2284  0.1955
  648TMC3    C3 9643   2.268   0.334  16.284 -0.3899  0.9885  0.2601
  648TMC3    C4 9644   1.999   0.382  16.304  0.3668 -1.0953  0.4002
  648TMC3    C5 9645   2.056   0.350  16.184  0.2200  0.4660 -0.1110
  648TMC3    C6 9646   2.191   0.316  16.176 -0.3489 -0.7494 -0.0662
  648TMC3     C 9647   2.031   0.393  16.547  0.3089  0.2208  0.3998
  648TMC3     O 9648   1.923   0.444  16.566 -0.6213 -0.1031  0.3329
  648TMC3     H 9649   2.287   0.388  16.490 -0.9351  0.1054  0.9241
  648TMC3    H1 9650   1.893   0.400  16.320  0.2809 -0.4278 -0.9686
  648TMC3    H2 9651   2.238   0.303  16.079 -0.9236  0.2572 -0.4852
  648TMC3    C7 9652   2.008   0.416  16.066 -0.6488  0.2962 -0.3379
  648TMC3    C8 9653   2.405   0.284  16.286 -0.5371 -0.4013 -0.2642
  648TMC3    O1 9654   2.054   0.382  15.958 -0.7616  0.2575  0.0547
  648TMC3    O2 9655   2.463   0.328  16.385  0.1521  0.4058 -0.1253
  649TMC3    C1 9656   0.994   1.998  12.481  0.3724 -0.1226 -0.2640
  649TMC3    C2 9657   1.092   1.942  12.397  0.6686 -0.3980 -0.2409
  649TMC3    C3 9658   1.188   1.874  12.459 -0.0737 -0.1127  0.4279
  649TMC3    C4 9659   0.997   1.975  12.614 -0.2244  0.5334  0.5304
  649TMC3    C5 9660   1.088   1.899  12.673  0.5068 -0.0775 -0.1936
  649TMC3    C6 9661   1.181   1.838  12.597 -0.6021  0.2721  0.7232
  649TMC3     C 9662   0.858   1.980  12.435 -0.7096  0.2918 -0.5019
  649TMC3     O 9663   0.775   2.040  12.503  0.3253 -0.4940  0.2010
  649TMC3     H 9664   1.107   1.997  12.305  1.2106 -0.9964 -0.5053
  649TMC3    H1 9665   0.915   2.021  12.668  0.4839  1.0604  1.1645
  649TMC3    H2 9666   1.256   1.779  12.650 -0.6511 -2.1791 -1.8958
  649TMC3    C7 9667   1.020   1.810  12.764  0.6434  1.0209  0.6004
  649TMC3    C8 9668   1.317   1.890  12.404  0.3201  0.6074 -0.0508
  649TMC3    O1 9669   0.958   1.871  12.850 -0.1241  0.6867 -0.3599
  649TMC3    O2 9670   1.332   1.913  12.284  0.2223  0.1172 -0.3170
  650TMC3    C1 9671   3.162   3.279  13.069 -0.1731 -0.3625 -0.1214
  650TMC3    C2 9672   3.076   3.388  13.092 -0.9528  0.3930  0.5200
  650TMC3    C3 9673   3.028   3.449  12.977 -0.4656  0.4015 -0.4367
  650TMC3    C4 9674   3.202   3.232  12.950 -0.2955 -0.1617 -0.0976
  650TMC3    C5 9675   3.157   3.303  12.844 -0.0645 -0.6367  0.2660
  650TMC3    C6 9676   3.079   3.413  12.854  0.4552 -0.0097  0.6244
  650TMC3     C 9677   3.215   3.226  13.187  0.2061  0.1380 -0.4725
  650TMC3     O 9678   3.169   3.256  13.299  0.2802  0.3151 -0.1936
  650TMC3     H 9679   3.059   3.431  13.190 -1.4624 -0.5395  0.8441
  650TMC3    H1 9680   3.270   3.151  12.923  0.4707 -0.0540  1.4945
  650TMC3    H2 9681   3.034   3.463  12.768  0.5706 -2.2544 -0.7570
  650TMC3    C7 9682   3.263   3.323  12.749  0.6521 -0.5757  0.6582
  650TMC3    C8 9683   3.024   3.592  12.985  1.2343 -0.6951 -0.2749
  650TMC3    O1 9684   3.334   3.234  12.707 -0.4796  0.2113 -0.7420
  650TMC3    O2 9685   3.100   3.648  12.905  0.4777 -0.4305  0.3760
  651MPD2     C 9686   2.500   0.640  10.672  0.6736  0.6135 -0.5974
  651MPD2    C1 9687   2.501   0.735  10.767 -0.2885 -0.0272  0.2458
  651MPD2    C2 9688   2.625   0.789  10.805  0.1570  0.0213  0.4044
  651MPD2    C3 9689   2.742   0.749  10.737 -1.3266 -0.2456 -0.3396
  651MPD2    C4 9690   2.729   0.678  10.626 -0.2001  0.7725  0.1507
  651MPD2    C5 9691   2.613   0.616  10.599  0.9720  0.1026  0.7218
  651MPD2     H 9692   2.624   0.861  10.886  2.1581  0.4092  0.0786
  651MPD2    H1 9693   2.814   0.666  10.561 -0.5863 -2.7937  0.3068
  651MPD2    H2 9694   2.406   0.589  10.650  1.2605 -0.2217 -1.1689
  651MPD2    H3 9695   2.607   0.536  10.527  1.5169 -0.1959  1.0162
  651MPD2     N 9696   2.873   0.784  10.779  0.2743 -0.1821  0.0322
  651MPD2    H5 9697   2.948   0.764  10.713 -0.0700  0.8131 -0.6630
  651MPD2    N1 9698   2.384   0.784  10.837  0.0908  0.0292  0.3194
  651MPD2    H7 9699   2.395   0.870  10.889  0.7470 -1.1814  2.1948
  652TMC3    C1 9700   3.257   0.941  10.828 -0.1405  0.9425  0.7041
  652TMC3    C2 9701   3.144   0.862  10.825  0.3642 -0.3267 -0.0166
  652TMC3    C3 9702   3.040   0.903  10.912  0.6124 -0.0393  0.5831
  652TMC3    C4 9703   3.266   1.051  10.912 -0.0742  0.1461  0.2261
  652TMC3    C5 9704   3.163   1.079  10.999  0.2322 -0.4187 -0.5766
  652TMC3    C6 9705   3.047   1.007  11.000  0.2234  0.3330 -0.1119
  652TMC3     C 9706   3.386   0.886  10.782 -0.2666 -0.5169  0.2263
  652TMC3     O 9707   3.397   0.764  10.786 -0.3871 -0.2950  0.1388
  652TMC3     H 9708   3.136   0.767  10.773 -0.3751  0.0295 -0.5675
  652TMC3    H1 9709   3.360   1.098  10.941 -0.0114  0.7983 -1.0347
  652TMC3    H2 9710   2.959   1.030  11.058  0.3922  1.2291 -0.2008
  652TMC3    C7 9711   3.190   1.160  11.115 -0.5303 -0.7354 -0.0143
  652TMC3    C8 9712   2.909   0.828  10.907 -0.0106 -0.2674 -0.4408
  652TMC3    O1 9713   3.123   1.126  11.211 -0.2788 -0.3211 -0.0017
  652TMC3    O2 9714   2.831   0.852  10.996  0.5058 -0.0602 -0.3287
  653MPD2     C 9715   1.222   4.605   0.135 -0.7841 -0.5915  0.5700
  653MPD2    C1 9716   1.172   4.724   0.080 -0.2328  0.5946  0.5568
  653MPD2    C2 9717   1.133   4.719  17.692  0.2620 -0.5546  0.0855
  653MPD2    C3 9718   1.140   4.600  17.617 -0.3268 -0.1003 -0.4334
  653MPD2    C4 9719   1.206   4.497  17.675  0.2029  0.6573  0.3864
  653MPD2    C5 9720   1.245   4.496   0.061 -0.3446 -0.7369  0.2503
  653MPD2     H 9721   1.099   0.075  17.647 -0.4562 -0.3186  1.1148
  653MPD2    H1 9722   1.218   4.405  17.619  1.1121  1.6021 -0.9387
  653MPD2    H2 9723   1.242   4.584   0.239 -0.9959 -0.6962  0.5911
  653MPD2    H3 9724   1.283   4.403   0.101  2.2940  0.2969  0.1030
  653MPD2     N 9725   1.085   4.595  17.485 -0.1946  0.0815 -0.4285
  653MPD2    H5 9726   1.064   4.688  17.448 -1.1711 -0.8324 -2.1531
  653MPD2    N1 9727   1.165   0.101   0.172 -0.1172 -0.0949  0.9507
  653MPD2    H7 9728   1.105   0.174   0.135 -0.7408  1.3997  4.9693
  654TMC3    C1 9729   1.020   4.489  17.275  0.1565  0.2728 -0.2649
  654TMC3    C2 9730   0.979   4.599  17.221  0.4656 -0.0613 -0.1522
  654TMC3    C3 9731   0.980   4.594  17.085  0.0474 -0.6499 -0.5220
  654TMC3    C4 9732   1.044   4.372  17.209  0.1496  0.4619 -0.1448
  654TMC3    C5 9733   1.044   4.382  17.070  0.4140  0.7513 -0.1676
  654TMC3    C6 9734   1.014   4.495  17.002  0.1376 -0.4266 -0.2167
  654TMC3     C 9735   1.051   4.478  17.416 -0.1925 -0.2134 -0.4675
  654TMC3     O 9736   1.047   4.363  17.464 -0.3394  0.0400 -0.6012
  654TMC3     H 9737   0.959   4.690  17.276 -2.7235 -0.6586 -0.3002
  654TMC3    H1 9738   1.091   4.288  17.258  1.0103  1.1648  0.2312
  654TMC3    H2 9739   0.983   4.499  16.898 -1.0104 -0.9088  0.1039
  654TMC3    C7 9740   1.057   4.251  16.999  0.1078 -1.3033 -0.8459
  654TMC3    C8 9741   0.892   4.699  17.035 -0.1170  0.0155  0.2496
  654TMC3    O1 9742   1.069   4.269  16.881 -0.2443 -0.6366 -0.1863
  654TMC3    O2 9743   0.803   0.002  17.108 -0.2141  0.5787  0.4186
  655MPD2     C 9744   2.607   0.382  15.827 -0.7199  0.8931  0.3176
  655MPD2    C1 9745   2.523   0.459  15.749  0.2336 -0.2750  0.2938
  655MPD2    C2 9746   2.533   0.450  15.615  0.2595  0.2153 -0.6488
  655MPD2    C3 9747   2.633   0.376  15.549  0.3613  0.9089  0.5274
  655MPD2    C4 9748   2.730   0.315  15.631 -0.0101 -0.0151  0.2588
  655MPD2    C5 9749   2.703   0.306  15.770  0.5736  0.3847  0.1525
  655MPD2     H 9750   2.463   0.509  15.557 -0.9974  2.0582  2.7926
  655MPD2    H1 9751   2.812   0.259  15.589  0.3527  0.4206  0.3821
  655MPD2    H2 9752   2.605   0.383  15.936 -1.1904  0.0077  0.3217
  655MPD2    H3 9753   2.774   0.252  15.832  0.0337  0.2967  0.6993
  655MPD2     N 9754   2.640   0.359  15.410 -0.5071 -0.0470  0.2185
  655MPD2    H5 9755   2.726   0.317  15.377  0.3392  0.2745  2.0442
  655MPD2    N1 9756   2.431   0.551  15.804  0.4010  0.7357  0.8303
  655MPD2    H7 9757   2.382   0.615  15.743 -0.0251  0.3715  0.7895
  656TMC3    C1 9758   2.324   0.686  15.971 -0.6625  0.6010 -0.8276
  656TMC3    C2 9759   2.269   0.693  16.095  0.4293 -0.6509  0.4408
  656TMC3    C3 9760   2.200   0.805  16.124 -0.5530 -0.4113 -0.2754
  656TMC3    C4 9761   2.288   0.776  15.874 -0.1316 -0.0271  0.3922
  656TMC3    C5 9762   2.215   0.885  15.905  0.2231  0.9704  0.3192
  656TMC3    C6 9763   2.173   0.903  16.033  0.4101 -0.6891 -0.4707
  656TMC3     C 9764   2.416   0.574  15.942  0.4314 -0.1645  0.2291
  656TMC3     O 9765   2.449   0.502  16.035 -0.2246  0.1099 -0.3929
  656TMC3     H 9766   2.296   0.621  16.171 -0.5635 -1.0975  0.3792
  656TMC3    H1 9767   2.340   0.781  15.779  0.4892  2.0598  0.8395
  656TMC3    H2 9768   2.103   0.982  16.059 -0.2379 -2.1870  2.4492
  656TMC3    C7 9769   2.179   0.968  15.792 -0.3591 -0.0019 -0.5165
  656TMC3    C8 9770   2.119   0.787  16.243 -0.4943  0.5487  0.2957
  656TMC3    O1 9771   2.197   0.910  15.684  0.5240 -0.2107  0.2395
  656TMC3    O2 9772   2.117   0.675  16.296  0.0393 -0.7136  0.5473
  657TMC3    C1 9773   1.593   4.663  15.519  0.3416  0.3168  0.4286
  657TMC3    C2 9774   1.720   4.722  15.525 -0.6108  0.3474 -0.0177
  657TMC3    C3 9775   1.725   0.116  15.489 -0.3867  0.4352  0.4835
  657TMC3    C4 9776   1.483   4.732  15.477  0.2333  0.4509  0.2017
  657TMC3    C5 9777   1.492   0.130  15.461 -0.0091  0.2334  0.2073
  657TMC3    C6 9778   1.611   0.196  15.465 -0.1125  0.5249  0.5155
  657TMC3     C 9779   1.574   4.518  15.527 -0.6850  0.4578 -0.3870
  657TMC3     O 9780   1.461   4.478  15.539 -0.4791  0.0108  0.3184
  657TMC3     H 9781   1.808   4.664  15.550  0.6830  2.2382 -0.1561
  657TMC3    H1 9782   1.391   4.676  15.465  0.8174 -0.2982 -0.8022
  657TMC3    H2 9783   1.603   0.304  15.466  1.4201  0.6417 -1.8413
  657TMC3    C7 9784   1.378   0.212  15.474 -0.3473  0.0636 -0.1348
  657TMC3    C8 9785   1.857   0.167  15.468  0.6613 -0.0757 -0.0317
  657TMC3    O1 9786   1.394   0.329  15.429  0.2218 -0.7235  0.3976
  657TMC3    O2 9787   1.953   0.097  15.495  1.0435  0.2223 -0.2361
  658MPD2     C 9788   3.013   0.179  14.682  0.1177  0.3855 -0.9637
  658MPD2    C1 9789   2.976   0.282  14.771 -0.2510  0.5851  0.3469
  658MPD2    C2 9790   3.043   0.402  14.753  0.1217 -0.6008 -0.1660
  658MPD2    C3 9791   3.130   0.432  14.648 -0.5165 -0.8871 -0.4468
  658MPD2    C4 9792   3.157   0.320  14.565  0.1694  0.0587  0.6483
  658MPD2    C5 9793   3.110   0.192  14.588  0.6020  0.3341 -0.2792
  658MPD2     H 9794   3.015   0.486  14.816 -2.8051 -0.4894 -1.5980
  658MPD2    H1 9795   3.218   0.342  14.478 -0.8460  0.2014 -0.0224
  658MPD2    H2 9796   2.966   0.081  14.687 -0.0897  0.4925 -0.8271
  658MPD2    H3 9797   3.130   0.113  14.517 -2.6556 -0.7694  0.0146
  658MPD2     N 9798   3.180   0.558  14.617  0.7563  0.1600 -0.6276
  658MPD2    H5 9799   3.211   0.573  14.521  0.9631 -0.7941 -0.7129
  658MPD2    N1 9800   2.880   0.257  14.864 -0.4634  0.7236  0.3266
  658MPD2    H7 9801   2.840   0.164  14.864  2.7555 -0.6448  0.3678
  659TMC3    C1 9802   2.718   0.302  15.019  0.6345  0.5103  0.2617
  659TMC3    C2 9803   2.695   0.338  15.143 -0.6076  0.3050  0.5824
  659TMC3    C3 9804   2.564   0.352  15.185 -0.4879  0.2083  0.1925
  659TMC3    C4 9805   2.615   0.277  14.933 -0.3009  0.1967  0.5505
  659TMC3    C5 9806   2.485   0.292  14.977  0.0442  0.1959  0.4778
  659TMC3    C6 9807   2.456   0.334  15.102 -0.6841 -0.4756 -0.5863
  659TMC3     C 9808   2.842   0.341  14.963  0.3989 -0.6589  0.1582
  659TMC3     O 9809   2.890   0.447  15.002 -1.0218  0.3856 -0.1349
  659TMC3     H 9810   2.782   0.353  15.206 -0.8223  2.9163  0.2600
  659TMC3    H1 9811   2.628   0.248  14.829  0.7032 -1.1452  1.0572
  659TMC3    H2 9812   2.353   0.342  15.135 -0.0945 -0.8179  1.3472
  659TMC3    C7 9813   2.378   0.231  14.916 -0.4118  0.1780  0.1298
  659TMC3    C8 9814   2.540   0.388  15.322  0.2653 -0.3880  0.1481
  659TMC3    O1 9815   2.277   0.301  14.919 -0.3744 -0.4458 -0.2328
  659TMC3    O2 9816   2.423   0.419  15.342  0.6166 -0.0914 -0.1216
  660MPD2     C 9817   0.842   3.943  13.068 -0.2176  0.2014  0.0788
  660MPD2    C1 9818   0.729   3.924  12.984  0.1186  0.1660 -0.5736
  660MPD2    C2 9819   0.645   3.824  13.039 -0.5663  0.2494  0.1025
  660MPD2    C3 9820   0.666   3.761  13.167  0.0234 -0.0594  0.5723
  660MPD2    C4 9821   0.789   3.780  13.235  0.4280  0.3658  0.2773
  660MPD2    C5 9822   0.874   3.878  13.185  0.0787 -0.7126 -0.3987
  660MPD2     H 9823   0.551   3.797  12.992 -1.4048  1.4932  1.0785
  660MPD2    H1 9824   0.813   3.736  13.332 -2.1550  0.1493  0.8198
  660MPD2    H2 9825   0.906   4.025  13.036  1.0515 -1.4252 -1.6050
  660MPD2    H3 9826   0.968   3.900  13.234 -0.8253 -1.5979  1.7122
  660MPD2     N 9827   0.574   3.668  13.225  0.8976  0.2909 -0.2414
  660MPD2    H5 9828   0.616   3.634  13.310 -0.4538  0.4015  0.4605
  660MPD2    N1 9829   0.710   4.006  12.872  0.0132  0.6693  0.5469
  660MPD2    H7 9830   0.775   4.083  12.857 -0.0310  0.8614  1.3196
  661TMC3    C1 9831   0.575   4.131  12.724 -0.9474  0.7932 -0.0818
  661TMC3    C2 9832   0.668   4.210  12.650 -0.7728 -0.5367  0.1334
  661TMC3    C3 9833   0.634   4.308  12.560  0.7731  0.4453  0.3659
  661TMC3    C4 9834   0.446   4.169  12.704 -0.0047 -0.6510 -0.1902
  661TMC3    C5 9835   0.413   4.273  12.617  0.0080  0.2407 -0.2637
  661TMC3    C6 9836   0.505   4.341  12.540 -0.2827 -0.6256 -0.7613
  661TMC3     C 9837   0.594   4.004  12.799 -0.3780  0.0673  0.1877
  661TMC3     O 9838   0.493   3.936  12.818 -0.3811 -0.2062  0.0660
  661TMC3     H 9839   0.772   4.183  12.664 -1.1208 -2.5183 -1.0368
  661TMC3    H1 9840   0.366   4.114  12.753  0.3297 -0.1425  0.9186
  661TMC3    H2 9841   0.471   4.405  12.460 -0.2257 -0.8356 -0.9538
  661TMC3    C7 9842   0.276   4.301  12.582  0.2096  0.4471 -0.6868
  661TMC3    C8 9843   0.719   4.318  12.438  0.2500  0.8518  0.0749
  661TMC3    O1 9844   0.251   4.418  12.562  0.0950 -0.3296 -0.1813
  661TMC3    O2 9845   0.769   4.218  12.389 -0.0520 -0.0985 -0.2475
  662MPD2     C 9846   0.885   3.516  17.227 -0.1549  0.6497  0.2904
  662MPD2    C1 9847   0.898   3.427  17.332 -0.3694  0.3887 -0.3615
  662MPD2    C2 9848   0.834   3.451  17.458  0.6356  0.4433  0.1279
  662MPD2    C3 9849   0.761   3.567  17.467 -0.2749  0.3519 -0.0530
  662MPD2    C4 9850   0.766   3.662  17.374 -0.3016  0.4038  0.7072
  662MPD2    C5 9851   0.826   3.632  17.256  0.0140  0.5013 -0.3779
  662MPD2     H 9852   0.838   3.369  17.529 -0.2548  0.3781  0.1096
  662MPD2    H1 9853   0.714   3.757  17.387  0.3771  0.9919 -0.7927
  662MPD2    H2 9854   0.935   3.511  17.131  1.5407  2.6595  1.0633
  662MPD2    H3 9855   0.836   3.711  17.182  0.7774  0.4458 -0.3321
  662MPD2     N 9856   0.703   3.602  17.590 -0.2545  0.0430  0.1373
  662MPD2    H5 9857   0.646   3.686  17.585 -1.2859 -0.8248 -2.8980
  662MPD2    N1 9858   0.967   3.301  17.316 -0.4867 -0.3658  0.0053
  662MPD2    H7 9859   0.999   3.253  17.399 -1.5282 -0.6874  0.2236
  663TMC3    C1 9860   1.011   3.100  17.213 -0.4280  0.0246  0.0641
  663TMC3    C2 9861   1.081   3.059  17.315  0.3016  0.2990 -0.5135
  663TMC3    C3 9862   1.099   2.921  17.333 -0.0292  0.0374  0.2866
  663TMC3    C4 9863   0.939   3.010  17.142  0.0420 -0.4403 -0.3052
  663TMC3    C5 9864   0.937   2.875  17.178  0.4306  0.6915  0.2095
  663TMC3    C6 9865   1.011   2.830  17.282 -0.0289 -0.6155  0.1464
  663TMC3     C 9866   0.976   3.236  17.198 -0.3765 -0.6259  0.4542
  663TMC3     O 9867   0.960   3.273  17.081  0.6411  1.0488  0.4662
  663TMC3     H 9868   1.169   3.116  17.344  0.4930  0.4845 -1.4547
  663TMC3    H1 9869   0.879   3.057  17.065  2.0289  1.6365 -0.5618
  663TMC3    H2 9870   1.041   2.726  17.295  1.5783 -0.2273 -0.5260
  663TMC3    C7 9871   0.864   2.783  17.087 -0.3266 -0.7201 -0.5660
  663TMC3    C8 9872   1.147   2.895  17.469  0.3462  0.1754 -0.2053
  663TMC3    O1 9873   0.781   2.832  17.009 -0.4794  0.5700 -0.2481
  663TMC3    O2 9874   1.242   2.954  17.518 -0.3074 -0.2848 -0.0904
  664MPD2     C 9875   3.676   1.484  17.704 -0.8319  0.1121  0.1709
  664MPD2    C1 9876   3.763   1.576   0.011 -0.3280 -0.6906 -0.7842
  664MPD2    C2 9877   3.765   1.592   0.148  0.8663 -0.5293 -0.2200
  664MPD2    C3 9878   3.669   1.522   0.227  0.3813 -0.1947 -0.0171
  664MPD2    C4 9879   3.575   1.437   0.170  0.1030  0.9083  0.5982
  664MPD2    C5 9880   3.583   1.417   0.033 -0.3282 -0.0292 -0.1791
  664MPD2     H 9881   3.844   1.644   0.201  0.1367  1.2546 -0.8744
  664MPD2    H1 9882   3.505   1.377   0.227  1.1938 -0.0127  0.9479
  664MPD2    H2 9883   3.691   1.460  17.600  1.4524  1.6234  0.1530
  664MPD2    H3 9884   3.511   1.357  17.723  0.3187 -1.9137  1.0518
  664MPD2     N 9885   3.684   1.547   0.366  0.3456  0.0220  0.4134
  664MPD2    H5 9886   3.762   1.603   0.397 -0.2993  0.9458  0.3431
  664MPD2    N1 9887   3.861   1.640  17.683 -0.6775  0.0999  0.0338
  664MPD2    H7 9888   3.918   1.704  17.737 -0.9424 -0.8707  1.4614
  665TMC3    C1 9889   3.616   1.558   0.595 -0.6647 -0.1177  0.2660
  665TMC3    C2 9890   3.508   1.586   0.674  0.3272 -0.3052 -0.2025
  665TMC3    C3 9891   3.512   1.678   0.772  0.3875 -0.1839 -0.5065
  665TMC3    C4 9892   3.733   1.622   0.617  0.5310 -0.0540 -0.1077
  665TMC3    C5 9893   3.732   1.716   0.713 -0.4673  0.1496 -0.7615
  665TMC3    C6 9894   3.626   1.748   0.793 -0.2961  0.5665 -0.3840
  665TMC3     C 9895   3.599   1.502   0.464 -0.2790  0.5910  0.3332
  665TMC3     O 9896   3.504   1.426   0.454  0.2878 -0.1293 -0.8622
  665TMC3     H 9897   3.407   1.548   0.658  0.3924 -0.2740 -0.7097
  665TMC3    H1 9898   3.825   1.600   0.564  0.0054 -0.7633 -0.7177
  665TMC3    H2 9899   3.626   1.819   0.875  1.5131  2.0806 -1.7064
  665TMC3    C7 9900   3.860   1.776   0.744  0.2484  0.1623 -0.5264
  665TMC3    C8 9901   3.388   1.714   0.841 -0.2139 -0.4213 -0.3281
  665TMC3    O1 9902   3.960   1.708   0.715  0.2807  0.2589 -0.3307
  665TMC3    O2 9903   3.351   1.833   0.844  0.6657 -0.4140 -0.1074
  666TMC3    C1 9904   3.232   2.093  10.304  1.5485  0.6840  0.3834
  666TMC3    C2 9905   3.351   2.068  10.371  0.2179  0.2644  0.4515
  666TMC3    C3 9906   3.436   2.166  10.413  0.5473 -1.1926  0.4072
  666TMC3    C4 9907   3.189   2.223  10.299  0.3836  0.4156  0.0630
  666TMC3    C5 9908   3.277   2.320  10.331 -0.3626  0.0591 -0.9194
  666TMC3    C6 9909   3.396   2.296  10.395 -0.0164  0.8824 -0.2925
  666TMC3     C 9910   3.127   1.990  10.310  0.4087 -0.3035  0.0256
  666TMC3     O 9911   3.146   1.902  10.392  0.1308 -0.0624  0.0291
  666TMC3     H 9912   3.394   1.970  10.391  1.6628  0.9789  0.8871
  666TMC3    H1 9913   3.100   2.253  10.243 -0.7161 -0.1833  1.4941
  666TMC3    H2 9914   3.443   2.376  10.451  1.5705  0.1858 -0.6278
  666TMC3    C7 9915   3.219   2.452  10.347 -0.3957  0.2828  0.0410
  666TMC3    C8 9916   3.542   2.135  10.506 -0.6556  0.3442 -0.3592
  666TMC3    O1 9917   3.100   2.460  10.367  0.9015 -0.2296 -0.0312
  666TMC3    O2 9918   3.520   2.035  10.572 -0.2190  0.0281 -0.3665
  667MPD2     C 9919   0.002   1.865  15.022 -0.3692 -0.6706  0.4822
  667MPD2    C1 9920   4.628   1.870  15.098 -0.1126 -0.6583  0.0429
  667MPD2    C2 9921   4.518   1.796  15.060 -0.8002 -0.0901 -0.1473
  667MPD2    C3 9922   4.512   1.722  14.942  0.0776  0.7133  0.6272
  667MPD2    C4 9923   4.630   1.717  14.868 -0.1637  0.4541 -0.2413
  667MPD2    C5 9924   4.735   1.785  14.904  0.8547 -0.2022  0.2998
  667MPD2     H 9925   4.425   1.815  15.112 -0.7285 -0.5230  0.1409
  667MPD2    H1 9926   4.648   1.644  14.790 -3.6278  1.4021 -1.9329
  667MPD2    H2 9927   0.096   1.911  15.049 -0.5451 -1.7495  2.9555
  667MPD2    H3 9928   0.088   1.780  14.843  0.2661  0.9104 -0.6652
  667MPD2     N 9929   4.399   1.651  14.896  0.0361  0.0812 -0.7323
  667MPD2    H5 9930   4.416   1.591  14.816 -1.4585 -1.0016 -0.2420
  667MPD2    N1 9931   4.622   1.953  15.211  0.1569 -0.5009 -0.1663
  667MPD2    H7 9932   4.531   1.953  15.255  0.3074 -1.1869  0.1334
  668TMC3    C1 9933   4.687   2.101  15.394  0.1194 -0.6010  0.2823
  668TMC3    C2 9934   0.041   2.200  15.438  0.4995  0.0246 -0.4913
  668TMC3    C3 9935   0.027   2.238  15.565 -0.5008 -0.8663  0.1055
  668TMC3    C4 9936   4.577   2.061  15.464  0.1333 -0.2270  0.2924
  668TMC3    C5 9937   4.559   2.112  15.588 -0.3459 -0.6000  0.0225
  668TMC3    C6 9938   4.658   2.198  15.645  0.1568  0.0407 -0.2403
  668TMC3     C 9939   4.722   2.036  15.269 -0.3857 -0.0316  0.2757
  668TMC3     O 9940   0.102   2.048  15.244 -0.4962 -0.1062  0.1798
  668TMC3     H 9941   0.131   2.224  15.381  0.4186 -0.0347 -0.6428
  668TMC3    H1 9942   4.509   1.992  15.415  1.0307 -0.2442 -0.9094
  668TMC3    H2 9943   4.634   2.252  15.736  0.8202 -0.9983  0.5575
  668TMC3    C7 9944   4.485   2.041  15.687 -0.1713 -0.0121 -1.2758
  668TMC3    C8 9945   0.086   2.362  15.615  0.5136 -0.0963  0.3841
  668TMC3    O1 9946   4.540   2.039  15.799 -0.2144  0.2474 -0.0046
  668TMC3    O2 9947   0.108   2.370  15.735 -0.2798  0.1156 -0.0756
  669TMC3    C1 9948   2.636   2.059  14.947 -0.0098  0.5164 -0.1118
  669TMC3    C2 9949   2.526   2.058  14.861 -0.4512  0.5536 -0.0473
  669TMC3    C3 9950   2.527   2.132  14.747  0.2802  0.9918 -0.8065
  669TMC3    C4 9951   2.750   2.137  14.914 -0.5540 -0.2985  0.3312
  669TMC3    C5 9952   2.745   2.211  14.801  0.5368  0.0560 -0.1998
  669TMC3    C6 9953   2.638   2.206  14.713  0.7227  0.3394  0.4685
  669TMC3     C 9954   2.633   1.963  15.052 -0.2345  0.3995  0.5164
  669TMC3     O 9955   2.537   1.884  15.050 -0.9660 -0.4596 -0.2055
  669TMC3     H 9956   2.437   2.004  14.890  0.2799  0.2034  1.5369
  669TMC3    H1 9957   2.844   2.129  14.966  0.5322 -0.4861 -1.6628
  669TMC3    H2 9958   2.634   2.276  14.631  0.6422  0.4922  0.6027
  669TMC3    C7 9959   2.864   2.290  14.784  1.3829 -0.5470  0.4959
  669TMC3    C8 9960   2.403   2.138  14.663 -0.0573  0.9518 -1.0654
  669TMC3    O1 9961   2.928   2.315  14.879  0.0498  0.2325  0.0526
  669TMC3    O2 9962   2.336   2.035  14.663 -0.0284  0.2843  0.0923
  670MPD2     C 9963   0.950   0.104  13.645 -0.2882  0.2267 -1.2274
  670MPD2    C1 9964   1.011   0.141  13.765  0.0836 -0.1172  0.3634
  670MPD2    C2 9965   0.972   0.084  13.880  0.0705 -0.3138  0.0560
  670MPD2    C3 9966   0.874   4.722  13.872 -0.4818 -0.6767  0.1192
  670MPD2    C4 9967   0.812   4.688  13.752 -0.0020 -0.0482 -0.6614
  670MPD2    C5 9968   0.855   0.007  13.635  0.1437  0.5541  0.6583
  670MPD2     H 9969   1.010   0.110  13.978 -2.4092 -0.0804  0.9570
  670MPD2    H1 9970   0.731   4.615  13.754  0.7502 -0.8711 -0.1311
  670MPD2    H2 9971   0.973   0.148  13.549 -0.7212  4.2392  0.5071
  670MPD2    H3 9972   0.802   4.725  13.542 -0.1244  0.5298  0.8150
  670MPD2     N 9973   0.842   4.668  14.000 -0.0443  0.0902 -0.0406
  670MPD2    H5 9974   0.901   4.684  14.082 -0.4704 -1.7186  0.6172
  670MPD2    N1 9975   1.105   0.251  13.763 -0.7905  0.7336 -0.8942
  670MPD2    H7 9976   1.137   0.276  13.857 -0.5615 -1.5462 -0.3631
  671TMC3    C1 9977   0.723   4.519  14.151 -0.5124  0.2713 -0.0018
  671TMC3    C2 9978   0.849   4.499  14.218  0.3817  0.3249 -0.4596
  671TMC3    C3 9979   0.867   4.382  14.280  0.3602  0.3549  0.0743
  671TMC3    C4 9980   0.615   4.436  14.161 -0.3913  0.1099  0.4161
  671TMC3    C5 9981   0.636   4.330  14.249 -0.1079 -0.6729 -0.6684
  671TMC3    C6 9982   0.762   4.299  14.304 -0.0423  0.2017 -0.0075
  671TMC3     C 9983   0.729   4.592  14.025  1.0429  0.0629 -0.7393
  671TMC3     O 9984   0.647   4.556  13.940  0.2397  0.5861 -0.1238
  671TMC3     H 9985   0.940   4.551  14.190  0.2620  0.4579 -0.6091
  671TMC3    H1 9986   0.525   4.458  14.106 -0.5789  0.9843  1.0699
  671TMC3    H2 9987   0.774   4.203  14.353  3.6450 -0.5719 -2.4562
  671TMC3    C7 9988   0.558   4.213  14.220 -0.4419  0.2181 -0.2801
  671TMC3    C8 9989   0.998   4.333  14.318  0.7727 -0.4817 -0.1309
  671TMC3    O1 9990   0.629   4.115  14.202 -0.3195 -0.3948  0.2759
  671TMC3    O2 9991   1.082   4.415  14.353  0.3259  0.2466  0.8128
  672MPD2     C 9992   1.994   0.263   0.846 -0.4577  0.0374 -0.3610
  672MPD2    C1 9993   2.046   0.143   0.886 -0.1419  0.3934 -0.0635
  672MPD2    C2 9994   2.098   0.131   1.013 -0.4777 -0.2023 -0.2061
  672MPD2    C3 9995   2.105   0.240   1.102  0.1380 -0.1659 -0.8968
  672MPD2    C4 9996   2.050   0.364   1.057 -0.2310  0.4865 -0.5982
  672MPD2    C5 9997   1.997   0.372   0.929  0.1186  0.1023 -0.0709
  672MPD2     H 9998   2.129   0.031   1.040 -2.2624 -0.4577  0.9414
  672MPD2    H1 9999   2.051   0.452   1.120  0.1814  1.7463 -2.3590
  672MPD2    H210000   1.951   0.272   0.748 -1.7814  2.5858  0.4582
  672MPD2    H310001   1.948   0.461   0.893  1.5337  0.3516 -1.3676
  672MPD2     N10002   2.158   0.245   1.229 -0.1883 -0.5923 -0.2014
  672MPD2    H510003   2.131   0.328   1.281  1.0910 -0.9068  0.9692
  672MPD2    N110004   2.046   0.027   0.803 -0.3517 -0.5357  0.4973
  672MPD2    H710005   2.088   4.683   0.847 -1.7964 -0.7913  1.4106
  673TMC3    C110006   1.993   4.617   0.645  1.1405 -1.1475  0.4783
  673TMC3    C210007   2.095   4.538   0.685  0.2255  0.2206 -0.1078
  673TMC3    C310008   2.092   4.413   0.637 -0.5706 -0.1211  0.4906
  673TMC3    C410009   1.885   4.564   0.579  0.1643 -0.1849 -0.5408
  673TMC3    C510010   1.888   4.434   0.536 -0.8074  0.2290  0.2256
  673TMC3    C610011   1.992   4.354   0.570  0.4562  0.2526 -0.1506
  673TMC3     C10012   1.996   0.019   0.676 -0.3825 -0.4240  1.0782
  673TMC3     O10013   1.927   0.094   0.612 -0.1737 -0.0823  0.2965
  673TMC3     H10014   2.186   4.571   0.733  0.5767 -1.2402  0.2292
  673TMC3    H110015   1.807   4.632   0.547  0.1252 -0.3728 -0.8474
  673TMC3    H210016   1.993   4.248   0.547  0.7586  0.2827 -0.2719
  673TMC3    C710017   1.766   4.372   0.492 -0.1505  0.3485 -0.7042
  673TMC3    C810018   2.183   4.315   0.688  0.2423 -0.5569  0.1009
  673TMC3    O110019   1.778   4.255   0.450 -0.0350 -0.6978  0.2013
  673TMC3    O210020   2.212   4.329   0.806 -0.3672 -0.3064  0.0902
  674MPD2     C10021   1.027   4.185   0.088 -0.0513 -0.5262  0.0677
  674MPD2    C110022   1.015   4.078   0.177 -0.7917  0.3706 -0.3137
  674MPD2    C210023   0.964   4.105   0.307 -0.0362 -0.1359  0.0153
  674MPD2    C310024   0.931   4.233   0.345 -0.6128  0.3813 -0.4507
  674MPD2    C410025   0.944   4.330   0.254  0.1040  0.3797 -0.3492
  674MPD2    C510026   0.987   4.312   0.128  0.4049  0.0197  0.3929
  674MPD2     H10027   0.948   4.037   0.390  0.1586 -0.2679 -0.0550
  674MPD2    H110028   0.905   4.429   0.278 -1.6678  0.6346 -4.3030
  674MPD2    H210029   1.070   4.176  17.734  1.6354  0.7706  0.6892
  674MPD2    H310030   0.992   4.396   0.060  1.8576  0.7989  1.4472
  674MPD2     N10031   0.867   4.247   0.468 -0.6884 -0.1174  0.1579
  674MPD2    H510032   0.850   4.165   0.526 -0.5875 -0.3150 -0.0928
  674MPD2    N110033   1.060   3.950   0.138  0.2541  0.1375 -0.1118
  674MPD2    H710034   1.096   3.941   0.044 -0.3436  0.2142 -0.3466
  675TMC3    C110035   1.121   3.713   0.156 -0.1949 -0.4724  0.1407
  675TMC3    C210036   1.090   3.603   0.233 -0.0212 -0.8284 -0.2875
  675TMC3    C310037   1.174   3.492   0.244  0.0177 -1.0185  0.1465
  675TMC3    C410038   1.233   3.718   0.086  0.8375  0.1460 -0.6218
  675TMC3    C510039   1.323   3.611   0.112  0.3462  0.3959 -0.1757
  675TMC3    C610040   1.300   3.509   0.199  0.1800 -0.2252  0.5627
  675TMC3     C10041   1.055   3.837   0.215 -0.3512 -0.6479  0.1681
  675TMC3     O10042   1.006   3.820   0.324 -0.1552 -0.4175  0.1572
  675TMC3     H10043   0.996   3.588   0.283 -0.3704 -0.5723 -0.8690
  675TMC3    H110044   1.254   3.804   0.023  2.1013  0.3587  0.0787
  675TMC3    H210045   1.371   3.431   0.224 -1.3062 -1.5843  0.5751
  675TMC3    C710046   1.435   3.599   0.028  0.7322  0.4406 -0.4648
  675TMC3    C810047   1.176   3.458   0.379 -0.3062  0.0694  0.2599
  675TMC3    O110048   1.523   3.529   0.074  0.1297 -0.3271 -0.8817
  675TMC3    O210049   1.188   3.341   0.412  0.4023  0.1870  0.8369
  676MPD2     C10050   3.488   3.268  11.561  0.5134 -0.4857 -0.1436
  676MPD2    C110051   3.446   3.196  11.670  0.3365  0.0946 -0.1450
  676MPD2    C210052   3.421   3.067  11.654  0.0352  0.1503 -0.0850
  676MPD2    C310053   3.428   3.005  11.536  0.0452  0.0447  0.5562
  676MPD2    C410054   3.463   3.078  11.420 -0.2808  0.1997 -0.2825
  676MPD2    C510055   3.499   3.211  11.441  0.0640  0.8491 -0.7398
  676MPD2     H10056   3.376   3.010  11.735 -2.4767  0.7201 -1.0717
  676MPD2    H110057   3.463   3.040  11.319 -0.9266  1.2127 -0.6701
  676MPD2    H210058   3.499   3.376  11.570  0.9726 -0.4692 -0.9850
  676MPD2    H310059   3.525   3.265  11.351  1.0197  1.2241 -0.2451
  676MPD2     N10060   3.396   2.871  11.510 -0.0808  0.2175  0.4192
  676MPD2    H510061   3.420   2.840  11.417  0.0821  0.3320  0.4229
  676MPD2    N110062   3.429   3.250  11.798 -0.2907  0.1113 -0.0077
  676MPD2    H710063   3.399   3.182  11.866 -1.5090  2.5347  1.8423
  677TMC3    C110064   3.425   3.407  11.979  0.0191  0.2712  0.3201
  677TMC3    C210065   3.337   3.323  12.042 -0.0310 -0.0232  0.1282
  677TMC3    C310066   3.310   3.345  12.175 -0.7723  0.7050  0.3463
  677TMC3    C410067   3.467   3.526  12.039 -0.2862  0.4410  0.3640
  677TMC3    C510068   3.438   3.539  12.171  0.6492  0.0480 -0.7798
  677TMC3    C610069   3.364   3.450  12.247  0.4612  0.1419 -0.1501
  677TMC3     C10070   3.464   3.377  11.842  1.0229  0.0277  0.3896
  677TMC3     O10071   3.527   3.461  11.780 -0.1676  0.0646 -0.1182
  677TMC3     H10072   3.284   3.246  11.987 -0.7946  0.7105 -0.1616
  677TMC3    H110073   3.532   3.595  11.987  0.0483  1.0065  1.5201
  677TMC3    H210074   3.349   3.450  12.354  0.8893  4.1209 -0.0920
  677TMC3    C710075   3.492   3.652  12.242 -0.2713  1.0473 -0.1558
  677TMC3    C810076   3.275   3.226  12.258  0.5253 -0.8474 -1.1020
  677TMC3    O110077   3.415   3.687  12.329  0.1399 -0.2846  0.4774
  677TMC3    O210078   3.328   3.123  12.228  0.7154  0.5742 -0.1988
  678MPD2     C10079   0.655   2.381   1.325  0.3899  0.2165  0.9607
  678MPD2    C110080   0.600   2.298   1.229  0.0729 -0.3548 -0.5639
  678MPD2    C210081   0.479   2.338   1.172  0.1689 -0.4864 -0.1102
  678MPD2    C310082   0.412   2.450   1.227  0.3016  0.1882  0.9465
  678MPD2    C410083   0.472   2.525   1.320 -0.1018 -0.2310  0.2556
  678MPD2    C510084   0.593   2.493   1.369 -0.0192 -1.2182 -0.1106
  678MPD2     H10085   0.425   2.276   1.102  0.3862 -1.2009  0.3396
  678MPD2    H110086   0.431   2.614   1.365  1.5812 -0.5042  2.3076
  678MPD2    H210087   0.749   2.351   1.371  1.0683  2.9927  1.4049
  678MPD2    H310088   0.645   2.548   1.447 -1.0196  0.5345 -0.6828
  678MPD2     N10089   0.278   2.464   1.185  0.0407 -0.4568 -0.2390
  678MPD2    H510090   0.244   2.386   1.130 -1.9470  1.0067 -1.0887
  678MPD2    N110091   0.663   2.178   1.181  0.6919 -0.3229 -0.3495
  678MPD2    H710092   0.619   2.120   1.110 -1.3807  0.0198  0.6554
  679TMC3    C110093   0.924   1.799   1.183 -0.0489 -0.4311 -0.3194
  679TMC3    C210094   0.870   1.900   1.254 -0.5855  0.0833 -0.2277
  679TMC3    C310095   0.806   1.995   1.181 -0.2160  0.0065  0.2324
  679TMC3    C410096   0.919   1.794   1.046 -0.1332  0.5544 -0.4185
  679TMC3    C510097   0.857   1.898   0.976  0.3655  0.6083  0.0111
  679TMC3    C610098   0.805   2.004   1.043  0.5615  0.8016  0.2879
  679TMC3     C10099   0.969   1.678   1.252 -0.0677 -0.3966  0.4880
  679TMC3     O10100   1.014   1.588   1.184 -0.7930  0.2352 -0.6871
  679TMC3     H10101   0.884   1.907   1.362 -0.5163 -0.4960 -0.1989
  679TMC3    H110102   0.953   1.705   0.995 -0.5656 -0.1872  0.5905
  679TMC3    H210103   0.763   2.086   0.987  0.3153 -0.5340 -1.4957
  679TMC3    C710104   0.876   1.922   0.830  0.7905 -0.6708 -0.1471
  679TMC3    C810105   0.772   2.121   1.244 -0.0486 -0.0740  0.3760
  679TMC3    O110106   0.859   2.037   0.791 -0.1596  0.2242 -0.3290
  679TMC3    O210107   0.809   2.138   1.353 -0.3969 -0.0350 -0.2306
  680MPD2     C10108   0.479   2.048  13.620 -0.5717  0.8636  0.1879
  680MPD2    C110109   0.550   1.938  13.660  0.0293 -0.2255 -0.0584
  680MPD2    C210110   0.628   1.948  13.774  0.4960  0.3358  0.0621
  680MPD2    C310111   0.632   2.061  13.851  0.7856  1.0461 -0.1672
  680MPD2    C410112   0.571   2.175  13.800 -0.1760  0.4089  0.4172
  680MPD2    C510113   0.481   2.168  13.692 -1.1947 -0.1780 -0.0767
  680MPD2     H10114   0.674   1.857  13.811 -0.0380  0.0104 -0.0714
  680MPD2    H110115   0.579   2.274  13.842 -0.7210  0.8587 -0.5415
  680MPD2    H210116   0.422   2.039  13.528  0.9808 -0.3087 -0.6653
  680MPD2    H310117   0.419   2.250  13.658  2.7436  2.3124 -1.1659
  680MPD2     N10118   0.709   2.082  13.969 -0.1310  0.6729  0.0391
  680MPD2    H510119   0.710   2.175  14.010  0.3862 -0.7285  3.2071
  680MPD2    N110120   0.552   1.816  13.593  0.5177  0.2325 -0.5653
  680MPD2    H710121   0.593   1.731  13.630 -0.7629  0.5301  1.5653
  681TMC3    C110122   0.530   1.667  13.414  0.5364  0.3475 -0.5017
  681TMC3    C210123   0.476   1.573  13.493 -0.9105  0.1685 -1.0064
  681TMC3    C310124   0.463   1.452  13.437 -0.4091 -0.5173  0.0949
  681TMC3    C410125   0.567   1.636  13.283 -0.0524 -0.3556 -0.5798
  681TMC3    C510126   0.523   1.518  13.219  0.6501 -0.3264 -0.2186
  681TMC3    C610127   0.472   1.424  13.302 -0.0049 -0.0390  0.6286
  681TMC3     C10128   0.529   1.802  13.454 -0.0951 -0.3345  0.2026
  681TMC3     O10129   0.532   1.891  13.367  0.3321 -0.7655  0.2476
  681TMC3     H10130   0.454   1.600  13.596  0.4471 -0.4262 -0.5630
  681TMC3    H110131   0.597   1.718  13.218  0.1167  1.2486  1.5428
  681TMC3    H210132   0.432   1.331  13.262  0.4850 -0.4330  1.0527
  681TMC3    C710133   0.588   1.463  13.099 -0.1582  0.2446 -0.3661
  681TMC3    C810134   0.414   1.342  13.516 -0.1865  0.3490  0.2565
  681TMC3    O110135   0.559   1.350  13.073  0.2797  0.0556  0.3211
  681TMC3    O210136   0.350   1.253  13.461  0.0457 -0.0934  0.4372
  682MPD2     C10137   2.764   3.454  11.224  0.2118  1.0527 -0.5540
  682MPD2    C110138   2.780   3.322  11.259 -0.3993  0.4249  0.0564
  682MPD2    C210139   2.772   3.289  11.392 -0.0949 -0.5309  0.6781
  682MPD2    C310140   2.737   3.384  11.488  0.3210 -0.4268  0.1761
  682MPD2    C410141   2.715   3.512  11.446  0.5796 -0.0628 -0.0449
  682MPD2    C510142   2.730   3.546  11.314  0.3231 -0.1764 -0.0567
  682MPD2     H10143   2.777   3.182  11.410 -2.7507 -0.6072  1.0192
  682MPD2    H110144   2.675   3.582  11.518  0.4589  0.1921 -0.3593
  682MPD2    H210145   2.770   3.495  11.124  0.5081  0.1435 -0.9121
  682MPD2    H310146   2.704   3.646  11.281 -0.3748 -0.0707  0.7945
  682MPD2     N10147   2.707   3.353  11.618 -0.4152 -0.2825  0.1330
  682MPD2    H510148   2.673   3.431  11.674 -0.1811 -0.1498  0.0897
  682MPD2    N110149   2.816   3.217  11.169 -0.4495 -0.5698  0.0313
  682MPD2    H710150   2.821   3.123  11.207  0.9117 -0.7791 -0.6614
  683TMC3    C110151   2.556   3.335  11.994  0.1639 -0.7498  0.0348
  683TMC3    C210152   2.500   3.216  12.041 -0.2370  0.0531 -0.4822
  683TMC3    C310153   2.523   3.105  11.961  0.4382  0.4870 -0.3023
  683TMC3    C410154   2.628   3.336  11.878 -0.7820  0.3471  0.5095
  683TMC3    C510155   2.650   3.223  11.811  0.0050  0.4825  0.1015
  683TMC3    C610156   2.603   3.108  11.855  0.1352  0.8017  0.0861
  683TMC3     C10157   2.574   3.438  12.090 -0.3245 -0.4808 -0.1516
  683TMC3     O10158   2.607   3.548  12.043  0.1434  0.3734  0.7937
  683TMC3     H10159   2.441   3.219  12.132 -1.3935 -2.2066 -1.1606
  683TMC3    H110160   2.682   3.426  11.850  3.0603 -1.7138  1.3961
  683TMC3    H210161   2.634   3.024  11.793  1.1360  0.7866  0.6080
  683TMC3    C710162   2.714   3.227  11.673 -0.4480  0.2064  0.3542
  683TMC3    C810163   2.501   2.979  12.027  0.9266 -0.4449  0.3882
  683TMC3    O110164   2.755   3.122  11.622 -0.2161 -0.0082 -0.2374
  683TMC3    O210165   2.416   2.980  12.114 -0.3041  0.6974 -0.7052
  684MPD2     C10166   0.868   2.073  16.546  0.3072 -0.5783 -0.1367
  684MPD2    C110167   0.999   2.088  16.578 -0.5444 -0.5877 -0.1779
  684MPD2    C210168   1.031   2.191  16.670  0.2186  0.4568 -0.0770
  684MPD2    C310169   0.938   2.274  16.727  0.1323 -0.2508  0.2695
  684MPD2    C410170   0.808   2.246  16.698  0.1769 -0.0525  0.0482
  684MPD2    C510171   0.771   2.143  16.609 -0.2679 -0.3564 -0.1593
  684MPD2     H10172   1.135   2.213  16.689  0.0210  1.1917  0.1531
  684MPD2    H110173   0.736   2.307  16.752  0.7626  2.2783 -1.8324
  684MPD2    H210174   0.835   2.007  16.467 -1.1782 -2.1080  1.7642
  684MPD2    H310175   0.669   2.135  16.572 -0.3094 -0.0374 -0.1098
  684MPD2     N10176   0.976   2.395  16.785  0.2828  0.4758 -0.2710
  684MPD2    H510177   0.902   2.460  16.810  0.2300  0.7438 -1.1188
  684MPD2    N110178   1.108   2.037  16.509  0.8207 -0.5537 -0.3956
  684MPD2    H710179   1.199   2.066  16.544  0.4601 -1.7408  1.5648
  685TMC3    C110180   1.181   2.010  16.293  0.2222 -0.4802 -0.0711
  685TMC3    C210181   1.109   2.065  16.188 -0.0531 -1.0772  0.3939
  685TMC3    C310182   1.159   2.170  16.119 -0.1571 -0.6783 -0.0495
  685TMC3    C410183   1.298   2.067  16.328  0.1218  0.2774 -0.1552
  685TMC3    C510184   1.351   2.169  16.249 -0.7241  0.7430 -0.2936
  685TMC3    C610185   1.280   2.228  16.152 -0.0947 -0.1600  0.3206
  685TMC3     C10186   1.093   1.957  16.397  0.3164  0.3671 -0.7841
  685TMC3     O10187   0.999   1.887  16.355 -0.7214  0.6658  0.1291
  685TMC3     H10188   1.016   2.020  16.156  0.8802 -1.6874 -1.4514
  685TMC3    H110189   1.360   2.015  16.400 -0.0347 -0.4691 -0.5644
  685TMC3    H210190   1.324   2.297  16.082 -0.3439 -0.8493 -0.5097
  685TMC3    C710191   1.492   2.209  16.262 -0.3209 -0.3044 -0.6371
  685TMC3    C810192   1.070   2.255  16.048 -0.4139 -1.1797 -0.1237
  685TMC3    O110193   1.549   2.249  16.162 -0.3872 -0.2911 -0.3205
  685TMC3    O210194   1.110   2.364  16.007  0.0537 -0.4712 -0.1762
  686MPD2     C10195   2.074   2.493  15.747 -0.2448 -0.6073  0.0601
  686MPD2    C110196   2.104   2.359  15.781 -0.1784 -0.3365 -0.2808
  686MPD2    C210197   2.118   2.265  15.679 -0.1614 -0.2172  0.1535
  686MPD2    C310198   2.101   2.296  15.549  0.4817  0.5548  0.0023
  686MPD2    C410199   2.093   2.431  15.522  0.2012 -0.2254  0.6023
  686MPD2    C510200   2.076   2.530  15.618  0.1338  0.1369  0.3175
  686MPD2     H10201   2.136   2.164  15.714 -2.2835 -0.8848 -0.6623
  686MPD2    H110202   2.073   2.458  15.419 -1.2054 -1.6276  0.4960
  686MPD2    H210203   2.063   2.567  15.825 -0.2276  0.0568 -0.5701
  686MPD2    H310204   2.051   2.629  15.582  4.4888  0.6876 -1.1892
  686MPD2     N10205   2.124   2.209  15.433 -0.3788 -0.1044 -0.0846
  686MPD2    H510206   2.143   2.265  15.350  0.5722 -0.3766 -0.0491
  686MPD2    N110207   2.119   2.323  15.918  0.0339 -0.1031  0.0577
  686MPD2    H710208   2.120   2.397  15.987 -0.4617 -0.6041  0.6004
  687TMC3    C110209   2.101   1.996  15.547  0.2757 -0.3653  0.0202
  687TMC3    C210210   1.970   2.019  15.578  0.2007  0.0397 -0.1057
  687TMC3    C310211   1.916   1.930  15.674 -0.6088 -0.1440 -0.7325
  687TMC3    C410212   2.174   1.889  15.597 -0.1320  0.1945  0.5014
  687TMC3    C510213   2.113   1.800  15.682  0.1896  0.0376  0.1533
  687TMC3    C610214   1.987   1.822  15.724 -0.1172  0.2477  0.5763
  687TMC3     C10215   2.160   2.073  15.445 -0.4686  0.3932 -0.4883
  687TMC3     O10216   2.238   2.014  15.374  0.2433 -0.3076  0.4661
  687TMC3     H10217   1.914   2.099  15.531  1.0632  1.7237  1.7375
  687TMC3    H110218   2.274   1.876  15.557  0.3604  0.0808  1.7712
  687TMC3    H210219   1.930   1.753  15.786 -1.2345  1.3822  0.8155
  687TMC3    C710220   2.197   1.744  15.786 -0.1251  0.2261 -0.0876
  687TMC3    C810221   1.797   1.972  15.748  0.2988  0.5559  0.6628
  687TMC3    O110222   2.167   1.629  15.821  0.3171  0.1933 -0.4838
  687TMC3    O210223   1.761   1.903  15.843 -0.3570  0.0602 -0.4233
  688MPD2     C10224   1.259   0.848   0.075  0.0816  0.2238 -0.5720
  688MPD2    C110225   1.315   0.726   0.056  0.0095  0.0493  0.0020
  688MPD2    C210226   1.426   0.718  17.723  0.2107 -0.4302  0.1018
  688MPD2    C310227   1.464   0.828  17.642  0.2514 -0.1588 -0.6403
  688MPD2    C410228   1.399   0.947  17.667 -0.1000 -1.2034 -0.3581
  688MPD2    C510229   1.308   0.960   0.016  0.3699  0.1007 -0.1419
  688MPD2     H10230   1.465   0.619  17.704  1.7387  0.6471 -2.3363
  688MPD2    H110231   1.445   1.031  17.615 -0.8948  0.3994  1.5508
  688MPD2    H210232   1.166   0.865   0.129  0.4315  0.5671 -0.0751
  688MPD2    H310233   1.266   1.056   0.043  0.7010 -0.3762  2.0118
  688MPD2     N10234   1.549   0.823  17.531  0.3076  0.3264  0.4189
  688MPD2    H510235   1.549   0.908  17.475  1.8463  1.6371  2.4416
  688MPD2    N110236   1.279   0.619   0.127 -0.2814  0.8538 -0.3892
  688MPD2    H710237   1.343   0.541   0.120 -2.9645 -1.5063  1.0156
  689TMC3    C110238   1.218   0.489   0.306  0.7963 -0.4494 -0.4863
  689TMC3    C210239   1.209   0.513   0.439  0.0961 -0.1849  0.6423
  689TMC3    C310240   1.223   0.402   0.517  0.0784 -0.9711  0.0813
  689TMC3    C410241   1.227   0.363   0.247  0.4906  0.1364  0.5438
  689TMC3    C510242   1.241   0.261   0.335  0.2887  0.2149  0.2141
  689TMC3    C610243   1.240   0.278   0.469 -0.1929  0.1200  0.0051
  689TMC3     C10244   1.184   0.606   0.228 -0.2138  0.1669 -0.0790
  689TMC3     O10245   1.099   0.686   0.269  0.2970 -0.1058  0.3614
  689TMC3     H10246   1.198   0.610   0.484 -1.5128  0.2033 -0.5955
  689TMC3    H110247   1.232   0.347   0.140  1.3085 -0.8884  0.7346
  689TMC3    H210248   1.242   0.189   0.531  0.9619  1.3843  1.7630
  689TMC3    C710249   1.236   0.123   0.291  0.5961 -0.3883  0.1363
  689TMC3    C810250   1.183   0.415   0.655 -0.4336  0.0164  0.4280
  689TMC3    O110251   1.303   0.044   0.355 -0.0035  0.1289 -0.1136
  689TMC3    O210252   1.231   0.344   0.738  0.2175  0.7724 -0.1507
  690MPD2     C10253   3.108   3.023  15.516 -0.6267  0.3907  0.3013
  690MPD2    C110254   3.204   2.949  15.580 -0.1392 -0.1474 -0.3647
  690MPD2    C210255   3.337   2.974  15.558  0.1775  0.2058  0.9338
  690MPD2    C310256   3.383   3.074  15.471  0.0497 -0.1229  0.8931
  690MPD2    C410257   3.284   3.145  15.409  0.7569  0.1771  0.2071
  690MPD2    C510258   3.149   3.116  15.420 -0.2405  0.3221 -0.0446
  690MPD2     H10259   3.418   2.923  15.609  0.7545  1.6106  1.4179
  690MPD2    H110260   3.312   3.223  15.339  0.3242  1.0674  1.0297
  690MPD2    H210261   3.002   3.004  15.527 -0.7074  1.0699  0.6981
  690MPD2    H310262   3.075   3.172  15.363 -0.7948  0.8217  1.1542
  690MPD2     N10263   3.512   3.121  15.442 -0.2323 -0.1809 -0.1687
  690MPD2    H510264   3.529   3.200  15.381 -0.9755  0.4074  0.3770
  690MPD2    N110265   3.171   2.856  15.677 -0.0939 -0.8042 -0.2145
  690MPD2    H710266   3.253   2.819  15.725  0.2943  0.9358  0.4495
  691TMC3    C110267   3.048   2.772  15.860 -0.0603 -0.1718 -0.0277
  691TMC3    C210268   3.009   2.842  15.970  0.7711  0.3628 -0.1962
  691TMC3    C310269   3.077   2.807  16.081 -0.1852  0.4294  0.7599
  691TMC3    C410270   3.122   2.664  15.869  0.1727 -0.0803 -0.4176
  691TMC3    C510271   3.170   2.620  15.988  0.0566 -0.3689  0.3454
  691TMC3    C610272   3.144   2.690  16.096 -0.1156 -0.4523 -0.0631
  691TMC3     C10273   3.047   2.841  15.732 -0.2784 -0.2157 -0.2201
  691TMC3     O10274   2.951   2.903  15.707 -0.6048 -0.4711  0.1754
  691TMC3     H10275   2.977   2.944  15.951 -1.6887 -0.6215 -1.3307
  691TMC3    H110276   3.134   2.607  15.777 -0.3348 -1.7066  0.5149
  691TMC3    H210277   3.183   2.658  16.192 -1.2785 -0.8044  0.2868
  691TMC3    C710278   3.194   2.476  15.994 -0.0728 -0.1185  0.8326
  691TMC3    C810279   3.040   2.865  16.207  0.4136  0.3676 -0.2814
  691TMC3    O110280   3.166   2.415  15.893  0.2043  0.2002 -0.1180
  691TMC3    O210281   3.085   2.813  16.312 -0.2536 -0.2294 -0.1516
  692TMC3    C110282   0.849   3.661  16.149  0.1313  0.3686  0.8465
  692TMC3    C210283   0.977   3.694  16.193 -0.2043 -0.9294  0.2845
  692TMC3    C310284   1.048   3.601  16.268 -0.0523  0.0815  0.1047
  692TMC3    C410285   0.787   3.554  16.194 -0.3090  0.0888  0.0567
  692TMC3    C510286   0.847   3.474  16.283  0.7805 -0.1676 -0.0304
  692TMC3    C610287   0.982   3.493  16.317  0.2728  0.1848 -0.0579
  692TMC3     C10288   0.755   3.762  16.093 -0.0059  0.2915  0.1761
  692TMC3     O10289   0.637   3.742  16.077 -0.2677 -0.5140 -0.2498
  692TMC3     H10290   1.029   3.782  16.157 -2.0002  0.8082  1.9559
  692TMC3    H110291   0.688   3.525  16.161  0.8233 -3.8866  0.1141
  692TMC3    H210292   1.022   3.449  16.408 -0.5227  4.2133  2.2457
  692TMC3    C710293   0.767   3.389  16.371  0.0252 -0.4081  0.2489
  692TMC3    C810294   1.125   3.658  16.379  1.0659  0.6517  0.0883
  692TMC3    O110295   0.651   3.397  16.345 -0.2235  0.0312 -0.4081
  692TMC3    O210296   1.219   3.595  16.426 -0.1867  0.5226  0.2020
  693MPD2     C10297   0.253   2.465  11.074 -0.1429 -0.4010 -0.0240
  693MPD2    C110298   0.226   2.334  11.114  0.5657 -0.9081 -0.4173
  693MPD2    C210299   0.324   2.237  11.110 -0.0975 -0.1648  0.2300
  693MPD2    C310300   0.448   2.267  11.054 -0.2528 -1.0790  0.2595
  693MPD2    C410301   0.474   2.394  11.010 -0.1161 -0.1785 -0.1471
  693MPD2    C510302   0.383   2.494  11.023 -0.2238  0.1637  0.4955
  693MPD2     H10303   0.305   2.134  11.136 -1.1888 -0.1564 -0.5764
  693MPD2    H110304   0.566   2.415  10.958 -0.0611 -0.4342 -0.1566
  693MPD2    H210305   0.186   2.546  11.100 -1.2513 -1.9664  1.8928
  693MPD2    H310306   0.407   2.593  10.987 -1.0214 -0.0704 -0.6569
  693MPD2     N10307   0.559   2.175  11.024 -0.2266 -0.3880 -0.2778
  693MPD2    H510308   0.637   2.220  10.976  0.3998 -0.8076  0.3309
  693MPD2    N110309   0.094   2.311  11.161 -0.1621 -0.5563 -0.0277
  693MPD2    H710310   0.018   2.375  11.140  1.4502  1.3566 -0.0168
  694TMC3    C110311   4.644   2.213  11.260  0.3765 -0.2829 -0.5123
  694TMC3    C210312   4.561   2.195  11.151 -0.3937  0.2612  0.3053
  694TMC3    C310313   4.430   2.161  11.187 -0.0177  0.0414  0.1527
  694TMC3    C410314   4.613   2.176  11.387  0.0398 -0.2491 -0.0377
  694TMC3    C510315   4.483   2.143  11.417  0.6112 -0.2413  0.0616
  694TMC3    C610316   4.388   2.138  11.320  0.5339 -0.1754  0.1063
  694TMC3     C10317   0.047   2.206  11.237 -0.5028  0.6548  0.0885
  694TMC3     O10318   0.113   2.113  11.292  0.2137  0.3459 -0.0135
  694TMC3     H10319   4.584   2.221  11.049  1.1285  1.4934  0.9708
  694TMC3    H110320   4.688   2.194  11.463 -0.1682  2.4483 -0.4676
  694TMC3    H210321   4.282   2.134  11.340  0.3506 -2.1042 -1.2164
  694TMC3    C710322   4.459   2.145  11.559  0.7094 -0.4043  0.6766
  694TMC3    C810323   4.332   2.129  11.079 -0.0520  0.3177  0.6543
  694TMC3    O110324   4.535   2.209  11.630 -0.3003 -0.2350  0.2192
  694TMC3    O210325   4.245   2.047  11.111 -0.4450  0.1747  0.0840
  695MPD2     C10326   1.080   3.368  13.725  0.9243  0.1959 -0.3267
  695MPD2    C110327   1.052   3.466  13.823  0.7247 -0.1557 -0.1614
  695MPD2    C210328   0.951   3.554  13.800  0.2137 -0.2896 -0.4958
  695MPD2    C310329   0.877   3.552  13.683 -0.2416 -0.5715 -0.0874
  695MPD2    C410330   0.907   3.453  13.586  0.5048  0.1080 -0.1136
  695MPD2    C510331   1.017   3.376  13.607  0.4351 -0.0983 -0.0185
  695MPD2     H10332   0.914   3.621  13.877  1.8323 -0.2251  0.2349
  695MPD2    H110333   0.850   3.446  13.494 -0.7306  0.0959  0.6516
  695MPD2    H210334   1.159   3.295  13.735  0.7968  0.7092  4.2492
  695MPD2    H310335   1.055   3.311  13.529 -0.3737 -2.1272  1.2785
  695MPD2     N10336   0.766   3.641  13.674  0.4889  0.2618  0.0185
  695MPD2    H510337   0.749   3.701  13.754 -0.7723  1.0391 -0.8352
  695MPD2    N110338   1.106   3.467  13.957 -0.0980 -0.1430  0.6391
  695MPD2    H710339   1.077   3.548  14.010 -0.2930  0.3542 -0.2350
  696TMC3    C110340   0.557   3.718  13.620 -0.9058  0.6422  0.4378
  696TMC3    C210341   0.517   3.701  13.752  0.0327 -0.4143 -0.9366
  696TMC3    C310342   0.397   3.756  13.792  1.0235 -0.2709  0.1183
  696TMC3    C410343   0.493   3.803  13.535  0.1655 -0.7186 -0.0236
  696TMC3    C510344   0.382   3.872  13.588 -0.5678 -0.5384 -0.0089
  696TMC3    C610345   0.335   3.850  13.714 -0.1715  0.1113 -0.7784
  696TMC3     C10346   0.673   3.645  13.578 -0.5600  0.5327 -0.6046
  696TMC3     O10347   0.679   3.609  13.461 -1.0175  0.3812  0.2197
  696TMC3     H10348   0.561   3.626  13.817  0.7095  0.2505 -0.6154
  696TMC3    H110349   0.534   3.826  13.437  0.9458 -2.3529 -0.0783
  696TMC3    H210350   0.258   3.906  13.767 -0.5989 -2.8138  1.6981
  696TMC3    C710351   0.351   3.999  13.525 -0.5151  0.1505 -0.6027
  696TMC3    C810352   0.398   3.781  13.938  0.2699  0.2369  0.5091
  696TMC3    O110353   0.378   4.006  13.403 -0.2221  0.6216  0.1622
  696TMC3    O210354   0.506   3.793  13.995 -0.1513  0.5578  0.9239
  697MPD2     C10355   0.374   0.947  16.034 -0.3009 -0.9244  0.1569
  697MPD2    C110356   0.403   0.901  15.905  0.6153  0.0156 -0.2267
  697MPD2    C210357   0.438   0.996  15.810  0.2085 -0.9120  0.3236
  697MPD2    C310358   0.447   1.129  15.834  0.6904 -0.0792  0.2197
  697MPD2    C410359   0.425   1.170  15.963 -0.6107 -0.0333 -0.3204
  697MPD2    C510360   0.390   1.083  16.061  0.4605  0.5690 -0.7205
  697MPD2     H10361   0.469   0.958  15.714 -0.7619  0.4160 -0.5190
  697MPD2    H110362   0.436   1.271  16.000  1.8493 -0.8515  1.1832
  697MPD2    H210363   0.346   0.886  16.120 -0.8395  0.3061  0.8557
  697MPD2    H310364   0.387   1.123  16.162 -1.2091  0.6534 -0.8046
  697MPD2     N10365   0.491   1.216  15.738 -0.1382 -0.1283 -0.7566
  697MPD2    H510366   0.500   1.173  15.647 -0.5411 -1.6633 -0.0689
  697MPD2    N110367   0.404   0.762  15.863 -0.4403  0.1085 -0.3908
  697MPD2    H710368   0.406   0.745  15.763 -0.8208 -3.0933  0.1511
  698TMC3    C110369   0.558   1.424  15.633 -0.5702 -0.6551 -0.0364
  698TMC3    C210370   0.680   1.485  15.648  0.6602 -0.7711  0.4345
  698TMC3    C310371   0.762   1.510  15.542  0.3873 -0.3898 -0.2253
  698TMC3    C410372   0.531   1.383  15.505  0.3281  0.5334  0.4961
  698TMC3    C510373   0.616   1.402  15.398 -0.1578 -0.3131 -0.8651
  698TMC3    C610374   0.737   1.465  15.416 -0.1126  0.7180 -0.3496
  698TMC3     C10375   0.517   1.354  15.751  0.1713  0.5454 -0.1583
  698TMC3     O10376   0.554   1.399  15.857 -0.1073  0.7446  0.2091
  698TMC3     H10377   0.718   1.519  15.744  0.4777  0.1716  0.1668
  698TMC3    H110378   0.444   1.319  15.494 -0.0639  1.6102 -2.7700
  698TMC3    H210379   0.809   1.492  15.340 -2.5886 -2.0535 -3.6239
  698TMC3    C710380   0.560   1.353  15.269  0.7830 -0.2598 -0.4875
  698TMC3    C810381   0.898   1.531  15.583 -0.1576 -0.6488 -0.2091
  698TMC3    O110382   0.448   1.305  15.262 -0.1067  0.0111 -0.3632
  698TMC3    O210383   0.951   1.471  15.675 -0.3473  0.1942 -0.5883
  699TMC3    C110384   0.341   3.615  13.306  0.0085  0.0395 -0.1709
  699TMC3    C210385   0.381   3.513  13.388  0.3914  0.4227 -0.2445
  699TMC3    C310386   0.292   3.465  13.468  0.7915  0.6876  0.8817
  699TMC3    C410387   0.210   3.664  13.302 -1.2105  0.3058  0.5060
  699TMC3    C510388   0.120   3.612  13.387 -0.3197  0.0877  0.1894
  699TMC3    C610389   0.159   3.508  13.472 -0.1771 -0.0398 -0.5590
  699TMC3     C10390   0.436   3.682  13.220  0.2452  1.1080  0.7396
  699TMC3     O10391   0.373   3.761  13.145 -0.7676 -0.1151 -0.3903
  699TMC3     H10392   0.486   3.486  13.384  0.0746 -0.7431 -0.5702
  699TMC3    H110393   0.183   3.749  13.240 -2.0020  0.8458  1.6025
  699TMC3    H210394   0.093   3.474  13.551 -0.6799  1.0013 -0.5370
  699TMC3    C710395   0.040   3.710  13.446  0.1656  0.3175  0.4007
  699TMC3    C810396   0.333   3.422  13.599 -0.1392  0.0686 -0.7336
  699TMC3    O110397   0.049   3.725  13.570 -0.2584 -0.3923 -0.0500
  699TMC3    O210398   0.261   3.444  13.697 -0.0063  0.4107 -0.1489
  700TMC3    C110399   4.062   0.821  17.377  0.0846 -0.7377 -0.0792
  700TMC3    C210400   4.161   0.722  17.369  0.7389 -0.3403 -0.5895
  700TMC3    C310401   4.249   0.696  17.473  0.0197 -0.0257  0.4913
  700TMC3    C410402   4.058   0.889  17.490 -1.2885 -0.5831  1.0796
  700TMC3    C510403   4.154   0.869  17.591  0.1254  0.3362 -0.2675
  700TMC3    C610404   4.249   0.771  17.589  0.1597 -0.0768  0.1991
  700TMC3     C10405   4.016   0.890  17.253  0.2897  0.5112 -0.2353
  700TMC3     O10406   3.950   0.832  17.169 -0.3965 -0.3437 -0.2939
  700TMC3     H10407   4.167   0.679  17.270 -1.8011  2.3414 -1.8828
  700TMC3    H110408   4.005   0.983  17.485 -0.1064  0.0804  1.1100
  700TMC3    H210409   4.315   0.748  17.672 -0.8322 -0.5415  0.8530
  700TMC3    C710410   4.165   0.952  17.701  0.5025  0.4844  0.3321
  700TMC3    C810411   4.380   0.658  17.415 -0.0459  0.5869  0.1293
  700TMC3    O110412   4.281   0.973  17.739 -0.4201 -0.0736  0.1884
  700TMC3    O210413   4.386   0.622  17.297  0.1752  0.6097 -0.2897
  701TMC3    C110414   4.349   0.231  15.866  0.1137 -0.2485  0.2343
  701TMC3    C210415   4.321   0.231  15.734  0.4253  0.4866  1.3766
  701TMC3    C310416   4.401   0.305  15.646 -0.1931 -0.1752  0.3153
  701TMC3    C410417   4.448   0.318  15.915  0.3717 -0.9686  0.3056
  701TMC3    C510418   4.540   0.365  15.828 -0.2401  0.1400 -0.4723
  701TMC3    C610419   4.523   0.352  15.696 -0.6809 -0.5900 -0.6603
  701TMC3     C10420   4.258   0.176  15.962 -0.1318 -0.3841 -0.2667
  701TMC3     O10421   4.275   0.236  16.067  0.5303 -0.0611  0.4841
  701TMC3     H10422   4.236   0.174  15.697 -0.0055 -0.6562  4.0623
  701TMC3    H110423   4.473   0.335  16.018  1.6604 -1.8650  0.1405
  701TMC3    H210424   4.600   0.372  15.622 -0.7579 -0.5698 -0.7349
  701TMC3    C710425   4.616   0.483  15.852 -0.2540 -0.1790  0.0954
  701TMC3    C810426   4.378   0.306  15.508  0.3137  0.4586 -0.0302
  701TMC3    O110427   4.611   0.564  15.757 -0.2202  0.2470  0.4457
  701TMC3    O210428   4.469   0.347  15.437 -0.4464 -0.2208  0.0216
  702MPD2     C10429   3.535   2.338  11.076 -0.3929 -0.8788 -0.0282
  702MPD2    C110430   3.520   2.459  11.127 -0.7837  0.2464  0.1806
  702MPD2    C210431   3.512   2.566  11.046 -0.5105 -0.4072 -0.5904
  702MPD2    C310432   3.543   2.560  10.911  0.0986 -0.8522 -0.5989
  702MPD2    C410433   3.585   2.439  10.861  0.5613  0.4180  0.9075
  702MPD2    C510434   3.569   2.330  10.941  0.1705 -0.2634  0.7278
  702MPD2     H10435   3.474   2.661  11.082 -2.2565 -1.7776  1.1109
  702MPD2    H110436   3.593   2.429  10.753  0.8007  0.2906  0.9373
  702MPD2    H210437   3.528   2.246  11.132 -2.1935 -0.2888  0.7166
  702MPD2    H310438   3.580   2.229  10.902  0.1525 -0.5463  1.4580
  702MPD2     N10439   3.520   2.678  10.836 -0.2836 -0.0940 -0.3772
  702MPD2    H510440   3.469   2.752  10.882 -0.7732 -0.2629 -0.6435
  702MPD2    N110441   3.470   2.480  11.260 -0.2692  0.0418  0.4633
  702MPD2    H710442   3.449   2.576  11.285 -1.4593  0.0901 -0.6971
  703TMC3    C110443   3.523   2.845  10.694 -0.3410  0.6867  0.3598
  703TMC3    C210444   3.407   2.872  10.760 -0.1569 -0.4395 -0.2246
  703TMC3    C310445   3.406   2.973  10.859 -0.9035  0.0571 -0.3783
  703TMC3    C410446   3.630   2.929  10.710  0.2394  0.2457 -0.2556
  703TMC3    C510447   3.626   3.023  10.814 -0.5927  0.4103 -0.2761
  703TMC3    C610448   3.512   3.050  10.891  0.0809 -0.5852  0.4672
  703TMC3     C10449   3.565   2.708  10.709  0.2286  0.3721 -0.5517
  703TMC3     O10450   3.658   2.651  10.648  0.0653 -0.0701  0.1771
  703TMC3     H10451   3.327   2.800  10.745 -0.0997 -0.4502 -0.4678
  703TMC3    H110452   3.723   2.912  10.657 -0.2749  0.6143 -1.2964
  703TMC3    H210453   3.506   3.121  10.973  2.7743 -0.2821  0.4351
  703TMC3    C710454   3.740   3.111  10.834 -0.2076  0.2317 -0.7341
  703TMC3    C810455   3.306   2.939  10.961 -0.2216 -0.0770  0.1858
  703TMC3    O110456   3.831   3.111  10.751 -0.2376  0.4750 -0.0271
  703TMC3    O210457   3.268   2.822  10.947 -0.8292 -0.0114  0.1996
  704TMC3    C110458   1.380   1.177  12.841  0.0862 -0.3140  0.1141
  704TMC3    C210459   1.509   1.202  12.810  0.1702  0.1886 -0.1734
  704TMC3    C310460   1.611   1.141  12.873 -0.0969  0.2593 -0.0439
  704TMC3    C410461   1.345   1.086  12.942 -0.2004  0.9784 -0.1195
  704TMC3    C510462   1.446   1.022  13.010 -0.5655 -0.5066  0.1205
  704TMC3    C610463   1.574   1.052  12.978 -0.2667 -0.6289  0.4794
  704TMC3     C10464   1.306   1.150  12.719 -0.8767  0.9971  0.0376
  704TMC3     O10465   1.185   1.140  12.731  0.6352 -0.0772  0.3323
  704TMC3     H10466   1.540   1.272  12.733  0.6843  0.0794 -0.0652
  704TMC3    H110467   1.240   1.067  12.959 -0.4872  0.1921 -2.8803
  704TMC3    H210468   1.649   0.983  13.014  0.5622  0.0307  0.0155
  704TMC3    C710469   1.426   0.885  13.051  0.3261  0.5424 -0.6638
  704TMC3    C810470   1.709   1.083  12.782 -0.0943 -0.2104  0.4213
  704TMC3    O110471   1.500   0.804  12.999  1.0595  0.4390  0.1499
  704TMC3    O210472   1.685   1.097  12.660  0.9526 -0.2836 -0.4064
  705MPD2     C10473   1.422   3.246  16.710 -0.5734  0.3527 -0.1876
  705MPD2    C110474   1.345   3.337  16.636 -0.0722  0.4577 -0.4995
  705MPD2    C210475   1.224   3.385  16.679  0.7470  0.6345 -0.4930
  705MPD2    C310476   1.161   3.341  16.795 -0.0235  0.3306  0.3742
  705MPD2    C410477   1.231   3.247  16.871  0.1376  0.0957  0.4769
  705MPD2    C510478   1.362   3.211  16.829  0.2656  0.4935 -0.0129
  705MPD2     H10479   1.176   3.455  16.612 -3.4772 -2.8479 -1.1704
  705MPD2    H110480   1.195   3.217  16.968 -3.1384 -1.6420 -1.2912
  705MPD2    H210481   1.519   3.205  16.684  1.3953  2.8487  3.3381
  705MPD2    H310482   1.416   3.148  16.899 -2.0764 -2.1536 -0.5929
  705MPD2     N10483   1.029   3.386  16.830 -0.3623 -0.3557 -0.1617
  705MPD2    H510484   0.991   3.339  16.912 -1.0867  0.9920  0.2687
  705MPD2    N110485   1.385   3.380  16.512  0.6102 -1.0408 -0.1331
  705MPD2    H710486   1.339   3.459  16.468  0.4491 -0.6578  0.7342
  706TMC3    C110487   1.561   3.419  16.091  0.6911  0.1594  0.0007
  706TMC3    C210488   1.550   3.557  16.096  0.3783  0.4638 -0.4370
  706TMC3    C310489   1.519   3.607  16.220 -0.1162 -0.5025 -0.3344
  706TMC3    C410490   1.555   3.339  16.204 -0.2743  0.6337 -0.4248
  706TMC3    C510491   1.514   3.401  16.318  0.0404  0.2517 -0.2086
  706TMC3    C610492   1.495   3.532  16.334  0.4448 -0.8651 -1.2577
  706TMC3     C10493   1.644   3.361  15.989 -0.7243 -0.1199  0.1447
  706TMC3     O10494   1.709   3.263  16.019  0.4348 -0.2415 -0.1500
  706TMC3     H10495   1.552   3.619  16.007  0.6096 -1.6371 -1.8922
  706TMC3    H110496   1.567   3.231  16.203 -1.6843  0.4670  0.5575
  706TMC3    H210497   1.465   3.580  16.426  0.4954 -0.9120 -1.2171
  706TMC3    C710498   1.482   3.325  16.437 -0.4996  0.1047  0.0302
  706TMC3    C810499   1.487   3.746  16.233 -0.4448  0.5705  0.0201
  706TMC3    O110500   1.514   3.204  16.430  0.3934  0.7279  0.0480
  706TMC3    O210501   1.462   3.801  16.130 -1.1939 -0.4655  0.3412
  707TMC3    C110502   2.167   1.308   1.545 -0.3734 -0.2378 -0.0627
  707TMC3    C210503   2.146   1.422   1.477 -0.5992 -0.1769 -0.7251
  707TMC3    C310504   2.066   1.521   1.519 -0.0421 -0.0541  0.2436
  707TMC3    C410505   2.109   1.289   1.668  0.0715  0.9823  0.6489
  707TMC3    C510506   2.050   1.402   1.719 -0.0294  0.2152 -0.2433
  707TMC3    C610507   2.023   1.514   1.652 -0.1966  0.5112  0.5585
  707TMC3     C10508   2.237   1.208   1.463  0.6939  0.0103  0.3315
  707TMC3     O10509   2.280   1.244   1.351 -0.1761  0.1793 -0.1053
  707TMC3     H10510   2.190   1.436   1.379 -0.6349  0.1239 -0.6983
  707TMC3    H110511   2.096   1.187   1.704 -1.2512  1.2623  0.9596
  707TMC3    H210512   1.983   1.603   1.697  2.4330  1.9141  0.1681
  707TMC3    C710513   2.003   1.402   1.853 -0.0124 -0.0563  0.0780
  707TMC3    C810514   2.120   1.654   1.486 -0.7151  0.3640  0.5075
  707TMC3    O110515   1.926   1.488   1.900 -0.3630  0.0640  0.1332
  707TMC3    O210516   2.211   1.694   1.560  0.5500 -0.3052  0.5925
  708MPD2     C10517   4.272   2.428  14.087  0.6447 -0.4122 -0.6192
  708MPD2    C110518   4.181   2.415  14.186 -0.0065 -0.4470 -0.1960
  708MPD2    C210519   4.215   2.328  14.284  0.7076  0.4418  0.3197
  708MPD2    C310520   4.332   2.254  14.300 -0.1358  0.4799  0.2180
  708MPD2    C410521   4.424   2.278  14.202  0.3149 -0.0092 -0.6082
  708MPD2    C510522   4.391   2.361  14.094  0.2888  0.5883  0.6277
  708MPD2     H10523   4.134   2.301  14.352 -0.2420 -0.4222 -1.1370
  708MPD2    H110524   4.522   2.231  14.206 -0.0023 -0.7619 -2.0490
  708MPD2    H210525   4.250   2.475  13.992 -0.7144  0.0327 -0.0844
  708MPD2    H310526   4.466   2.376  14.017 -0.4956  1.4676  0.0347
  708MPD2     N10527   4.352   2.153  14.395  0.0138 -0.3298  0.1479
  708MPD2    H510528   4.443   2.109  14.403 -0.4371 -0.9987  1.7794
  708MPD2    N110529   4.059   2.484  14.199  0.0715 -0.3619 -0.5725
  708MPD2    H710530   4.003   2.463  14.281 -0.0382  2.1518 -0.0250
  709TMC3    C110531   3.871   2.602  14.142  0.0639 -0.1507  0.2093
  709TMC3    C210532   3.786   2.551  14.049  0.1546 -0.6948 -0.5108
  709TMC3    C310533   3.681   2.482  14.097 -0.0288 -0.2686 -0.4376
  709TMC3    C410534   3.848   2.600  14.276 -0.8439 -0.0335  0.2589
  709TMC3    C510535   3.739   2.533  14.317 -0.2849 -0.1591 -0.3001
  709TMC3    C610536   3.651   2.474  14.228 -0.1827 -0.3746 -0.6488
  709TMC3     C10537   4.008   2.572  14.109 -0.7622 -0.1429  0.3410
  709TMC3     O10538   4.035   2.592  13.989 -0.0763 -0.2222  0.4167
  709TMC3     H10539   3.825   2.539  13.949 -0.2370 -2.1496 -0.4867
  709TMC3    H110540   3.922   2.640  14.344  1.0996 -3.3653  0.1158
  709TMC3    H210541   3.569   2.410  14.259  1.2312 -1.6259  0.5592
  709TMC3    C710542   3.783   2.426  14.407  0.6653 -0.2353 -0.1154
  709TMC3    C810543   3.629   2.374  14.019 -0.3266  0.1865 -0.0481
  709TMC3    O110544   3.905   2.422  14.412  0.1916 -0.5057  0.2759
  709TMC3    O210545   3.591   2.276  14.081  0.6389 -0.4586  0.3357
  710TMC3    C110546   0.502   2.272   0.186 -0.1887 -0.1663  0.1279
  710TMC3    C210547   0.570   2.352   0.095  0.1255 -0.2946 -0.2624
  710TMC3    C310548   0.706   2.333   0.083 -0.0498  0.6917 -0.0854
  710TMC3    C410549   0.565   2.167   0.250 -0.1323 -0.7525 -0.5578
  710TMC3    C510550   0.699   2.142   0.224 -0.2012  0.5032 -0.3063
  710TMC3    C610551   0.766   2.226   0.144  0.1436  0.0989 -0.8728
  710TMC3     C10552   0.365   2.290   0.201 -0.4911  0.1805 -0.4824
  710TMC3     O10553   0.289   2.193   0.221 -0.0576 -0.2001 -0.3983
  710TMC3     H10554   0.532   2.440   0.045  0.4443  0.0051  0.0224
  710TMC3    H110555   0.514   2.099   0.317 -0.8558 -0.0356 -0.3774
  710TMC3    H210556   0.873   2.213   0.133  0.3463  0.0709  1.0600
  710TMC3    C710557   0.758   2.084   0.342  0.1063  0.3119 -0.2534
  710TMC3    C810558   0.781   2.449   0.040  0.1352  0.9611  0.1025
  710TMC3    O110559   0.715   2.128   0.445 -0.0942  0.2664 -0.4211
  710TMC3    O210560   0.727   2.528  17.707  0.0405  0.1887 -0.1784
  711TMC3    C110561   0.249   4.508  15.343  0.0572  0.4738  0.1202
  711TMC3    C210562   0.295   4.608  15.425  0.6815 -0.2187 -0.8400
  711TMC3    C310563   0.426   4.612  15.460 -0.0328 -0.3318 -0.6080
  711TMC3    C410564   0.336   4.421  15.286 -0.4412  0.2375  0.5829
  711TMC3    C510565   0.473   4.429  15.305 -0.1804 -0.0241 -0.0378
  711TMC3    C610566   0.518   4.516  15.400 -0.0392 -0.0337  0.5007
  711TMC3     C10567   0.112   4.502  15.301 -0.0982  0.1341 -0.0582
  711TMC3     O10568   0.073   4.392  15.264  0.2311 -0.0181 -0.6567
  711TMC3     H10569   0.224   4.684  15.456  1.5915  0.1960  0.2247
  711TMC3    H110570   0.292   4.353  15.214  0.7841 -1.1660  1.1594
  711TMC3    H210571   0.626   4.515  15.409  0.0460  0.7867 -0.5110
  711TMC3    C710572   0.534   4.299  15.338  0.0906  0.0996  0.2375
  711TMC3    C810573   0.455   4.674  15.582 -0.1047  0.2672 -1.0835
  711TMC3    O110574   0.600   4.295  15.441  0.1626 -0.2708 -0.3350
  711TMC3    O210575   0.366   4.735  15.641  0.0571 -0.2305 -0.7068
  712MPD2     C10576   1.090   0.867  13.612  1.1094  0.1708 -0.3908
  712MPD2    C110577   1.074   0.960  13.515  0.0694 -0.3992 -0.5100
  712MPD2    C210578   1.149   1.077  13.523  0.0973  0.3873 -0.4703
  712MPD2    C310579   1.226   1.101  13.634 -1.2792  0.0150 -0.0504
  712MPD2    C410580   1.228   1.011  13.741 -0.2536  0.0567  0.3486
  712MPD2    C510581   1.162   0.892  13.733  0.1055 -0.4941  0.3328
  712MPD2     H10582   1.134   1.158  13.452 -0.8308  0.1821 -0.5082
  712MPD2    H110583   1.271   1.040  13.837  0.4828 -2.2474  0.7283
  712MPD2    H210584   1.035   0.775  13.598  1.9528 -0.2951 -0.6170
  712MPD2    H310585   1.146   0.825  13.817 -1.2233  1.8809  1.9778
  712MPD2     N10586   1.299   1.218  13.637  0.3163 -0.6382 -0.5241
  712MPD2    H510587   1.294   1.268  13.548 -0.5337 -0.8775 -0.6087
  712MPD2    N110588   0.965   0.936  13.421 -0.2230 -0.3663  0.0053
  712MPD2    H710589   0.907   0.854  13.433 -1.3792  0.6352  1.4101
  713TMC3    C110590   1.457   1.377  13.714  0.0485 -1.1092 -0.0523
  713TMC3    C210591   1.591   1.388  13.739  0.0529 -0.6393 -0.2006
  713TMC3    C310592   1.648   1.511  13.719  0.0076  0.0080  0.4932
  713TMC3    C410593   1.381   1.495  13.687  0.4132 -0.5194  0.4466
  713TMC3    C510594   1.446   1.618  13.683  0.2574 -0.6690  0.3762
  713TMC3    C610595   1.582   1.625  13.692  0.4290 -0.6476  0.2646
  713TMC3     C10596   1.400   1.245  13.719 -0.9340  0.2029  0.0219
  713TMC3     O10597   1.450   1.165  13.791 -0.4150  0.4240 -0.2868
  713TMC3     H10598   1.645   1.296  13.754  1.6866  0.6659  1.8737
  713TMC3    H110599   1.274   1.489  13.672  0.6960 -0.3454 -1.7199
  713TMC3    H210600   1.639   1.718  13.686 -0.7267  0.2158  2.6016
  713TMC3    C710601   1.389   1.753  13.692  0.4063  0.8385 -0.4041
  713TMC3    C810602   1.786   1.517  13.686 -0.2227 -0.1382 -0.8160
  713TMC3    O110603   1.462   1.848  13.714 -0.5030 -0.2580  0.3432
  713TMC3    O210604   1.804   1.587  13.587  0.1847  0.0505 -0.1085
  714MPD2     C10605   3.973   3.400   0.832  0.1545 -0.5692 -0.0326
  714MPD2    C110606   4.002   3.397   0.965 -0.3974  0.2323  0.0273
  714MPD2    C210607   3.894   3.426   1.049 -0.1726  0.2787  0.9792
  714MPD2    C310608   3.766   3.446   0.999  0.1503  0.2835 -0.1314
  714MPD2    C410609   3.740   3.434   0.864  0.6925 -0.0863  0.4986
  714MPD2    C510610   3.843   3.421   0.783 -0.5295 -0.5628  0.1777
  714MPD2     H10611   3.910   3.414   1.156 -0.0513  2.7147  1.2344
  714MPD2    H110612   3.644   3.465   0.825  0.1255 -1.2008  1.0071
  714MPD2    H210613   4.041   3.385   0.749  2.1171 -0.9826  1.6634
  714MPD2    H310614   3.832   3.428   0.676 -2.1705 -2.4119  0.2441
  714MPD2     N10615   3.655   3.452   1.092  0.1246  0.1440  0.4483
  714MPD2    H510616   3.677   3.425   1.187 -1.8896 -0.3407  0.7770
  714MPD2    N110617   4.135   3.369   1.009 -0.4069 -0.3775  0.5290
  714MPD2    H710618   4.213   3.350   0.947 -1.4747 -0.5298 -0.7647
  715TMC3    C110619   4.302   3.320   1.172  0.8442  0.3325 -0.0159
  715TMC3    C210620   4.337   3.215   1.100  1.4561 -0.3931  0.3955
  715TMC3    C310621   4.467   3.162   1.102  0.0509 -0.3999 -0.4100
  715TMC3    C410622   4.385   3.386   1.251  0.1372 -0.4846 -0.3670
  715TMC3    C510623   4.516   3.343   1.256 -0.3323  0.2783 -0.5504
  715TMC3    C610624   4.555   3.237   1.174  0.1150 -0.5729  0.7750
  715TMC3     C10625   4.174   3.389   1.137 -0.2208 -0.2212 -0.0329
  715TMC3     O10626   4.122   3.463   1.223 -0.3847  0.9116 -0.1911
  715TMC3     H10627   4.264   3.171   1.032  1.0748  2.4400 -0.9956
  715TMC3    H110628   4.354   3.480   1.294 -0.0068 -0.5249 -0.3850
  715TMC3    H210629   4.659   3.210   1.157  0.1094  0.9651 -1.7499
  715TMC3    C710630   4.625   3.421   1.306  0.4085  0.7762 -0.6430
  715TMC3    C810631   4.511   3.056   1.005  0.5179  0.0865  0.7046
  715TMC3    O110632   4.735   3.407   1.255  0.0571 -0.6279 -0.2222
  715TMC3    O210633   4.437   3.023   0.916 -0.2835  0.0242  0.3888
  716MPD2     C10634   4.254   3.188   9.840 -0.3010  0.0384 -0.8762
  716MPD2    C110635   4.133   3.162   9.902 -0.4388  0.4149 -0.0166
  716MPD2    C210636   4.083   3.033   9.897  0.6181 -0.1238  0.1436
  716MPD2    C310637   4.154   2.933   9.835  0.1671  0.0407  0.2562
  716MPD2    C410638   4.275   2.958   9.770 -0.3837 -0.5212  0.5755
  716MPD2    C510639   4.317   3.085   9.764  0.2601  0.1023 -0.6247
  716MPD2     H10640   3.989   2.999   9.939  1.4628 -0.9378  1.3929
  716MPD2    H110641   4.314   2.888   9.697 -0.7604  0.4416 -0.5509
  716MPD2    H210642   4.304   3.284   9.832  0.6536 -0.5273 -1.6771
  716MPD2    H310643   4.415   3.106   9.721  2.3681 -1.5883  3.3597
  716MPD2     N10644   4.091   2.803   9.830 -0.1280  0.3184 -0.2382
  716MPD2    H510645   4.004   2.787   9.881  1.7138 -0.7427  2.5639
  716MPD2    N110646   4.068   3.278   9.958  0.3565  0.4982 -0.0475
  716MPD2    H710647   4.122   3.363   9.943 -1.3525  1.4773 -0.6024
  717TMC3    C110648   4.072   2.574   9.788 -0.0581 -0.7002  0.4150
  717TMC3    C210649   3.939   2.597   9.769  0.2407  0.4277  0.6745
  717TMC3    C310650   3.859   2.495   9.794 -0.3788  0.7356  0.3446
  717TMC3    C410651   4.126   2.453   9.827  0.5332 -0.3143  0.4234
  717TMC3    C510652   4.035   2.357   9.862 -1.0239 -0.1701  0.6063
  717TMC3    C610653   3.898   2.377   9.847  0.2673  0.0040  0.7095
  717TMC3     C10654   4.155   2.685   9.785  0.3787  0.4052  0.3064
  717TMC3     O10655   4.267   2.667   9.738 -0.1491  0.0655 -0.4297
  717TMC3     H10656   3.902   2.685   9.717  0.3557  0.5270  0.7587
  717TMC3    H110657   4.231   2.440   9.852  0.5200 -2.3105 -0.5419
  717TMC3    H210658   3.830   2.293   9.856  0.3243 -0.0014  1.0865
  717TMC3    C710659   4.083   2.238   9.915 -0.3509  0.0452 -0.2492
  717TMC3    C810660   3.720   2.536   9.809  0.8864  0.2691  0.4438
  717TMC3    O110661   4.009   2.181   9.993  0.1320 -0.2449 -0.0165
  717TMC3    O210662   3.697   2.656   9.798 -0.2837  0.7398  0.4916
  718MPD2     C10663   3.230   0.704  13.392  0.4261  0.7707 -0.0602
  718MPD2    C110664   3.195   0.685  13.259 -0.5003  0.2200 -0.5880
  718MPD2    C210665   3.054   0.699  13.226  0.0584 -0.7723 -1.0450
  718MPD2    C310666   2.958   0.722  13.321  0.2549 -1.1261  0.0237
  718MPD2    C410667   2.995   0.737  13.451 -0.3774 -0.3808  0.1392
  718MPD2    C510668   3.130   0.736  13.479 -0.3135 -0.8486  0.4204
  718MPD2     H10669   3.040   0.703  13.119  1.8109  0.2256 -1.2255
  718MPD2    H110670   2.926   0.758  13.533 -3.0723 -1.1083 -1.9556
  718MPD2    H210671   3.331   0.702  13.430 -0.0406  0.1496  1.1445
  718MPD2    H310672   3.153   0.748  13.584  0.7325  1.0796 -0.0467
  718MPD2     N10673   2.824   0.726  13.274 -0.2101 -0.3497  0.1565
  718MPD2    H510674   2.821   0.699  13.176 -0.9592  1.7417 -0.3898
  718MPD2    N110675   3.302   0.680  13.170 -0.3535 -0.8223 -0.3187
  718MPD2    H710676   3.396   0.706  13.195 -0.3458 -0.0610 -1.1561
  719TMC3    C110677   3.386   0.657  12.956  0.0530 -0.1051 -0.3877
  719TMC3    C210678   3.361   0.596  12.838 -0.7533 -0.0583  0.5073
  719TMC3    C310679   3.368   0.657  12.719 -0.4059  0.6950 -0.2644
  719TMC3    C410680   3.441   0.782  12.950  0.6752  0.3886 -0.0854
  719TMC3    C510681   3.464   0.841  12.825 -0.0193  0.0859  0.3756
  719TMC3    C610682   3.431   0.780  12.705  0.4867  0.7793 -0.3021
  719TMC3     C10683   3.279   0.633  13.044 -0.0995 -0.3814  0.1279
  719TMC3     O10684   3.178   0.583  12.995 -0.0591  0.5566 -0.0799
  719TMC3     H10685   3.316   0.498  12.834  2.0443 -1.2306 -1.8734
  719TMC3    H110686   3.474   0.828  13.043  0.3239 -0.4486  0.4531
  719TMC3    H210687   3.444   0.825  12.607  1.2526 -3.1386 -1.9891
  719TMC3    C710688   3.517   0.977  12.812 -0.2725  0.5331  0.6771
  719TMC3    C810689   3.251   0.650  12.639 -0.6062 -0.6645  0.0776
  719TMC3    O110690   3.571   1.011  12.708  0.6214 -0.1119  0.0606
  719TMC3    O210691   3.252   0.669  12.514 -0.8893 -0.5388 -0.2980
  720MPD2     C10692   1.449   2.648  14.303  0.4057 -0.0029 -0.2655
  720MPD2    C110693   1.544   2.717  14.233  0.2039  0.4394  0.6476
  720MPD2    C210694   1.660   2.742  14.293  0.0238 -0.5479  0.0294
  720MPD2    C310695   1.680   2.721  14.431 -0.0090 -0.5441  0.3912
  720MPD2    C410696   1.572   2.675  14.496  0.2889 -0.0633 -0.8801
  720MPD2    C510697   1.458   2.632  14.439 -0.4664 -0.3078  0.5729
  720MPD2     H10698   1.744   2.789  14.243  1.3892 -1.6410  1.3036
  720MPD2    H110699   1.582   2.643  14.599  1.5729  0.5421 -0.8167
  720MPD2    H210700   1.356   2.618  14.255  1.5146  1.4106 -3.3101
  720MPD2    H310701   1.388   2.580  14.504 -0.3632 -0.9539  0.1689
  720MPD2     N10702   1.799   2.744  14.499  0.0510  0.2685  0.2494
  720MPD2    H510703   1.883   2.780  14.455  0.7225 -0.6299  0.7933
  720MPD2    N110704   1.521   2.771  14.100 -0.3063 -0.3142  0.2946
  720MPD2    H710705   1.595   2.828  14.061 -2.4666  1.4645 -1.2193
  721TMC3    C110706   1.963   2.787  14.664  0.1781 -0.4747 -0.4532
  721TMC3    C210707   1.988   2.823  14.793 -0.0496 -0.0608 -0.8213
  721TMC3    C310708   2.118   2.857  14.822 -0.0482 -0.1779  0.0674
  721TMC3    C410709   2.064   2.786  14.564 -0.6111 -0.1951  0.5902
  721TMC3    C510710   2.187   2.828  14.604 -0.8481 -0.4351  0.0078
  721TMC3    C610711   2.216   2.864  14.731 -0.4235 -0.0434  0.1905
  721TMC3     C10712   1.830   2.728  14.628 -0.2924 -0.0220  0.6466
  721TMC3     O10713   1.766   2.675  14.718 -0.1444 -0.8842  0.0615
  721TMC3     H10714   1.907   2.841  14.862  1.9927  0.7894  1.3566
  721TMC3    H110715   2.047   2.773  14.458 -0.3422  3.6993  0.0820
  721TMC3    H210716   2.316   2.901  14.751  1.1711 -4.5503  0.6098
  721TMC3    C710717   2.294   2.759  14.541  0.2019 -0.7738 -0.5290
  721TMC3    C810718   2.161   2.895  14.954 -0.7785 -0.5588 -0.0827
  721TMC3    O110719   2.331   2.790  14.425 -0.5592  0.3238  0.0201
  721TMC3    O210720   2.285   2.874  14.971  0.1153 -0.0439  0.0401
  722MPD2     C10721   0.519   1.854  12.916  0.2216  0.0441  1.2433
  722MPD2    C110722   0.493   1.897  13.048 -0.0269 -0.1940 -0.5026
  722MPD2    C210723   0.382   1.848  13.113  0.0040 -0.6293 -0.0308
  722MPD2    C310724   0.290   1.777  13.044  0.1920 -0.2357  0.3869
  722MPD2    C410725   0.320   1.731  12.919 -0.7264 -0.2756  0.0986
  722MPD2    C510726   0.440   1.759  12.859  0.5945 -0.1880 -0.5257
  722MPD2     H10727   0.360   1.891  13.211 -2.2915 -0.6784 -0.5220
  722MPD2    H110728   0.262   1.655  12.867  0.1946 -0.9315  0.0272
  722MPD2    H210729   0.614   1.874  12.870 -1.2493  2.7832 -0.5709
  722MPD2    H310730   0.459   1.717  12.761 -0.5060 -1.9714  0.0392
  722MPD2     N10731   0.160   1.759  13.095 -0.2454 -0.7172  0.2687
  722MPD2    H510732   0.150   1.786  13.192  0.6926  0.0951  0.1268
  722MPD2    N110733   0.578   1.980  13.124 -0.2369  0.6093  0.4246
  722MPD2    H710734   0.559   1.988  13.223  0.7631  2.4292  0.4759
  723TMC3    C110735   4.677   1.689  13.126  0.0425  0.0791 -0.3130
  723TMC3    C210736   4.593   1.580  13.130 -0.5933 -0.0886  0.0408
  723TMC3    C310737   4.483   1.581  13.217  1.0396 -0.5223  0.7255
  723TMC3    C410738   4.658   1.799  13.205 -0.1282  0.1740  0.0882
  723TMC3    C510739   4.547   1.800  13.281  0.2738  0.0173 -0.5055
  723TMC3    C610740   4.460   1.692  13.290 -0.2886  0.7030 -0.1675
  723TMC3     C10741   0.054   1.684  13.040  0.4627  0.0537 -0.1625
  723TMC3     O10742   0.052   1.610  12.944  0.6702  0.4078 -0.7164
  723TMC3     H10743   4.617   1.494  13.070  1.7201  1.2033 -0.8942
  723TMC3    H110744   4.711   1.893  13.198  1.3921 -0.7963 -1.3224
  723TMC3    H210745   4.380   1.700  13.362  1.4424 -0.0129  1.8506
  723TMC3    C710746   4.506   1.929  13.329  0.3751 -0.3193  0.4812
  723TMC3    C810747   4.393   1.470  13.222 -0.1545  0.0166 -1.0155
  723TMC3    O110748   4.590   1.997  13.393 -0.0543 -0.2616  0.6575
  723TMC3    O210749   4.290   1.494  13.289  0.0598  0.3957  0.4556
  724TMC3    C110750   0.879   0.185  11.210 -0.1919  0.1325 -0.0785
  724TMC3    C210751   0.810   0.081  11.156  0.3794 -0.6939 -0.3813
  724TMC3    C310752   0.760   0.099  11.032  0.2635  0.0168 -0.5696
  724TMC3    C410753   0.908   0.299  11.153 -0.2867  0.5169  0.1254
  724TMC3    C510754   0.874   0.309  11.024 -0.6282 -0.4401  0.2125
  724TMC3    C610755   0.803   0.210  10.960 -0.1771 -0.9578  0.2473
  724TMC3     C10756   0.924   0.160  11.343  0.1632  0.0378 -0.2052
  724TMC3     O10757   0.968   0.052  11.376 -0.1478  0.0090 -0.5026
  724TMC3     H10758   0.772   0.014  11.232 -1.6567  1.0114  0.1017
  724TMC3    H110759   0.964   0.376  11.204  1.2650  0.2336 -1.1400
  724TMC3    H210760   0.782   0.237  10.857  1.2769 -2.7401 -0.5060
  724TMC3    C710761   0.968   0.385  10.938 -0.0916  0.1828  0.4630
  724TMC3    C810762   0.665   0.002  10.980  0.9180  0.1849  0.4073
  724TMC3    O110763   1.000   0.497  10.979 -0.3932  0.2158  0.4853
  724TMC3    O210764   0.616   4.656  11.058  0.1253  0.4032  0.0213
  725TMC3    C110765   2.020   3.191  13.194 -0.1044 -0.5039  0.6363
  725TMC3    C210766   1.919   3.216  13.108 -0.1131 -0.0358  0.0197
  725TMC3    C310767   1.881   3.113  13.021 -0.2441 -0.3096 -0.5303
  725TMC3    C410768   2.083   3.068  13.206  0.7756 -0.3728 -0.3362
  725TMC3    C510769   2.040   2.964  13.125 -0.0631 -0.2637 -0.0958
  725TMC3    C610770   1.945   2.989  13.030 -0.0620 -0.6211  0.3891
  725TMC3     C10771   2.038   3.292  13.295  0.0932  0.0332  0.5603
  725TMC3     O10772   1.996   3.403  13.263  0.5518 -0.6624  0.0263
  725TMC3     H10773   1.864   3.309  13.108 -0.3653 -0.1870 -0.5611
  725TMC3    H110774   2.163   3.054  13.278  1.7750 -0.5118 -1.4751
  725TMC3    H210775   1.905   2.906  12.973  3.3437 -2.1321  0.1467
  725TMC3    C710776   2.120   2.849  13.107 -0.2359  0.6387  0.2951
  725TMC3    C810777   1.800   3.144  12.902 -0.0722  0.2723  0.5576
  725TMC3    O110778   2.083   2.779  13.018  0.0183 -0.0719 -0.2836
  725TMC3    O210779   1.726   3.057  12.849  0.3841 -0.2748 -0.2004
  726MPD2     C10780   4.522   0.044  10.824 -0.2561 -0.2660  0.2439
  726MPD2    C110781   4.417   0.120  10.785  0.5518  0.0322  0.3308
  726MPD2    C210782   4.287   0.080  10.793  0.0181  0.6615  0.5554
  726MPD2    C310783   4.265   4.689  10.850  0.1148 -0.0755 -0.3166
  726MPD2    C410784   4.376   4.607  10.869  0.7809 -0.2893 -0.0725
  726MPD2    C510785   4.499   4.648  10.854  0.1786  0.0785  0.1527
  726MPD2     H10786   4.201   0.140  10.764  0.5188  1.8608  1.5321
  726MPD2    H110787   4.371   4.503  10.901 -0.6829  0.3152  1.6179
  726MPD2    H210788   4.627   0.070  10.826  0.0730 -1.6011 -0.0616
  726MPD2    H310789   4.578   4.576  10.868 -0.4512 -0.6842 -0.2497
  726MPD2     N10790   4.139   4.625  10.885 -0.1595 -0.1253 -0.1532
  726MPD2    H510791   4.143   4.535  10.931 -0.1032 -0.1502 -0.2071
  726MPD2    N110792   4.439   0.245  10.728 -0.2246 -0.1670  0.1358
  726MPD2    H710793   4.353   0.283  10.691 -0.1326  1.1642  1.2901
  727TMC3    C110794   4.568   0.439  10.652  0.1186 -0.2292 -0.1048
  727TMC3    C210795   4.684   0.508  10.692  0.0374  0.0094 -0.5852
  727TMC3    C310796   4.734   0.600  10.603 -0.1213  0.0268  0.0320
  727TMC3    C410797   4.502   0.466  10.529  0.0752  0.8612  0.1627
  727TMC3    C510798   4.555   0.565  10.452  0.7379 -0.0604 -0.2963
  727TMC3    C610799   4.670   0.635  10.481  0.2117 -0.0578 -0.6340
  727TMC3     C10800   4.562   0.307  10.716 -0.2630  0.1770 -0.3064
  727TMC3     O10801   4.673   0.278  10.763 -0.2350 -0.3561 -0.0911
  727TMC3     H10802   4.728   0.497  10.790 -0.2686  1.7137 -0.2666
  727TMC3    H110803   4.413   0.412  10.498 -0.5221  2.2250 -0.5044
  727TMC3    H210804   4.714   0.692  10.399  1.3202  0.5619  0.4042
  727TMC3    C710805   4.503   0.574  10.318 -0.3110 -0.1601 -0.4068
  727TMC3    C810806   0.125   0.652  10.644  0.2805 -0.2515 -0.5727
  727TMC3    O110807   4.453   0.475  10.272 -0.2364  0.0755  0.1873
  727TMC3    O210808   0.181   0.592  10.733  0.5352 -0.0357 -0.1012
  728TMC3    C110809   3.745   3.148  15.454 -1.0574  0.7972 -0.5098
  728TMC3    C210810   3.852   3.133  15.540 -0.6933  0.1740 -0.4236
  728TMC3    C310811   3.962   3.211  15.521 -0.4100 -0.0695 -0.1873
  728TMC3    C410812   3.747   3.242  15.355 -0.0099  0.1307  0.0664
  728TMC3    C510813   3.859   3.316  15.344  0.0117  0.0186  0.4371
  728TMC3    C610814   3.967   3.298  15.420 -0.6926  0.1928 -0.2320
  728TMC3     C10815   3.627   3.081  15.504 -0.0279  0.9296 -0.3729
  728TMC3     O10816   3.634   2.996  15.591  0.7249  0.1044 -0.4915
  728TMC3     H10817   3.864   3.052  15.611  1.0071  2.2206  1.6338
  728TMC3    H110818   3.658   3.270  15.299  0.8875  3.2648  0.1532
  728TMC3    H210819   4.061   3.331  15.377 -0.4130  0.5514  0.6592
  728TMC3    C710820   3.884   3.367  15.211  0.3096 -0.0688  0.4349
  728TMC3    C810821   4.070   3.197  15.618 -0.0836  0.7742  0.8045
  728TMC3    O110822   3.815   3.313  15.124  0.7084 -0.3770  0.3259
  728TMC3    O210823   4.059   3.115  15.712 -0.1666 -0.4812 -0.0766
  729MPD2     C10824   1.871   4.022  16.801  0.0207 -0.2230 -0.5686
  729MPD2    C110825   1.978   4.102  16.845 -0.4984  0.1509 -0.3186
  729MPD2    C210826   1.960   4.176  16.962  0.7543  0.2250  0.7096
  729MPD2    C310827   1.854   4.164  17.045  0.1800  0.5162  0.0033
  729MPD2    C410828   1.763   4.072  17.012  0.3594  0.2998  0.7145
  729MPD2    C510829   1.770   4.002  16.884  0.0737  0.0653  0.5050
  729MPD2     H10830   2.039   4.242  16.997 -0.6399  1.2478  1.8895
  729MPD2    H110831   1.675   4.051  17.072 -1.1863 -0.9736 -1.9742
  729MPD2    H210832   1.875   3.953  16.717 -0.7272  0.2310 -0.9750
  729MPD2    H310833   1.689   3.936  16.857 -1.6376  1.0487  3.2417
  729MPD2     N10834   1.832   4.247  17.162 -0.3590  0.7358  0.4394
  729MPD2    H510835   1.771   4.209  17.234  0.4477 -0.5955  0.4183
  729MPD2    N110836   2.098   4.111  16.766  0.3205  0.3656 -0.3695
  729MPD2    H710837   2.100   4.062  16.677 -1.6320 -0.5965  0.1199
  730TMC3    C110838   1.849   4.441  17.307 -0.2598 -0.2775  0.5421
  730TMC3    C210839   1.922   4.554  17.334  0.5815 -1.1719 -0.6051
  730TMC3    C310840   1.901   4.624  17.446  0.1980 -0.1479 -0.3770
  730TMC3    C410841   1.733   4.415  17.372  0.6086 -0.2917  1.0713
  730TMC3    C510842   1.706   4.503  17.482 -0.2165 -0.2465  0.5616
  730TMC3    C610843   1.793   4.598  17.525 -0.0997 -0.1810 -0.4390
  730TMC3     C10844   1.890   4.369  17.183 -0.1162  0.4364 -0.1065
  730TMC3     O10845   1.957   4.438  17.106 -0.3662 -0.1854  0.0967
  730TMC3     H10846   2.001   4.584  17.266  0.3120 -0.7596 -0.7318
  730TMC3    H110847   1.663   4.337  17.343 -0.6926  0.5202  2.0107
  730TMC3    H210848   1.762   4.668  17.602 -1.1437 -2.2222  1.0054
  730TMC3    C710849   1.571   4.491  17.545  0.0188  0.1259  0.1885
  730TMC3    C810850   1.954   0.021  17.457  0.3610 -0.3515 -0.1755
  730TMC3    O110851   1.526   4.376  17.541  0.0785 -0.9287 -0.0453
  730TMC3    O210852   2.000   0.078  17.358 -0.1400 -0.6844 -0.4185
  731MPD2     C10853   1.109   2.262  12.794 -0.4535 -0.3593  0.0089
  731MPD2    C110854   1.232   2.220  12.751  0.0263 -0.0533 -0.5767
  731MPD2    C210855   1.309   2.134  12.830 -0.5070  0.3288 -0.6939
  731MPD2    C310856   1.251   2.100  12.951 -0.4192  0.8305  0.1115
  731MPD2    C410857   1.124   2.138  12.995  0.0190 -0.0427  0.3988
  731MPD2    C510858   1.060   2.224  12.910 -0.6180 -0.1396 -0.4206
  731MPD2     H10859   1.407   2.100  12.802  0.0831  0.8369  0.7222
  731MPD2    H110860   1.079   2.106  13.089 -0.0408  0.0543  0.4031
  731MPD2    H210861   1.040   2.320  12.732 -0.0600 -0.8090 -0.8517
  731MPD2    H310862   0.953   2.229  12.931 -0.9746  0.0577 -2.2685
  731MPD2     N10863   1.337   2.021  13.028  0.2461 -0.0322 -0.2407
  731MPD2    H510864   1.431   2.021  12.990  0.7414  1.1520  0.9450
  731MPD2    N110865   1.275   2.272  12.624 -0.1162 -0.3457 -0.0144
  731MPD2    H710866   1.203   2.308  12.564 -0.5330 -0.1183  0.6223
  732TMC3    C110867   1.419   2.325  12.449 -0.6678 -0.4848 -0.2073
  732TMC3    C210868   1.333   2.423  12.405 -0.3211 -0.3217  0.0271
  732TMC3    C310869   1.387   2.489  12.299 -0.5521  0.7777 -0.4378
  732TMC3    C410870   1.541   2.298  12.392 -0.0278  0.1592 -0.1870
  732TMC3    C510871   1.586   2.369  12.284  0.4283  0.3851  0.2406
  732TMC3    C610872   1.512   2.470  12.236  0.0573  0.1728 -0.0508
  732TMC3     C10873   1.403   2.255  12.572 -0.3114  0.7163  0.4211
  732TMC3     O10874   1.505   2.224  12.627  0.7672  0.5086 -0.3535
  732TMC3     H10875   1.238   2.449  12.452 -1.0401 -1.2349 -0.8955
  732TMC3    H110876   1.597   2.220  12.442 -1.4524  0.3012  1.6133
  732TMC3    H210877   1.529   2.509  12.136  0.4640  1.2600  0.4435
  732TMC3    C710878   1.698   2.309  12.213  0.3214 -0.3384 -0.4819
  732TMC3    C810879   1.316   2.601  12.235  0.9646  0.1158  0.2982
  732TMC3    O110880   1.716   2.327  12.090  0.3336 -0.1759 -0.1380
  732TMC3    O210881   1.382   2.680  12.166 -0.6030  0.2124 -0.3701
  733TMC3    C110882   2.376   0.651  13.203  0.5296 -0.2823  0.7639
  733TMC3    C210883   2.467   0.689  13.300 -0.2286 -0.5046 -0.1732
  733TMC3    C310884   2.596   0.717  13.261  0.3170  0.1008  0.1000
  733TMC3    C410885   2.403   0.649  13.068 -0.0341  0.4808  0.1291
  733TMC3    C510886   2.534   0.686  13.028 -0.1540  0.6138  0.0557
  733TMC3    C610887   2.622   0.719  13.123 -0.0967 -0.2631 -0.2588
  733TMC3     C10888   2.243   0.684  13.232 -0.0605  0.0496 -0.3564
  733TMC3     O10889   2.234   0.782  13.310  0.1005  0.0884 -0.2139
  733TMC3     H10890   2.435   0.693  13.403 -0.1452 -0.2571 -0.1571
  733TMC3    H110891   2.326   0.645  12.992  0.4446  0.0175 -0.3363
  733TMC3    H210892   2.716   0.757  13.087 -0.1876  1.2070  1.0978
  733TMC3    C710893   2.570   0.685  12.884 -0.7454 -1.0814 -0.0406
  733TMC3    C810894   2.712   0.741  13.349 -0.3902 -0.2658  0.1145
  733TMC3    O110895   2.491   0.712  12.795  0.0810  0.0219 -0.3105
  733TMC3    O210896   2.700   0.779  13.463 -0.7518 -0.1146 -0.8358
  734MPD2     C10897   3.968   3.054  12.876 -0.0364 -0.1305 -0.4243
  734MPD2    C110898   3.928   2.954  12.790 -0.5318 -1.1370 -0.2946
  734MPD2    C210899   3.957   2.965  12.651 -0.6470 -0.7825  0.3197
  734MPD2    C310900   4.035   3.068  12.607  0.5258  0.3064  0.0890
  734MPD2    C410901   4.086   3.161  12.699 -0.9675 -0.0728 -0.3823
  734MPD2    C510902   4.057   3.153  12.833  0.1930  0.4409  0.5459
  734MPD2     H10903   3.925   2.890  12.580 -0.1685  0.4350 -1.1904
  734MPD2    H110904   4.153   3.238  12.664 -0.6704  0.1285  0.6399
  734MPD2    H210905   3.959   3.044  12.983 -1.1995 -0.2657 -0.5336
  734MPD2    H310906   4.092   3.232  12.898  1.4620  0.7949 -0.5673
  734MPD2     N10907   4.050   3.076  12.463 -0.1428  0.2750 -0.0105
  734MPD2    H510908   4.033   2.986  12.419 -1.8110  0.1258  0.9549
  734MPD2    N110909   3.846   2.847  12.835 -0.8898  0.0295  0.1829
  734MPD2    H710910   3.832   2.832  12.934  2.5523 -2.0759  0.3585
  735TMC3    C110911   3.730   2.640  12.809  0.7978 -0.3620  0.0032
  735TMC3    C210912   3.647   2.587  12.716 -0.2813  0.2441 -0.2313
  735TMC3    C310913   3.664   2.456  12.673 -0.4849  0.2580 -0.2449
  735TMC3    C410914   3.840   2.575  12.859  0.3908 -0.2772  0.3108
  735TMC3    C510915   3.865   2.452  12.809 -0.1364 -0.1502 -1.0365
  735TMC3    C610916   3.771   2.385  12.732 -0.1615 -0.0432 -0.1591
  735TMC3     C10917   3.775   2.763  12.746  0.1142 -0.7184 -0.5361
  735TMC3     O10918   3.744   2.770  12.627 -0.3116  0.3698  0.3200
  735TMC3     H10919   3.560   2.646  12.692 -1.2836 -0.6319  1.2599
  735TMC3    H110920   3.909   2.616  12.932  0.2993 -0.6226  0.5842
  735TMC3    H210921   3.795   2.284  12.700 -1.2183 -0.5528  0.6521
  735TMC3    C710922   4.005   2.427  12.803  0.5280  1.1766 -0.1144
  735TMC3    C810923   3.660   2.436  12.531 -0.5354 -0.8432  0.4649
  735TMC3    O110924   4.073   2.527  12.821  0.2709 -0.0006 -0.1198
  735TMC3    O210925   3.662   2.317  12.497  0.4121  0.6972 -0.1250
  736MPD2     C10926   4.189   2.111  12.734  0.0939 -0.2637  0.3227
  736MPD2    C110927   4.169   2.251  12.746 -0.2949 -0.3988  0.1493
  736MPD2    C210928   4.278   2.340  12.729 -0.7118 -0.4808 -0.3541
  736MPD2    C310929   4.404   2.284  12.711 -1.1576  0.2924 -0.5831
  736MPD2    C410930   4.422   2.151  12.700 -0.4522 -0.1949 -0.7108
  736MPD2    C510931   4.312   2.065  12.699  0.4046 -0.2952  0.0714
  736MPD2     H10932   4.261   2.446  12.740  2.5705  0.1209 -1.1268
  736MPD2    H110933   4.519   2.109  12.677 -0.4351 -0.3353 -0.3855
  736MPD2    H210934   4.110   2.037  12.733  1.0612 -1.3112  1.0156
  736MPD2    H310935   4.326   1.961  12.670  0.0206 -0.3115 -0.0543
  736MPD2     N10936   4.522   2.354  12.715  0.4640  0.5199 -0.1709
  736MPD2    H510937   4.599   2.293  12.692  0.1834  0.7782 -1.7990
  736MPD2    N110938   4.039   2.298  12.768 -0.6011 -0.3225 -0.0130
  736MPD2    H710939   3.970   2.223  12.774  1.6843 -2.6285 -2.4192
  737TMC3    C110940   4.664   2.538  12.717 -0.0058 -0.0658  0.2961
  737TMC3    C210941   4.665   2.675  12.690  0.4993  0.4210  0.2170
  737TMC3    C310942   0.023   2.724  12.605 -0.3919  0.2281  0.8438
  737TMC3    C410943   0.023   2.456  12.659  0.4317  0.1124  0.5083
  737TMC3    C510944   0.117   2.511  12.578  0.5957 -0.3437  0.2226
  737TMC3    C610945   0.124   2.648  12.559 -0.1490 -0.3471  0.7512
  737TMC3     C10946   4.531   2.488  12.750 -0.3907 -0.1090 -0.8466
  737TMC3     O10947   4.452   2.578  12.779  0.1129  0.2770  0.2175
  737TMC3     H10948   4.586   2.739  12.729  1.9138  1.6856  0.9767
  737TMC3    H110949   0.017   2.348  12.669 -2.4835  0.0245 -2.2567
  737TMC3    H210950   0.185   2.691  12.480 -1.2812  1.8312  1.0544
  737TMC3    C710951   0.208   2.420  12.511  0.1789 -0.1279  0.3488
  737TMC3    C810952   0.014   2.863  12.576  1.0648  0.3566  0.1873
  737TMC3    O110953   0.209   2.305  12.554 -0.1824  0.2999  0.1682
  737TMC3    O210954   4.699   2.933  12.662 -1.1574  0.1614  0.0327
  738MPD2     C10955   1.191   1.547  15.530 -0.8840 -0.1040 -0.0716
  738MPD2    C110956   1.094   1.627  15.464  0.1233  0.3424  0.1824
  738MPD2    C210957   1.127   1.725  15.373 -0.1470 -1.1126  0.2934
  738MPD2    C310958   1.260   1.752  15.345  0.3996  0.1573  0.3095
  738MPD2    C410959   1.352   1.678  15.408  0.0102 -0.3354 -0.9234
  738MPD2    C510960   1.319   1.580  15.498  0.7365  0.2084 -0.2629
  738MPD2     H10961   1.044   1.779  15.327  3.5700  1.6159 -3.2625
  738MPD2    H110962   1.455   1.681  15.376  0.8846 -0.9396  1.8534
  738MPD2    H210963   1.176   1.485  15.618  1.1914  0.2336  0.5078
  738MPD2    H310964   1.393   1.522  15.551  0.0326 -0.3601  0.1065
  738MPD2     N10965   1.301   1.848  15.248  0.1826 -0.0686 -0.0660
  738MPD2    H510966   1.398   1.875  15.254  0.4477 -0.7827 -1.2816
  738MPD2    N110967   0.953   1.612  15.489 -0.3045  0.2899  0.1778
  738MPD2    H710968   0.892   1.672  15.435  1.0912  2.9599  1.5244
  739TMC3    C110969   1.293   2.038  15.112 -0.0234  0.6360  0.0309
  739TMC3    C210970   1.246   2.094  14.996 -0.4291  0.6569  0.0389
  739TMC3    C310971   1.330   2.155  14.906 -0.7589 -0.7854 -0.0552
  739TMC3    C410972   1.422   2.059  15.142 -0.4449  0.6468  0.6083
  739TMC3    C510973   1.499   2.125  15.058 -0.1393  0.2384  0.0808
  739TMC3    C610974   1.461   2.160  14.931 -0.2558 -0.1581 -0.0826
  739TMC3     C10975   1.219   1.911  15.165 -0.1645  0.5701 -0.4466
  739TMC3     O10976   1.107   1.883  15.116  0.5762 -0.4125  0.4664
  739TMC3     H10977   1.140   2.076  14.981  0.1202 -1.5202 -1.1456
  739TMC3    H110978   1.456   2.036  15.242  1.6315  1.4004  0.0633
  739TMC3    H210979   1.535   2.193  14.860 -0.1632  0.0501  0.1112
  739TMC3    C710980   1.624   2.153  15.096  0.1250  0.0604 -0.2397
  739TMC3    C810981   1.273   2.177  14.772  0.0968 -0.3983  0.5548
  739TMC3    O110982   1.688   2.077  15.168  0.1642  0.0826 -0.1342
  739TMC3    O210983   1.151   2.157  14.758 -0.5708 -0.2188 -0.1249
  740TMC3    C110984   1.495   3.154  14.662 -0.1509  0.2766 -0.6747
  740TMC3    C210985   1.521   3.096  14.785  0.4509  0.1252  0.3643
  740TMC3    C310986   1.650   3.058  14.805  0.2665 -0.5192 -0.2824
  740TMC3    C410987   1.583   3.164  14.556  0.6334  0.0866 -0.7216
  740TMC3    C510988   1.705   3.112  14.581  0.3211  0.4064 -0.6601
  740TMC3    C610989   1.737   3.057  14.703 -0.1797  0.8734  0.1819
  740TMC3     C10990   1.367   3.219  14.665  0.0645  0.0752  0.4305
  740TMC3     O10991   1.355   3.328  14.610  0.0224  0.1772  0.4454
  740TMC3     H10992   1.454   3.120  14.866 -1.7401  1.6276 -1.8923
  740TMC3    H110993   1.558   3.220  14.466  0.7938  2.1106  0.5067
  740TMC3    H210994   1.841   3.035  14.721 -0.1305  1.1738  0.2708
  740TMC3    C710995   1.796   3.080  14.472  0.2091  0.1847 -0.3091
  740TMC3    C810996   1.687   2.986  14.922  0.2251 -0.2746 -0.5715
  740TMC3    O110997   1.905   3.045  14.511 -1.1845 -0.0611  0.0311
  740TMC3    O210998   1.792   3.012  14.982  0.0288 -0.5424  0.1864
  741TMC3    C110999   1.186   2.668  14.782 -0.1075  0.8761 -0.7955
  741TMC3    C211000   1.066   2.615  14.750  0.1982  0.9019 -0.7929
  741TMC3    C311001   1.040   2.491  14.809 -0.2579 -0.0142  0.1072
  741TMC3    C411002   1.270   2.618  14.874  0.1840 -0.7697 -0.7442
  741TMC3    C511003   1.237   2.502  14.936  0.0958  0.3579 -1.4641
  741TMC3    C611004   1.124   2.432  14.903 -0.5152 -0.4383 -0.1848
  741TMC3     C11005   1.233   2.789  14.717 -0.6374 -0.5522 -0.3741
  741TMC3     O11006   1.331   2.848  14.765  0.0216 -0.7339 -0.1391
  741TMC3     H11007   0.987   2.678  14.712  0.0150 -0.0065 -1.9229
  741TMC3    H111008   1.365   2.660  14.908  0.0112 -0.9986  0.0332
  741TMC3    H211009   1.110   2.345  14.967 -0.8427 -0.9779 -0.9920
  741TMC3    C711010   1.311   2.457  15.052 -0.6831 -0.0072  0.7024
  741TMC3    C811011   0.907   2.433  14.783 -0.1628 -0.3117 -0.9647
  741TMC3    O111012   1.430   2.438  15.036  0.1784  0.1929  0.0037
  741TMC3    O211013   0.810   2.506  14.782  0.6295 -0.0497 -0.3295
  742TMC3    C111014   1.156   0.939  15.409 -0.1111  0.2784 -0.6005
  742TMC3    C211015   1.037   0.885  15.388 -0.5444 -0.9418  1.3215
  742TMC3    C311016   1.034   0.766  15.317 -0.2981  0.2296 -1.1611
  742TMC3    C411017   1.271   0.896  15.349 -0.2028 -0.1488  0.6093
  742TMC3    C511018   1.262   0.782  15.274 -0.2122 -0.6415  0.0938
  742TMC3    C611019   1.150   0.711  15.264  0.2453  0.1741  0.4947
  742TMC3     C11020   1.170   1.042  15.506  0.1825 -0.0484  0.4121
  742TMC3     O11021   1.073   1.119  15.521  0.2360  0.1800 -0.0869
  742TMC3     H11022   0.950   0.927  15.439  0.3157  0.3433  1.7469
  742TMC3    H111023   1.368   0.937  15.372 -0.9800  1.1189  1.6665
  742TMC3    H211024   1.147   0.618  15.207  0.5778 -0.3997  1.4242
  742TMC3    C711025   1.386   0.730  15.204  0.5809 -0.5939 -0.2474
  742TMC3    C811026   0.917   0.707  15.264  0.3515  0.6161 -0.8605
  742TMC3    O111027   1.397   0.612  15.188 -0.5529  0.3310 -0.1127
  742TMC3    O211028   0.930   0.594  15.221 -0.2833 -0.1314  0.0983
  743MPD2     C11029   2.849   2.264   1.801  0.0680 -0.1361 -0.1325
  743MPD2    C111030   2.936   2.259   1.690  0.8537  0.4069  0.3489
  743MPD2    C211031   3.072   2.292   1.698 -0.0435  0.6076  0.6669
  743MPD2    C311032   3.120   2.308   1.825 -0.4905  0.2603 -0.7265
  743MPD2    C411033   3.042   2.291   1.945 -0.1274  0.1245  0.7028
  743MPD2    C511034   2.903   2.284   1.930  0.1526  0.1812  0.2681
  743MPD2     H11035   3.134   2.310   1.611 -0.3169 -3.2204 -0.3408
  743MPD2    H111036   3.083   2.289   2.045  1.6254  1.1065  0.0019
  743MPD2    H211037   2.742   2.251   1.793  0.1952 -0.9941 -0.4660
  743MPD2    H311038   2.836   2.290   2.015 -1.3949  3.1585 -1.1601
  743MPD2     N11039   3.260   2.310   1.831 -0.2182  0.2083  0.1571
  743MPD2    H511040   3.308   2.306   1.742  1.1107  1.2092  0.8241
  743MPD2    N111041   2.875   2.240   1.563 -0.1506 -0.0666 -0.1926
  743MPD2    H711042   2.778   2.209   1.571  0.3474 -0.6217  4.0017
  744TMC3    C111043   2.858   2.160   1.337 -0.3321  0.3250  0.3631
  744TMC3    C211044   2.732   2.115   1.365  0.2467  0.1928  0.2890
  744TMC3    C311045   2.682   2.019   1.280 -0.0341  0.2383 -0.3948
  744TMC3    C411046   2.919   2.135   1.218  0.0086 -0.4616  0.3234
  744TMC3    C511047   2.868   2.035   1.133 -0.3185  0.1245 -0.0470
  744TMC3    C611048   2.746   1.973   1.164 -0.8102 -0.4645 -0.8922
  744TMC3     C11049   2.936   2.230   1.442  0.6997  0.2001 -0.8077
  744TMC3     O11050   3.051   2.260   1.414  0.0213 -0.7371 -0.5948
  744TMC3     H11051   2.679   2.125   1.459  0.2508  0.9614  0.2084
  744TMC3    H111052   3.012   2.186   1.193  0.3109 -0.3979  1.5794
  744TMC3    H211053   2.700   1.887   1.117 -0.5195  0.6416 -3.2391
  744TMC3    C711054   2.972   1.946   1.079 -0.4307 -0.7480  0.1763
  744TMC3    C811055   2.555   1.962   1.307 -0.6274 -1.0559  0.1196
  744TMC3    O111056   3.078   1.999   1.045  0.0372  0.9194 -0.0461
  744TMC3    O211057   2.530   1.920   1.425  0.1943 -0.3511  0.0147
  745TMC3    C111058   0.804   1.074  13.326 -0.4382  0.3602  0.1130
  745TMC3    C211059   0.758   1.058  13.458 -0.7980 -0.0324  0.3706
  745TMC3    C311060   0.746   1.174  13.527  0.0324 -0.0960 -0.5064
  745TMC3    C411061   0.823   1.199  13.273  0.2471 -0.1880 -0.1930
  745TMC3    C511062   0.791   1.306  13.339  0.0938  0.8360  0.3971
  745TMC3    C611063   0.759   1.302  13.472  0.0944  0.0667  0.0184
  745TMC3     C11064   0.936   1.027  13.321  0.0626 -0.1779 -0.0005
  745TMC3     O11065   1.015   1.100  13.264  0.1032  0.1678  0.2633
  745TMC3     H11066   0.740   0.960  13.499  1.4348 -0.1439  1.0465
  745TMC3    H111067   0.846   1.209  13.167  2.5803  0.6843  0.3835
  745TMC3    H211068   0.758   1.396  13.524 -0.1595  0.6243 -0.9832
  745TMC3    C711069   0.881   1.415  13.325  0.0732 -0.6587  0.5524
  745TMC3    C811070   0.760   1.155  13.669  0.5120 -0.0163  0.6670
  745TMC3    O111071   0.843   1.527  13.362 -0.0757  0.3015 -0.1436
  745TMC3    O211072   0.708   1.054  13.715  0.1224  0.9330 -0.2789
  746TMC3    C111073   3.276   2.666  11.533 -0.3157 -0.5809 -0.6994
  746TMC3    C211074   3.386   2.584  11.484 -0.4607  0.1776  0.8462
  746TMC3    C311075   3.357   2.453  11.460  0.1653 -0.6003  0.1616
  746TMC3    C411076   3.159   2.613  11.565  0.6869 -0.6595 -0.1206
  746TMC3    C511077   3.140   2.481  11.541  0.1331 -0.4937  0.7645
  746TMC3    C611078   3.233   2.400  11.478  0.4003  0.8053 -0.5781
  746TMC3     C11079   3.317   2.790  11.590 -0.1202 -1.0746  0.4657
  746TMC3     O11080   3.244   2.831  11.684 -0.2770  0.3375 -1.1272
  746TMC3     H11081   3.480   2.631  11.460 -1.6731  1.4630 -1.4793
  746TMC3    H111082   3.078   2.672  11.606 -1.9717 -3.8976 -0.6604
  746TMC3    H211083   3.214   2.297  11.451  0.1275  0.4627  0.8959
  746TMC3    C711084   3.006   2.427  11.555 -0.2259  0.5993  0.2855
  746TMC3    C811085   3.441   2.392  11.360  0.6765 -0.0573  0.0394
  746TMC3    O111086   2.915   2.506  11.541 -0.0473 -0.2218  0.1659
  746TMC3    O211087   3.461   2.272  11.362 -0.6641 -0.2070 -0.3929
  747TMC3    C111088   0.736   2.761  11.789  0.0524 -0.6656 -0.4244
  747TMC3    C211089   0.690   2.676  11.882  0.1568  0.0380  0.2721
  747TMC3    C311090   0.787   2.604  11.950 -0.2659 -0.2044  1.0174
  747TMC3    C411091   0.872   2.775  11.763  0.9278  0.0444  0.0150
  747TMC3    C511092   0.963   2.696  11.827  0.4690  0.1692  0.2649
  747TMC3    C611093   0.918   2.607  11.920  0.4518  0.2334  0.2905
  747TMC3     C11094   0.638   2.828  11.708  0.1883 -0.3318  0.1681
  747TMC3     O11095   0.534   2.858  11.760  0.1564 -0.5898 -0.2780
  747TMC3     H11096   0.583   2.662  11.899  0.5199 -0.9241  1.7950
  747TMC3    H111097   0.898   2.852  11.691 -0.5237  2.1832  1.8021
  747TMC3    H211098   0.986   2.546  11.979  2.3719  1.6275 -0.4550
  747TMC3    C711099   1.107   2.716  11.808  0.4446 -0.5251  0.2258
  747TMC3    C811100   0.738   2.485  12.013  0.4272  0.9328  0.0761
  747TMC3    O111101   1.137   2.814  11.741 -0.0912 -0.6125 -0.4585
  747TMC3    O211102   0.805   2.386  12.010  0.2421  0.8050 -0.1496
  748MPD2     C11103   2.342   2.699   1.526  0.7836  1.0166 -0.4494
  748MPD2    C111104   2.438   2.602   1.526  0.4246 -0.1120 -0.2196
  748MPD2    C211105   2.570   2.641   1.540  0.1100  0.4317 -0.7920
  748MPD2    C311106   2.603   2.776   1.550  1.2824  0.4858 -0.6123
  748MPD2    C411107   2.504   2.867   1.556  0.3038  0.1938 -0.2734
  748MPD2    C511108   2.373   2.835   1.541 -0.1259 -0.1883  0.2017
  748MPD2     H11109   2.650   2.569   1.552 -0.4943 -0.0488  0.3064
  748MPD2    H111110   2.528   2.972   1.569  1.4618 -0.0995 -0.1070
  748MPD2    H211111   2.237   2.673   1.528  0.6447  1.4323 -2.2365
  748MPD2    H311112   2.294   2.908   1.557 -0.3353 -0.4554  0.3888
  748MPD2     N11113   2.744   2.805   1.566  0.1789 -0.0883 -0.6120
  748MPD2    H511114   2.798   2.720   1.571  0.7997  0.3453  0.0976
  748MPD2    N111115   2.384   2.474   1.528 -0.5800 -0.9422 -0.1983
  748MPD2    H711116   2.288   2.452   1.504 -0.2931 -2.2158 -0.1393
  749TMC3    C111117   2.945   2.936   1.548 -0.5876 -0.2657 -0.1840
  749TMC3    C211118   3.010   2.843   1.627 -0.4349  0.1216  0.9033
  749TMC3    C311119   3.146   2.830   1.604 -0.4344  0.3250 -0.3606
  749TMC3    C411120   3.006   2.997   1.447  0.4990 -0.0234  0.2293
  749TMC3    C511121   3.139   2.966   1.417 -0.3901  0.0497 -1.0353
  749TMC3    C611122   3.214   2.882   1.496  0.2019  0.0492  0.2964
  749TMC3     C11123   2.802   2.931   1.546 -0.3802  0.0973 -0.5633
  749TMC3     O11124   2.751   3.028   1.493  0.1921 -0.1474  0.5780
  749TMC3     H11125   2.962   2.791   1.708 -2.3024 -1.0859 -0.9819
  749TMC3    H111126   2.961   3.061   1.372  1.3502  0.3176 -0.0014
  749TMC3    H211127   3.321   2.880   1.483  0.1633  0.3414 -0.0713
  749TMC3    C711128   3.198   3.026   1.297 -0.1812 -0.5211  0.2073
  749TMC3    C811129   3.225   2.763   1.703 -0.2540 -0.9086  0.5749
  749TMC3    O111130   3.134   3.120   1.246  0.0054 -0.2900  0.1598
  749TMC3    O211131   3.159   2.733   1.802 -0.0264 -0.2385 -0.2424
  750MPD2     C11132   3.538   0.025  11.630 -0.3873 -0.2397  0.4410
  750MPD2    C111133   3.550   4.683  11.742 -0.4432 -0.2680  0.1065
  750MPD2    C211134   3.604   4.554  11.741  0.3238 -0.1396 -0.3482
  750MPD2    C311135   3.673   4.516  11.625  0.2735  0.1047 -0.1624
  750MPD2    C411136   3.653   4.590  11.508 -0.6255  0.0330  0.4511
  750MPD2    C511137   3.571   4.703  11.513 -0.4731  0.4422 -0.4554
  750MPD2     H11138   3.612   4.494  11.831  0.8363  0.1033 -0.2280
  750MPD2    H111139   3.691   4.573  11.408 -1.0297  0.6051  0.1966
  750MPD2    H211140   3.490   0.121  11.636  2.0497  1.1076 -1.7297
  750MPD2    H311141   3.554   0.018  11.419 -0.7292  1.4719  0.1572
  750MPD2     N11142   3.755   4.395  11.621 -0.3200  0.3487  0.1871
  750MPD2    H511143   3.790   4.371  11.529  2.7552  0.5041  1.3331
  750MPD2    N111144   3.493   4.725  11.864 -0.4462 -0.9959 -0.1994
  750MPD2    H711145   3.453   0.082  11.871  1.3787 -0.1229 -1.7118
  751TMC3    C111146   3.824   4.176  11.695  0.0173  0.9057  0.1479
  751TMC3    C211147   3.831   4.089  11.800 -0.2325  0.1100 -0.3641
  751TMC3    C311148   3.845   3.956  11.780 -1.2701  0.3937 -0.3062
  751TMC3    C411149   3.830   4.135  11.563  0.1128 -0.1569 -0.4974
  751TMC3    C511150   3.852   3.997  11.545  0.5069 -0.1383 -0.4080
  751TMC3    C611151   3.873   3.914  11.650 -0.7023  0.2170  0.2682
  751TMC3     C11152   3.773   4.312  11.728  0.4089 -0.7838 -0.3439
  751TMC3     O11153   3.730   4.314  11.842  0.2440 -0.7198 -0.6799
  751TMC3     H11154   3.832   4.128  11.901 -0.7989 -0.7331 -0.0289
  751TMC3    H111155   3.795   4.195  11.480 -0.8769 -0.4401 -0.2842
  751TMC3    H211156   3.885   3.807  11.645 -2.1862  0.0019  1.2326
  751TMC3    C711157   3.772   3.942  11.436  0.5532  0.4439  0.1134
  751TMC3    C811158   3.752   3.867  11.843 -0.6106  0.6794  0.3265
  751TMC3    O111159   3.765   4.010  11.333  0.2756 -0.2515  0.6887
  751TMC3    O211160   3.719   3.766  11.791  0.1101 -0.0822 -0.1485
  752TMC3    C111161   2.052   4.156  17.544  0.5652  0.4547  0.4142
  752TMC3    C211162   2.133   4.046  17.528  1.4077  0.2295  0.0757
  752TMC3    C311163   2.088   3.917  17.558  0.4003  0.2813 -0.2955
  752TMC3    C411164   1.924   4.139  17.591 -0.1127 -0.6928 -0.2622
  752TMC3    C511165   1.881   4.015  17.611  0.1765  0.6055  0.5442
  752TMC3    C611166   1.958   3.898  17.609  0.0650  0.2745  0.2288
  752TMC3     C11167   2.110   4.290  17.528  0.1368  0.0180 -0.4540
  752TMC3     O11168   2.078   4.390  17.591  0.0574  0.3331  0.3698
  752TMC3     H11169   2.234   4.054  17.489  1.0932 -2.0966 -1.1909
  752TMC3    H111170   1.854   4.222  17.594 -0.4863 -1.0289  0.4356
  752TMC3    H211171   1.917   3.798  17.619  0.7436 -0.1424 -1.1239
  752TMC3    C711172   1.747   4.009  17.656 -0.3422  0.4337 -0.0167
  752TMC3    C811173   2.180   3.805  17.546  0.1895 -0.4963  0.2201
  752TMC3    O111174   1.671   4.096  17.614 -0.1307 -0.9115  0.5351
  752TMC3    O211175   2.276   3.830  17.475  0.5850  0.2249  0.2496
  753TMC3    C111176   4.184   0.461  14.040  0.0082  0.3203 -0.2587
  753TMC3    C211177   4.318   0.461  14.077 -0.6920 -0.3513 -0.1412
  753TMC3    C311178   4.409   0.413  13.985  0.2046 -0.5402  0.1256
  753TMC3    C411179   4.142   0.395  13.928 -0.5656 -0.0017 -0.2278
  753TMC3    C511180   4.239   0.334  13.855  0.3504  0.2951  0.1352
  753TMC3    C611181   4.370   0.339  13.876  0.5340  0.2889 -0.0324
  753TMC3     C11182   4.100   0.558  14.106  0.6432  0.8322 -0.0422
  753TMC3     O11183   4.064   0.527  14.219 -0.4209  0.1412 -0.2350
  753TMC3     H11184   4.339   0.517  14.167 -0.6456 -2.6958  1.3190
  753TMC3    H111185   4.044   0.426  13.894 -0.6768 -0.5393 -0.3862
  753TMC3    H211186   4.448   0.297  13.814 -0.0375 -1.3882  0.3925
  753TMC3    C711187   4.203   0.242  13.750  0.9769 -0.9505 -0.0459
  753TMC3    C811188   4.551   0.432  14.005 -0.2399 -0.0887 -0.7533
  753TMC3    O111189   4.293   0.198  13.680 -0.8058 -0.4122  0.1171
  753TMC3    O211190   4.633   0.371  13.938  0.1788  0.3485  1.2864
  754MPD2     C11191   3.128   4.089  13.328  0.3157  0.1280  0.1502
  754MPD2    C111192   3.067   3.966  13.342 -0.4064  0.2598 -0.1933
  754MPD2    C211193   2.932   3.957  13.362  0.7651 -0.6870 -0.5890
  754MPD2    C311194   2.854   4.069  13.394  0.5447  0.3385 -0.4057
  754MPD2    C411195   2.922   4.188  13.389 -0.3651  0.2523  0.3827
  754MPD2    C511196   3.053   4.201  13.359  0.3525 -0.1133  0.1030
  754MPD2     H11197   2.888   3.858  13.366  0.6282 -0.6146 -0.2403
  754MPD2    H111198   2.867   4.279  13.412 -2.7698 -1.2929  0.8128
  754MPD2    H211199   3.227   4.094  13.286  0.4234 -0.1305  0.3654
  754MPD2    H311200   3.107   4.295  13.358  0.6394 -0.3057 -2.1730
  754MPD2     N11201   2.718   4.066  13.436  0.1403  0.8310 -0.2601
  754MPD2    H511202   2.673   4.156  13.446 -0.6978  0.4481 -0.5876
  754MPD2    N111203   3.154   3.858  13.334 -0.3196  0.3395 -0.5475
  754MPD2    H711204   3.237   3.875  13.278  0.4453 -0.4943  0.3462
  755MPD2     C11205   2.196   0.016  13.467 -0.4020  0.6900 -0.4581
  755MPD2    C111206   2.105   4.649  13.495 -0.7570 -0.4145 -0.2563
  755MPD2    C211207   2.143   4.509  13.485  0.1007 -0.1681 -0.2813
  755MPD2    C311208   2.275   4.480  13.473 -0.6403 -0.3544  0.3189
  755MPD2    C411209   2.365   4.587  13.451 -0.1433  0.4615 -0.0794
  755MPD2    C511210   2.326   4.717  13.456 -0.2136  0.1929  0.7266
  755MPD2     H11211   2.066   4.434  13.484  0.1797 -0.2281 -1.7562
  755MPD2    H111212   2.470   4.563  13.438 -0.5382 -1.8790  1.0159
  755MPD2    H211213   2.172   0.122  13.466 -0.3795  0.7040  0.5786
  755MPD2    H311214   2.392   0.066  13.445  1.9786 -1.8589 -2.2203
  755MPD2     N11215   2.321   4.346  13.460  0.5595 -0.7217 -0.1511
  755MPD2    H511216   2.420   4.333  13.445  0.5462  0.5248 -1.3179
  755MPD2    N111217   1.966   4.667  13.519  0.3506 -0.1952  0.4847
  755MPD2    H711218   1.913   4.581  13.526  1.1509 -0.5133  2.6677
  756MPD2     C11219   3.262   0.705  10.079 -0.1430  0.2770  0.5314
  756MPD2    C111220   3.207   0.581  10.103  0.0199  0.0496  0.2798
  756MPD2    C211221   3.113   0.517  10.017 -0.0601 -0.1595  0.3163
  756MPD2    C311222   3.063   0.591   9.914 -0.0135  0.5208  0.1758
  756MPD2    C411223   3.118   0.716   9.885  0.2121 -0.2947  0.6412
  756MPD2    C511224   3.218   0.769   9.960 -0.1769  0.4701 -0.9097
  756MPD2     H11225   3.067   0.423  10.045  0.4195  0.4213  3.1016
  756MPD2    H111226   3.073   0.776   9.807 -0.9952 -2.2337 -0.1437
  756MPD2    H211227   3.330   0.761  10.141  1.1949 -2.3215  1.3874
  756MPD2    H311228   3.253   0.871   9.951 -0.6866  0.8001  0.6951
  756MPD2     N11229   2.958   0.528   9.840  0.9119 -0.4232 -0.5720
  756MPD2    H511230   2.912   0.448   9.881  1.4430 -1.4369 -1.9797
  756MPD2    N111231   3.236   0.512  10.220 -0.4577 -0.2895  0.1866
  756MPD2    H711232   3.184   0.427  10.238 -2.7501  0.6825 -1.8096
  757MPD2     C11233   2.548   4.606  10.146  0.7889 -0.6363 -0.3477
  757MPD2    C111234   2.673   4.670  10.149  0.2850 -0.0768  0.2697
  757MPD2    C211235   2.697   0.042  10.069 -0.2327  0.0093 -0.1403
  757MPD2    C311236   2.592   0.085   9.993 -0.7371  0.9870  0.8030
  757MPD2    C411237   2.468   0.030   9.993 -0.1970 -0.2960 -0.8830
  757MPD2    C511238   2.448   4.647  10.061  0.4776 -0.2898  0.0989
  757MPD2     H11239   2.790   0.099  10.066 -1.0225  1.1461 -3.2509
  757MPD2    H111240   2.383   0.061   9.933 -1.6490  0.1075  1.3915
  757MPD2    H211241   2.523   4.508  10.187 -0.2567  0.8431  2.5479
  757MPD2    H311242   2.353   4.596  10.057  0.4135 -0.1929  0.4382
  757MPD2     N11243   2.626   0.187   9.904  0.8028  0.0561 -0.4858
  757MPD2    H511244   2.725   0.209   9.896  0.5964  0.8240 -0.9994
  757MPD2    N111245   2.769   4.617  10.234 -0.4776 -0.0816 -0.2264
  757MPD2    H711246   2.738   4.542  10.295  2.3059 -1.9879 -1.1429
  758MPD2     C11247   3.144   3.586  15.892  0.5357  0.1056 -0.4595
  758MPD2    C111248   3.121   3.463  15.951  0.4783 -0.0589  0.4829
  758MPD2    C211249   3.070   3.464  16.078 -0.3854  0.1125  0.3473
  758MPD2    C311250   3.054   3.586  16.150  0.6189  0.0238  0.6881
  758MPD2    C411251   3.079   3.706  16.090 -0.0814  0.9133  0.0963
  758MPD2    C511252   3.131   3.701  15.963 -0.2692  0.2074  0.1916
  758MPD2     H11253   3.056   3.371  16.133  0.4885 -1.8319 -2.6861
  758MPD2    H111254   3.078   3.804  16.137  0.5994  0.4735  1.0270
  758MPD2    H211255   3.196   3.591  15.797  0.1209  0.5846 -0.6591
  758MPD2    H311256   3.157   3.790  15.906  0.8776  0.2478  0.7825
  758MPD2     N11257   3.017   3.576  16.288 -0.1145 -0.0277  0.2419
  758MPD2    H511258   3.031   3.483  16.325  0.2787  0.2571  0.8051
  758MPD2    N111259   3.169   3.345  15.892 -0.0911  0.6561 -0.1717
  758MPD2    H711260   3.244   3.352  15.824  0.2811  0.2209  0.1955
  759MPD2     C11261   1.610   2.324  10.477 -0.2830  0.3836  0.2686
  759MPD2    C111262   1.705   2.222  10.496 -0.8761 -0.0644 -0.5484
  759MPD2    C211263   1.833   2.267  10.527 -0.1997  0.0963 -0.4170
  759MPD2    C311264   1.869   2.396  10.519  0.1019  0.2979  0.2623
  759MPD2    C411265   1.781   2.495  10.477 -0.0009  0.4089 -0.4561
  759MPD2    C511266   1.645   2.460  10.465 -0.4710 -0.0635  0.5090
  759MPD2     H11267   1.912   2.199  10.557 -3.4656 -2.4919  2.3590
  759MPD2    H111268   1.791   2.601  10.455 -0.6726  0.4767 -0.4553
  759MPD2    H211269   1.503   2.309  10.463  0.2826 -3.9944  0.5487
  759MPD2    H311270   1.573   2.537  10.440 -2.1591 -1.6077  0.5816
  759MPD2     N11271   1.997   2.430  10.569  0.1252  0.7785  0.6848
  759MPD2    H511272   2.061   2.357  10.600 -1.1309 -0.5643  0.0995
  759MPD2    N111273   1.677   2.084  10.506 -0.2409 -0.5029  0.5281
  759MPD2    H711274   1.756   2.026  10.531  0.8630  0.0478 -1.6952
  760MPD2     C11275   1.429   4.330  12.373 -0.7836 -0.2411 -0.7406
  760MPD2    C111276   1.559   4.376  12.335 -0.0194  0.6689  0.4383
  760MPD2    C211277   1.662   4.284  12.338  0.9124 -0.0837 -0.7671
  760MPD2    C311278   1.636   4.148  12.377 -0.5769  0.3424  0.1289
  760MPD2    C411279   1.507   4.116  12.423  0.0509  0.3210 -0.2129
  760MPD2    C511280   1.408   4.206  12.422  0.6900 -0.6355 -0.6985
  760MPD2     H11281   1.764   4.306  12.308  1.8331 -2.0483  0.9113
  760MPD2    H111282   1.482   4.012  12.444 -1.2580  0.5438 -0.6745
  760MPD2    H211283   1.348   4.401  12.362 -0.4781  0.2635  0.3108
  760MPD2    H311284   1.314   4.166  12.458  0.9326 -0.9004 -0.3598
  760MPD2     N11285   1.742   4.054  12.384  0.9657  0.0170 -0.0877
  760MPD2    H511286   1.715   3.965  12.424 -0.4296 -1.3780 -4.1056
  760MPD2    N111287   1.585   4.512  12.312  0.2276 -0.5081  0.1836
  760MPD2    H711288   1.679   4.534  12.281 -0.1069  0.9898  0.2257
  761MPD2     C11289   3.299   3.879  12.084 -0.1325  0.2146 -0.1216
  761MPD2    C111290   3.326   3.824  11.962 -1.1688  0.4785 -0.3531
  761MPD2    C211291   3.457   3.836  11.913  0.7794 -0.6872  0.1684
  761MPD2    C311292   3.548   3.923  11.974  0.1043  0.3299  0.6840
  761MPD2    C411293   3.502   3.997  12.078 -0.3865 -0.6897 -0.0943
  761MPD2    C511294   3.385   3.965  12.140 -0.0757  0.6472  0.1540
  761MPD2     H11295   3.486   3.780  11.824 -0.1785 -1.9651  0.6609
  761MPD2    H111296   3.569   4.070  12.121 -1.5242  0.7988 -0.8139
  761MPD2    H211297   3.202   3.849  12.122  0.1403  0.3207  0.6569
  761MPD2    H311298   3.351   4.031  12.220  1.5773  1.3879  0.2350
  761MPD2     N11299   3.681   3.942  11.935  0.1917 -0.0669 -0.5077
  761MPD2    H511300   3.731   4.018  11.980  0.2834  0.6206 -1.7769
  761MPD2    N111301   3.232   3.743  11.895  0.2488 -0.4772  0.3050
  761MPD2    H711302   3.148   3.743  11.951  0.0002  0.4346 -0.0793
  762MPD2     C11303   3.066   2.966  11.412  0.5357 -0.0106 -0.7965
  762MPD2    C111304   3.113   3.093  11.379 -0.3969 -0.2024 -0.0991
  762MPD2    C211305   3.181   3.109  11.258 -0.4484 -0.1425  0.0253
  762MPD2    C311306   3.203   2.998  11.175 -0.3727 -0.3356  0.0627
  762MPD2    C411307   3.159   2.871  11.206  0.5158  0.1359 -0.0560
  762MPD2    C511308   3.084   2.860  11.327  0.4082 -0.5478  0.0205
  762MPD2     H11309   3.220   3.207  11.230  0.3001  0.1476  2.1316
  762MPD2    H111310   3.171   2.777  11.153  2.4954  1.1704 -1.4468
  762MPD2    H211311   3.015   2.954  11.507 -1.1583  0.5352 -1.6321
  762MPD2    H311312   3.050   2.759  11.348  0.9028 -0.5693  0.7093
  762MPD2     N11313   3.279   3.028  11.059 -0.5417  0.0957  0.1592
  762MPD2    H511314   3.308   3.124  11.044  0.6713  0.0067  1.8833
  762MPD2    N111315   3.087   3.191  11.480  0.3192  0.2751 -0.1408
  762MPD2    H711316   3.031   3.167  11.561 -0.8255 -2.2108 -1.6776
  763MPD2     C11317   0.174   3.851  16.298  0.1996  0.8489  0.3521
  763MPD2    C111318   0.305   3.849  16.261  0.2196 -0.9397  0.0624
  763MPD2    C211319   0.392   3.943  16.309 -0.0575 -0.0882  0.5437
  763MPD2    C311320   0.361   4.036  16.398  0.6069  0.1937 -0.1826
  763MPD2    C411321   0.230   4.039  16.434 -0.4142 -0.5656 -0.7002
  763MPD2    C511322   0.141   3.942  16.397  0.2223  0.2956  0.5267
  763MPD2     H11323   0.490   3.924  16.268 -0.0853 -0.8119  0.8270
  763MPD2    H111324   0.202   4.113  16.508 -0.9206  1.2788 -2.7262
  763MPD2    H211325   0.107   3.778  16.254  1.1236  0.6969 -0.7929
  763MPD2    H311326   0.041   3.939  16.441 -0.3646 -1.4545 -0.9300
  763MPD2     N11327   0.449   4.132  16.456 -0.2378 -0.3880 -0.2047
  763MPD2    H511328   0.413   4.206  16.515 -0.0776 -0.9425  0.5876
  763MPD2    N111329   0.354   3.756  16.160  0.7275 -1.2344  0.6440
  763MPD2    H711330   0.450   3.774  16.133  0.5762 -0.6039  0.5303
  764MPD2     C11331   2.807   4.163  17.582  0.3587  0.1566  0.1911
  764MPD2    C111332   2.772   4.279  17.641 -0.2550 -0.0220 -0.5339
  764MPD2    C211333   2.751   4.297   0.037 -0.3921  0.0732  0.9071
  764MPD2    C311334   2.769   4.182   0.115  0.5830  0.5770 -0.5670
  764MPD2    C411335   2.784   4.064   0.050 -0.7662 -0.9912  0.2885
  764MPD2    C511336   2.813   4.053  17.663 -0.0395 -0.2299  0.1033
  764MPD2     H11337   2.712   4.393   0.068  0.8714  0.9757 -0.2729
  764MPD2    H111338   2.780   3.969   0.101  0.1995 -1.8685 -1.2553
  764MPD2    H211339   2.821   4.146  17.476  0.1021 -2.4658  0.5650
  764MPD2    H311340   2.844   3.958  17.620 -0.7029  0.3478 -1.6742
  764MPD2     N11341   2.749   4.194   0.248 -0.4538  0.6677  0.5158
  764MPD2    H511342   2.736   4.286   0.288  0.3731  0.6546  0.8018
  764MPD2    N111343   2.745   4.379  17.540  0.2975  0.3383 -0.3221
  764MPD2    H711344   2.747   4.354  17.442  0.1069  2.9106 -0.9865
  765MPD2     C11345   2.839   3.276  16.443 -0.6625  0.4078  0.0968
  765MPD2    C111346   2.788   3.261  16.315 -0.0458 -0.3136  0.4577
  765MPD2    C211347   2.821   3.156  16.237  0.4231  0.3917  0.0035
  765MPD2    C311348   2.910   3.064  16.285  0.6712  0.2687  0.1831
  765MPD2    C411349   2.958   3.067  16.415  0.2613 -0.3436 -0.5715
  765MPD2    C511350   2.906   3.170  16.489 -0.5669  0.0633  0.5990
  765MPD2     H11351   2.773   3.142  16.141 -0.1623 -1.5021  0.5930
  765MPD2    H111352   3.016   2.985  16.456 -0.7128  0.1710  1.8558
  765MPD2    H211353   2.799   3.351  16.511 -2.0810 -1.1992  1.0287
  765MPD2    H311354   2.939   3.178  16.592  0.2249  1.6256  0.2172
  765MPD2     N11355   2.957   2.970  16.185 -0.6143  0.0762  0.0831
  765MPD2    H511356   2.922   2.984  16.091  0.8519 -0.6335 -0.5723
  765MPD2    N111357   2.704   3.360  16.260  1.5785 -0.2214  0.0793
  765MPD2    H711358   2.675   3.355  16.163 -0.8451 -1.8058  0.9021
  766MPD2     C11359   2.317   3.254  15.685 -0.1126  0.2033 -0.3239
  766MPD2    C111360   2.441   3.304  15.678  0.0256 -0.2530 -0.4723
  766MPD2    C211361   2.514   3.293  15.558 -0.3282  0.1474 -0.5747
  766MPD2    C311362   2.461   3.234  15.447  0.2078 -0.0042  0.2577
  766MPD2    C411363   2.341   3.170  15.459  0.2810  0.2903  0.0449
  766MPD2    C511364   2.267   3.180  15.577 -0.0647 -0.4493 -0.1637
  766MPD2     H11365   2.611   3.341  15.554 -0.2478  0.0083 -0.2988
  766MPD2    H111366   2.293   3.112  15.380  0.4676  0.6713 -0.3498
  766MPD2    H211367   2.255   3.266  15.773 -0.1028 -0.9284 -0.1539
  766MPD2    H311368   2.171   3.132  15.597 -0.5218  0.2216 -0.7497
  766MPD2     N11369   2.530   3.228  15.323  0.1537  0.1780 -0.0691
  766MPD2    H511370   2.476   3.213  15.238  2.0108 -1.9808 -0.8845
  766MPD2    N111371   2.491   3.390  15.780  1.3910  0.5543  0.0858
  766MPD2    H711372   2.578   3.439  15.764  0.4057  1.9310 -1.0645
  767MPD2     C11373   2.111   3.356  15.299 -0.3456 -0.2098  0.0093
  767MPD2    C111374   2.205   3.437  15.248 -0.0451  0.1471 -0.1897
  767MPD2    C211375   2.239   3.423  15.114  0.7546  0.3075 -0.0892
  767MPD2    C311376   2.171   3.341  15.029 -0.0293 -0.6300 -0.0705
  767MPD2    C411377   2.058   3.272  15.078 -0.0722  0.6748 -0.7200
  767MPD2    C511378   2.033   3.282  15.216 -0.3906  0.2082 -0.4538
  767MPD2     H11379   2.312   3.486  15.063  1.1140  1.5370  1.9271
  767MPD2    H111380   1.991   3.211  15.020  1.8199 -0.4440 -1.7458
  767MPD2    H211381   2.069   3.371  15.397  0.1976 -0.7227  0.3235
  767MPD2    H311382   1.952   3.225  15.261 -2.0216  2.9530  0.0989
  767MPD2     N11383   2.236   3.308  14.905  0.0351  0.0881  0.1411
  767MPD2    H511384   2.325   3.353  14.888  0.5226 -1.5737 -1.6646
  767MPD2    N111385   2.256   3.537  15.335 -0.1003  0.0660 -0.7149
  767MPD2    H711386   2.232   3.533  15.433  1.2444  0.2419 -0.3856
  768MPD2     C11387   2.991   2.195  11.080 -0.5616 -0.5417  0.0953
  768MPD2    C111388   2.928   2.108  11.171  0.3036 -0.6856 -0.1726
  768MPD2    C211389   2.999   2.061  11.277  0.6084  0.9040 -0.8184
  768MPD2    C311390   3.132   2.084  11.280 -0.3411  0.3412  0.0576
  768MPD2    C411391   3.186   2.182  11.196 -0.4008  0.2400  0.6305
  768MPD2    C511392   3.117   2.235  11.091  0.0308 -0.7642 -0.2954
  768MPD2     H11393   2.953   1.980  11.333  0.6162  0.4720 -1.4391
  768MPD2    H111394   3.294   2.185  11.206 -0.2786  0.6260 -0.9612
  768MPD2    H211395   2.942   2.222  10.987  0.3232  0.1446 -0.1646
  768MPD2    H311396   3.161   2.286  11.006  0.8874 -1.4521 -0.2594
  768MPD2     N11397   3.221   2.015  11.372 -0.3464  0.4367 -0.3310
  768MPD2    H511398   3.320   2.029  11.353  0.4004 -0.5796  2.8531
  768MPD2    N111399   2.786   2.076  11.163  0.3929  0.3208 -0.1531
  768MPD2    H711400   2.753   2.014  11.236  0.4894  1.7878  1.1484
  769MPD2     C11401   4.087   0.305  15.084  0.0115  0.0113 -0.0037
  769MPD2    C111402   4.015   0.261  15.192  1.4293 -0.2842 -0.0008
  769MPD2    C211403   4.074   0.247  15.322 -0.1410 -0.8097  0.0946
  769MPD2    C311404   4.205   0.285  15.332 -0.9664 -0.1719  0.6440
  769MPD2    C411405   4.274   0.335  15.226  0.2964 -0.2996  0.6080
  769MPD2    C511406   4.214   0.350  15.104 -0.2114  0.0839 -0.3252
  769MPD2     H11407   4.018   0.208  15.406 -0.5237  1.9846  1.1263
  769MPD2    H111408   4.375   0.373  15.238  0.5538 -0.3400 -1.4844
  769MPD2    H211409   4.037   0.312  14.988 -0.3501  0.5009  0.2170
  769MPD2    H311410   4.278   0.380  15.022 -0.4344 -0.1934 -0.5993
  769MPD2     N11411   4.259   0.268  15.463  0.2875  0.0507  0.6538
  769MPD2    H511412   4.193   0.236  15.532  0.3466  0.6685  1.0050
  769MPD2    N111413   3.875   0.217  15.168 -0.2694 -0.4688 -0.2486
  769MPD2    H711414   3.832   0.239  15.079 -0.8954 -1.1992 -0.1270
  770MPD2     C11415   3.258   4.181  15.467  0.1301  0.8891  0.1135
  770MPD2    C111416   3.339   4.173  15.354 -0.1853  0.0641  0.4924
  770MPD2    C211417   3.378   4.293  15.295 -0.8138  0.7224  0.5076
  770MPD2    C311418   3.354   4.413  15.360  0.6048 -0.2220 -0.1059
  770MPD2    C411419   3.274   4.423  15.470 -0.1045  0.5771 -0.2435
  770MPD2    C511420   3.229   4.308  15.526 -0.3430 -0.2539  0.6041
  770MPD2     H11421   3.432   4.289  15.201  0.2055 -2.1455  1.2007
  770MPD2    H111422   3.253   4.517  15.519 -2.5527 -0.3383  0.4859
  770MPD2    H211423   3.214   4.090  15.506  1.2215 -0.4252 -1.7433
  770MPD2    H311424   3.186   4.310  15.625  0.4208  1.1081  0.8959
  770MPD2     N11425   3.401   4.531  15.298  0.5019  0.2016  0.4618
  770MPD2    H511426   3.444   4.517  15.207 -0.5791 -1.6420  0.2427
  770MPD2    N111427   3.354   4.051  15.291 -0.6861 -0.3283 -0.5971
  770MPD2    H711428   3.304   3.979  15.343 -0.8352 -0.3652 -0.7918
  771MPD2     C11429   0.104   2.622  14.284 -0.0942 -0.4179 -0.3078
  771MPD2    C111430   0.101   2.751  14.244  0.3093 -0.2942  0.2106
  771MPD2    C211431   0.034   2.768  14.125 -0.3021  0.7483  0.4391
  771MPD2    C311432   4.711   2.671  14.048  0.1102  0.0073  0.9514
  771MPD2    C411433   4.721   2.541  14.091  0.1067 -0.4858  0.4394
  771MPD2    C511434   0.063   2.517  14.199  0.2714  0.3867  0.5190
  771MPD2     H11435   0.042   2.865  14.076  1.3339  0.7828  0.7938
  771MPD2    H111436   4.679   2.457  14.038  1.1256 -0.6436 -0.1148
  771MPD2    H211437   0.147   2.605  14.382 -0.4006  2.1885  0.2680
  771MPD2    H311438   0.073   2.417  14.239 -0.5538 -0.7121 -2.0091
  771MPD2     N11439   4.650   2.706  13.924 -0.4333  0.4010  0.0111
  771MPD2    H511440   4.634   2.804  13.904 -0.6700  0.1529 -1.0229
  771MPD2    N111441   0.155   2.861  14.317  0.0324 -0.3788  0.0272
  771MPD2    H711442   0.133   2.951  14.275  1.8654 -0.5332 -1.2761
  772MPD2     C11443   4.528   3.361  14.316 -0.2535 -0.3081  0.3654
  772MPD2    C111444   4.589   3.319  14.436  0.1424  0.0373  0.0518
  772MPD2    C211445   4.506   3.299  14.541  0.3798  0.4511 -0.1705
  772MPD2    C311446   4.368   3.319  14.538 -0.0313 -0.3578 -0.7805
  772MPD2    C411447   4.314   3.378  14.427  0.4259  0.6079  0.2039
  772MPD2    C511448   4.393   3.393  14.315 -0.5001 -0.9873 -0.1434
  772MPD2     H11449   4.551   3.286  14.639 -0.3389  2.6964  0.4465
  772MPD2    H111450   4.209   3.401  14.423  0.5259  0.8561 -1.2845
  772MPD2    H211451   4.584   3.362  14.224  0.3994  1.6543  0.7971
  772MPD2    H311452   4.348   3.445  14.231  1.6266 -0.6439 -1.0709
  772MPD2     N11453   4.274   3.288  14.641 -0.2737  0.1630  0.3774
  772MPD2    H511454   4.176   3.299  14.617 -0.3511  2.9337  2.0071
  772MPD2    N111455   4.722   3.279  14.447  0.7337 -0.5282  0.0354
  772MPD2    H711456   0.010   3.230  14.531 -2.5247 -0.2804  1.1195
  773MPD2     C11457   4.031   3.843   0.073 -0.6203 -0.9690 -0.2345
  773MPD2    C111458   3.961   3.730   0.032  0.2911 -0.1064  0.2717
  773MPD2    C211459   3.972   3.612   0.100  0.2647 -0.3773  0.0821
  773MPD2    C311460   4.053   3.600   0.209 -0.3846  0.0825 -0.7634
  773MPD2    C411461   4.123   3.716   0.246 -0.5504 -0.1875 -0.5048
  773MPD2    C511462   4.104   3.841   0.188 -0.1623  0.4200  0.0937
  773MPD2     H11463   3.918   3.522   0.073 -1.4183  1.2029 -1.8540
  773MPD2    H111464   4.191   3.715   0.330 -0.7484  1.2545 -0.3278
  773MPD2    H211465   4.034   3.939   0.022  3.3049 -0.1373  1.5606
  773MPD2    H311466   4.171   3.921   0.218  1.4564 -0.9230  0.0287
  773MPD2     N11467   4.059   3.483   0.283 -0.4591  0.0578 -0.2222
  773MPD2    H511468   3.982   3.424   0.256  1.3678 -1.0338 -3.0475
  773MPD2    N111469   3.872   3.737  17.677 -0.8654 -0.2673  0.1519
  773MPD2    H711470   3.827   3.647  17.666 -0.7748 -0.2602 -0.2682
  774MPD2     C11471   2.859   2.965  13.892 -0.4245 -0.7747 -0.0288
  774MPD2    C111472   2.948   3.045  13.961  0.2264 -1.4354 -0.3206
  774MPD2    C211473   2.974   3.175  13.919  0.4824  0.2049  0.4914
  774MPD2    C311474   2.926   3.215  13.794  0.5828 -0.1491  0.2403
  774MPD2    C411475   2.845   3.130  13.717 -0.5618 -0.0966  0.0986
  774MPD2    C511476   2.820   3.005  13.763 -0.3544  0.2502 -0.4064
  774MPD2     H11477   3.035   3.246  13.975 -1.4143  0.1745  2.5552
  774MPD2    H111478   2.819   3.156  13.615 -1.8090  2.5820  1.1041
  774MPD2    H211479   2.839   2.864  13.927 -2.4033 -0.8717 -1.4341
  774MPD2    H311480   2.782   2.931  13.694 -0.3451 -0.2696  0.1464
  774MPD2     N11481   2.966   3.340  13.747 -0.0581  0.4006  0.1316
  774MPD2    H511482   3.026   3.392  13.811 -2.1574  3.2610 -0.2572
  774MPD2    N111483   2.995   2.988  14.076  0.1031  0.2862 -0.6238
  774MPD2    H711484   2.966   2.891  14.089  2.5246 -0.3250  0.1253
  775MPD2     C11485   4.549   4.661  15.734 -0.0837 -0.1680  0.4982
  775MPD2    C111486   4.599   4.703  15.851 -0.2732  0.6765 -0.3772
  775MPD2    C211487   4.711   0.047  15.855  0.2377 -0.0571 -0.3864
  775MPD2    C311488   0.014   0.093  15.730 -0.8461 -0.3947 -0.3894
  775MPD2    C411489   4.701   0.041  15.608 -0.2592 -0.3732 -0.6576
  775MPD2    C511490   4.596   4.696  15.608  0.3634 -0.0680  0.0354
  775MPD2     H11491   0.010   0.073  15.954 -0.7192 -0.1721 -0.0012
  775MPD2    H111492   4.736   0.081  15.514 -2.0140  0.1975 -1.0618
  775MPD2    H211493   4.456   4.605  15.733 -0.0558 -0.1955 -0.4294
  775MPD2    H311494   4.550   4.670  15.513  2.4324 -1.9085 -0.4538
  775MPD2     N11495   0.119   0.192  15.733 -0.0942 -0.6232 -0.3865
  775MPD2    H511496   0.140   0.235  15.644 -0.8197  1.3299  0.3904
  775MPD2    N111497   4.539   4.648  15.971  0.0116  0.2464  0.1261
  775MPD2    H711498   4.458   4.590  15.953  0.4922 -0.0109 -1.2167
  776MPD2     C11499   3.050   0.564  11.891  0.0594  0.9179  0.7485
  776MPD2    C111500   3.176   0.523  11.913 -0.2942  0.0506 -0.1459
  776MPD2    C211501   3.281   0.586  11.851  0.1145 -0.5195  0.0353
  776MPD2    C311502   3.248   0.691  11.764 -0.4836  0.5181 -0.0385
  776MPD2    C411503   3.114   0.733  11.746 -0.4480  0.0088 -0.0572
  776MPD2    C511504   3.024   0.676  11.823 -0.1719 -0.2263 -0.1090
  776MPD2     H11505   3.380   0.549  11.876  0.6133 -0.0587 -1.2660
  776MPD2    H111506   3.091   0.820  11.686 -1.1282 -0.5711 -0.6418
  776MPD2    H211507   2.975   0.507  11.945 -1.2332  0.3864 -1.6020
  776MPD2    H311508   2.923   0.713  11.807  0.3721 -0.2955 -3.8867
  776MPD2     N11509   3.340   0.768  11.696  0.0806  0.7489 -0.7068
  776MPD2    H511510   3.307   0.833  11.625 -0.7186  0.7054 -0.3794
  776MPD2    N111511   3.193   0.411  11.999 -0.1631 -0.2772 -0.0795
  776MPD2    H711512   3.123   0.386  12.067 -2.1972  2.1146 -1.2940
  777MPD2     C11513   4.202   2.081   0.963 -0.5849  0.6880 -0.4177
  777MPD2    C111514   4.081   2.105   1.020 -0.8662 -0.5183 -0.2297
  777MPD2    C211515   3.970   2.042   0.971  0.0637 -1.0619  0.5383
  777MPD2    C311516   3.982   1.950   0.867  0.4276  0.3205 -0.0373
  777MPD2    C411517   4.103   1.929   0.804  0.3058  0.5704  1.1450
  777MPD2    C511518   4.212   1.992   0.859  0.4040 -0.5331  0.3258
  777MPD2     H11519   3.873   2.064   1.014  0.0917  2.3196 -1.1690
  777MPD2    H111520   4.113   1.868   0.716  0.3935  0.2650  1.3696
  777MPD2    H211521   4.290   2.136   0.992 -0.7172  0.0523  1.1645
  777MPD2    H311522   4.308   1.977   0.811 -0.6208  0.2527 -1.9555
  777MPD2     N11523   3.866   1.892   0.824  0.2475  0.5063 -0.2232
  777MPD2    H511524   3.781   1.935   0.860 -0.2979 -0.6139 -0.1993
  777MPD2    N111525   4.083   2.178   1.139  0.0297 -0.7492  0.5254
  777MPD2    H711526   4.172   2.183   1.188  0.7636 -1.4242 -0.7419
  778MPD2     C11527   0.144   2.646  15.655  0.1080  0.5424  0.1640
  778MPD2    C111528   0.157   2.585  15.534 -0.0143 -0.0946  0.1487
  778MPD2    C211529   0.182   2.666  15.428  0.4686  0.1465  0.2326
  778MPD2    C311530   0.190   2.802  15.435 -0.4914  0.8261  0.0102
  778MPD2    C411531   0.177   2.860  15.558 -0.4602  0.3793 -0.5430
  778MPD2    C511532   0.158   2.781  15.666 -0.2346  0.6843  0.1203
  778MPD2     H11533   0.198   2.609  15.337  1.0844  0.3028  0.2446
  778MPD2    H111534   0.196   2.965  15.578  1.8087  0.2621 -2.1509
  778MPD2    H211535   0.109   2.592  15.742 -0.1725 -1.2918 -1.0783
  778MPD2    H311536   0.159   2.831  15.762  0.9911 -0.6694  0.8047
  778MPD2     N11537   0.231   2.869  15.316 -0.0207 -1.0523  0.1492
  778MPD2    H511538   0.264   2.808  15.243 -0.9291  1.6873 -2.5254
  778MPD2    N111539   0.119   2.453  15.517 -0.6904 -0.8611 -0.3598
  778MPD2    H711540   0.114   2.424  15.420 -1.9713 -0.4980 -0.3958
  779MPD2     C11541   4.576   1.557  14.448 -0.8632  0.3932  0.3039
  779MPD2    C111542   4.695   1.561  14.507 -0.1112 -0.3749 -1.0008
  779MPD2    C211543   0.038   1.680  14.520  0.4175  0.4322  0.2209
  779MPD2    C311544   4.714   1.802  14.487  0.2292 -0.6454 -0.0760
  779MPD2    C411545   4.588   1.793  14.432 -0.1505 -0.3947 -0.2710
  779MPD2    C511546   4.524   1.677  14.404  0.2707 -0.1234 -0.0977
  779MPD2     H11547   0.134   1.680  14.570  0.5304  0.5827  0.0030
  779MPD2    H111548   4.538   1.880  14.391 -0.2624 -1.0688 -1.6024
  779MPD2    H211549   4.514   1.469  14.439 -1.5952  0.6100  3.3771
  779MPD2    H311550   4.433   1.687  14.344  0.4497  1.0077 -0.1884
  779MPD2     N11551   0.053   1.921  14.513 -0.7962 -0.5442 -0.2651
  779MPD2    H511552   0.144   1.915  14.557 -1.2796 -0.7939  0.6856
  779MPD2    N111553   0.014   1.439  14.558  0.2208  1.0172  0.2049
  779MPD2    H711554   0.110   1.446  14.588  0.8570  0.0367 -1.5978
  780MPD2     C11555   3.474   0.906   0.824 -0.2646  0.0938  0.0500
  780MPD2    C111556   3.562   0.800   0.834  0.0512 -1.7376  0.3650
  780MPD2    C211557   3.685   0.807   0.772 -0.7815  0.2402  1.1919
  780MPD2    C311558   3.716   0.927   0.707  0.1210  0.1562  0.8190
  780MPD2    C411559   3.624   1.031   0.703 -0.2960  0.3564 -0.2004
  780MPD2    C511560   3.506   1.019   0.761  0.2733 -0.7391 -0.8206
  780MPD2     H11561   3.750   0.721   0.763  0.0199  0.7879  1.7888
  780MPD2    H111562   3.641   1.116   0.638  1.8380 -0.3724 -0.6216
  780MPD2    H211563   3.374   0.904   0.865 -1.1745 -1.1290 -2.2143
  780MPD2    H311564   3.437   1.101   0.748 -0.1310 -0.7897  1.0670
  780MPD2     N11565   3.841   0.941   0.633  0.8924  0.0753 -0.2477
  780MPD2    H511566   3.894   0.855   0.620  0.7595 -0.2060  1.0701
  780MPD2    N111567   3.522   0.692   0.919  0.4449  0.2324  0.1695
  780MPD2    H711568   3.426   0.693   0.950  1.1123  4.1019  2.1726
  781MPD2     C11569   1.695   3.753  12.183 -0.3974 -0.6884 -0.0589
  781MPD2    C111570   1.607   3.647  12.197 -0.1342 -0.6137  0.3438
  781MPD2    C211571   1.623   3.536  12.120 -0.0256  0.8375 -0.5099
  781MPD2    C311572   1.736   3.521  12.042 -0.0442  0.6001 -0.5298
  781MPD2    C411573   1.830   3.621  12.036  0.4933 -0.0847 -0.6900
  781MPD2    C511574   1.808   3.737  12.105 -0.6712  0.1094  0.4440
  781MPD2     H11575   1.554   3.453  12.129  0.2110  0.6048 -0.7956
  781MPD2    H111576   1.919   3.615  11.974  0.6308  1.4894 -0.6458
  781MPD2    H211577   1.688   3.848  12.236 -1.0409 -0.8847  0.2013
  781MPD2    H311578   1.880   3.818  12.101 -0.8422  0.2219 -0.4216
  781MPD2     N11579   1.781   3.404  11.985  0.4483 -0.0245  0.3761
  781MPD2    H511580   1.878   3.397  11.955  0.7136  1.3283  0.9010
  781MPD2    N111581   1.501   3.646  12.291 -0.5368 -0.2495 -0.2566
  781MPD2    H711582   1.434   3.571  12.281  0.0277 -0.7096 -0.5961
  782MPD2     C11583   3.337   4.153  10.654 -0.1628  0.0167 -0.1673
  782MPD2    C111584   3.456   4.100  10.693  0.6569  0.2483  0.8410
  782MPD2    C211585   3.539   4.173  10.783  0.7180 -0.9267  0.1813
  782MPD2    C311586   3.503   4.298  10.826  0.5028 -0.6404 -0.2180
  782MPD2    C411587   3.387   4.353  10.777 -0.1513  0.1183  0.9082
  782MPD2    C511588   3.304   4.282  10.695 -0.1871 -0.5499 -0.3621
  782MPD2     H11589   3.630   4.123  10.815  1.3382 -0.8777 -1.5177
  782MPD2    H111590   3.356   4.451  10.812  0.9702  1.4488 -1.7877
  782MPD2    H211591   3.284   4.104  10.573  1.7023 -1.6496 -0.3624
  782MPD2    H311592   3.211   4.332  10.670 -0.9999 -2.0410 -0.2682
  782MPD2     N11593   3.589   4.362  10.917 -0.3642  0.0559 -0.5384
  782MPD2    H511594   3.675   4.310  10.934 -1.3812 -0.5784  2.7163
  782MPD2    N111595   3.487   3.971  10.651  0.0812 -0.2526  0.9150
  782MPD2    H711596   3.416   3.924  10.596  0.2177 -1.1522  1.5202
  783MPD2     C11597   3.542   3.652  11.450 -0.9890 -0.2747 -0.6460
  783MPD2    C111598   3.633   3.744  11.395 -0.3749  0.2000 -0.7645
  783MPD2    C211599   3.649   3.736  11.260  0.1927  0.1802  0.2531
  783MPD2    C311600   3.566   3.662  11.180  0.8521 -0.7778  0.4186
  783MPD2    C411601   3.471   3.587  11.237 -0.7706 -0.4828  0.8819
  783MPD2    C511602   3.466   3.581  11.373 -0.1294 -0.2531  0.2348
  783MPD2     H11603   3.734   3.794  11.225 -0.5942  0.5922 -0.9887
  783MPD2    H111604   3.398   3.525  11.185 -0.6620  0.8809 -0.8984
  783MPD2    H211605   3.540   3.644  11.558 -0.6145  1.4127 -0.5156
  783MPD2    H311606   3.382   3.533  11.421 -1.4557 -0.5747 -2.3954
  783MPD2     N11607   3.597   3.644  11.045 -0.0767  0.1784  0.2227
  783MPD2    H511608   3.686   3.683  11.014 -0.1324 -0.4689 -0.7453
  783MPD2    N111609   3.706   3.827  11.480 -0.2735  0.1123 -0.2727
  783MPD2    H711610   3.720   3.802  11.577  0.2602 -2.2440 -0.9553
  784MPD2     C11611   2.453   3.896   0.719 -0.3303  0.7176  0.2113
  784MPD2    C111612   2.365   3.958   0.809  0.6224  0.4411 -0.7156
  784MPD2    C211613   2.285   4.060   0.763 -0.4734  0.0971 -0.0124
  784MPD2    C311614   2.285   4.103   0.629  0.2848 -0.2753 -0.1502
  784MPD2    C411615   2.350   4.019   0.535 -0.1977 -0.3573 -0.0036
  784MPD2    C511616   2.440   3.922   0.585 -0.3408  0.5450  0.1715
  784MPD2     H11617   2.223   4.115   0.833  1.6112  0.1918  1.7506
  784MPD2    H111618   2.348   4.039   0.428 -1.2066 -1.1672 -0.1370
  784MPD2    H211619   2.522   3.820   0.754  0.4389  0.2924 -2.2708
  784MPD2    H311620   2.497   3.864   0.514 -0.0773  2.2347 -0.9934
  784MPD2     N11621   2.214   4.217   0.597  0.3118  0.9495  0.3610
  784MPD2    H511622   2.182   4.233   0.502 -2.4803  3.3230  1.7011
  784MPD2    N111623   2.374   3.930   0.952 -0.1026 -0.1379 -0.5314
  784MPD2    H711624   2.319   3.990   1.012  1.4485 -1.1375  1.9087
  785MPD2     C11625   1.879   3.363  11.604  0.1102  0.0703  0.0342
  785MPD2    C111626   1.781   3.460  11.614 -1.0767  0.1214 -0.0647
  785MPD2    C211627   1.651   3.425  11.577  0.0401 -0.0055 -0.1845
  785MPD2    C311628   1.622   3.303  11.517 -0.0733 -0.4761 -0.7196
  785MPD2    C411629   1.727   3.213  11.504  0.2497  0.0871 -0.9424
  785MPD2    C511630   1.853   3.240  11.550  0.4959 -0.0936 -0.5976
  785MPD2     H11631   1.570   3.493  11.600  0.4755  0.2315  0.6430
  785MPD2    H111632   1.708   3.113  11.468  0.3787 -1.5267  3.4895
  785MPD2    H211633   1.983   3.381  11.625  0.2602 -2.0510  1.0356
  785MPD2    H311634   1.934   3.169  11.532  1.3517  1.6589 -3.7015
  785MPD2     N11635   1.499   3.293  11.447  0.7534  0.6390 -0.0747
  785MPD2    H511636   1.432   3.369  11.450  1.7529  1.4937  0.4392
  785MPD2    N111637   1.805   3.598  11.648 -0.0468 -0.5897 -0.1897
  785MPD2    H711638   1.729   3.663  11.627  1.1404  1.0078  0.4722
  786MPD2     C11639   0.492   0.786  14.974 -0.2527 -0.0580  0.0188
  786MPD2    C111640   0.591   0.687  14.967  0.1355 -0.2127  0.2765
  786MPD2    C211641   0.682   0.680  15.065  0.0850  0.5160 -0.2073
  786MPD2    C311642   0.701   0.787  15.156  0.5213  0.2116 -0.7823
  786MPD2    C411643   0.616   0.899  15.145 -0.2115 -0.1156 -0.5144
  786MPD2    C511644   0.507   0.888  15.058 -0.3126  0.1682 -0.0039
  786MPD2     H11645   0.759   0.605  15.051  0.5482  0.5667  1.9454
  786MPD2    H111646   0.631   0.991  15.201  1.6733 -0.8046  0.1234
  786MPD2    H211647   0.413   0.799  14.901 -0.9478  0.4079  0.8533
  786MPD2    H311648   0.427   0.962  15.054 -0.3218  0.1388 -0.3705
  786MPD2     N11649   0.811   0.793  15.252 -0.1352 -0.0278 -0.5626
  786MPD2    H511650   0.816   0.876  15.310 -2.8563 -0.7004  0.6186
  786MPD2    N111651   0.610   0.604  14.854 -0.4504  0.3247 -0.1020
  786MPD2    H711652   0.693   0.546  14.854 -0.3782  0.4527 -2.0505
  787MPD2     C11653   0.824   0.008  14.889  0.0945 -0.4210  0.0880
  787MPD2    C111654   0.858   0.057  14.767  0.5049  0.2902 -0.2485
  787MPD2    C211655   0.971   0.015  14.707 -0.3717 -0.3534 -0.7792
  787MPD2    C311656   1.060   4.669  14.769  0.6157  0.3623  0.0708
  787MPD2    C411657   1.030   4.626  14.901 -0.2529  0.7532  0.2472
  787MPD2    C511658   0.910   4.664  14.955  0.3581 -0.5051  0.5162
  787MPD2     H11659   0.997   0.060  14.612  1.6964 -0.8998 -0.4829
  787MPD2    H111660   1.074   4.542  14.954 -4.0175 -0.8857  0.7939
  787MPD2    H211661   0.726   0.036  14.928 -0.7453  0.4924 -2.6872
  787MPD2    H311662   0.881   4.632  15.055  0.8737 -2.5014  0.0387
  787MPD2     N11663   1.173   4.612  14.698  0.2841 -0.0544  0.3165
  787MPD2    H511664   1.184   4.653  14.606 -0.1821 -2.5193 -0.8193
  787MPD2    N111665   0.769   0.150  14.705 -0.0396 -0.3554 -0.1379
  787MPD2    H711666   0.691   0.186  14.759  0.8441  1.8932 -0.3570
  788MPD2     C11667   2.767   3.317   1.336  0.2201 -0.6336 -0.0860
  788MPD2    C111668   2.696   3.253   1.232  0.2636 -0.2351 -0.6709
  788MPD2    C211669   2.686   3.320   1.113 -0.3269  0.4672  0.7441
  788MPD2    C311670   2.761   3.433   1.081  0.3821 -0.5585 -0.6568
  788MPD2    C411671   2.835   3.495   1.181 -0.1085 -0.0525 -0.4149
  788MPD2    C511672   2.839   3.427   1.302 -0.0055  0.0286  0.2890
  788MPD2     H11673   2.628   3.275   1.034  0.8514  2.7012 -1.3923
  788MPD2    H111674   2.904   3.578   1.171 -1.7916  1.6107  1.7255
  788MPD2    H211675   2.772   3.281   1.438 -0.5974 -3.5325 -1.0883
  788MPD2    H311676   2.900   3.475   1.377  1.9294  0.3803 -1.5189
  788MPD2     N11677   2.765   3.489   0.953 -0.7839 -0.0823  0.5492
  788MPD2    H511678   2.838   3.556   0.931  0.8072 -1.5766  1.3039
  788MPD2    N111679   2.639   3.124   1.254  0.2197 -0.0735  0.0203
  788MPD2    H711680   2.658   3.094   1.349 -2.1308  0.7672  0.7722
  789MPD2     C11681   2.486   2.987  16.355  0.1689 -0.4103  1.0042
  789MPD2    C111682   2.562   2.996  16.466 -0.9789 -0.2344 -0.1311
  789MPD2    C211683   2.552   3.096  16.554  0.6024  0.1300 -0.2467
  789MPD2    C311684   2.456   3.193  16.528  0.3327 -1.1428  0.2419
  789MPD2    C411685   2.368   3.179  16.427  0.3225  0.5542  0.4707
  789MPD2    C511686   2.388   3.079  16.338 -0.3463 -0.4919  0.0480
  789MPD2     H11687   2.616   3.099  16.642 -1.2606  3.7565  0.9648
  789MPD2    H111688   2.293   3.253  16.400 -2.1500 -1.8059  0.8796
  789MPD2    H211689   2.512   2.914  16.279 -2.4206 -0.3554  0.0655
  789MPD2    H311690   2.334   3.073  16.244  0.2779 -0.7354 -0.2930
  789MPD2     N11691   2.449   3.313  16.610 -0.2571  0.2533 -0.0903
  789MPD2    H511692   2.382   3.382  16.578  0.9880  0.4339 -2.2741
  789MPD2    N111693   2.649   2.889  16.511 -0.5432  0.2420  0.0236
  789MPD2    H711694   2.697   2.906  16.599  2.3727 -0.3370 -1.4570
  790MPD2     C11695   3.568   0.505  14.021  0.1649 -0.5041  0.1182
  790MPD2    C111696   3.655   0.409  13.980  0.2981  0.1984  0.1631
  790MPD2    C211697   3.650   0.357  13.857 -0.5638  0.0643 -0.4926
  790MPD2    C311698   3.567   0.407  13.761  0.2995  0.3865 -0.1504
  790MPD2    C411699   3.484   0.506  13.801 -0.1945  0.2481  0.3689
  790MPD2    C511700   3.488   0.561  13.926  0.4211  0.1861 -0.2701
  790MPD2     H11701   3.718   0.277  13.831  0.1535  0.3575  0.4518
  790MPD2    H111702   3.405   0.545  13.737 -0.2788  0.3572  0.5412
  790MPD2    H211703   3.548   0.534  14.123  0.0661  0.2784 -0.1221
  790MPD2    H311704   3.405   0.624  13.954  0.0604 -0.0869 -0.7085
  790MPD2     N11705   3.571   0.356  13.625  0.1597  0.1604 -0.1502
  790MPD2    H511706   3.637   0.280  13.610  0.1177  0.5170 -2.0606
  790MPD2    N111707   3.733   0.350  14.082  0.0674 -0.6072 -0.1281
  790MPD2    H711708   3.717   0.379  14.178 -1.5525 -1.2503 -0.2055
  791MPD2     C11709   2.995   0.310  12.907  0.2247 -0.5234  0.1518
  791MPD2    C111710   3.031   0.243  13.021 -0.2709  0.3415  0.4970
  791MPD2    C211711   2.945   0.145  13.071  0.4122 -0.5797 -0.6753
  791MPD2    C311712   2.825   0.126  13.004  0.0665  0.4115  0.3384
  791MPD2    C411713   2.795   0.187  12.887  0.9473 -0.5691  0.3537
  791MPD2    C511714   2.880   0.280  12.838  0.0163  0.1334 -0.3355
  791MPD2     H11715   2.964   0.090  13.163 -0.3039  1.1749  0.5389
  791MPD2    H111716   2.706   0.167  12.828  1.9886  1.8761 -2.0554
  791MPD2    H211717   3.061   0.384  12.863  0.7672 -0.0965  1.6889
  791MPD2    H311718   2.861   0.334  12.746 -2.2781  1.4523  0.9220
  791MPD2     N11719   2.735   0.029  13.055 -0.0897 -0.3359 -0.1091
  791MPD2    H511720   2.777   4.704  13.123 -0.2453 -1.3452 -0.9379
  791MPD2    N111721   3.156   0.277  13.080  0.8491 -0.0119  0.1221
  791MPD2    H711722   3.199   0.363  13.049  2.0190  0.6871  3.6783
  792MPD2     C11723   3.895   0.323  11.619  0.5414  0.3120 -0.3462
  792MPD2    C111724   3.838   0.389  11.515 -0.0093  0.3709 -0.3386
  792MPD2    C211725   3.703   0.402  11.522 -0.2537  0.2894  0.3802
  792MPD2    C311726   3.626   0.364  11.628  0.4577  0.2969  0.3704
  792MPD2    C411727   3.680   0.299  11.732 -0.3637  0.8247 -0.1280
  792MPD2    C511728   3.818   0.274  11.727  0.5888 -0.0753  0.1355
  792MPD2     H11729   3.660   0.448  11.434  2.5255  1.3334 -0.4304
  792MPD2    H111730   3.625   0.275  11.823  1.3511  2.8710  1.4493
  792MPD2    H211731   4.002   0.320  11.637  0.2919 -1.4297  0.8940
  792MPD2    H311732   3.865   0.229  11.813  0.0698 -0.9355 -0.0340
  792MPD2     N11733   3.485   0.387  11.626  0.0967 -0.3937  0.2246
  792MPD2    H511734   3.438   0.369  11.714  0.9269 -0.3846  0.6700
  792MPD2    N111735   3.921   0.433  11.407 -0.4298 -0.5497  0.1963
  792MPD2    H711736   4.020   0.410  11.415 -0.2347 -0.0075 -0.6624
  793MPD2     C11737   2.841   0.452  10.868 -0.3116  0.0821  0.0905
  793MPD2    C111738   2.977   0.448  10.884  0.8014 -0.5790 -0.0942
  793MPD2    C211739   3.030   0.470  11.009 -0.0648  1.0514  0.9340
  793MPD2    C311740   2.948   0.478  11.122  0.6197 -0.3964 -0.0750
  793MPD2    C411741   2.813   0.485  11.102  0.1334 -1.1053  0.1698
  793MPD2    C511742   2.767   0.468  10.976 -0.0522 -0.8279 -0.3895
  793MPD2     H11743   3.137   0.468  11.026 -0.0119 -0.8914  0.3665
  793MPD2    H111744   2.739   0.505  11.179  1.6471  0.0349  1.3285
  793MPD2    H211745   2.795   0.441  10.771 -1.4886 -0.0397  0.6696
  793MPD2    H311746   2.661   0.486  10.962  0.1531  0.3256 -0.4441
  793MPD2     N11747   3.011   0.486  11.246  0.4573  0.2628 -0.0940
  793MPD2    H511748   3.112   0.474  11.247  0.5458  1.0514  0.4388
  793MPD2    N111749   3.065   0.420  10.779  0.0946  0.3005  0.6017
  793MPD2    H711750   3.161   0.416  10.810 -0.2139 -0.4718  1.4498
  794MPD2     C11751   3.798   4.008  16.829  0.3122 -0.6294  0.3506
  794MPD2    C111752   3.692   3.936  16.886  0.1397 -0.1408  0.1830
  794MPD2    C211753   3.569   3.937  16.824 -0.0239  0.3159 -0.7357
  794MPD2    C311754   3.546   3.998  16.702  0.2467 -0.3037  0.9316
  794MPD2    C411755   3.658   4.058  16.646  0.7354  0.7613  0.6126
  794MPD2    C511756   3.780   4.064  16.707 -0.3511 -0.3185  0.0490
  794MPD2     H11757   3.489   3.883  16.875  0.8438 -2.6326 -2.5210
  794MPD2    H111758   3.651   4.086  16.542 -1.6050 -0.0887  0.5364
  794MPD2    H211759   3.893   4.018  16.881  0.6888  0.2530 -0.5033
  794MPD2    H311760   3.856   4.119  16.654  0.0699 -0.7014  0.2578
  794MPD2     N11761   3.415   4.010  16.637 -0.0345  0.8536 -1.1280
  794MPD2    H511762   3.408   4.060  16.549  1.9125  1.5577 -0.8748
  794MPD2    N111763   3.706   3.873  17.012  0.2148  0.5686 -0.3377
  794MPD2    H711764   3.629   3.810  17.032  0.8291  0.9632  3.2304
  795MPD2     C11765   1.047   2.106  13.695 -0.1744  0.3386 -0.0298
  795MPD2    C111766   1.006   2.002  13.616 -0.6012 -0.2681  0.7880
  795MPD2    C211767   1.070   1.884  13.625 -0.0857  0.6092 -0.5297
  795MPD2    C311768   1.182   1.866  13.699 -0.8074 -0.0633  0.1666
  795MPD2    C411769   1.218   1.967  13.791  0.3821  0.6845 -0.3600
  795MPD2    C511770   1.155   2.083  13.783 -0.3787 -0.0267 -0.1442
  795MPD2     H11771   1.027   1.807  13.562  0.8451  0.3401 -0.8294
  795MPD2    H111772   1.303   1.953  13.857  0.5007 -1.0193 -0.8868
  795MPD2    H211773   1.023   2.211  13.691 -1.2051  0.1253  0.6523
  795MPD2    H311774   1.192   2.164  13.846 -1.2940  0.8949 -0.7884
  795MPD2     N11775   1.259   1.751  13.685 -0.1834 -0.0032 -0.3987
  795MPD2    H511776   1.206   1.671  13.651 -0.6817  1.6444 -3.5289
  795MPD2    N111777   0.896   2.018  13.524 -0.3648  0.2813 -0.0804
  795MPD2    H711778   0.872   1.943  13.460  1.8218 -0.6380  0.1661
  796MPD2     C11779   0.693   2.990  16.671  0.9131 -0.3005  0.5593
  796MPD2    C111780   0.830   3.002  16.650 -0.4555 -0.9481 -0.1013
  796MPD2    C211781   0.873   3.109  16.573  0.6744 -0.7091 -0.0121
  796MPD2    C311782   0.786   3.204  16.519  0.6665  0.5779  0.5101
  796MPD2    C411783   0.653   3.198  16.560  0.1323  0.2347  0.1995
  796MPD2    C511784   0.607   3.088  16.630 -0.1498 -0.4037  1.1511
  796MPD2     H11785   0.977   3.106  16.545  1.0967 -0.7231  1.5842
  796MPD2    H111786   0.584   3.278  16.535  0.2285  0.5486  0.9360
  796MPD2    H211787   0.663   2.905  16.732  0.0108 -2.0928 -2.3945
  796MPD2    H311788   0.500   3.078  16.644 -0.1330 -0.1057  1.4813
  796MPD2     N11789   0.843   3.299  16.429  0.9672  0.6807  0.1839
  796MPD2    H511790   0.944   3.303  16.416  0.7542  2.1875 -0.9403
  796MPD2    N111791   0.914   2.901  16.696 -0.4558  0.1096 -0.4716
  796MPD2    H711792   0.869   2.826  16.747 -0.2560  0.5487  0.3548
  797MPD2     C11793   1.692   2.077   0.128  0.3899  0.3214  0.3243
  797MPD2    C111794   1.771   2.164   0.199 -1.1279  0.4590  0.6280
  797MPD2    C211795   1.735   2.293   0.202 -0.4250 -0.9049  0.8416
  797MPD2    C311796   1.629   2.343   0.122  0.2211 -0.8577 -0.6811
  797MPD2    C411797   1.545   2.254   0.057 -1.2944 -1.0576 -0.3781
  797MPD2    C511798   1.582   2.120   0.058 -0.1017  0.6011  0.4566
  797MPD2     H11799   1.804   2.353   0.260 -1.3604 -1.2658  2.3115
  797MPD2    H111800   1.454   2.281   0.005 -1.5029 -0.5503  0.2425
  797MPD2    H211801   1.711   1.971   0.135  1.0641  0.4753  0.8568
  797MPD2    H311802   1.515   2.046   0.017  1.6619  0.2005 -1.7129
  797MPD2     N11803   1.607   2.486   0.139 -0.0434 -0.2629  0.8962
  797MPD2    H511804   1.677   2.520   0.204  0.4874 -1.7410  1.1168
  797MPD2    N111805   1.890   2.136   0.269  0.2969  0.1992  0.4799
  797MPD2    H711806   1.929   2.213   0.322 -0.3599  1.1495 -0.4127
  798MPD2     C11807   2.196   2.845   0.228  0.5436 -0.1110  0.1347
  798MPD2    C111808   2.085   2.771   0.203  0.3660  0.4639  0.2438
  798MPD2    C211809   2.104   2.632   0.206 -0.4533  0.2598  0.4487
  798MPD2    C311810   2.219   2.572   0.243  0.3874  0.4487 -0.4948
  798MPD2    C411811   2.325   2.647   0.282 -0.2154 -0.2051 -0.2421
  798MPD2    C511812   2.313   2.783   0.263 -0.6592 -1.2326  0.2073
  798MPD2     H11813   2.018   2.571   0.182  0.5971 -0.3620 -1.8531
  798MPD2    H111814   2.418   2.603   0.313  0.8375  0.7380 -2.0693
  798MPD2    H211815   2.190   2.953   0.224 -1.9066 -0.3410 -2.7352
  798MPD2    H311816   2.402   2.838   0.293 -2.1136  2.3677 -2.0247
  798MPD2     N11817   2.221   2.429   0.263 -0.0092 -0.3272 -0.4077
  798MPD2    H511818   2.148   2.372   0.220  0.6197 -1.8251  0.5552
  798MPD2    N111819   1.957   2.841   0.188 -0.6358 -1.0517  0.2378
  798MPD2    H711820   1.965   2.942   0.184  1.8608 -1.2202  0.8419
  799MPD2     C11821   0.679   4.367  14.654 -0.0161  0.0205 -0.2082
  799MPD2    C111822   0.548   4.328  14.628  0.6068 -0.2514 -0.4038
  799MPD2    C211823   0.466   4.414  14.551 -0.0459 -0.0361  0.2746
  799MPD2    C311824   0.521   4.529  14.492  0.1911  0.1478  0.1203
  799MPD2    C411825   0.646   4.570  14.532 -0.2339 -0.4511  0.8423
  799MPD2    C511826   0.718   4.488  14.606  0.3472 -0.5500 -0.5842
  799MPD2     H11827   0.365   4.381  14.527  0.4113 -1.5244  0.3997
  799MPD2    H111828   0.693   4.663  14.501 -2.6003  1.2868  2.4792
  799MPD2    H211829   0.749   4.311  14.715 -0.0772 -0.1755 -0.3164
  799MPD2    H311830   0.813   4.529  14.639  1.2765 -1.6965 -1.8536
  799MPD2     N11831   0.461   4.610  14.391 -0.3045 -0.4545  0.3887
  799MPD2    H511832   0.511   4.694  14.361 -4.3842  1.6774 -0.3623
  799MPD2    N111833   0.493   4.202  14.653 -0.4418  0.6958 -0.1084
  799MPD2    H711834   0.394   4.190  14.632 -0.3258  0.7939 -0.7069
  800MPD2     C11835   1.092   1.154  14.062 -0.4205  0.4237  0.0234
  800MPD2    C111836   1.113   1.269  13.986 -0.0787  0.3542 -0.7560
  800MPD2    C211837   1.034   1.289  13.869  0.1459 -0.4257 -0.8906
  800MPD2    C311838   0.935   1.204  13.834  0.1531  0.0651  0.4049
  800MPD2    C411839   0.903   1.099  13.916  0.3191 -0.4848  0.1347
  800MPD2    C511840   0.986   1.075  14.024 -0.4747  0.2838  0.7043
  800MPD2     H11841   1.045   1.371  13.798 -1.8427  0.5109 -0.1232
  800MPD2    H111842   0.831   1.021  13.895  0.5728  0.4761 -4.2319
  800MPD2    H211843   1.148   1.121  14.148  0.4269  1.4708 -0.1318
  800MPD2    H311844   0.957   1.002  14.099  0.5949 -0.7560  0.1138
  800MPD2     N11845   0.863   1.229  13.716  1.1012 -0.1819  0.1928
  800MPD2    H511846   0.895   1.309  13.663 -2.8685  2.0417  1.1710
  800MPD2    N111847   1.219   1.355  14.027  0.1701  0.3212  0.0708
  800MPD2    H711848   1.270   1.321  14.108  0.1759 -0.0856 -0.1070
  801MPD2     C11849   1.121   1.961  14.349  0.7753 -0.2014 -0.3660
  801MPD2    C111850   1.114   1.851  14.258 -0.8006 -0.5540 -1.0883
  801MPD2    C211851   1.024   1.748  14.275 -0.4944 -0.2586  0.5023
  801MPD2    C311852   0.937   1.748  14.384  0.5766 -0.0700  0.0593
  801MPD2    C411853   0.937   1.857  14.469 -0.1600 -0.2846 -0.6503
  801MPD2    C511854   1.032   1.962  14.455 -0.1238  0.0968 -0.4282
  801MPD2     H11855   1.035   1.664  14.208 -0.0739 -0.2799  0.5981
  801MPD2    H111856   0.883   1.866  14.562 -1.0753 -0.2792 -1.1833
  801MPD2    H211857   1.199   2.035  14.334  0.7454  0.3327  2.0515
  801MPD2    H311858   1.035   2.036  14.535  0.5936  0.7867 -1.0837
  801MPD2     N11859   0.840   1.655  14.415 -0.1053  0.4540 -0.2961
  801MPD2    H511860   0.791   1.659  14.504 -0.4070  1.0831 -0.4987
  801MPD2    N111861   1.221   1.822  14.172 -0.0693 -0.5014 -0.0415
  801MPD2    H711862   1.218   1.742  14.110  1.1784 -1.3325  0.9821
  802MPD2     C11863   0.731   1.030   0.657  0.4480 -0.4368  0.1056
  802MPD2    C111864   0.663   1.129   0.584  0.1063  0.0878 -0.7509
  802MPD2    C211865   0.647   1.105   0.447 -0.1664  0.7410 -0.0374
  802MPD2    C311866   0.723   1.004   0.376  0.5028 -0.4173  0.4572
  802MPD2    C411867   0.788   0.914   0.461 -0.4798 -0.8814 -0.4330
  802MPD2    C511868   0.797   0.930   0.598  0.1719 -0.2207 -0.3202
  802MPD2     H11869   0.578   1.168   0.392 -0.7376  1.1095  1.0985
  802MPD2    H111870   0.848   0.838   0.413 -0.1508 -0.6433 -0.3990
  802MPD2    H211871   0.753   1.037   0.763 -1.8263 -0.8440  0.5912
  802MPD2    H311872   0.856   0.854   0.648 -2.0267 -3.5868 -2.8561
  802MPD2     N11873   0.719   0.980   0.234 -0.3295 -0.7220 -0.3245
  802MPD2    H511874   0.773   0.902   0.200 -0.7622 -1.2104  0.1102
  802MPD2    N111875   0.572   1.219   0.645  0.3363  1.5350 -0.1949
  802MPD2    H711876   0.499   1.260   0.588  0.8987  1.3939 -1.0070
  803MPD2     C11877   1.514   0.397  12.189  0.1804 -0.2146  0.1437
  803MPD2    C111878   1.599   0.421  12.293  0.1667  1.0349  0.2942
  803MPD2    C211879   1.568   0.374  12.415  0.5288  0.0366  0.8619
  803MPD2    C311880   1.455   0.294  12.441 -0.7871 -0.2185  0.5501
  803MPD2    C411881   1.367   0.274  12.335 -0.3029 -0.5509  0.7816
  803MPD2    C511882   1.396   0.331  12.212 -0.4523 -0.2963 -0.4230
  803MPD2     H11883   1.624   0.380  12.508 -0.3134  2.3757  1.1996
  803MPD2    H111884   1.266   0.236  12.347 -1.3367  1.6755 -0.9274
  803MPD2    H211885   1.520   0.445  12.092  1.9863 -0.8128 -0.0368
  803MPD2    H311886   1.324   0.340  12.132 -2.4123 -2.6410  1.1016
  803MPD2     N11887   1.423   0.238  12.569 -0.2861 -0.0841  0.6312
  803MPD2    H511888   1.332   0.193  12.577  0.4082 -1.5548  0.1714
  803MPD2    N111889   1.720   0.485  12.272 -0.5301  0.2936 -0.3815
  803MPD2    H711890   1.769   0.502  12.359  0.0374 -1.5631 -0.3246
  804MPD2     C11891   0.994   0.930  17.183 -0.7257  0.3878 -0.2517
  804MPD2    C111892   1.051   0.894  17.305  0.3838  0.1109  0.8192
  804MPD2    C211893   1.102   1.005  17.381  0.6123 -0.2700  0.1405
  804MPD2    C311894   1.094   1.133  17.332 -0.4069  0.5852  0.3232
  804MPD2    C411895   1.015   1.164  17.220  0.3423  0.3409  0.3134
  804MPD2    C511896   0.979   1.055  17.147  0.4194  0.2177  0.2757
  804MPD2     H11897   1.158   0.983  17.471 -1.6635  1.3158  1.9379
  804MPD2    H111898   0.993   1.263  17.182 -0.6625 -0.3281 -0.8459
  804MPD2    H211899   0.944   0.860  17.118  2.3802  0.2637 -2.4663
  804MPD2    H311900   0.929   1.079  17.054 -0.0585  1.9386  0.9781
  804MPD2     N11901   1.149   1.239  17.410 -0.2829 -0.1953 -1.2698
  804MPD2    H511902   1.196   1.217  17.497 -0.9762 -1.0266 -1.1122
  804MPD2    N111903   1.056   0.758  17.343  0.2468  0.1719 -0.0273
  804MPD2    H711904   1.044   0.685  17.274 -0.6389  0.1758  0.1205
  805MPD2     C11905   0.562   4.724  15.850 -0.4939 -0.1381 -0.5532
  805MPD2    C111906   0.632   4.663  15.751 -0.0472  0.2466  0.3841
  805MPD2    C211907   0.752   4.607  15.778  0.3559  0.5864 -0.1643
  805MPD2    C311908   0.800   4.608  15.907  0.1168 -0.0546 -0.5973
  805MPD2    C411909   0.740   4.666  16.011  0.0362  0.6127  0.3112
  805MPD2    C511910   0.618   4.725  15.979 -0.3345 -0.4101  0.0323
  805MPD2     H11911   0.819   4.558  15.708 -0.9423  1.3381 -1.9376
  805MPD2    H111912   0.774   4.689  16.112 -0.9037  1.6742  0.3831
  805MPD2    H211913   0.465   0.033  15.837  0.6762  2.1007 -1.3348
  805MPD2    H311914   0.565   0.038  16.059 -0.8405  1.1191 -1.2627
  805MPD2     N11915   0.928   4.544  15.920  0.2249 -0.6858 -0.5726
  805MPD2    H511916   0.964   4.502  15.834 -0.1104 -1.2576 -0.4373
  805MPD2    N111917   0.578   4.639  15.623  0.1376 -0.3250 -0.0492
  805MPD2    H711918   0.623   4.570  15.564  0.6210  0.1014 -0.1779
  806MPD2     C11919   1.193   3.657   0.863 -0.3672  0.5588 -0.3566
  806MPD2    C111920   1.270   3.733   0.777  0.3383  0.2795  0.2015
  806MPD2    C211921   1.277   3.696   0.647  0.1627 -1.2237  0.1049
  806MPD2    C311922   1.214   3.583   0.594 -0.1794 -0.8726  0.0088
  806MPD2    C411923   1.142   3.499   0.680 -0.4670 -0.5095 -0.1006
  806MPD2    C511924   1.129   3.545   0.812 -0.2070 -0.0409  0.8520
  806MPD2     H11925   1.330   3.763   0.581 -1.1891  1.7314  2.0282
  806MPD2    H111926   1.083   3.418   0.639 -2.4832  1.1180 -0.4052
  806MPD2    H211927   1.184   3.686   0.967 -0.9118  0.3219 -0.3356
  806MPD2    H311928   1.076   3.471   0.871  0.4934 -1.7552 -0.6673
  806MPD2     N11929   1.205   3.571   0.452 -0.7863 -0.1142  0.3669
  806MPD2    H511930   1.238   3.647   0.394 -1.8847 -0.0179 -0.1320
  806MPD2    N111931   1.313   3.863   0.813  0.5891 -0.2099 -0.3927
  806MPD2    H711932   1.287   3.889   0.908  1.3168 -0.4384 -0.1275
  807MPD2     C11933   1.415   4.217   1.433  0.3491  0.0892 -0.1886
  807MPD2    C111934   1.348   4.143   1.342 -0.3510 -0.1117  0.1746
  807MPD2    C211935   1.219   4.099   1.372  0.5028  0.2056 -0.0408
  807MPD2    C311936   1.166   4.123   1.496 -0.0357  0.5483 -0.4593
  807MPD2    C411937   1.229   4.206   1.583 -0.4471 -0.3141  0.2542
  807MPD2    C511938   1.359   4.252   1.554  0.1715 -0.5889  0.4140
  807MPD2     H11939   1.166   4.041   1.298 -0.0063  0.4946  0.0974
  807MPD2    H111940   1.191   4.229   1.681  1.7067 -0.9417  1.2456
  807MPD2    H211941   1.514   4.253   1.408  0.7158 -1.1036 -0.4563
  807MPD2    H311942   1.406   4.318   1.626  0.1062  0.6425 -0.6588
  807MPD2     N11943   1.034   4.068   1.516  0.3354  0.1155  0.1259
  807MPD2    H511944   1.001   4.000   1.448  0.0813  0.5106 -0.1452
  807MPD2    N111945   1.401   4.114   1.212 -0.3837 -0.0410  0.0853
  807MPD2    H711946   1.346   4.052   1.154 -0.6347  0.4437 -0.2030
  808MPD2     C11947   0.527   0.667   9.919 -0.3925  0.0897 -0.1577
  808MPD2    C111948   0.594   0.578  10.001 -0.1235 -0.5294  0.2668
  808MPD2    C211949   0.715   0.618  10.058  0.1538  0.0396 -0.2915
  808MPD2    C311950   0.774   0.741  10.030 -0.0739  0.2162 -0.2024
  808MPD2    C411951   0.700   0.831   9.946  0.6419 -0.0826 -0.2812
  808MPD2    C511952   0.581   0.793   9.890 -0.2513 -0.4105 -0.0834
  808MPD2     H11953   0.764   0.545  10.121  1.6983  0.2170 -1.2729
  808MPD2    H111954   0.740   0.931   9.928  1.1891 -0.1560  0.5019
  808MPD2    H211955   0.430   0.648   9.875 -1.5216  0.0522  2.3536
  808MPD2    H311956   0.534   0.866   9.825 -0.0978  0.9081  1.3033
  808MPD2     N11957   0.902   0.778  10.070 -0.4226 -0.4004 -0.3581
  808MPD2    H511958   0.924   0.869  10.031 -0.2455 -0.2886  0.0081
  808MPD2    N111959   0.537   0.458  10.048 -0.4029  0.3202 -0.4365
  808MPD2    H711960   0.599   0.404  10.107 -0.6047  0.2057 -0.3295
  809MPD2     C11961   1.790   0.423   9.915  0.2723  0.4644  0.1956
  809MPD2    C111962   1.783   0.559   9.925  0.2902  0.4557 -0.5831
  809MPD2    C211963   1.684   0.614   9.994  0.2246 -0.4211 -0.1340
  809MPD2    C311964   1.583   0.537  10.051 -0.5768 -0.3254  1.0040
  809MPD2    C411965   1.591   0.394  10.031  0.2201 -0.4631  0.6396
  809MPD2    C511966   1.695   0.344   9.959 -0.0920 -0.2168 -0.5463
  809MPD2     H11967   1.673   0.722  10.001 -1.0431 -0.6122  0.8695
  809MPD2    H111968   1.517   0.321  10.064 -0.9801  0.2430 -0.5064
  809MPD2    H211969   1.867   0.373   9.857  1.9519  2.3134  0.8527
  809MPD2    H311970   1.705   0.237   9.943  1.3020 -0.6021  2.7833
  809MPD2     N11971   1.466   0.589  10.108  0.6473 -0.4768 -0.1990
  809MPD2    H511972   1.402   0.520  10.148  2.4549 -2.4829 -0.7463
  809MPD2    N111973   1.882   0.643   9.875  0.3226  0.0309  0.2178
  809MPD2    H711974   1.876   0.740   9.906  1.0247 -0.4878  1.9201
  810MPD2     C11975   0.485   0.169  11.356 -0.5170 -0.0172 -0.1850
  810MPD2    C111976   0.450   0.206  11.227 -0.0533 -0.7792  0.2862
  810MPD2    C211977   0.501   0.324  11.174  0.0798 -0.1190 -0.4737
  810MPD2    C311978   0.581   0.406  11.249 -0.3179 -0.3638  0.2527
  810MPD2    C411979   0.604   0.369  11.379 -0.4794 -0.4434 -0.1215
  810MPD2    C511980   0.556   0.257  11.430  0.5516  0.9607  0.1696
  810MPD2     H11981   0.474   0.360  11.076 -1.8725 -0.8138 -0.1883
  810MPD2    H111982   0.653   0.433  11.451 -1.0452 -1.3066  1.0336
  810MPD2    H211983   0.455   0.073  11.397  0.1913 -0.8196 -1.5640
  810MPD2    H311984   0.579   0.232  11.533 -1.7290  2.5372  1.0596
  810MPD2     N11985   0.638   0.515  11.186 -0.4491 -0.4925 -0.3435
  810MPD2    H511986   0.600   0.548  11.098  2.6196 -0.1102 -1.5192
  810MPD2    N111987   0.362   0.124  11.152 -0.6045 -0.4392  0.4985
  810MPD2    H711988   0.353   0.035  11.199 -1.0622 -0.2742  0.7221
  811MPD2     C11989   0.019   0.206  10.368  1.1260 -0.0705  0.6576
  811MPD2    C111990   0.121   0.225  10.458 -0.3929 -0.3711 -0.1749
  811MPD2    C211991   0.203   0.337  10.443  0.0555 -0.1466 -0.5972
  811MPD2    C311992   0.181   0.431  10.342  0.0247 -0.5552 -0.3971
  811MPD2    C411993   0.089   0.402  10.246  0.8466 -0.6014 -0.0252
  811MPD2    C511994   0.005   0.292  10.260 -0.1331  0.3460  0.0282
  811MPD2     H11995   0.291   0.351  10.506 -0.2015  1.1049 -0.5211
  811MPD2    H111996   0.067   0.473  10.167  3.5026 -1.3638 -1.4581
  811MPD2    H211997   4.695   0.116  10.374 -1.4829  1.5947 -0.9872
  811MPD2    H311998   4.659   0.280  10.189 -0.6319  0.5295  0.5796
  811MPD2     N11999   0.270   0.544  10.333 -0.2306 -0.2621 -0.1017
  811MPD2    H512000   0.347   0.534  10.399 -0.2712 -1.8907 -0.2889
  811MPD2    N112001   0.149   0.143  10.568 -0.0267  0.6888  0.6680
  811MPD2    H712002   0.215   0.178  10.637  0.8008 -2.5289  1.5442
  812MPD2     C12003   4.522   0.083  12.409 -0.0712  0.4049  0.0717
  812MPD2    C112004   4.470   0.191  12.483  0.2473 -0.0867  0.0899
  812MPD2    C212005   4.464   0.191  12.619  0.2312  0.6864 -0.3607
  812MPD2    C312006   4.512   0.077  12.685  0.5636  0.6526  0.4893
  812MPD2    C412007   4.579   4.707  12.615  0.7339  0.1184  0.2300
  812MPD2    C512008   4.575   4.706  12.474  0.7567 -0.0202 -0.7033
  812MPD2     H12009   4.416   0.271  12.674 -0.3062  1.7617 -2.4259
  812MPD2    H112010   4.617   4.621  12.669  0.5023  0.4397  0.9169
  812MPD2    H212011   4.537   0.087  12.302  0.6011 -2.3203  0.0552
  812MPD2    H312012   4.632   4.639  12.412  2.3564 -0.3540  1.1305
  812MPD2     N12013   4.483   0.059  12.823  0.0740  0.3978 -0.6947
  812MPD2    H512014   4.470   0.146  12.874  1.5286  0.2168 -0.0293
  812MPD2    N112015   4.429   0.305  12.410 -0.0649 -0.5784 -0.2104
  812MPD2    H712016   4.435   0.294  12.309 -0.0743  3.1018 -0.6350
  813MPD2     C12017   3.488   1.895  13.272  0.0266 -0.0104 -0.4353
  813MPD2    C112018   3.484   2.028  13.296 -0.0897  0.4934  0.6374
  813MPD2    C212019   3.430   2.081  13.410 -0.1712  0.2161 -0.2218
  813MPD2    C312020   3.371   2.001  13.509  0.3038 -0.0968 -1.1712
  813MPD2    C412021   3.377   1.865  13.487 -0.6929  0.6705 -0.2552
  813MPD2    C512022   3.430   1.816  13.372  0.0128 -0.5954 -0.2331
  813MPD2     H12023   3.438   2.186  13.434 -1.0057 -0.0962  1.4217
  813MPD2    H112024   3.355   1.787  13.560  1.1412  0.8176  0.4509
  813MPD2    H212025   3.539   1.851  13.188 -0.5511  0.1478 -0.8693
  813MPD2    H312026   3.431   1.710  13.353 -0.4913 -0.4460 -1.0989
  813MPD2     N12027   3.331   2.068  13.625  0.0472  0.1916 -0.0295
  813MPD2    H512028   3.331   2.169  13.617 -1.1925  0.1475 -0.6008
  813MPD2    N112029   3.551   2.108  13.202  0.1438 -0.5412 -0.3828
  813MPD2    H712030   3.615   2.064  13.137  1.7983 -0.4618  1.2015
  814MPD2     C12031   3.658   3.300  13.080  0.3909  0.0073 -0.5530
  814MPD2    C112032   3.699   3.327  12.948  0.3129 -0.5035 -0.2026
  814MPD2    C212033   3.775   3.438  12.927  0.2596  0.0961  0.5633
  814MPD2    C312034   3.806   3.520  13.033  0.5296 -0.3095  0.6859
  814MPD2    C412035   3.764   3.493  13.163  0.0872 -0.4279 -1.0316
  814MPD2    C512036   3.684   3.381  13.185 -0.5311 -0.1456  0.1274
  814MPD2     H12037   3.812   3.456  12.826  0.1811 -1.7345  0.2153
  814MPD2    H112038   3.811   3.545  13.245 -0.5401  0.9760 -1.5769
  814MPD2    H212039   3.599   3.212  13.101 -0.9288  0.7855 -0.9481
  814MPD2    H312040   3.649   3.359  13.285  0.8107 -0.2889  0.5643
  814MPD2     N12041   3.894   3.624  12.999 -0.0636 -0.6844 -0.5153
  814MPD2    H512042   3.923   3.624  12.902  0.7564  2.0363 -0.2427
  814MPD2    N112043   3.662   3.247  12.836 -0.1952  0.4087  1.1936
  814MPD2    H712044   3.691   3.280  12.745 -0.1199  0.0511  1.0907
  815MPD2     C12045   4.447   1.849  12.063 -0.3284  0.4805 -0.5588
  815MPD2    C112046   4.371   1.746  12.017 -0.9959  0.1148  0.6159
  815MPD2    C212047   4.255   1.705  12.092 -0.0068 -0.4712  0.3919
  815MPD2    C312048   4.231   1.755  12.221 -0.6524 -0.2800 -0.1677
  815MPD2    C412049   4.328   1.842  12.271 -0.4140  0.3407  0.9011
  815MPD2    C512050   4.430   1.890  12.194  0.5827  0.0451 -0.3548
  815MPD2     H12051   4.182   1.635  12.052 -0.4154  0.6996 -0.9265
  815MPD2    H112052   4.324   1.876  12.373 -3.6695  1.0357  0.5658
  815MPD2    H212053   4.523   1.897  12.002 -1.7623 -0.1562 -2.8446
  815MPD2    H312054   4.495   1.958  12.249  0.1930  0.3010 -0.2112
  815MPD2     N12055   4.120   1.710  12.302  0.2273 -0.1359 -0.2836
  815MPD2    H512056   4.053   1.651  12.253  1.1208 -0.0868 -1.5693
  815MPD2    N112057   4.394   1.693  11.886 -0.1752 -0.6802 -0.5999
  815MPD2    H712058   4.477   1.724  11.837  0.2837 -1.9284 -0.6132
  816MPD2     C12059   4.723   0.681  17.566  0.2658 -0.6899  0.2039
  816MPD2    C112060   4.625   0.657  17.469  0.1812 -0.0263 -0.5667
  816MPD2    C212061   4.670   0.630  17.342 -0.1471 -0.1213 -0.1519
  816MPD2    C312062   0.068   0.608  17.317  0.5869 -0.2699  0.6417
  816MPD2    C412063   0.159   0.620  17.423 -0.3663  0.6251  0.1753
  816MPD2    C512064   0.118   0.662  17.540 -0.0141  0.2998  0.1943
  816MPD2     H12065   4.606   0.625  17.254  0.3701 -2.1846 -0.4078
  816MPD2    H112066   0.265   0.601  17.408 -0.9647 -1.2030 -1.7058
  816MPD2    H212067   4.691   0.691  17.669 -0.7414 -0.2071 -0.1494
  816MPD2    H312068   0.194   0.674  17.617  0.5493  1.3197 -0.5112
  816MPD2     N12069   0.105   0.577  17.180  0.0440 -0.0029 -0.6898
  816MPD2    H512070   0.026   0.581  17.116  0.5975 -0.4343 -1.3906
  816MPD2    N112071   4.488   0.678  17.500  0.5104 -0.0151 -0.4588
  816MPD2    H712072   4.461   0.706  17.594 -0.5439 -0.2941 -0.6850
  817MPD2     C12073   4.156   3.239  10.406 -0.0531 -0.3821  0.1979
  817MPD2    C112074   4.224   3.287  10.299 -0.2829 -0.1773 -0.4283
  817MPD2    C212075   4.219   3.424  10.263 -0.6572 -0.2263  0.2643
  817MPD2    C312076   4.138   3.516  10.327  0.5620 -0.6104 -0.1141
  817MPD2    C412077   4.071   3.470  10.437 -0.2418 -0.5260 -0.3108
  817MPD2    C512078   4.069   3.332  10.464 -0.0908 -0.0452 -0.2351
  817MPD2     H12079   4.281   3.443  10.176  0.3818  2.8171  1.6495
  817MPD2    H112080   4.008   3.535  10.497  0.0570 -1.8221  1.3948
  817MPD2    H212081   4.147   3.137  10.441 -0.7562 -0.4237 -0.1052
  817MPD2    H312082   4.008   3.291  10.544 -0.1983  1.3520  0.4056
  817MPD2     N12083   4.131   3.646  10.276 -0.3636 -0.8019  0.1259
  817MPD2    H512084   4.167   3.661  10.182  1.0398  0.2825  0.8311
  817MPD2    N112085   4.318   3.210  10.229  0.4390  0.1393 -0.2272
  817MPD2    H712086   4.372   3.255  10.156  1.2793  0.9487  0.8982
  818MPD2     C12087   3.271   2.938  10.490 -0.9270 -0.5451 -0.2635
  818MPD2    C112088   3.178   2.845  10.526  0.6133 -0.5730 -0.3192
  818MPD2    C212089   3.199   2.716  10.480  0.5411  0.1287  0.4553
  818MPD2    C312090   3.299   2.680  10.396  0.1386 -0.2658  0.0564
  818MPD2    C412091   3.391   2.770  10.365 -0.1237  0.2855  0.3358
  818MPD2    C512092   3.371   2.901  10.403  0.4256  0.3336 -0.4524
  818MPD2     H12093   3.142   2.636  10.527 -2.6451  0.9512 -2.0205
  818MPD2    H112094   3.474   2.757  10.296  0.4023  0.0678  1.0047
  818MPD2    H212095   3.248   3.042  10.508 -0.8404 -0.4947 -0.4463
  818MPD2    H312096   3.437   2.981  10.372  2.1327 -0.5181  0.9693
  818MPD2     N12097   3.318   2.550  10.350  0.0317  0.4691 -0.0149
  818MPD2    H512098   3.407   2.527  10.307 -1.1699  0.1522 -2.3599
  818MPD2    N112099   3.071   2.870  10.616 -0.2122 -0.0944  0.7062
  818MPD2    H712100   3.032   2.787  10.659  1.3960 -0.8713  0.7000
  819MPD2     C12101   1.226   4.147  15.734  0.1321  0.2249  0.1575
  819MPD2    C112102   1.219   4.034  15.804 -0.4308  0.4722  0.2628
  819MPD2    C212103   1.322   4.002  15.894 -0.3717  0.1019  0.5132
  819MPD2    C312104   1.440   4.086  15.911  0.4424 -1.1119  0.0064
  819MPD2    C412105   1.435   4.203  15.842  0.0852  0.1322 -0.5007
  819MPD2    C512106   1.338   4.232  15.747  0.3932 -0.2576  0.1866
  819MPD2     H12107   1.319   3.908  15.948  0.2100 -0.9763 -1.3658
  819MPD2    H112108   1.512   4.278  15.853  0.0838 -0.1824  1.6969
  819MPD2    H212109   1.146   4.176  15.667  1.4178  3.0109 -0.1470
  819MPD2    H312110   1.359   4.322  15.691  1.0277 -0.4933  0.0514
  819MPD2     N12111   1.548   4.032  15.987  0.3567 -0.6104  0.8057
  819MPD2    H512112   1.535   3.939  16.026  2.1498 -0.2810  2.1846
  819MPD2    N112113   1.103   3.947  15.786  0.0380 -0.5853 -0.3986
  819MPD2    H712114   1.031   3.969  15.718 -1.6588  0.7134  1.7982
  820MPD2     C12115   0.514   3.993  15.128 -0.2668  0.0254 -0.3777
  820MPD2    C112116   0.538   4.068  15.240  0.0721  0.6639 -0.3993
  820MPD2    C212117   0.566   4.010  15.360 -0.3800  0.1879  0.0037
  820MPD2    C312118   0.602   3.879  15.366  0.2915 -0.4142 -0.3181
  820MPD2    C412119   0.589   3.798  15.256 -0.1874 -0.5025 -0.8942
  820MPD2    C512120   0.550   3.861  15.145  0.3828 -0.6021 -0.4899
  820MPD2     H12121   0.561   4.071  15.449  2.7987 -0.9628  0.9705
  820MPD2    H112122   0.628   3.697  15.253  0.2379 -0.4021  1.1561
  820MPD2    H212123   0.481   4.039  15.036 -1.7860  0.3328  0.3332
  820MPD2    H312124   0.543   3.796  15.058 -0.0363  1.1679 -1.7912
  820MPD2     N12125   0.658   3.818  15.483 -0.2583  0.3661  0.7833
  820MPD2    H512126   0.698   3.725  15.475  0.5453  0.6643  1.3206
  820MPD2    N112127   0.506   4.206  15.241  0.4518 -0.1806  0.0576
  820MPD2    H712128   0.470   4.238  15.151  1.2348 -0.4566 -0.3514
  821MPD2     C12129   1.137   1.578  13.340 -0.2014 -0.2584 -0.0899
  821MPD2    C112130   1.130   1.449  13.299  0.3714  0.1030  0.3064
  821MPD2    C212131   1.251   1.378  13.282  0.4337  0.3061 -0.3995
  821MPD2    C312132   1.373   1.435  13.322  0.1491 -0.1886  0.1794
  821MPD2    C412133   1.374   1.567  13.357 -0.2079 -0.9776  0.4974
  821MPD2    C512134   1.257   1.638  13.357 -0.4274  0.0610 -0.4592
  821MPD2     H12135   1.243   1.274  13.253  1.0057  0.2097 -0.2200
  821MPD2    H112136   1.463   1.621  13.387 -0.9881  0.2049  0.7009
  821MPD2    H212137   1.051   1.641  13.357  0.6177  1.2955 -1.7494
  821MPD2    H312138   1.259   1.742  13.385  1.7009  0.5917 -2.5927
  821MPD2     N12139   1.498   1.363  13.331 -0.7953  0.3272  0.7829
  821MPD2    H512140   1.582   1.418  13.346 -0.0022 -0.7254  0.2080
  821MPD2    N112141   1.009   1.372  13.288 -0.2499  0.1257  0.3707
  821MPD2    H712142   1.019   1.273  13.272 -1.3247  0.1210 -0.2478
  822MPD2     C12143   1.913   0.658  15.896 -0.1864 -0.6102 -0.3124
  822MPD2    C112144   1.885   0.639  16.030  0.5484 -0.3949  0.1910
  822MPD2    C212145   1.805   0.729  16.098  0.1159  0.7459 -0.4269
  822MPD2    C312146   1.783   0.863  16.043  0.2244  0.7155 -0.2582
  822MPD2    C412147   1.812   0.882  15.909 -0.4904 -0.3008 -0.5953
  822MPD2    C512148   1.873   0.776  15.843 -0.0808 -0.3977 -0.1812
  822MPD2     H12149   1.769   0.697  16.195  1.6213 -0.5061 -0.2931
  822MPD2    H112150   1.805   0.978  15.858 -0.2446  1.0334  1.8590
  822MPD2    H212151   1.949   0.586  15.824  1.6241  1.7792 -1.7895
  822MPD2    H312152   1.899   0.789  15.738 -1.0118  2.4485 -0.0516
  822MPD2     N12153   1.718   0.954  16.131 -0.2188  0.4572 -0.4405
  822MPD2    H512154   1.673   0.913  16.213 -2.8891  1.9308 -1.1764
  822MPD2    N112155   1.929   0.528  16.106  0.0083  0.4592  0.8599
  822MPD2    H712156   1.905   0.540  16.204 -1.6666  0.5633  0.4426
  823MPD2     C12157   1.385   1.144  16.872 -0.2831 -0.2876  0.4667
  823MPD2    C112158   1.432   1.059  16.770 -0.2959  0.5417  0.9759
  823MPD2    C212159   1.440   0.918  16.800 -0.4588 -0.6153 -0.2605
  823MPD2    C312160   1.423   0.872  16.927 -0.3203  0.1550  0.6645
  823MPD2    C412161   1.381   0.959  17.025 -0.4097 -0.1166  0.1321
  823MPD2    C512162   1.349   1.089  16.991  0.1784  0.2428  0.5109
  823MPD2     H12163   1.471   0.847  16.725  3.0804  0.3952  0.2167
  823MPD2    H112164   1.349   0.924  17.122 -2.2098  1.4507  0.0994
  823MPD2    H212165   1.361   1.250  16.870 -0.7819 -0.4008  0.5090
  823MPD2    H312166   1.308   1.157  17.065 -0.3804 -1.6056  1.8831
  823MPD2     N12167   1.442   0.732  16.961  0.1999  0.1843 -0.4485
  823MPD2    H512168   1.422   0.683  17.048  0.4608  2.7763  1.0821
  823MPD2    N112169   1.454   1.115  16.639 -0.5686  0.4527  0.3151
  823MPD2    H712170   1.458   1.217  16.631  0.8359  0.1578 -2.4378
  824MPD2     C12171   2.650   0.138  16.266  0.3871 -0.2771  0.5103
  824MPD2    C112172   2.560   0.152  16.157  0.3176  1.5754  0.4169
  824MPD2    C212173   2.588   0.094  16.033  0.1624  0.2316  1.0854
  824MPD2    C312174   2.709   0.026  16.008 -0.7302 -0.0095 -0.3526
  824MPD2    C412175   2.798   0.019  16.118 -0.4675 -0.0094  0.5044
  824MPD2    C512176   2.768   0.075  16.245  0.5364 -0.2031  0.2696
  824MPD2     H12177   2.509   0.086  15.959  1.0234 -1.5799  0.3676
  824MPD2    H112178   2.891   4.702  16.108 -0.8974 -0.7903  0.6941
  824MPD2    H212179   2.639   0.180  16.365 -0.7687 -0.0464  0.2874
  824MPD2    H312180   2.840   0.067  16.325 -0.3772 -0.5057  1.0672
  824MPD2     N12181   2.727   4.712  15.878  0.2805 -0.2534  0.1414
  824MPD2    H512182   2.659   0.012  15.814  0.7104 -1.2132 -0.8718
  824MPD2    N112183   2.436   0.208  16.179  0.4502 -0.0267  0.5291
  824MPD2    H712184   2.377   0.205  16.097 -1.0171 -0.0630  1.5862
  825MPD2     C12185   3.078   0.002  15.091 -0.1350  0.2830 -0.9101
  825MPD2    C112186   3.010   0.048  15.202 -0.3373 -0.5351 -0.4131
  825MPD2    C212187   3.015   0.176  15.242  0.0007 -0.2017  0.3976
  825MPD2    C312188   3.094   0.264  15.174 -0.1048 -0.5423  0.3669
  825MPD2    C412189   3.162   0.223  15.064 -0.3784 -0.4021 -0.2645
  825MPD2    C512190   3.150   0.093  15.024  0.3359 -0.2987  0.6441
  825MPD2     H12191   2.966   0.211  15.332  0.3406  0.4581  0.3257
  825MPD2    H112192   3.226   0.292  15.010  1.3193 -1.7889 -0.0170
  825MPD2    H212193   3.080   4.632  15.072  0.4450  0.2693 -0.7588
  825MPD2    H312194   3.203   0.064  14.935 -1.2979  1.3440 -0.8612
  825MPD2     N12195   3.106   0.403  15.202  0.5446  0.3791  0.7569
  825MPD2    H512196   3.171   0.465  15.155  0.7586  0.2059  0.8198
  825MPD2    N112197   2.941   4.690  15.285 -0.1607 -0.6084 -0.1310
  825MPD2    H712198   2.966   4.592  15.276  1.2470 -0.2067 -0.6242
  826MPD2     C12199   2.169   0.118  13.803 -0.0150 -0.1754  0.3030
  826MPD2    C112200   2.299   0.173  13.797 -0.1306  0.2060 -0.6505
  826MPD2    C212201   2.321   0.303  13.840  0.0640 -0.8507  0.6266
  826MPD2    C312202   2.216   0.376  13.899  0.3256 -0.1686 -0.1406
  826MPD2    C412203   2.096   0.316  13.904 -0.4556  0.0286  0.0592
  826MPD2    C512204   2.065   0.193  13.849  0.0194 -0.2091  0.5579
  826MPD2     H12205   2.421   0.344  13.852 -0.6627  0.3515  2.5488
  826MPD2    H112206   2.010   0.375  13.933 -1.3639 -0.9142 -0.7482
  826MPD2    H212207   2.154   0.023  13.752  0.8689 -0.8654  1.3346
  826MPD2    H312208   1.967   0.147  13.859  0.3348 -1.1044 -0.4964
  826MPD2     N12209   2.245   0.486  13.979  0.6035  0.3147  0.3936
  826MPD2    H512210   2.190   0.521  14.057 -0.4073  1.2713 -0.7557
  826MPD2    N112211   2.409   0.092  13.757 -0.1550 -0.5118 -0.5386
  826MPD2    H712212   2.371   0.005  13.719 -0.7816 -0.3398 -0.3002
  827MPD2     C12213   3.653   1.925  10.224 -0.1306  0.5033  0.5745
  827MPD2    C112214   3.615   1.814  10.297 -0.3050  0.1677 -0.5326
  827MPD2    C212215   3.500   1.747  10.261  0.8405 -1.0981 -0.3623
  827MPD2    C312216   3.421   1.796  10.161 -0.0522 -0.6076 -0.1202
  827MPD2    C412217   3.466   1.904  10.092 -0.5978 -0.2550  0.5085
  827MPD2    C512218   3.578   1.975  10.118  0.1763  0.0935  0.7409
  827MPD2     H12219   3.470   1.653  10.305 -0.7291 -0.9100 -1.0249
  827MPD2    H112220   3.410   1.948  10.010  1.1770  2.2402  0.6443
  827MPD2    H212221   3.751   1.971  10.236  0.2536 -0.6383  1.8856
  827MPD2    H312222   3.616   2.050  10.050  1.3991 -1.9059 -0.7784
  827MPD2     N12223   3.307   1.717  10.133  0.5562 -0.1680 -0.1324
  827MPD2    H512224   3.298   1.628  10.181  0.3746 -0.0194  0.1106
  827MPD2    N112225   3.688   1.780  10.411  0.0733  0.1490  0.4256
  827MPD2    H712226   3.768   1.842  10.424  0.4980 -0.6861  1.7131
  828MPD2     C12227   1.832   1.425  12.909 -0.8537  0.0410  0.0402
  828MPD2    C112228   1.865   1.390  12.777 -0.3925 -0.9108 -0.1829
  828MPD2    C212229   1.981   1.308  12.761 -0.1711 -0.5201 -0.5093
  828MPD2    C312230   2.062   1.270  12.875  0.6106  0.6578 -0.0788
  828MPD2    C412231   2.021   1.306  12.999  0.3213 -0.4955 -0.3133
  828MPD2    C512232   1.905   1.377  13.013  0.1315 -0.4705 -0.5615
  828MPD2     H12233   2.002   1.262  12.664  0.7459  0.4950 -0.7886
  828MPD2    H112234   2.069   1.278  13.092  1.4988 -0.9174 -1.0501
  828MPD2    H212235   1.740   1.478  12.933 -2.7395 -2.6003 -1.3211
  828MPD2    H312236   1.874   1.392  13.116 -2.1502 -0.0826 -1.3132
  828MPD2     N12237   2.174   1.184  12.872  0.0394 -0.4650  0.2834
  828MPD2    H512238   2.221   1.183  12.962 -2.3612 -1.9248  1.5217
  828MPD2    N112239   1.786   1.439  12.665 -0.1919  0.3380  0.7510
  828MPD2    H712240   1.822   1.432  12.571  1.2125 -0.1762  1.3229
  829MPD2     C12241   2.042   1.366  11.858 -0.2972  0.0870 -0.1704
  829MPD2    C112242   1.916   1.404  11.831 -0.6537  0.1287  0.2283
  829MPD2    C212243   1.828   1.417  11.936 -0.2111  0.7137  0.0388
  829MPD2    C312244   1.867   1.394  12.063 -0.0049  0.1481  0.0182
  829MPD2    C412245   1.993   1.358  12.094  0.0173  0.0497 -0.3321
  829MPD2    C512246   2.081   1.334  11.989 -0.1705 -0.1292 -0.2801
  829MPD2     H12247   1.726   1.451  11.925  0.1746  2.1157  0.6979
  829MPD2    H112248   2.020   1.344  12.198 -0.3061 -0.9363 -0.3856
  829MPD2    H212249   2.118   1.356  11.781  0.3003 -0.3227  0.4611
  829MPD2    H312250   2.183   1.308  12.015  0.7187  1.0809 -2.6229
  829MPD2     N12251   1.788   1.418  12.178  0.0651 -0.6233  0.1959
  829MPD2    H512252   1.833   1.400  12.266  3.9787 -1.0977 -1.9254
  829MPD2    N112253   1.886   1.427  11.694  0.0356 -0.6269  0.3785
  829MPD2    H712254   1.960   1.405  11.629 -0.9448  1.5189 -1.4763
  830MPD2     C12255   2.216   3.673  16.203  0.0313  0.3266 -0.5697
  830MPD2    C112256   2.124   3.674  16.096 -0.2197 -0.0636  0.0098
  830MPD2    C212257   2.151   3.754  15.981  0.7106  0.0086 -0.3950
  830MPD2    C312258   2.270   3.828  15.974 -0.2893 -0.2025 -0.2446
  830MPD2    C412259   2.357   3.819  16.081 -0.5039 -0.7752 -0.0053
  830MPD2    C512260   2.332   3.737  16.188 -0.3675 -1.0683  0.1858
  830MPD2     H12261   2.080   3.763  15.899 -0.0944 -0.3915  0.2642
  830MPD2    H112262   2.448   3.878  16.082 -1.0073  0.0041  1.5883
  830MPD2    H212263   2.191   3.645  16.304  2.7371  2.1043  0.5913
  830MPD2    H312264   2.404   3.751  16.267  1.2811 -1.7579 -1.1846
  830MPD2     N12265   2.317   3.906  15.858  0.2924  0.2430  0.6417
  830MPD2    H512266   2.403   3.956  15.875  0.3165  0.4683 -0.1470
  830MPD2    N112267   1.997   3.623  16.124  0.1581 -0.7278 -0.1366
  830MPD2    H712268   1.984   3.595  16.220  1.4493  0.1875  0.2991
  831MPD2     C12269   1.951   1.014  16.467  0.1816 -0.6818  0.4839
  831MPD2    C112270   1.965   0.901  16.394  0.4241 -0.3718  0.4915
  831MPD2    C212271   1.883   0.793  16.423  0.2009  0.2994  0.7238
  831MPD2    C312272   1.771   0.808  16.500 -0.2913 -0.2846 -0.5142
  831MPD2    C412273   1.767   0.921  16.573  0.2685 -0.2149  0.6363
  831MPD2    C512274   1.853   1.023  16.556 -0.5289  0.4581 -0.4459
  831MPD2     H12275   1.904   0.703  16.366 -1.2810 -0.9854  2.2087
  831MPD2    H112276   1.694   0.934  16.652 -1.4923  2.1368 -1.4080
  831MPD2    H212277   2.025   1.094  16.468 -2.2127  1.5320 -1.0024
  831MPD2    H312278   1.837   1.111  16.618  0.2258  0.8840 -0.8588
  831MPD2     N12279   1.658   0.719  16.512 -0.1281  0.2081  0.6761
  831MPD2    H512280   1.586   0.756  16.573 -0.1901  1.6082 -0.2439
  831MPD2    N112281   2.069   0.908  16.300  0.4066 -0.1828 -0.1143
  831MPD2    H712282   2.115   0.997  16.284 -0.7875  0.7999  1.8710
  832MPD2     C12283   0.324   1.496  17.424 -0.2965  0.4444  0.0411
  832MPD2    C112284   0.300   1.629  17.410  0.5650 -0.0487 -0.8475
  832MPD2    C212285   0.181   1.675  17.351 -0.1352 -0.0838  0.0655
  832MPD2    C312286   0.081   1.579  17.333 -0.3965  0.1253 -0.4682
  832MPD2    C412287   0.105   1.444  17.347  0.0976  0.1992  0.0728
  832MPD2    C512288   0.233   1.404  17.389 -0.2082 -0.9459 -0.0640
  832MPD2     H12289   0.148   1.778  17.349 -1.5092 -0.4526  2.7625
  832MPD2    H112290   0.031   1.369  17.320  1.9179 -1.0988 -1.2529
  832MPD2    H212291   0.419   1.462  17.465 -2.1953 -2.0725  2.4242
  832MPD2    H312292   0.257   1.298  17.384 -0.0854 -0.8758 -1.0334
  832MPD2     N12293   4.686   1.617  17.306  0.3234 -0.0091  0.6818
  832MPD2    H512294   4.628   1.535  17.287  1.7301 -0.4135 -1.8973
  832MPD2    N112295   0.399   1.724  17.448 -0.3275 -0.6566  0.2787
  832MPD2    H712296   0.477   1.693  17.505  1.1342 -0.0019 -1.3117
  833MPD2     C12297   2.168   3.951  13.075  0.2177  0.7424 -0.7365
  833MPD2    C112298   2.167   4.061  12.994  0.2466  0.3681 -0.0050
  833MPD2    C212299   2.287   4.091  12.931 -0.3314 -0.2641 -0.1372
  833MPD2    C312300   2.396   4.011  12.930  0.4096  0.1301 -0.3089
  833MPD2    C412301   2.382   3.894  12.994 -0.2555  0.0240  0.3420
  833MPD2    C512302   2.267   3.862  13.065 -0.5068 -0.3883  0.2584
  833MPD2     H12303   2.289   4.182  12.873 -0.4233  1.3963  2.4914
  833MPD2    H112304   2.454   3.812  12.992 -1.2729 -0.8674  0.5664
  833MPD2    H212305   2.078   3.920  13.126 -0.0144  2.1438 -0.2999
  833MPD2    H312306   2.270   3.768  13.121 -1.4298 -0.4488  0.2073
  833MPD2     N12307   2.511   4.048  12.865 -0.4725 -0.2639  0.6389
  833MPD2    H512308   2.578   3.979  12.834  0.4592  0.8611  0.1418
  833MPD2    N112309   2.049   4.135  12.987 -0.4886  0.2780  0.3857
  833MPD2    H712310   1.964   4.089  13.019 -0.6385  0.4740  0.2776
  834MPD2     C12311   2.678   3.378  12.438  0.6300 -0.4029  0.4964
  834MPD2    C112312   2.639   3.451  12.334 -0.2633 -0.2828  0.1488
  834MPD2    C212313   2.650   3.591  12.339  0.0025  0.5630 -0.2556
  834MPD2    C312314   2.688   3.647  12.463  0.3906 -0.3013 -0.5740
  834MPD2    C412315   2.720   3.564  12.567  0.3543 -0.5076  0.3792
  834MPD2    C512316   2.718   3.431  12.559 -0.0808  0.0836 -0.2141
  834MPD2     H12317   2.618   3.648  12.253  2.7965  3.5261  0.6505
  834MPD2    H112318   2.755   3.607  12.660  0.7210  2.4323 -1.1250
  834MPD2    H212319   2.674   3.270  12.427 -0.4546 -0.2619 -0.4383
  834MPD2    H312320   2.748   3.382  12.651  1.7579 -0.6420 -1.2082
  834MPD2     N12321   2.697   3.790  12.480 -0.2002 -0.5850  0.7698
  834MPD2    H512322   2.676   3.839  12.393  0.8440 -2.1773 -0.3812
  834MPD2    N112323   2.608   3.384  12.214  0.1372 -0.5510 -0.2724
  834MPD2    H712324   2.595   3.284  12.226  0.6257 -0.0249  4.5282
  835MPD2     C12325   2.575   1.738  11.350 -0.2108  0.3858 -1.0333
  835MPD2    C112326   2.506   1.704  11.463  0.1942 -0.3062 -0.1301
  835MPD2    C212327   2.569   1.670  11.581 -0.3683  0.6308  0.0925
  835MPD2    C312328   2.703   1.698  11.597  0.0489  0.2005 -0.1368
  835MPD2    C412329   2.769   1.743  11.486  0.1396  0.2220  0.6833
  835MPD2    C512330   2.711   1.753  11.362 -0.0810 -0.5165  0.1320
  835MPD2     H12331   2.512   1.630  11.664  1.3746 -0.5874  0.7019
  835MPD2    H112332   2.877   1.754  11.495  0.2498 -1.6232  1.6861
  835MPD2    H212333   2.536   1.761  11.251  2.8952  0.0038 -2.3479
  835MPD2    H312334   2.773   1.783  11.278 -2.4901  1.1943 -1.0609
  835MPD2     N12335   2.784   1.655  11.705  0.1463 -0.0416  0.2144
  835MPD2    H512336   2.881   1.686  11.708  0.0659  0.2659 -0.3872
  835MPD2    N112337   2.365   1.700  11.455  0.0658  0.4450 -0.0449
  835MPD2    H712338   2.315   1.679  11.541 -0.2910 -1.6532 -0.7660
  836MPD2     C12339   2.454   1.358  12.244  0.5438 -0.0274  0.3277
  836MPD2    C112340   2.578   1.381  12.293 -0.5960  0.2939  0.2032
  836MPD2    C212341   2.614   1.390  12.425 -0.0795 -0.4428 -0.0510
  836MPD2    C312342   2.512   1.380  12.519 -0.7145  0.1219  0.0994
  836MPD2    C412343   2.377   1.361  12.469  0.6862  0.7418 -0.2851
  836MPD2    C512344   2.351   1.337  12.338 -0.0221  0.4011  0.3867
  836MPD2     H12345   2.716   1.398  12.463 -1.3825  0.1162  3.2924
  836MPD2    H112346   2.292   1.360  12.536 -1.0647  1.2792 -2.4708
  836MPD2    H212347   2.420   1.333  12.144  0.9208 -2.1212  0.7307
  836MPD2    H312348   2.257   1.301  12.298 -0.3098  2.3444 -0.6818
  836MPD2     N12349   2.523   1.420  12.649 -0.2896  0.4464 -0.1104
  836MPD2    H512350   2.438   1.439  12.702 -0.7872 -1.5517 -0.1906
  836MPD2    N112351   2.681   1.390  12.199 -0.7819 -0.0799  0.8277
  836MPD2    H712352   2.647   1.391  12.103 -1.8555  1.3439  1.2090
  837MPD2     C12353   0.974   0.784  10.543  0.3249  0.1845 -0.2462
  837MPD2    C112354   0.866   0.866  10.559 -0.2486  0.2866  0.4820
  837MPD2    C212355   0.867   0.974  10.639  0.4805  0.1391  0.0351
  837MPD2    C312356   0.991   1.017  10.682 -0.4609  0.3651 -0.6734
  837MPD2    C412357   1.099   0.935  10.666 -0.0654 -0.6761  0.5439
  837MPD2    C512358   1.092   0.821  10.590 -0.2209  0.4684  0.1362
  837MPD2     H12359   0.783   1.043  10.642 -1.0675 -1.7379 -0.1267
  837MPD2    H112360   1.200   0.963  10.694  0.0017  0.3712 -0.7416
  837MPD2    H212361   0.967   0.699  10.476  2.5139  2.1231 -2.9286
  837MPD2    H312362   1.182   0.764  10.568 -0.2251  1.0151 -1.3115
  837MPD2     N12363   1.005   1.148  10.721  0.2327 -0.1948  0.3080
  837MPD2    H512364   0.920   1.205  10.720  0.5577  0.2293 -4.2528
  837MPD2    N112365   0.740   0.850  10.495 -0.1112 -0.1448  0.4066
  837MPD2    H712366   0.675   0.927  10.509  0.5954  0.6732 -0.7555
  838MPD2     C12367   4.295   4.458  12.473  0.1388  0.9445 -0.6529
  838MPD2    C112368   4.228   4.346  12.433  1.0534  0.0264 -0.6036
  838MPD2    C212369   4.129   4.288  12.518 -0.7284  0.4110 -0.1302
  838MPD2    C312370   4.080   4.359  12.624  0.3438 -0.5467 -0.2740
  838MPD2    C412371   4.155   4.468  12.668  0.6289 -0.2388 -0.4398
  838MPD2    C512372   4.262   4.516  12.597  0.4758  0.9767 -0.5666
  838MPD2     H12373   4.079   4.198  12.485  1.4445 -1.0173  0.4867
  838MPD2    H112374   4.134   4.516  12.762  1.9183  3.4089 -2.0356
  838MPD2    H212375   4.378   4.503  12.420  1.8886 -2.8205 -1.0695
  838MPD2    H312376   4.324   4.598  12.632 -0.7058  1.8102 -0.4171
  838MPD2     N12377   3.968   4.329  12.699  0.0822  0.1279 -0.6736
  838MPD2    H512378   3.931   4.391  12.770 -0.2707  0.1884 -0.9108
  838MPD2    N112379   4.258   4.283  12.316  0.4208  0.2167 -0.2885
  838MPD2    H712380   4.204   4.197  12.311  0.7953 -0.0748  0.7672
  839MPD2     C12381   3.649   3.885  12.371  1.0924  0.1586  0.5459
  839MPD2    C112382   3.688   3.805  12.268 -0.1185 -0.4581  0.2498
  839MPD2    C212383   3.806   3.840  12.201 -0.0399  0.3555 -0.1744
  839MPD2    C312384   3.881   3.954  12.231  0.2532  1.2178 -0.3923
  839MPD2    C412385   3.850   4.025  12.341  0.0849  1.0133 -0.5450
  839MPD2    C512386   3.733   3.990  12.399  0.0888  0.7634 -0.5937
  839MPD2     H12387   3.843   3.767  12.130  1.2211  0.5029  0.3341
  839MPD2    H112388   3.895   4.119  12.370  0.8924  0.7286 -0.8921
  839MPD2    H212389   3.557   3.875  12.427 -0.3129 -0.5626 -1.9015
  839MPD2    H312390   3.713   4.064  12.476  1.1840  0.1812  0.2582
  839MPD2     N12391   3.994   4.000  12.165  0.1842 -0.8912 -0.7411
  839MPD2    H512392   4.009   4.098  12.185 -0.3739 -0.9944  0.1981
  839MPD2    N112393   3.619   3.687  12.215  0.1942 -0.5827 -0.1435
  839MPD2    H712394   3.662   3.632  12.142  0.3281  1.6181 -1.7274
  840MPD2     C12395   4.184   2.101  10.597  0.1399 -0.1245  0.9702
  840MPD2    C112396   4.169   2.006  10.693 -0.4490  0.6280 -0.3660
  840MPD2    C212397   4.224   2.032  10.814 -0.1982  0.1841 -0.6605
  840MPD2    C312398   4.287   2.155  10.834  0.2672 -0.4250 -0.3239
  840MPD2    C412399   4.303   2.241  10.731  0.2908 -0.2532  0.0023
  840MPD2    C512400   4.258   2.213  10.611 -0.0218 -0.5559 -0.4991
  840MPD2     H12401   4.209   1.964  10.897  1.9789 -0.7438 -1.0230
  840MPD2    H112402   4.349   2.338  10.744  0.4716  0.0014 -2.7467
  840MPD2    H212403   4.137   2.083  10.501 -0.4031  2.7160  0.7066
  840MPD2    H312404   4.283   2.290  10.538  0.9535 -2.2767 -1.9745
  840MPD2     N12405   4.352   2.192  10.959 -0.3051  0.1254  0.7179
  840MPD2    H512406   4.412   2.273  10.959 -0.7315  0.4433 -0.9842
  840MPD2    N112407   4.092   1.890  10.659  0.0356 -0.0026  0.2656
  840MPD2    H712408   4.029   1.892  10.579  0.4827 -3.7710 -0.2059
  841MPD2     C12409   3.499   1.877  14.568  0.2007  0.3915 -0.3538
  841MPD2    C112410   3.485   1.834  14.702  0.6139 -0.1209  0.0541
  841MPD2    C212411   3.583   1.767  14.758  0.2727  0.1496 -0.4514
  841MPD2    C312412   3.700   1.741  14.693  0.2726  0.1240  0.4159
  841MPD2    C412413   3.725   1.790  14.564 -0.3377 -0.3152  0.0757
  841MPD2    C512414   3.615   1.848  14.495 -0.0857 -0.1442 -0.2996
  841MPD2     H12415   3.569   1.738  14.862 -0.8185  2.1465 -0.0506
  841MPD2    H112416   3.814   1.761  14.509 -0.8927 -0.7625 -0.5807
  841MPD2    H212417   3.415   1.917  14.513  0.6456 -0.9700 -2.0439
  841MPD2    H312418   3.627   1.879  14.391  0.1181  0.7205 -0.0192
  841MPD2     N12419   3.795   1.661  14.767  0.3896 -0.4009 -0.3715
  841MPD2    H512420   3.764   1.619  14.853 -2.6210  1.5503 -0.4886
  841MPD2    N112421   3.369   1.863  14.776  0.8462 -0.3266 -0.3782
  841MPD2    H712422   3.297   1.910  14.722 -0.0749 -0.6426  0.5612
  842MPD2     C12423   4.214   2.174  16.801 -0.1844  0.2481 -0.5875
  842MPD2    C112424   4.102   2.098  16.828 -0.6853 -0.0197  0.1977
  842MPD2    C212425   4.102   2.011  16.932 -0.1536 -0.3923 -0.4176
  842MPD2    C312426   4.207   2.003  17.022 -0.7419 -0.0090  0.8388
  842MPD2    C412427   4.319   2.079  16.997 -0.3076 -0.3420 -0.4213
  842MPD2    C512428   4.321   2.173  16.895 -0.1331 -0.3731  0.1735
  842MPD2     H12429   4.006   1.965  16.953 -1.0196  0.8429 -1.7098
  842MPD2    H112430   4.402   2.068  17.065  0.1737 -1.2211 -1.1499
  842MPD2    H212431   4.206   2.237  16.714 -0.6211  1.0625  0.0384
  842MPD2    H312432   4.411   2.233  16.891 -0.7436  0.4460 -1.2516
  842MPD2     N12433   4.202   1.938  17.146  0.4305  0.0888 -0.6368
  842MPD2    H512434   4.273   1.969  17.211 -0.9137  1.0933  0.3524
  842MPD2    N112435   3.991   2.127  16.741 -0.6264 -0.4379  0.1902
  842MPD2    H712436   3.999   2.191  16.663  1.5823 -0.6382  0.2614
  843MPD2     C12437   1.450   2.291   0.447  0.2245  0.1101  0.0842
  843MPD2    C112438   1.569   2.228   0.484 -0.2368  0.4854 -0.0287
  843MPD2    C212439   1.684   2.300   0.510 -0.1647 -0.2457 -0.4434
  843MPD2    C312440   1.675   2.438   0.526  0.4184 -0.2737 -0.2062
  843MPD2    C412441   1.555   2.496   0.496 -0.0489 -0.0222  0.5428
  843MPD2    C512442   1.445   2.426   0.461 -0.2356  0.1879  0.7272
  843MPD2     H12443   1.768   2.246   0.552 -1.9760 -2.2612  0.5801
  843MPD2    H112444   1.552   2.603   0.510  0.1009  0.1309 -0.6818
  843MPD2    H212445   1.353   2.246   0.427  0.5961 -0.1351 -1.1676
  843MPD2    H312446   1.354   2.480   0.437  0.3257  1.0049  0.4151
  843MPD2     N12447   1.788   2.529   0.554  0.3265  0.1663 -0.9520
  843MPD2    H512448   1.775   2.621   0.595 -1.1488  0.4147 -1.9685
  843MPD2    N112449   1.564   2.089   0.469  0.1492  0.6307 -0.6718
  843MPD2    H712450   1.480   2.047   0.432 -0.4447 -0.0490  1.4504
  844MPD2     C12451   4.337   1.221  16.792 -0.0575  0.2371  1.0357
  844MPD2    C112452   4.397   1.300  16.689  0.2134  0.1341 -0.0754
  844MPD2    C212453   4.493   1.392  16.716  0.0379 -0.8202 -0.7922
  844MPD2    C312454   4.552   1.388  16.839  0.0409  0.0101  0.6587
  844MPD2    C412455   4.488   1.319  16.944  0.5086 -0.4329 -0.0366
  844MPD2    C512456   4.370   1.248  16.916 -0.0892  0.0030 -0.4878
  844MPD2     H12457   4.547   1.443  16.637  1.6409 -0.8150  0.2888
  844MPD2    H112458   4.534   1.331  17.042 -1.0264  3.6906  0.1721
  844MPD2    H212459   4.258   1.149  16.774 -1.6189  2.1766  0.1358
  844MPD2    H312460   4.324   1.186  16.992 -3.9698  3.6893  0.1598
  844MPD2     N12461   4.658   1.476  16.854 -0.4794  0.6154 -0.1742
  844MPD2    H512462   4.684   1.534  16.775 -0.3668  1.7494  0.6909
  844MPD2    N112463   4.361   1.294  16.550 -0.1808 -0.2935 -0.8828
  844MPD2    H712464   4.413   1.352  16.485 -0.2605  1.3607  0.5418
  845MPD2     C12465   0.244   2.396  17.065  0.2847 -0.4919 -0.0219
  845MPD2    C112466   0.261   2.333  17.179  0.3579  0.3012 -0.2595
  845MPD2    C212467   0.263   2.195  17.179 -0.3270 -0.3620  0.1508
  845MPD2    C312468   0.240   2.123  17.057 -0.0337  0.5061  0.1725
  845MPD2    C412469   0.229   2.196  16.939  0.9103  0.4350  0.6013
  845MPD2    C512470   0.234   2.334  16.943  0.0888 -0.1637  0.6736
  845MPD2     H12471   0.292   2.146  17.271  0.7035 -0.3135 -0.1482
  845MPD2    H112472   0.213   2.141  16.847  0.5174  0.8221  0.4388
  845MPD2    H212473   0.244   2.504  17.061  1.8631 -0.4818  0.3476
  845MPD2    H312474   0.211   2.384  16.850 -2.0980 -1.9334  0.2541
  845MPD2     N12475   0.248   1.984  17.059 -0.1282 -0.5683 -0.0225
  845MPD2    H512476   0.258   1.945  17.152 -0.2640 -0.4201  0.0537
  845MPD2    N112477   0.266   2.410  17.302  0.4591 -0.5248  0.0914
  845MPD2    H712478   0.259   2.509  17.284  0.3580 -0.4478  0.5505
  846MPD2     C12479   1.981   2.995  13.995  0.3014 -0.3779  0.6247
  846MPD2    C112480   1.863   3.065  13.986 -0.2161 -0.5053 -0.8640
  846MPD2    C212481   1.787   3.088  14.105  0.1686 -0.1270  0.2283
  846MPD2    C312482   1.830   3.046  14.224 -0.9240  0.0883  0.6404
  846MPD2    C412483   1.943   2.969  14.230  0.4258 -0.1346 -0.7201
  846MPD2    C512484   2.015   2.942  14.118 -0.8358  0.2275  0.5957
  846MPD2     H12485   1.694   3.144  14.099  0.6940  0.9398  1.8919
  846MPD2    H112486   1.985   2.934  14.324  1.3549  1.8875 -0.3901
  846MPD2    H212487   2.032   2.974  13.902  1.5098  0.0656  1.1960
  846MPD2    H312488   2.102   2.878  14.127  0.2551  1.5545 -0.3748
  846MPD2     N12489   1.753   3.085  14.338 -0.5121  0.2182 -0.0200
  846MPD2    H512490   1.659   3.119  14.318 -1.1852 -1.8784 -0.4109
  846MPD2    N112491   1.816   3.118  13.861 -0.5879  0.1429 -0.2400
  846MPD2    H712492   1.735   3.180  13.867 -0.9785 -0.5110  1.3148
  847MPD2     C12493   1.307   4.045  15.061  0.5056  0.0223  0.1507
  847MPD2    C112494   1.431   4.106  15.054  0.0232  0.1864  0.9882
  847MPD2    C212495   1.538   4.024  15.020  0.0805  0.1822 -0.0480
  847MPD2    C312496   1.525   3.892  14.996 -0.5082 -0.4673 -0.3852
  847MPD2    C412497   1.406   3.832  15.016  0.3523 -0.3055  0.5417
  847MPD2    C512498   1.293   3.909  15.047  0.3134 -0.0454 -0.0403
  847MPD2     H12499   1.635   4.071  15.031 -0.7004  1.6101  0.8838
  847MPD2    H112500   1.380   3.729  14.993  1.8928 -0.3338 -0.9925
  847MPD2    H212501   1.220   4.107  15.083  2.0022  2.1619 -0.0382
  847MPD2    H312502   1.201   3.852  15.053  0.6818 -0.7076 -0.6362
  847MPD2     N12503   1.647   3.822  14.958 -0.0788 -0.6486 -0.2765
  847MPD2    H512504   1.724   3.877  14.922 -1.3733  2.2957  1.4403
  847MPD2    N112505   1.463   4.242  15.078 -0.0985 -0.1988  0.4745
  847MPD2    H712506   1.561   4.261  15.057  0.3035 -2.1720  0.5674
  848MPD2     C12507   4.523   1.919  16.561 -0.7035 -0.3233  0.4477
  848MPD2    C112508   4.546   1.978  16.684 -0.0812  0.1238 -0.3623
  848MPD2    C212509   4.592   2.109  16.687 -0.2533 -0.2444 -0.2274
  848MPD2    C312510   4.585   2.190  16.575 -0.4147  0.6388  0.6369
  848MPD2    C412511   4.564   2.126  16.454  0.0467 -0.0909 -0.3160
  848MPD2    C512512   4.537   1.991  16.449  0.7261  0.1626  0.0765
  848MPD2     H12513   4.625   2.156  16.778 -0.0983  0.9972 -0.9240
  848MPD2    H112514   4.566   2.178  16.359 -2.3656 -1.5640 -1.1828
  848MPD2    H212515   4.500   1.816  16.540 -0.5521 -0.2780  0.0575
  848MPD2    H312516   4.522   1.939  16.355  0.7530  0.4328 -0.0764
  848MPD2     N12517   4.603   2.330  16.570 -0.8953  0.5442  0.5631
  848MPD2    H512518   4.591   2.370  16.477  4.4647  0.1531 -0.3390
  848MPD2    N112519   4.543   1.902  16.800  0.1173  0.5581 -0.3577
  848MPD2    H712520   4.592   1.942  16.879  2.3410 -0.3018 -1.2819
  849MPD2     C12521   3.646   2.233  14.700  0.6129 -0.1927  0.0187
  849MPD2    C112522   3.730   2.262  14.598  0.3621 -0.3971 -0.4965
  849MPD2    C212523   3.843   2.195  14.600  0.2792 -0.3331  0.3501
  849MPD2    C312524   3.874   2.103  14.699  0.2306  0.1110  0.1147
  849MPD2    C412525   3.787   2.078  14.804  0.1215 -0.1010 -0.5269
  849MPD2    C512526   3.673   2.147  14.798  0.1179  0.5333 -0.5278
  849MPD2     H12527   3.918   2.212  14.524  0.3292  2.1150  0.9681
  849MPD2    H112528   3.797   2.012  14.890 -2.8000 -0.4306 -0.4360
  849MPD2    H212529   3.551   2.285  14.701 -1.4424 -3.9524 -1.1296
  849MPD2    H312530   3.587   2.125  14.861  1.2619 -0.9126  0.5253
  849MPD2     N12531   3.994   2.032  14.690 -0.8534  0.0157 -0.5139
  849MPD2    H512532   4.056   2.053  14.613 -1.4048 -1.2368 -1.3055
  849MPD2    N112533   3.694   2.363  14.491  0.0747  0.4390 -0.1670
  849MPD2    H712534   3.595   2.363  14.468 -0.3715  1.5177  1.7866
  850MPD2     C12535   2.155   4.541  14.771  0.4451 -0.4172 -0.8940
  850MPD2    C112536   2.097   4.667  14.805 -0.3793 -0.0101 -0.5490
  850MPD2    C212537   2.182   0.041  14.819  0.0318 -0.6007  0.1561
  850MPD2    C312538   2.318   0.015  14.826  0.2040  0.2452  0.4529
  850MPD2    C412539   2.367   4.625  14.793 -0.3952  0.3753  0.3896
  850MPD2    C512540   2.288   4.522  14.764  0.0431  0.0335 -0.1795
  850MPD2     H12541   2.141   0.141  14.832  0.5207 -0.6252  1.9727
  850MPD2    H112542   2.473   4.601  14.799 -0.0692  1.9826  0.8908
  850MPD2    H212543   2.092   4.454  14.756 -0.2206 -0.0030 -0.4910
  850MPD2    H312544   2.322   4.419  14.754 -0.0490 -0.1910  1.7848
  850MPD2     N12545   2.414   0.113  14.863 -0.3544 -0.0372  0.1697
  850MPD2    H512546   2.513   0.093  14.875 -0.0601  2.4057  1.9202
  850MPD2    N112547   1.964   4.672  14.840 -0.3714 -0.8521  0.6298
  850MPD2    H712548   1.910   4.590  14.815 -0.7274 -0.5940  0.5669
  851MPD2     C12549   2.409   0.101  15.549  0.4698 -0.2217  0.0026
  851MPD2    C112550   2.345   0.040  15.447  0.6362 -0.0041  0.1494
  851MPD2    C212551   2.332   4.638  15.454  0.3302  0.2040  0.2492
  851MPD2    C312552   2.392   4.566  15.550  0.6731  0.9314 -0.5193
  851MPD2    C412553   2.457   4.628  15.653  0.2226 -0.5484 -0.3110
  851MPD2    C512554   2.464   0.026  15.649  0.4845  0.2900  0.5580
  851MPD2     H12555   2.266   4.587  15.384 -0.4367  1.2770  0.1859
  851MPD2    H112556   2.488   4.567  15.737  1.6229 -0.2984 -0.6523
  851MPD2    H212557   2.414   0.209  15.558  1.7520 -0.1454 -1.8034
  851MPD2    H312558   2.517   0.090  15.719  2.1152 -1.5569  0.9973
  851MPD2     N12559   2.380   4.430  15.536  0.8120 -0.3800 -0.6115
  851MPD2    H512560   2.309   4.388  15.477  0.8672  0.6580 -1.4206
  851MPD2    N112561   2.278   0.123  15.350 -0.1368  0.5920 -1.1997
  851MPD2    H712562   2.256   0.221  15.369  1.4004  0.2943  2.1929
  852MPD2     C12563   1.622   3.262  10.684 -0.1470  0.0311  0.2968
  852MPD2    C112564   1.645   3.346  10.791 -0.3558 -0.1936 -0.2636
  852MPD2    C212565   1.746   3.442  10.788  0.0331  0.0287 -0.1423
  852MPD2    C312566   1.825   3.463  10.677 -0.4085 -0.4656 -0.2995
  852MPD2    C412567   1.818   3.367  10.580  0.2488 -1.1734 -0.8013
  852MPD2    C512568   1.718   3.267  10.584 -0.5784  0.5452  0.0498
  852MPD2     H12569   1.759   3.507  10.874  0.9058 -0.8788  0.4138
  852MPD2    H112570   1.900   3.362  10.509  0.8371  0.9086 -0.2502
  852MPD2    H212571   1.539   3.193  10.672 -0.9402  1.1273 -0.5254
  852MPD2    H312572   1.714   3.207  10.494  3.8355 -0.6369  0.6330
  852MPD2     N12573   1.929   3.565  10.675 -0.3697  0.1456  0.2823
  852MPD2    H512574   1.951   3.618  10.758 -1.8397  0.6881  0.3148
  852MPD2    N112575   1.560   3.367  10.900  0.2322 -0.4917  0.2363
  852MPD2    H712576   1.588   3.443  10.960  0.1739 -0.5916  0.3908
  853MPD2     C12577   3.319   2.273  12.908 -0.6951  0.1199  0.0308
  853MPD2    C112578   3.273   2.397  12.859 -0.4712 -0.4801 -0.4259
  853MPD2    C212579   3.263   2.411  12.723  0.4668  0.3798  1.1054
  853MPD2    C312580   3.307   2.316  12.629  0.0600  0.9564 -0.2497
  853MPD2    C412581   3.368   2.206  12.686 -0.3369  0.7002 -0.3539
  853MPD2    C512582   3.361   2.180  12.817 -0.0513  0.5215 -0.5491
  853MPD2     H12583   3.223   2.504  12.685  0.8282  0.4045  0.7762
  853MPD2    H112584   3.395   2.121  12.625 -1.3652  1.1041 -1.3843
  853MPD2    H212585   3.323   2.255  13.015  0.6502 -2.6115 -0.4661
  853MPD2    H312586   3.394   2.080  12.841 -3.9052  0.4173  4.3927
  853MPD2     N12587   3.315   2.334  12.491 -0.1853 -0.1647  0.2103
  853MPD2    H512588   3.375   2.267  12.442 -1.6342 -0.5964 -0.9712
  853MPD2    N112589   3.225   2.494  12.951 -0.5917 -0.2762  0.4546
  853MPD2    H712590   3.234   2.474  13.050 -1.4148  1.2545  0.8448
  854MPD2     C12591   4.498   2.564  13.122  0.6234 -0.6039  0.5069
  854MPD2    C112592   4.547   2.686  13.146  0.1569 -0.0819  0.5377
  854MPD2    C212593   4.639   2.699  13.260 -0.2059 -0.4811 -0.0174
  854MPD2    C312594   4.665   2.587  13.330  0.7478  0.2302 -0.4668
  854MPD2    C412595   4.613   2.467  13.304 -0.6157  0.3478 -0.2380
  854MPD2    C512596   4.527   2.456  13.199 -0.7299 -0.6388  0.0033
  854MPD2     H12597   4.684   2.793  13.289 -0.9215 -0.1927  0.1625
  854MPD2    H112598   4.632   2.383  13.371 -0.6203  1.0874  0.6859
  854MPD2    H212599   4.424   2.547  13.044  0.4392 -1.2809  0.8303
  854MPD2    H312600   4.465   2.368  13.181  1.6964 -2.3566  0.0211
  854MPD2     N12601   0.028   2.590  13.436 -0.2824  0.2153  0.0957
  854MPD2    H512602   0.062   2.502  13.474 -1.1867 -0.8462 -1.5494
  854MPD2    N112603   4.514   2.790  13.061  0.4662 -0.1400  0.0255
  854MPD2    H712604   4.428   2.768  13.010  0.7186  1.4289 -1.0613
  855MPD2     C12605   0.262   2.143  14.149 -0.6758 -0.4078 -0.2345
  855MPD2    C112606   0.367   2.227  14.146 -0.2916 -0.4531  0.5632
  855MPD2    C212607   0.368   2.321  14.046 -0.2501  0.2908 -0.5881
  855MPD2    C312608   0.268   2.333  13.948 -0.0561 -0.0502  0.2500
  855MPD2    C412609   0.165   2.246  13.955 -0.2430 -0.1215  0.2820
  855MPD2    C512610   0.158   2.149  14.059  0.2724 -0.1733  0.6405
  855MPD2     H12611   0.454   2.387  14.042 -1.2940  1.7035  0.1116
  855MPD2    H112612   0.086   2.245  13.881 -0.3246  3.1404  0.3090
  855MPD2    H212613   0.256   2.067  14.226 -1.1040  0.9448  1.0603
  855MPD2    H312614   0.080   2.074  14.069  0.1719  0.1092  2.0827
  855MPD2     N12615   0.277   2.429  13.838 -0.3086 -0.6877 -0.2844
  855MPD2    H512616   0.207   2.420  13.765 -1.2012  1.3027  0.3249
  855MPD2    N112617   0.481   2.225  14.225 -0.2732  0.5799  0.1031
  855MPD2    H712618   0.558   2.283  14.193 -0.2028  0.4038 -0.0487
  856MPD2     C12619   2.566   3.522  14.110 -0.7849  0.5924 -0.7002
  856MPD2    C112620   2.642   3.629  14.073 -0.3395  0.2315  0.2425
  856MPD2    C212621   2.589   3.739  14.011  0.6514 -0.2202  0.3476
  856MPD2    C312622   2.453   3.747  13.986  0.2101  0.6251 -0.0988
  856MPD2    C412623   2.378   3.640  14.026  0.7699 -0.0262 -0.4159
  856MPD2    C512624   2.434   3.535  14.090 -0.5968 -0.0826  0.4783
  856MPD2     H12625   2.659   3.821  14.001  1.3766 -0.8829 -0.1134
  856MPD2    H112626   2.270   3.639  14.027  0.7817 -0.5604  2.0299
  856MPD2    H212627   2.608   3.430  14.148 -0.2868  0.5551 -1.3474
  856MPD2    H312628   2.377   3.449  14.124 -0.1490  0.6317  3.0316
  856MPD2     N12629   2.386   3.851  13.921  0.4752 -0.3184  1.1925
  856MPD2    H512630   2.287   3.840  13.904  0.4675 -0.6783  1.4735
  856MPD2    N112631   2.784   3.631  14.084  0.2775 -0.4936  0.7393
  856MPD2    H712632   2.825   3.711  14.037 -1.0433 -1.7899 -2.6101
  857MPD2     C12633   4.277   0.981  13.230 -0.5188  0.0781  0.4155
  857MPD2    C112634   4.335   1.007  13.112  0.5666  0.5301  0.1742
  857MPD2    C212635   4.387   1.135  13.090  0.1074 -1.1360  0.3460
  857MPD2    C312636   4.366   1.236  13.185  0.2084 -0.3347 -0.7440
  857MPD2    C412637   4.303   1.207  13.305 -0.3431 -0.1426 -0.3233
  857MPD2    C512638   4.257   1.080  13.318 -0.4165  0.2613  0.3144
  857MPD2     H12639   4.443   1.161  13.001 -0.2139 -1.2742  0.1019
  857MPD2    H112640   4.290   1.277  13.387 -1.3689  0.7918 -1.2805
  857MPD2    H212641   4.234   0.882  13.242  1.6379 -0.8190  0.6224
  857MPD2    H312642   4.201   1.068  13.410 -1.4567  0.8689 -0.2377
  857MPD2     N12643   4.431   1.357  13.157 -0.3810  0.3904 -0.4149
  857MPD2    H512644   4.478   1.368  13.068  0.2702  2.3149  0.1692
  857MPD2    N112645   4.344   0.907  13.010  0.1083  0.4349 -0.2705
  857MPD2    H712646   4.319   0.812  13.035 -1.3449  0.4905 -1.4967
  858MPD2     C12647   0.695   3.983  17.054  0.4575  0.4303 -0.2522
  858MPD2    C112648   0.698   4.117  17.030 -1.3407 -0.3520 -0.4313
  858MPD2    C212649   0.701   4.206  17.139 -0.0861  0.3617  0.2077
  858MPD2    C312650   0.694   4.164  17.270  0.6446  0.1990  0.0675
  858MPD2    C412651   0.676   4.032  17.285 -0.1291 -0.1458 -0.1156
  858MPD2    C512652   0.671   3.939  17.179 -0.0808  0.2323 -0.1260
  858MPD2     H12653   0.702   4.313  17.125  0.6736  0.4774  1.0869
  858MPD2    H112654   0.660   3.986  17.382  0.1856  0.0092  0.0096
  858MPD2    H212655   0.673   3.917  16.971  0.6972  3.6300 -2.8365
  858MPD2    H312656   0.647   3.835  17.198 -1.7793  0.3333 -1.7148
  858MPD2     N12657   0.701   4.241  17.390  0.2476 -0.2389 -0.6825
  858MPD2    H512658   0.688   4.201  17.483  2.0084  0.3422 -0.1937
  858MPD2    N112659   0.718   4.155  16.894 -1.2893  0.0398  0.3153
  858MPD2    H712660   0.735   4.082  16.825 -0.4249  0.4770  0.0720
  859MPD2     C12661   3.494   2.026  15.805 -0.1384 -0.2638 -0.4740
  859MPD2    C112662   3.606   1.960  15.764 -0.1623 -0.4200 -0.3137
  859MPD2    C212663   3.616   1.826  15.797 -1.3176  0.5414  0.1698
  859MPD2    C312664   3.517   1.757  15.862 -0.3353  0.0072 -0.0651
  859MPD2    C412665   3.401   1.827  15.892  0.4995  0.7849 -0.0596
  859MPD2    C512666   3.392   1.961  15.872  0.1019  0.0155  0.1531
  859MPD2     H12667   3.701   1.769  15.761 -0.2082  1.5505  1.1910
  859MPD2    H112668   3.316   1.778  15.939  0.5830  0.3863 -0.3195
  859MPD2    H212669   3.486   2.132  15.786  3.1085  0.1374  0.4250
  859MPD2    H312670   3.295   2.003  15.900 -1.5080 -2.1944 -2.1348
  859MPD2     N12671   3.526   1.618  15.887 -0.3808 -0.4586  0.7069
  859MPD2    H512672   3.442   1.581  15.932 -1.1178  1.8293  1.2422
  859MPD2    N112673   3.713   2.024  15.699 -0.1919 -0.5328 -0.2552
  859MPD2    H712674   3.800   1.973  15.692 -0.3843 -0.9887  0.6546
  860MPD2     C12675   1.118   2.804  12.142  0.0107 -0.2735  0.1669
  860MPD2    C112676   1.088   2.701  12.234  0.3105 -0.7920 -0.1504
  860MPD2    C212677   0.955   2.680  12.276 -0.3198  0.3120 -1.1247
  860MPD2    C312678   0.862   2.782  12.232 -0.0324  0.4823 -0.2026
  860MPD2    C412679   0.892   2.882  12.146  0.6223  0.0326 -0.1996
  860MPD2    C512680   1.023   2.889  12.095  0.3408  0.3218  1.1578
  860MPD2     H12681   0.920   2.598  12.338 -1.6180  1.4634 -0.3268
  860MPD2    H112682   0.812   2.945  12.110 -1.3479 -2.0455  0.5887
  860MPD2    H212683   1.216   2.823  12.100  0.8948 -0.2486  2.2659
  860MPD2    H312684   1.040   2.961  12.016 -0.5994  0.0800  0.7342
  860MPD2     N12685   0.727   2.767  12.285  0.1300  0.5612  0.1149
  860MPD2    H512686   0.722   2.706  12.366  1.7843  1.5003  0.9261
  860MPD2    N112687   1.181   2.603  12.267 -0.0150 -0.2392 -0.2281
  860MPD2    H712688   1.141   2.521  12.312  1.2086 -0.1232  1.0600
  861MPD2     C12689   0.343   0.683  11.252  0.0005 -0.8086  0.7619
  861MPD2    C112690   0.376   0.818  11.236 -0.5437 -0.7568  0.7511
  861MPD2    C212691   0.315   0.889  11.130  0.4050 -0.3038 -0.8819
  861MPD2    C312692   0.218   0.826  11.046 -0.4183 -0.4104 -0.0296
  861MPD2    C412693   0.192   0.693  11.065  0.6233  0.4607  0.2431
  861MPD2    C512694   0.251   0.629  11.165  0.1128  0.0266  0.4119
  861MPD2     H12695   0.356   0.986  11.105 -0.2837  0.0973 -0.4602
  861MPD2    H112696   0.124   0.643  10.997  1.1462  0.4740 -0.2861
  861MPD2    H212697   0.382   0.617  11.329 -0.0459 -0.4125  1.1256
  861MPD2    H312698   0.212   0.529  11.182  1.0649 -0.1713  1.4474
  861MPD2     N12699   0.131   0.894  10.953  0.1500  0.2229 -0.6342
  861MPD2    H512700   0.043   0.852  10.926  0.9114 -0.1209 -2.5610
  861MPD2    N112701   0.469   0.891  11.315 -0.6419  0.3606  0.5486
  861MPD2    H712702   0.498   0.988  11.302  2.4481 -0.4485  1.2503
  862MPD2     C12703   4.316   0.780  10.533  0.3753  0.1795  0.3866
  862MPD2    C112704   4.389   0.783  10.646 -0.1650 -0.0932  0.2939
  862MPD2    C212705   4.366   0.689  10.744  0.1763 -0.3436  0.1458
  862MPD2    C312706   4.275   0.593  10.735  0.3558 -0.4993 -0.4217
  862MPD2    C412707   4.195   0.590  10.622 -0.0810  0.2263  0.2309
  862MPD2    C512708   4.222   0.679  10.519  0.2788 -0.1503  0.4810
  862MPD2     H12709   4.422   0.694  10.836  1.0059 -2.4568 -0.2426
  862MPD2    H112710   4.118   0.516  10.606 -0.0863  0.3168 -0.1602
  862MPD2    H212711   4.320   0.846  10.447  0.1132 -1.9472 -1.2473
  862MPD2    H312712   4.165   0.675  10.427  0.9092 -0.9403  0.1268
  862MPD2     N12713   4.247   0.507  10.845 -0.6928  0.0218 -0.5797
  862MPD2    H512714   4.160   0.456  10.834 -1.1287  0.9760 -1.6160
  862MPD2    N112715   4.496   0.871  10.681  0.0544 -0.5166  0.8020
  862MPD2    H712716   4.519   0.879  10.780 -0.8738  4.2512  0.6442
  863MPD2     C12717   3.111   3.238  17.057  0.1126  0.0783  0.0466
  863MPD2    C112718   3.176   3.305  16.956  0.4857 -1.2229 -0.8809
  863MPD2    C212719   3.311   3.280  16.932  0.3277  0.0403  0.5060
  863MPD2    C312720   3.381   3.195  17.006 -0.7666 -0.1575  0.1353
  863MPD2    C412721   3.317   3.120  17.101 -0.2310 -0.2350 -0.4649
  863MPD2    C512722   3.183   3.145  17.129 -0.0400  0.3200  0.7077
  863MPD2     H12723   3.363   3.341  16.860 -0.1983  0.4903  0.5099
  863MPD2    H112724   3.383   3.058  17.161 -3.0572 -0.0214  2.9030
  863MPD2    H212725   3.005   3.239  17.078  0.3213  2.9069  0.9142
  863MPD2    H312726   3.131   3.100  17.213  0.4118  1.2048  1.4659
  863MPD2     N12727   3.520   3.161  16.988 -0.6078  0.7223  0.6690
  863MPD2    H512728   3.555   3.079  17.037 -0.7566  1.0206  1.2836
  863MPD2    N112729   3.107   3.399  16.888  0.0292 -0.1838 -0.8622
  863MPD2    H712730   3.019   3.421  16.934  1.1743  1.3161  0.5861
  864MPD2     C12731   4.132   4.361  17.315  0.2260 -0.4872 -0.2073
  864MPD2    C112732   4.220   4.319  17.213 -0.1761  0.1010  0.7263
  864MPD2    C212733   4.297   4.420  17.156 -0.1281 -0.7422 -0.0425
  864MPD2    C312734   4.285   4.554  17.185  0.6332 -0.3041  0.2012
  864MPD2    C412735   4.185   4.590  17.276  1.1432  0.5290  0.2711
  864MPD2    C512736   4.116   4.494  17.347 -0.4104  0.2334 -0.2435
  864MPD2     H12737   4.356   4.391  17.070 -0.5004  1.6933 -1.1251
  864MPD2    H112738   4.164   4.696  17.289 -1.2301 -0.1725  2.0577
  864MPD2    H212739   4.066   4.292  17.366 -0.1964 -0.9743 -1.4244
  864MPD2    H312740   4.035   4.523  17.413 -1.1896  0.9206 -1.5141
  864MPD2     N12741   4.360   4.649  17.113 -0.0927 -0.3102 -0.1552
  864MPD2    H512742   4.338   0.008  17.142  1.8134  0.3924 -1.0562
  864MPD2    N112743   4.205   4.189  17.169  0.7077  0.6496  0.7483
  864MPD2    H712744   4.143   4.123  17.215  1.1093  0.3866  0.9115
  865MPD2     C12745   4.077   4.659  16.769  0.2715 -0.3319 -0.1230
  865MPD2    C112746   4.165   4.727  16.688  0.2471 -0.1584  0.6288
  865MPD2    C212747   4.202   0.116  16.737 -0.5919 -0.4351 -0.3700
  865MPD2    C312748   4.142   0.178  16.850 -0.4377 -0.4392  0.5726
  865MPD2    C412749   4.057   0.107  16.925 -0.0785  0.3960 -0.3109
  865MPD2    C512750   4.020   4.719  16.879 -0.1425  0.5743  0.6725
  865MPD2     H12751   4.263   0.180  16.676 -2.4633  1.2430 -0.4686
  865MPD2    H112752   4.003   0.151  17.008 -1.0085 -0.1131 -0.6521
  865MPD2    H212753   4.043   4.558  16.751  0.6818 -0.5037  0.0713
  865MPD2    H312754   3.957   4.654  16.939 -0.2155  0.7455  0.7825
  865MPD2     N12755   4.200   0.300  16.887  0.6629  0.2809  0.4520
  865MPD2    H512756   4.131   0.359  16.933  0.8123 -0.0262  1.0661
  865MPD2    N112757   4.216   4.674  16.569 -0.1001  0.2713 -0.0873
  865MPD2    H712758   4.193   4.576  16.557 -2.4347  0.7141  0.8661
  866MPD2     C12759   0.959   1.398  11.395 -0.0951 -0.0710  0.1187
  866MPD2    C112760   0.904   1.279  11.375  0.2069  0.1176 -0.0748
  866MPD2    C212761   0.772   1.272  11.333 -0.2245 -0.1226 -0.5302
  866MPD2    C312762   0.700   1.385  11.320 -0.0033 -0.7431  0.3174
  866MPD2    C412763   0.756   1.507  11.346  0.1300  0.2971 -0.2342
  866MPD2    C512764   0.884   1.510  11.386  0.7682 -0.8061  0.0469
  866MPD2     H12765   0.722   1.177  11.317  0.7177 -0.4362 -1.5631
  866MPD2    H112766   0.709   1.604  11.344 -3.7646 -1.5161  1.8177
  866MPD2    H212767   1.053   1.410  11.447  0.2538  0.1902 -0.5718
  866MPD2    H312768   0.921   1.607  11.417 -1.6779 -0.1444  0.9236
  866MPD2     N12769   0.560   1.389  11.288 -0.5408 -0.5335 -0.4819
  866MPD2    H512770   0.509   1.475  11.302 -0.7780 -0.3167 -2.6451
  866MPD2    N112771   0.980   1.168  11.410  0.6031  0.3859  0.3527
  866MPD2    H712772   1.070   1.200  11.445  1.6222 -0.3092 -1.6261
  867MPD2     C12773   2.748   4.559  16.587 -0.3218 -0.7473  0.0054
  867MPD2    C112774   2.785   4.460  16.680 -0.0463  1.0331  0.9737
  867MPD2    C212775   2.754   4.479  16.812 -0.5564 -0.2620 -0.5416
  867MPD2    C312776   2.712   4.608  16.850  0.0930 -1.1842 -0.3200
  867MPD2    C412777   2.662   4.704  16.759 -0.3983  0.1554 -0.4518
  867MPD2    C512778   2.688   4.675  16.625 -0.7857  0.0910 -0.2644
  867MPD2     H12779   2.775   4.410  16.892 -1.6692  0.7561  0.6420
  867MPD2    H112780   2.628   0.068  16.781 -0.6511 -0.0752  0.2238
  867MPD2    H212781   2.768   4.550  16.481 -1.9729 -1.0578 -0.2812
  867MPD2    H312782   2.661   0.014  16.552 -1.0448 -0.0177 -0.2826
  867MPD2     N12783   2.708   4.645  16.989  0.1724  0.0471 -0.5027
  867MPD2    H512784   2.661   4.734  17.006  0.1920  0.1097 -0.7826
  867MPD2    N112785   2.851   4.341  16.630  0.2478 -0.0775  0.3000
  867MPD2    H712786   2.864   4.336  16.530 -3.3490  0.1740 -0.1622
  868MPD2     C12787   4.545   3.929  13.255 -0.3557 -0.5439  0.4021
  868MPD2    C112788   4.601   3.886  13.373 -0.0187 -0.0945  0.3988
  868MPD2    C212789   4.558   3.928  13.499  0.3353  0.2140 -1.1070
  868MPD2    C312790   4.457   4.021  13.509 -0.0947 -0.1278  0.2421
  868MPD2    C412791   4.414   4.077  13.392 -0.3010  0.3749 -0.0157
  868MPD2    C512792   4.452   4.025  13.269  0.1621 -0.0244 -0.0989
  868MPD2     H12793   4.603   3.886  13.589 -0.4881 -1.3966 -1.4435
  868MPD2    H112794   4.332   4.147  13.394  0.5353  1.3926 -1.4091
  868MPD2    H212795   4.581   3.891  13.159 -0.5230  1.1684 -0.3385
  868MPD2    H312796   4.405   4.063  13.179  2.5860  2.6769 -0.2435
  868MPD2     N12797   4.425   4.060  13.642 -0.1786  0.1784  0.2662
  868MPD2    H512798   4.462   4.003  13.718 -0.4368 -0.5399 -0.1515
  868MPD2    N112799   4.693   3.773  13.355 -0.1935  0.0992 -0.0336
  868MPD2    H712800   4.710   3.746  13.259 -1.3460  0.7322 -0.4102
  869MPD2     C12801   1.296   0.770   0.762  0.1638  0.8011  0.7734
  869MPD2    C112802   1.231   0.876   0.824 -0.0627 -0.8621  0.3953
  869MPD2    C212803   1.240   0.898   0.965 -0.9360  0.3521  0.6085
  869MPD2    C312804   1.334   0.820   1.033  0.1653  0.4353  0.2732
  869MPD2    C412805   1.405   0.724   0.971  0.5204 -0.4364 -0.1889
  869MPD2    C512806   1.392   0.702   0.833 -0.4137 -0.1492 -0.1351
  869MPD2     H12807   1.211   0.995   1.002 -2.5478  0.6120 -1.3323
  869MPD2    H112808   1.472   0.659   1.025 -0.1415 -0.9658 -0.0003
  869MPD2    H212809   1.278   0.745   0.658  0.6763 -0.9691  1.1085
  869MPD2    H312810   1.456   0.630   0.784 -0.8771 -0.2700 -0.5621
  869MPD2     N12811   1.370   0.851   1.168 -0.4297 -0.5938  0.2540
  869MPD2    H512812   1.449   0.794   1.198  0.0246  1.0061  2.0714
  869MPD2    N112813   1.160   0.971   0.741 -0.2396 -0.4148 -0.7127
  869MPD2    H712814   1.175   0.963   0.641  1.1488  1.0964 -0.6203
  870MPD2     C12815   0.790   0.565   2.314 -0.1674 -0.5084 -0.0192
  870MPD2    C112816   0.676   0.545   2.245  0.1053  0.9352  0.1823
  870MPD2    C212817   0.670   0.575   2.110  0.2186 -0.6037 -0.2049
  870MPD2    C312818   0.785   0.620   2.048  0.5741 -0.5518 -0.1484
  870MPD2    C412819   0.899   0.657   2.119  0.2248  0.3234  0.2709
  870MPD2    C512820   0.900   0.624   2.255 -0.1893 -0.2303 -0.3949
  870MPD2     H12821   0.587   0.543   2.049 -0.3425  1.0603 -0.3085
  870MPD2    H112822   0.987   0.707   2.081  0.8254 -0.5625  0.4909
  870MPD2    H212823   0.797   0.537   2.418  1.5087 -0.0392  0.0026
  870MPD2    H312824   0.994   0.635   2.307 -1.3324 -1.4927  1.9207
  870MPD2     N12825   0.794   0.642   1.905 -0.3463  0.2267 -0.4096
  870MPD2    H512826   0.887   0.638   1.864 -1.1397  0.3269 -2.2239
  870MPD2    N112827   0.569   0.486   2.315  0.6941  0.2678  0.0673
  870MPD2    H712828   0.583   0.466   2.414 -1.6165 -0.9458  0.1626
  871MPD2     C12829   1.787   0.167  16.496 -0.2916  0.2876  0.0975
  871MPD2    C112830   1.804   0.144  16.624  0.1204  0.2997 -0.8759
  871MPD2    C212831   1.907   0.056  16.664 -0.0250 -0.9460 -0.0580
  871MPD2    C312832   1.971   4.715  16.565  0.2022 -0.1765  0.3668
  871MPD2    C412833   1.942   0.007  16.434 -0.4578 -0.7028  0.5856
  871MPD2    C512834   1.858   0.105  16.394 -0.4889 -0.9298  0.3708
  871MPD2     H12835   1.932   0.050  16.769 -0.2493 -1.1801 -0.0166
  871MPD2    H112836   1.990   4.687  16.355  1.1270 -0.3243  1.2892
  871MPD2    H212837   1.695   0.220  16.474 -0.3331 -0.0635 -0.5909
  871MPD2    H312838   1.828   0.107  16.290 -1.3775 -0.0189  0.6442
  871MPD2     N12839   2.071   4.626  16.606 -0.3229  1.0541  0.4860
  871MPD2    H512840   2.083   4.626  16.707 -1.3978  1.2557  0.6095
  871MPD2    N112841   1.734   0.228  16.715 -0.2067  0.1779  0.1190
  871MPD2    H712842   1.693   0.314  16.681 -0.2738  0.1334  0.0873
  872MPD2     C12843   2.758   2.644  14.720  0.0168 -0.0794  0.2843
  872MPD2    C112844   2.727   2.724  14.610 -0.5319  0.1303 -0.6468
  872MPD2    C212845   2.591   2.741  14.578 -0.3386  0.7667  0.2199
  872MPD2    C312846   2.495   2.672  14.650  0.0078  0.3257 -0.4445
  872MPD2    C412847   2.531   2.588  14.752 -0.2111 -0.7474 -0.2312
  872MPD2    C512848   2.660   2.571  14.778 -0.3775 -0.6005 -0.2018
  872MPD2     H12849   2.579   2.809  14.495 -0.1075  0.0860 -0.3684
  872MPD2    H112850   2.456   2.526  14.799  0.7365  1.6110  4.3925
  872MPD2    H212851   2.861   2.624  14.747  0.6869  0.0610 -2.1764
  872MPD2    H312852   2.675   2.492  14.851 -0.9999  1.4469  2.1409
  872MPD2     N12853   2.361   2.691  14.635 -0.0575  0.0147  0.9607
  872MPD2    H512854   2.308   2.669  14.719 -1.6622 -0.6054 -0.2145
  872MPD2    N112855   2.823   2.793  14.538 -0.5354 -0.9439 -0.1233
  872MPD2    H712856   2.793   2.840  14.454  2.3576  0.4408 -0.3905
  873MPD2     C12857   0.044   1.983   0.944 -0.0361 -0.4700 -0.0672
  873MPD2    C112858   4.671   2.045   1.006  1.2118 -0.3305  0.2784
  873MPD2    C212859   4.556   1.972   1.031  0.0521 -0.7027  0.3630
  873MPD2    C312860   4.551   1.839   1.026 -0.3796  0.0296  0.3836
  873MPD2    C412861   4.660   1.775   0.969  0.0309  0.2301  0.2302
  873MPD2    C512862   0.042   1.843   0.945 -0.0253  0.0343 -0.4173
  873MPD2     H12863   4.467   2.014   1.076 -0.5634 -1.0874 -0.4877
  873MPD2    H112864   4.671   1.668   0.969 -1.3859  0.0647  2.7856
  873MPD2    H212865   0.134   2.039   0.924 -1.6876  1.9241 -0.7589
  873MPD2    H312866   0.132   1.792   0.913  0.1341 -1.2290  2.0735
  873MPD2     N12867   4.434   1.761   1.058 -0.0632 -0.2105  0.3895
  873MPD2    H512868   4.439   1.667   1.018 -2.5935 -0.2849  0.2591
  873MPD2    N112869   4.680   2.189   1.010 -0.9906 -0.0872 -0.8996
  873MPD2    H712870   0.022   2.238   0.968  0.6832  0.3021  2.7069
  874MPD2     C12871   3.910   2.682  16.272  0.3444 -0.1341 -0.0718
  874MPD2    C112872   3.952   2.585  16.356  0.3211  0.4365  0.2695
  874MPD2    C212873   4.079   2.592  16.402 -0.5912 -0.7679 -0.5132
  874MPD2    C312874   4.169   2.688  16.373  0.6109  0.1249  0.2804
  874MPD2    C412875   4.130   2.792  16.292  0.1312 -0.1544 -0.4196
  874MPD2    C512876   4.003   2.783  16.239 -0.3762  0.5721 -0.4584
  874MPD2     H12877   4.112   2.529  16.484  0.9291  0.1752 -0.3971
  874MPD2    H112878   4.201   2.871  16.268  1.9857 -1.1525  1.7732
  874MPD2    H212879   3.808   2.681  16.235 -0.3288 -1.3192  1.8055
  874MPD2    H312880   3.969   2.860  16.171 -1.0354 -0.6221 -1.4997
  874MPD2     N12881   4.302   2.671  16.415  0.0308 -0.2048 -0.1289
  874MPD2    H512882   4.308   2.590  16.476  2.2819 -1.0606 -1.4758
  874MPD2    N112883   3.858   2.484  16.391 -0.2307  0.0894 -0.7605
  874MPD2    H712884   3.764   2.488  16.352 -0.3529  1.0131 -0.3832
  875MPD2     C12885   0.637   1.210  14.779  0.3652  0.2408 -0.5820
  875MPD2    C112886   0.520   1.214  14.851 -0.9586  0.3139 -0.8140
  875MPD2    C212887   0.523   1.282  14.976 -0.1592 -0.2007 -0.2181
  875MPD2    C312888   0.642   1.324  15.036  0.1159 -0.1352 -0.2953
  875MPD2    C412889   0.756   1.304  14.963  0.5150 -0.5357  0.0203
  875MPD2    C512890   0.750   1.264  14.830  0.2873  0.0896 -0.5625
  875MPD2     H12891   0.429   1.292  15.029 -0.5409  0.2706 -0.9878
  875MPD2    H112892   0.849   1.340  15.005  0.2836  1.4158 -1.1255
  875MPD2    H212893   0.645   1.163  14.681  0.0577  0.1445 -0.5613
  875MPD2    H312894   0.847   1.246  14.784 -0.2838 -0.0160 -1.7154
  875MPD2     N12895   0.657   1.366  15.170 -0.4165  0.1209 -0.2748
  875MPD2    H512896   0.752   1.388  15.200  0.4099 -2.1927 -1.2239
  875MPD2    N112897   0.395   1.184  14.799  0.5006  0.2008  0.1317
  875MPD2    H712898   0.321   1.224  14.856  2.1636  2.0632  1.0056
  876MPD2     C12899   3.584   2.046  16.175 -0.0614 -0.0795  0.0858
  876MPD2    C112900   3.722   2.027  16.172 -0.0070 -0.6915  0.0772
  876MPD2    C212901   3.768   1.898  16.199  0.5308 -0.3644  0.7742
  876MPD2    C312902   3.688   1.791  16.222  0.2248 -0.7316  0.2388
  876MPD2    C412903   3.551   1.808  16.218  0.0358 -0.2992  0.0121
  876MPD2    C512904   3.501   1.932  16.193  0.0598 -0.0394 -0.2408
  876MPD2     H12905   3.874   1.882  16.211  1.1375  1.1127 -2.7862
  876MPD2    H112906   3.477   1.729  16.225 -0.7268  0.4300  0.2058
  876MPD2    H212907   3.536   2.141  16.160  0.1143  0.0644  0.4368
  876MPD2    H312908   3.394   1.951  16.186  0.1925  0.5035 -0.8162
  876MPD2     N12909   3.741   1.662  16.228  0.3311 -1.0733 -0.0858
  876MPD2    H512910   3.840   1.652  16.210  0.0099 -2.3076 -1.1485
  876MPD2    N112911   3.808   2.140  16.156 -0.0005 -0.0989 -0.1369
  876MPD2    H712912   3.770   2.232  16.136 -0.9531 -0.1415  1.5123
  877MPD2     C12913   3.914   2.737  15.733  0.8323  0.0872  0.0139
  877MPD2    C112914   4.039   2.685  15.755  0.0549 -0.1410  0.1234
  877MPD2    C212915   4.138   2.703  15.662 -0.4429  0.2844  0.1943
  877MPD2    C312916   4.116   2.763  15.544  0.4383 -0.1058 -0.6511
  877MPD2    C412917   3.992   2.807  15.510 -0.8092  0.5579 -0.0299
  877MPD2    C512918   3.896   2.796  15.608 -0.3716 -0.7693 -0.3558
  877MPD2     H12919   4.234   2.654  15.677 -1.3203 -2.8938 -4.3914
  877MPD2    H112920   3.963   2.842  15.411  1.7340  0.2356 -0.8892
  877MPD2    H212921   3.831   2.729  15.801 -0.8408  1.5908 -1.8389
  877MPD2    H312922   3.797   2.817  15.570 -0.3563 -1.1899 -0.6366
  877MPD2     N12923   4.219   2.772  15.441  0.0598 -0.1094  0.2244
  877MPD2    H512924   4.181   2.795  15.350  1.8069  0.8481 -0.2861
  877MPD2    N112925   4.071   2.609  15.867  0.3902  0.1709 -0.1212
  877MPD2    H712926   4.166   2.580  15.886  0.3316 -0.3640 -0.6337
  878MPD2     C12927   3.695   2.103  13.603  0.0532  0.2274  0.3569
  878MPD2    C112928   3.727   2.235  13.571 -0.6166  0.1845 -0.2294
  878MPD2    C212929   3.707   2.334  13.669  0.0787 -0.6202  0.1567
  878MPD2    C312930   3.663   2.296  13.793  0.1875  0.5574 -0.7230
  878MPD2    C412931   3.633   2.165  13.824  0.2382  0.3179  0.0982
  878MPD2    C512932   3.642   2.074  13.726  0.0839 -0.0004  0.3319
  878MPD2     H12933   3.709   2.441  13.654  0.6229 -0.4390  1.5926
  878MPD2    H112934   3.582   2.138  13.915 -0.6360  0.1138 -0.4483
  878MPD2    H212935   3.708   2.013  13.543 -1.5141 -0.9598  1.7690
  878MPD2    H312936   3.613   1.973  13.752  2.9595 -0.6098  1.2553
  878MPD2     N12937   3.650   2.399  13.885  0.0039 -0.0032  0.3142
  878MPD2    H512938   3.669   2.492  13.848  0.7309  0.6363  2.2463
  878MPD2    N112939   3.779   2.256  13.436 -0.1706 -0.0032 -0.4886
  878MPD2    H712940   3.782   2.178  13.371  1.6281 -1.4971  1.3852
  879MPD2     C12941   4.383   3.047  16.742  0.6119 -0.2243 -0.4146
  879MPD2    C112942   4.372   2.963  16.854  0.4455  0.5450  0.1927
  879MPD2    C212943   4.274   2.863  16.849 -0.3064 -0.2802 -0.0416
  879MPD2    C312944   4.200   2.846  16.737  0.4155  0.1187  1.0130
  879MPD2    C412945   4.212   2.940  16.635 -0.8758  0.2729 -0.1346
  879MPD2    C512946   4.292   3.048  16.638  0.2918 -0.1025 -0.3512
  879MPD2     H12947   4.252   2.805  16.938 -0.0631  0.1547  0.3062
  879MPD2    H112948   4.148   2.936  16.548 -2.4804  2.6317  0.9388
  879MPD2    H212949   4.455   3.128  16.742 -0.8743  1.0851  1.3239
  879MPD2    H312950   4.308   3.129  16.568 -1.2436  2.6460  2.5072
  879MPD2     N12951   4.096   2.748  16.728  0.2083  0.6915  0.6169
  879MPD2    H512952   4.047   2.754  16.639 -1.1624  0.9493  1.3971
  879MPD2    N112953   4.454   3.003  16.968  0.1313  0.4118 -0.0279
  879MPD2    H712954   4.513   3.086  16.962 -1.0825  1.2274 -0.6828
  880MPD2     C12955   1.247   4.332   0.485  0.3302  0.6078 -0.0388
  880MPD2    C112956   1.280   4.432   0.562  0.0205  0.1445  0.5350
  880MPD2    C212957   1.414   4.462   0.575  0.1516  0.2100  0.3887
  880MPD2    C312958   1.517   4.393   0.515  1.0970  0.1677 -0.0541
  880MPD2    C412959   1.475   4.277   0.451  0.3471  0.0318 -0.0165
  880MPD2    C512960   1.341   4.246   0.440 -0.5706  0.5818  0.0576
  880MPD2     H12961   1.446   4.549   0.632  0.1085  0.4391  0.0614
  880MPD2    H112962   1.545   4.216   0.396 -0.9942 -2.0683  0.5852
  880MPD2    H212963   1.141   4.312   0.473  0.3556  0.5651 -0.1950
  880MPD2    H312964   1.308   4.159   0.385 -0.2636 -0.4887  1.5540
  880MPD2     N12965   1.654   4.444   0.523  0.5819  0.3304 -0.6740
  880MPD2    H512966   1.664   4.531   0.574  0.5102 -0.4038  0.5894
  880MPD2    N112967   1.178   4.505   0.622 -0.5921  0.1102 -0.3561
  880MPD2    H712968   1.089   4.495   0.576  0.0095  0.5157 -1.5939
  881MPD2     C12969   0.706   0.564   0.252 -0.8467 -0.1018 -0.1147
  881MPD2    C112970   0.782   0.455   0.201  0.6564 -0.0602  0.0647
  881MPD2    C212971   0.832   0.368   0.302 -0.7462 -0.0012 -0.2958
  881MPD2    C312972   0.770   0.365   0.429  1.2001  0.3113 -1.0220
  881MPD2    C412973   0.667   0.447   0.458  0.0461  0.2643 -0.3497
  881MPD2    C512974   0.636   0.545   0.368 -0.2947 -0.0252  0.6283
  881MPD2     H12975   0.916   0.302   0.283 -0.2397  0.1534  1.4329
  881MPD2    H112976   0.614   0.434   0.551  1.2179 -1.1931  0.1062
  881MPD2    H212977   0.669   0.643   0.188 -1.0262 -1.3357 -1.5565
  881MPD2    H312978   0.557   0.612   0.399  0.5166  1.1060  0.2645
  881MPD2     N12979   0.807   0.279   0.531 -0.9000 -0.2745  0.0213
  881MPD2    H512980   0.758   0.281   0.620 -0.6001  2.2611  0.1448
  881MPD2    N112981   0.851   0.478   0.082  0.1320  0.5295  0.3173
  881MPD2    H712982   0.810   0.541   0.014 -0.7810  0.7624  1.0880
  882MPD2     C12983   4.313   2.512  14.759  0.0100 -0.1475  0.1801
  882MPD2    C112984   4.271   2.613  14.831 -0.0380 -0.3529 -0.1267
  882MPD2    C212985   4.136   2.655  14.832  0.0304 -0.0124  0.4412
  882MPD2    C312986   4.047   2.593  14.747  0.3537  0.6879  0.3999
  882MPD2    C412987   4.090   2.487  14.675 -0.7135  0.1815 -0.4978
  882MPD2    C512988   4.221   2.456  14.673 -0.0865  0.1473  0.0629
  882MPD2     H12989   4.107   2.740  14.892 -1.2212  1.1869 -1.8765
  882MPD2    H112990   4.021   2.438  14.607 -0.7060  2.6463 -2.2862
  882MPD2    H212991   4.413   2.470  14.758  0.3437  0.6754 -1.6615
  882MPD2    H312992   4.246   2.370  14.612  1.4945 -0.6282  1.7933
  882MPD2     N12993   3.909   2.626  14.745 -0.0967  0.5342  0.3663
  882MPD2    H512994   3.853   2.571  14.681  0.8504 -0.8103  0.6944
  882MPD2    N112995   4.375   2.668  14.918 -0.0501 -0.0571  0.1655
  882MPD2    H712996   4.465   2.622  14.924  0.6971  1.6072  1.9077
  883MPD2     C12997   0.927   2.525  16.349 -0.0845 -0.2693  0.2586
  883MPD2    C112998   0.988   2.647  16.323  0.6058  1.0716 -0.6575
  883MPD2    C212999   1.126   2.661  16.342  0.3111  0.1040 -0.3572
  883MPD2    C313000   1.206   2.558  16.391 -0.5180  0.3139 -0.1641
  883MPD2    C413001   1.143   2.436  16.423  0.4924  0.7037 -0.8160
  883MPD2    C513002   1.005   2.426  16.400 -0.2424 -0.2561 -0.5635
  883MPD2     H13003   1.182   2.752  16.322  1.4629 -0.4444  0.3426
  883MPD2    H113004   1.203   2.357  16.468  0.6399  0.8625 -0.7346
  883MPD2    H213005   0.825   2.503  16.318 -0.1012  0.7962 -0.4372
  883MPD2    H313006   0.958   2.331  16.426 -2.0776  0.9098  0.3555
  883MPD2     N13007   1.338   2.588  16.405  0.4878  0.7203  0.2574
  883MPD2    H513008   1.360   2.679  16.365  0.2390  0.4796 -0.4300
  883MPD2    N113009   0.922   2.762  16.277 -0.4213  0.1206  0.8349
  883MPD2    H713010   0.970   2.848  16.252  1.8217 -0.8191  1.9533
  884MPD2     C13011   3.172   3.444  15.491  0.8399 -0.2122  0.4169
  884MPD2    C113012   3.145   3.527  15.388  0.5716 -0.6758 -0.1962
  884MPD2    C213013   3.016   3.576  15.369 -0.0698 -0.2819 -0.2945
  884MPD2    C313014   2.913   3.541  15.451 -0.2937 -0.1803 -0.2828
  884MPD2    C413015   2.940   3.452  15.551  0.3223 -0.3762  0.4358
  884MPD2    C513016   3.067   3.414  15.570  0.1923  0.0973  0.4095
  884MPD2     H13017   2.997   3.647  15.290 -1.1916  0.4428  0.6156
  884MPD2    H113018   2.860   3.416  15.614  2.0851  1.7496  3.9121
  884MPD2    H213019   3.270   3.412  15.523  0.3398 -1.4089  0.7678
  884MPD2    H313020   3.080   3.347  15.654  0.4481  0.4818  0.6777
  884MPD2     N13021   2.791   3.611  15.427  0.2572 -0.0637 -0.1253
  884MPD2    H513022   2.785   3.670  15.345 -2.0387  1.4824  1.1794
  884MPD2    N113023   3.243   3.589  15.308 -0.3948  1.0217 -0.1210
  884MPD2    H713024   3.211   3.666  15.250  2.1059  1.1706 -1.3030
  885MPD2     C13025   1.266   3.054   0.214 -0.0630  0.1078 -0.1139
  885MPD2    C113026   1.382   3.125   0.225  0.1824  0.6477 -0.1281
  885MPD2    C213027   1.417   3.200   0.114  0.3898 -0.3572 -0.3304
  885MPD2    C313028   1.334   3.216   0.003  0.0575 -0.7627 -1.0320
  885MPD2    C413029   1.208   3.150  17.745  0.3272 -0.0712  0.0441
  885MPD2    C513030   1.181   3.065   0.106 -0.0464 -0.3996  0.0040
  885MPD2     H13031   1.516   3.244   0.115 -0.7875  2.3144  1.9012
  885MPD2    H113032   1.132   3.165  17.669 -0.2163 -0.3046  0.5491
  885MPD2    H213033   1.234   2.998   0.301  2.4045  0.5370  1.0575
  885MPD2    H313034   1.089   3.008   0.109 -1.2096  1.4616 -0.1191
  885MPD2     N13035   1.379   3.290  17.632  0.5931 -0.0025 -0.0553
  885MPD2    H513036   1.477   3.310  17.618  0.9582 -0.1906  2.2682
  885MPD2    N113037   1.467   3.098   0.334  0.2744  0.1014  0.5672
  885MPD2    H713038   1.438   3.031   0.404  2.6347 -0.3294  1.1361
  886MPD2     C13039   2.535   2.235  15.606 -0.0162  0.3376  0.1833
  886MPD2    C113040   2.664   2.220  15.634  0.3349  0.5031  0.4368
  886MPD2    C213041   2.749   2.329  15.616 -0.3057  0.3271  0.0907
  886MPD2    C313042   2.706   2.451  15.567 -0.0045  0.5384  0.5473
  886MPD2    C413043   2.563   2.470  15.559  0.0307  0.7552  0.6889
  886MPD2    C513044   2.487   2.358  15.568  0.0237 -0.1482 -0.0537
  886MPD2     H13045   2.855   2.312  15.631 -0.0474  0.8222 -1.1482
  886MPD2    H113046   2.517   2.568  15.551 -0.7300  0.2868 -0.7018
  886MPD2    H213047   2.473   2.148  15.630 -0.2284  0.2937 -0.5194
  886MPD2    H313048   2.381   2.377  15.572  0.0326 -0.5266  1.6797
  886MPD2     N13049   2.804   2.545  15.531  0.2844  0.2855 -0.0443
  886MPD2    H513050   2.898   2.509  15.517  0.1292 -1.0813  2.3214
  886MPD2    N113051   2.731   2.108  15.683 -0.0662 -0.1507  0.7130
  886MPD2    H713052   2.831   2.117  15.698 -0.1162  0.2566  0.8116
  887MPD2     C13053   3.094   2.050  16.266  0.1723  0.8597 -0.0867
  887MPD2    C113054   3.076   2.075  16.128  0.1387  0.4349  0.3391
  887MPD2    C213055   3.122   2.190  16.068 -0.3476 -0.2961 -0.4469
  887MPD2    C313056   3.182   2.286  16.151 -0.3423  0.0800 -0.4549
  887MPD2    C413057   3.204   2.255  16.284  0.4637 -0.1303  0.5984
  887MPD2    C513058   3.166   2.141  16.342  0.4993 -0.3643  0.1875
  887MPD2     H13059   3.105   2.213  15.963  1.8748  0.1942 -0.7121
  887MPD2    H113060   3.258   2.317  16.354  1.4368 -0.5818  0.2667
  887MPD2    H213061   3.064   1.955  16.310 -0.1956  2.0032  2.1283
  887MPD2    H313062   3.195   2.110  16.442 -0.1937  0.5337  0.6688
  887MPD2     N13063   3.201   2.417  16.118  0.0624 -0.2866  0.4936
  887MPD2    H513064   3.231   2.470  16.199 -0.4223  5.0790 -2.7985
  887MPD2    N113065   3.006   1.985  16.041  0.3831 -0.1033 -0.1662
  887MPD2    H713066   2.994   2.023  15.948  0.3321 -0.6180 -0.3688
  888MPD2     C13067   0.796   2.003  15.284  0.1708  0.6843  0.0707
  888MPD2    C113068   0.687   2.061  15.351  0.5230  0.3023 -0.2853
  888MPD2    C213069   0.671   2.195  15.334 -0.1436  0.0458  0.1450
  888MPD2    C313070   0.753   2.262  15.249  0.6220  0.2187 -0.2180
  888MPD2    C413071   0.850   2.204  15.173  0.0519  0.6089  0.9470
  888MPD2    C513072   0.858   2.072  15.184 -0.0194 -0.3263 -0.2889
  888MPD2     H13073   0.596   2.250  15.389  1.4888  0.6780  1.7297
  888MPD2    H113074   0.918   2.246  15.100 -1.2878  0.8914 -0.1427
  888MPD2    H213075   0.799   1.895  15.294  0.3555  0.7346  0.5207
  888MPD2    H313076   0.941   2.035  15.127  0.8953 -0.3604  1.0699
  888MPD2     N13077   0.737   2.405  15.235  0.2740 -0.5179 -1.0210
  888MPD2    H513078   0.658   2.454  15.276  1.5578  0.2488  0.5171
  888MPD2    N113079   0.596   1.994  15.440 -0.3059  0.4079 -0.2059
  888MPD2    H713080   0.522   2.053  15.476  0.7044  0.9472  1.0229
  889MPD2     C13081   4.210   2.107  13.211 -0.4283  0.0623  0.8765
  889MPD2    C113082   4.326   2.091  13.283 -0.0736  0.8517  0.8300
  889MPD2    C213083   4.350   2.184  13.384  0.0376  0.4901  0.1114
  889MPD2    C313084   4.284   2.302  13.391  0.0852  0.5741 -0.6594
  889MPD2    C413085   4.174   2.318  13.315 -0.0732  0.5870  1.1324
  889MPD2    C513086   4.143   2.228  13.218  0.2313 -0.1092  0.5665
  889MPD2     H13087   4.443   2.187  13.442  1.3775 -0.1197 -2.0266
  889MPD2    H113088   4.113   2.407  13.311 -1.4766 -0.4885 -1.0201
  889MPD2    H213089   4.193   2.051  13.120  2.8254 -0.0563  0.3583
  889MPD2    H313090   4.063   2.256  13.150  0.2475 -0.4556  0.4058
  889MPD2     N13091   4.316   2.387  13.492  0.0890 -0.4061 -0.4001
  889MPD2    H513092   4.401   2.369  13.544  0.4030 -1.4478 -1.2624
  889MPD2    N113093   4.388   1.962  13.270  0.2882  0.3214 -0.5576
  889MPD2    H713094   4.352   1.896  13.201  1.4076  0.7250 -1.5224
  890MPD2     C13095   4.025   3.679  14.833 -0.1471  0.5687 -0.1241
  890MPD2    C113096   4.055   3.738  14.962  0.3202  0.0378 -0.6212
  890MPD2    C213097   4.033   3.664  15.078 -0.2178  0.1254  0.3575
  890MPD2    C313098   3.983   3.536  15.074 -0.2542  0.4634 -0.2944
  890MPD2    C413099   3.957   3.484  14.951  0.8830  0.1754  0.0974
  890MPD2    C513100   3.978   3.550  14.838  0.2492  0.2926  0.0324
  890MPD2     H13101   4.067   3.702  15.174 -0.4473  0.6784  0.2234
  890MPD2    H113102   3.916   3.385  14.936  2.0551 -0.4575  1.0038
  890MPD2    H213103   4.036   3.734  14.740 -1.2924  0.4633 -0.3211
  890MPD2    H313104   3.946   3.497  14.749 -0.2896  0.1775  0.2918
  890MPD2     N13105   3.964   3.470  15.201  0.7652  0.1342 -0.3820
  890MPD2    H513106   3.995   3.503  15.292  0.3850  0.2550 -0.2978
  890MPD2    N113107   4.087   3.876  14.964 -0.3442 -0.0400  0.0335
  890MPD2    H713108   4.100   3.924  14.875  2.7894 -0.8106  0.0506
  891MPD2     C13109   2.437   1.788  17.161 -0.5400 -0.1424 -0.0243
  891MPD2    C113110   2.299   1.783  17.170 -0.8197 -0.0396  0.6518
  891MPD2    C213111   2.233   1.663  17.182 -0.3598  0.4895  0.0415
  891MPD2    C313112   2.311   1.546  17.191  0.2213  1.0537 -0.5840
  891MPD2    C413113   2.450   1.557  17.182  0.3985  0.2112 -0.0295
  891MPD2    C513114   2.513   1.673  17.155  0.0033  0.3184 -0.2661
  891MPD2     H13115   2.126   1.651  17.197 -0.1041 -0.2705  1.2583
  891MPD2    H113116   2.513   1.469  17.196  1.4798  1.0342  0.2408
  891MPD2    H213117   2.484   1.885  17.154  0.3857 -0.8844 -3.8162
  891MPD2    H313118   2.621   1.676  17.168 -0.0345 -0.1291  0.1199
  891MPD2     N13119   2.256   1.411  17.184  0.1575 -0.2269  0.2815
  891MPD2    H513120   2.157   1.399  17.202  0.0823 -0.8229 -0.5135
  891MPD2    N113121   2.231   1.904  17.152  0.1342 -0.1864 -0.5797
  891MPD2    H713122   2.285   1.989  17.135  2.0453 -1.4997 -1.0335
  892MPD2     C13123   3.334   3.429  15.018  0.2872 -0.5605 -0.1841
  892MPD2    C113124   3.255   3.312  15.041  0.3245 -0.3450  0.7866
  892MPD2    C213125   3.315   3.184  15.044  0.9485 -0.2601  0.4344
  892MPD2    C313126   3.444   3.168  14.997 -0.1822  0.4810 -0.0800
  892MPD2    C413127   3.514   3.280  14.973 -0.5131  0.3783 -1.0132
  892MPD2    C513128   3.468   3.408  14.988 -0.0153 -0.5614  0.1829
  892MPD2     H13129   3.259   3.094  15.064  2.2387 -1.1250  0.1685
  892MPD2    H113130   3.615   3.273  14.936 -0.9740 -1.1685 -2.0160
  892MPD2    H213131   3.293   3.529  15.012  0.1170 -0.5692  0.8220
  892MPD2    H313132   3.529   3.497  14.977 -0.1316 -0.9321 -3.2767
  892MPD2     N13133   3.497   3.042  14.955 -0.1809  0.5296 -0.4024
  892MPD2    H513134   3.587   3.047  14.909  0.1008 -0.6990  0.0340
  892MPD2    N113135   3.115   3.316  15.066  0.0270  0.1336  0.8721
  892MPD2    H713136   3.065   3.227  15.066  2.9640 -1.5059 -2.9026
  893MPD2     C13137   0.272   1.995   1.891  0.5767 -0.3680 -0.4796
  893MPD2    C113138   0.243   1.928   1.769 -0.2285 -0.2815 -0.3318
  893MPD2    C213139   0.112   1.939   1.724  0.2719 -0.5019  0.1606
  893MPD2    C313140   0.009   2.001   1.796  0.4316  0.2056 -0.8780
  893MPD2    C413141   0.039   2.062   1.916 -0.0471 -0.2521 -0.4960
  893MPD2    C513142   0.169   2.069   1.958 -0.4104  0.0450  0.3827
  893MPD2     H13143   0.092   1.881   1.634 -1.3832  0.7900 -0.3019
  893MPD2    H113144   4.701   2.108   1.980  0.4342  0.2362 -0.2920
  893MPD2    H213145   0.372   2.002   1.933  0.3737 -2.1340  0.2726
  893MPD2    H313146   0.195   2.119   2.050  0.9385 -0.3476  0.2180
  893MPD2     N13147   4.615   2.021   1.755 -0.2307  0.4700  0.1325
  893MPD2    H513148   4.552   2.071   1.817 -1.7692 -0.0020 -1.0595
  893MPD2    N113149   0.341   1.843   1.707 -0.1908 -0.2523  0.0986
  893MPD2    H713150   0.423   1.824   1.763  0.9090 -0.3229 -1.5368
  894MPD2     C13151   3.233   3.065   1.888  0.1017  0.0691  0.0234
  894MPD2    C113152   3.126   3.129   1.831 -1.0321  0.4526  0.6568
  894MPD2    C213153   3.134   3.191   1.709  0.1227  0.1588  0.2380
  894MPD2    C313154   3.254   3.191   1.645 -0.0751 -0.6102  0.1561
  894MPD2    C413155   3.366   3.125   1.699 -1.3198  0.6825  0.1223
  894MPD2    C513156   3.351   3.057   1.821 -0.4430 -0.2933  0.1789
  894MPD2     H13157   3.053   3.236   1.653 -1.3630 -1.7251  0.8627
  894MPD2    H113158   3.461   3.141   1.649 -1.3149  1.8410  0.5003
  894MPD2    H213159   3.215   3.006   1.978  3.3730 -2.6702 -1.1056
  894MPD2    H313160   3.438   3.009   1.863  0.2198 -1.0413 -2.0441
  894MPD2     N13161   3.257   3.268   1.527  0.8494  0.3569 -0.4978
  894MPD2    H513162   3.182   3.335   1.508  0.5700  0.6196  1.4723
  894MPD2    N113163   2.999   3.128   1.884 -0.0483  0.2582 -0.0929
  894MPD2    H713164   2.933   3.177   1.824 -0.8758  1.6607  1.9419
  895MPD2     C13165   2.415   2.459  13.764  0.5597  0.1746  0.0052
  895MPD2    C113166   2.345   2.434  13.652  0.0593  0.0589 -0.3034
  895MPD2    C213167   2.364   2.325  13.573  0.5407 -1.0117 -0.1691
  895MPD2    C313168   2.467   2.238  13.609 -0.7501 -0.1193  0.0853
  895MPD2    C413169   2.532   2.253  13.729  0.6828 -0.2568 -0.0847
  895MPD2    C513170   2.509   2.367  13.802  0.8615  0.1795 -0.2591
  895MPD2     H13171   2.307   2.321  13.481 -1.4258 -2.5075  1.1143
  895MPD2    H113172   2.602   2.182  13.771 -1.4057 -1.6485  1.0412
  895MPD2    H213173   2.412   2.544  13.831  0.4249  0.9194 -0.9490
  895MPD2    H313174   2.561   2.393  13.894 -0.0195  0.4848  0.1546
  895MPD2     N13175   2.494   2.116  13.541 -0.5825  0.1191 -0.2519
  895MPD2    H513176   2.554   2.047  13.587 -3.2259 -2.3902 -0.5452
  895MPD2    N113177   2.231   2.512  13.607 -0.3003 -0.4507 -0.1583
  895MPD2    H713178   2.186   2.478  13.524  0.8980 -0.8373 -0.6538
  896MPD2     C13179   4.552   4.012   1.801 -0.5211 -1.2151 -0.4088
  896MPD2    C113180   4.557   4.058   1.671  0.5177  0.6643 -0.4673
  896MPD2    C213181   4.473   4.006   1.572  0.2196 -0.6329  0.5916
  896MPD2    C313182   4.388   3.908   1.598  0.0290 -0.3112 -0.2147
  896MPD2    C413183   4.388   3.864   1.728  0.3532 -0.5488  0.5265
  896MPD2    C513184   4.463   3.912   1.832 -0.4898 -0.0817 -0.0704
  896MPD2     H13185   4.464   4.057   1.477 -1.9206 -2.3189 -0.0982
  896MPD2    H113186   4.317   3.786   1.755  0.8574 -1.1746  0.0351
  896MPD2    H213187   4.626   4.038   1.876  0.5941  0.1798 -2.0029
  896MPD2    H313188   4.452   3.877   1.934  0.4430  1.5027  0.5654
  896MPD2     N13189   4.309   3.858   1.491  0.0654  0.8273  0.2857
  896MPD2    H513190   4.327   3.899   1.400 -2.2045  1.4959  0.1394
  896MPD2    N113191   4.639   4.171   1.650 -0.1030  0.1733  0.4661
  896MPD2    H713192   4.684   4.212   1.731 -3.0322  2.4886  0.9347
  897MPD2     C13193   1.132   2.510  10.642  0.2741 -0.2374  0.1321
  897MPD2    C113194   1.001   2.518  10.681  0.2015  0.3812 -0.0840
  897MPD2    C213195   0.925   2.401  10.686 -0.2981  0.0382 -0.6931
  897MPD2    C313196   0.984   2.276  10.682  0.5381 -0.0415 -0.3123
  897MPD2    C413197   1.113   2.269  10.634  0.4022  0.0620 -0.0306
  897MPD2    C513198   1.184   2.385  10.613 -0.0003 -0.3285  0.2134
  897MPD2     H13199   0.823   2.403  10.722  0.0430 -0.4357  0.2769
  897MPD2    H113200   1.180   2.185  10.623 -0.1299 -0.7176  2.8642
  897MPD2    H213201   1.197   2.594  10.618 -0.4409  0.3856  0.3590
  897MPD2    H313202   1.286   2.384  10.575  0.3460  1.7462  1.0720
  897MPD2     N13203   0.908   2.171  10.733  0.3538 -0.1511 -0.1774
  897MPD2    H513204   0.831   2.202  10.791  0.3356  2.1492 -1.4233
  897MPD2    N113205   0.945   2.646  10.705  0.1162 -0.8946  0.3568
  897MPD2    H713206   1.000   2.729  10.686  0.4122 -0.6187  2.4526
  898MPD2     C13207   3.027   2.249   0.752 -0.1915  0.5063  0.0219
  898MPD2    C113208   3.055   2.215   0.622  0.5145 -0.8796  0.8646
  898MPD2    C213209   3.062   2.314   0.525  0.5274 -1.0453  0.2841
  898MPD2    C313210   3.029   2.444   0.560 -0.0748  0.8871 -0.2099
  898MPD2    C413211   2.987   2.475   0.685  0.0495 -0.1494  0.5220
  898MPD2    C513212   2.994   2.376   0.783  0.1741  0.8210 -0.8801
  898MPD2     H13213   3.091   2.303   0.421 -1.2540  1.0624 -0.4313
  898MPD2    H113214   2.971   2.580   0.707 -0.1686 -0.2702  0.9362
  898MPD2    H213215   3.030   2.179   0.835 -0.2550 -1.8353 -1.9561
  898MPD2    H313216   2.973   2.396   0.887  1.1828 -1.0524 -0.3173
  898MPD2     N13217   3.053   2.533   0.457 -0.0550 -0.1014 -0.3162
  898MPD2    H513218   3.060   2.495   0.363  1.5145 -0.0768 -0.2127
  898MPD2    N113219   3.090   2.084   0.588  0.1429  0.4018 -0.0331
  898MPD2    H713220   3.127   2.073   0.495  0.9770 -2.0418  0.6037
  899MPD2     C13221   3.943   2.560  17.234  0.4657  0.5672 -0.9557
  899MPD2    C113222   3.871   2.680  17.229  0.2584  0.2759 -0.1388
  899MPD2    C213223   3.798   2.726  17.340  0.4492  0.4572 -0.1980
  899MPD2    C313224   3.789   2.648  17.449  0.0526 -0.2773  0.1292
  899MPD2    C413225   3.845   2.518  17.459 -0.2051 -0.4335 -0.3709
  899MPD2    C513226   3.926   2.482  17.352 -0.5877  1.0180  0.0097
  899MPD2     H13227   3.756   2.826  17.350 -0.1126  0.1554  0.4563
  899MPD2    H113228   3.823   2.448  17.538  2.2915 -0.1367  0.5849
  899MPD2    H213229   3.999   2.525  17.149 -0.0406  1.0962 -1.5054
  899MPD2    H313230   3.963   2.381  17.355 -0.8464  0.9025 -0.7660
  899MPD2     N13231   3.710   2.700  17.548 -0.4702  0.5164  0.2750
  899MPD2    H513232   3.668   2.791  17.530 -1.6496 -0.2078 -0.6188
  899MPD2    N113233   3.884   2.756  17.112 -0.0732  0.2740  0.3559
  899MPD2    H713234   3.948   2.725  17.040  0.2489  0.9997  0.3305
  900MPD2     C13235   3.341   0.145  12.673  0.1447  0.1143 -0.4381
  900MPD2    C113236   3.219   0.083  12.703 -0.5093 -0.2718 -0.8715
  900MPD2    C213237   3.109   0.139  12.645  0.4202  0.0266 -0.2141
  900MPD2    C313238   3.116   0.233  12.543 -0.3735  0.0658  0.1339
  900MPD2    C413239   3.240   0.279  12.500 -0.0696 -0.0013  0.1773
  900MPD2    C513240   3.352   0.242  12.575 -0.2029 -0.7648  0.4815
  900MPD2     H13241   3.014   0.090  12.663  0.3714  0.1012 -0.2721
  900MPD2    H113242   3.255   0.345  12.415  0.9310  1.7931  1.7410
  900MPD2    H213243   3.435   0.111  12.715 -0.3381 -0.6167  0.0657
  900MPD2    H313244   3.445   0.286  12.540 -0.5786 -0.6852 -0.4340
  900MPD2     N13245   2.989   0.255  12.480  0.4234  0.5201  0.4686
  900MPD2    H513246   2.912   0.199  12.514 -0.8442  1.2976 -1.1577
  900MPD2    N113247   3.213   4.722  12.808  0.3655 -0.1705  0.3879
  900MPD2    H713248   3.300   4.700  12.855  0.9686  1.5999  0.0910
  901MPD2     C13249   2.719   3.766  13.112 -0.0846 -0.0932  0.0706
  901MPD2    C113250   2.848   3.760  13.059  0.6754  0.6520 -0.7397
  901MPD2    C213251   2.920   3.874  13.021  0.0821 -0.8279 -0.4083
  901MPD2    C313252   2.862   4.000  13.037  0.5324  0.3892  0.3349
  901MPD2    C413253   2.739   4.009  13.094  0.1569  0.5291  0.0541
  901MPD2    C513254   2.671   3.894  13.130  0.0819  0.0881 -0.4305
  901MPD2     H13255   3.023   3.853  12.993 -0.4162 -0.1752 -2.7570
  901MPD2    H113256   2.694   4.106  13.115  0.2299  0.4394  0.6076
  901MPD2    H213257   2.661   3.684  13.153 -0.9177  0.9884  1.0725
  901MPD2    H313258   2.571   3.901  13.171 -0.2763 -0.4092 -1.2185
  901MPD2     N13259   2.942   4.112  12.995  0.3306  0.4132 -0.2875
  901MPD2    H513260   3.034   4.096  12.957 -0.1664  2.6631 -2.4064
  901MPD2    N113261   2.905   3.631  13.058  0.1768 -0.2502 -0.0595
  901MPD2    H713262   2.850   3.566  13.114 -0.6451  0.7905  0.3419
  902MPD2     C13263   2.378   2.689  13.323 -0.4385 -0.7504  0.4394
  902MPD2    C113264   2.297   2.705  13.212 -0.2394 -0.7010 -0.5091
  902MPD2    C213265   2.304   2.612  13.109  0.5549 -0.6375 -0.0126
  902MPD2    C313266   2.405   2.514  13.108 -0.1873  0.0592 -0.2152
  902MPD2    C413267   2.482   2.489  13.222  0.1761 -0.0430 -0.0070
  902MPD2    C513268   2.463   2.580  13.327 -0.6427  0.7116 -0.6112
  902MPD2     H13269   2.248   2.620  13.016 -2.3050 -3.1623  1.5055
  902MPD2    H113270   2.548   2.409  13.253  0.0772  0.0222  0.3753
  902MPD2    H213271   2.389   2.756  13.407 -1.4527 -0.0162 -0.0170
  902MPD2    H313272   2.513   2.550  13.418 -3.3971  2.5939  1.5035
  902MPD2     N13273   2.406   2.419  13.002  0.2150 -0.2633  0.7191
  902MPD2    H513274   2.342   2.441  12.926  0.0688  1.8954  1.4569
  902MPD2    N113275   2.214   2.819  13.209 -0.2344 -0.1838 -0.0918
  902MPD2    H713276   2.223   2.880  13.290  0.7317 -0.8781  0.3189
  903MPD2     C13277   2.146   2.053  12.256  0.2776  0.2666 -0.0247
  903MPD2    C113278   2.118   2.121  12.377 -0.2479 -0.3506  0.3154
  903MPD2    C213279   1.992   2.178  12.392  0.5706 -1.1193  0.7445
  903MPD2    C313280   1.908   2.197  12.283 -0.0144  0.4403 -0.1891
  903MPD2    C413281   1.935   2.128  12.168  0.1709 -0.3242 -0.3012
  903MPD2    C513282   2.047   2.052  12.160  0.2180  0.7558 -0.5095
  903MPD2     H13283   1.967   2.222  12.488 -0.1172 -2.2188  1.0813
  903MPD2    H113284   1.870   2.128  12.082  1.7854  0.9166 -1.5207
  903MPD2    H213285   2.234   1.991  12.246 -2.3540 -3.2037 -1.7960
  903MPD2    H313286   2.050   1.991  12.071  0.4998  2.4727 -1.6818
  903MPD2     N13287   1.794   2.276  12.304 -0.6336  0.3001 -0.2424
  903MPD2    H513288   1.772   2.309  12.397  1.1710 -0.2442  0.3689
  903MPD2    N113289   2.221   2.134  12.472  0.3297 -0.4908  0.0303
  903MPD2    H713290   2.304   2.080  12.447  0.5783  0.3086 -0.8957
  904MPD2     C13291   2.167   1.423  14.254  0.3450 -0.4079 -0.2102
  904MPD2    C113292   2.175   1.553  14.287 -0.9941 -0.2781  0.4546
  904MPD2    C213293   2.283   1.590  14.367 -0.0496 -0.2111  0.5159
  904MPD2    C313294   2.374   1.499  14.420  1.1519  0.2724  0.0141
  904MPD2    C413295   2.369   1.374  14.374  0.3511  0.7097  0.0007
  904MPD2    C513296   2.270   1.336  14.291 -0.5651 -0.3341  0.4262
  904MPD2     H13297   2.291   1.696  14.389  0.7809 -0.4398  1.3001
  904MPD2    H113298   2.447   1.301  14.392 -1.4031 -0.8161  1.4344
  904MPD2    H213299   2.100   1.377  14.182  0.6205  0.2870 -0.9091
  904MPD2    H313300   2.275   1.233  14.256 -1.4462 -0.3174  0.2554
  904MPD2     N13301   2.476   1.539  14.506  0.5869  0.2561 -0.1500
  904MPD2    H513302   2.471   1.636  14.536  2.0403  0.9428 -2.1285
  904MPD2    N113303   2.091   1.658  14.233  0.0509  0.1925  0.0288
  904MPD2    H713304   2.112   1.756  14.253  1.1045  0.3704 -1.8889
  905MPD2     C13305   1.912   2.207  13.594  0.0941  0.7074 -0.2193
  905MPD2    C113306   1.922   2.069  13.617  0.2092  0.8922  0.0769
  905MPD2    C213307   1.981   1.993  13.519 -0.0373 -0.1969  0.0537
  905MPD2    C313308   2.047   2.051  13.409  0.1140 -0.5276 -0.6106
  905MPD2    C413309   2.040   2.192  13.393  0.2923  0.3064 -0.0547
  905MPD2    C513310   1.971   2.267  13.486 -0.1738 -0.1642  0.2651
  905MPD2     H13311   1.995   1.887  13.534  2.3125  0.7091  4.4625
  905MPD2    H113312   2.069   2.244  13.302  2.7940  0.6925  0.9815
  905MPD2    H213313   1.867   2.278  13.662 -3.7532 -0.6825 -1.3083
  905MPD2    H313314   1.963   2.372  13.461  2.2630 -0.4376 -1.6759
  905MPD2     N13315   2.124   1.988  13.308 -0.5413  0.5061 -0.3459
  905MPD2    H513316   2.186   2.046  13.253 -0.1644 -0.8659 -1.3459
  905MPD2    N113317   1.878   2.026  13.746 -0.3196  0.6212  0.7795
  905MPD2    H713318   1.842   2.102  13.803 -2.3990 -0.7425  1.2611
  906MPD2     C13319   4.306   2.141  11.819  0.7651  0.2232 -0.2110
  906MPD2    C113320   4.284   2.058  11.710 -0.0034  0.5326 -0.0838
  906MPD2    C213321   4.190   1.961  11.727 -0.3852  0.3832  1.0579
  906MPD2    C313322   4.119   1.947  11.849 -0.8587 -0.5389 -0.3732
  906MPD2    C413323   4.144   2.030  11.955  0.2721  0.2340 -0.1000
  906MPD2    C513324   4.240   2.131  11.938 -0.4682  0.0726  0.9330
  906MPD2     H13325   4.177   1.892  11.645  0.9697  0.9827  0.3300
  906MPD2    H113326   4.092   2.016  12.049  1.9684  0.9003  0.9333
  906MPD2    H213327   4.374   2.225  11.810  2.3970 -1.2028 -1.2311
  906MPD2    H313328   4.265   2.195  12.022  1.3767  1.4885 -0.6980
  906MPD2     N13329   4.011   1.859  11.868  0.4788  0.1585  0.0863
  906MPD2    H513330   3.966   1.865  11.959  2.3683 -1.0477  1.1118
  906MPD2    N113331   4.348   2.069  11.589  0.6401 -0.2522  0.2584
  906MPD2    H713332   4.313   2.023  11.506 -2.7663  3.4902 -0.3728
  907MPD2     C13333   3.513   0.697  15.665  0.0797 -0.5401  0.5441
  907MPD2    C113334   3.385   0.698  15.716  0.0077  0.0145  0.2195
  907MPD2    C213335   3.363   0.636  15.837 -0.1673 -0.4414  0.2579
  907MPD2    C313336   3.464   0.604  15.922  0.2785  0.2107 -0.3329
  907MPD2    C413337   3.595   0.633  15.882  0.2525  0.6718  0.1517
  907MPD2    C513338   3.617   0.679  15.748 -0.5686 -0.0222  0.1820
  907MPD2     H13339   3.265   0.599  15.862  0.0182  0.5977  2.4443
  907MPD2    H113340   3.679   0.606  15.945 -0.4052 -1.8315 -0.0244
  907MPD2    H213341   3.538   0.725  15.564  1.5792  0.8323  1.2840
  907MPD2    H313342   3.719   0.688  15.712  0.0137 -0.8910  1.6084
  907MPD2     N13343   3.446   0.552  16.057  0.3260 -0.1611  0.0218
  907MPD2    H513344   3.529   0.524  16.108 -0.8199 -0.0407  1.9614
  907MPD2    N113345   3.280   0.724  15.639 -0.2162 -0.5242 -0.2040
  907MPD2    H713346   3.187   0.691  15.664  0.6159 -1.6687  1.3744
  908MPD2     C13347   1.085   3.298  10.176 -0.9336 -0.4609  0.2111
  908MPD2    C113348   1.080   3.164  10.177  0.0176 -0.2592 -0.3783
  908MPD2    C213349   0.994   3.101  10.268 -0.1815 -0.9480 -0.4849
  908MPD2    C313350   0.930   3.168  10.373 -0.3714 -0.7154 -0.7304
  908MPD2    C413351   0.939   3.307  10.376 -0.4094 -0.0870  0.1617
  908MPD2    C513352   1.017   3.366  10.276  0.8587 -0.3107 -0.6783
  908MPD2     H13353   0.993   2.993  10.274  2.2786 -1.0770 -2.4399
  908MPD2    H113354   0.898   3.373  10.452 -2.1112  0.9989 -1.6796
  908MPD2    H213355   1.135   3.351  10.096  0.0593  1.0000  1.8113
  908MPD2    H313356   1.012   3.474  10.275  2.9887 -0.1883  2.6700
  908MPD2     N13357   0.856   3.086  10.465  0.0705 -0.1201  0.7326
  908MPD2    H513358   0.838   2.990  10.440  3.1326 -0.2652 -0.9071
  908MPD2    N113359   1.157   3.082  10.083 -0.1782  0.6930  0.2522
  908MPD2    H713360   1.234   3.130  10.038 -1.3970  1.3701 -1.1122
  909MPD2     C13361   1.245   4.646  12.043 -0.2426  0.2059  0.4359
  909MPD2    C113362   1.222   0.036  11.995 -0.1164 -0.6152 -0.1274
  909MPD2    C213363   1.140   0.130  12.067 -0.7601 -0.1493  0.5967
  909MPD2    C313364   1.083   0.090  12.188  0.2460  0.4865  0.1627
  909MPD2    C413365   1.120   4.704  12.239 -0.7598 -0.6545  0.2589
  909MPD2    C513366   1.191   4.615  12.165  0.2360 -0.1779  0.2786
  909MPD2     H13367   1.136   0.230  12.025 -3.4671  0.5576  2.4821
  909MPD2    H113368   1.075   4.673  12.333 -0.2115  0.0926  0.7713
  909MPD2    H213369   1.307   4.571  11.997 -2.0935 -1.1721  0.1767
  909MPD2    H313370   1.225   4.527  12.218 -0.6448 -1.3733 -1.1347
  909MPD2     N13371   1.001   0.182  12.259  0.3783  0.4411 -1.1224
  909MPD2    H513372   0.994   0.269  12.207 -1.8781 -0.2937 -2.0236
  909MPD2    N113373   1.264   0.079  11.867 -0.1237 -0.2791  0.3332
  909MPD2    H713374   1.251   0.176  11.842 -1.2241 -0.3379  0.6612
  910MPD2     C13375   2.498   1.003  16.105 -0.6517 -0.1216  0.1553
  910MPD2    C113376   2.577   0.938  16.010  0.3818 -1.4596 -0.3874
  910MPD2    C213377   2.595   1.003  15.888 -0.4276  0.0779 -0.1394
  910MPD2    C313378   2.531   1.120  15.862 -0.4623  0.0968 -0.6324
  910MPD2    C413379   2.457   1.181  15.958 -0.1263  0.5461 -0.4038
  910MPD2    C513380   2.430   1.123  16.079  0.1190 -0.5829 -0.0991
  910MPD2     H13381   2.669   0.954  15.826  0.4985  0.9752  0.2523
  910MPD2    H113382   2.406   1.275  15.939 -0.4649  0.4990  0.2696
  910MPD2    H213383   2.475   0.954  16.198  1.2062 -0.0398  0.6605
  910MPD2    H313384   2.362   1.169  16.150  2.5655  1.7091  0.8028
  910MPD2     N13385   2.531   1.180  15.729 -0.5083 -0.5469  0.1995
  910MPD2    H513386   2.464   1.255  15.732  0.9761  0.7925  0.1652
  910MPD2    N113387   2.649   0.815  16.037  0.0634 -0.3291 -0.2127
  910MPD2    H713388   2.714   0.776  15.970  1.1180 -0.8205  1.1038
  911MPD2     C13389   0.546   1.545  16.766  0.0554  0.8044 -0.2247
  911MPD2    C113390   0.601   1.672  16.771  0.4401 -0.8830 -0.4415
  911MPD2    C213391   0.529   1.777  16.718  0.2287 -0.0600 -0.0831
  911MPD2    C313392   0.402   1.755  16.660  0.0068 -0.2239  0.5669
  911MPD2    C413393   0.349   1.627  16.665  0.0059 -0.3864  0.0992
  911MPD2    C513394   0.416   1.527  16.724  0.7542  0.2201 -0.3253
  911MPD2     H13395   0.565   1.879  16.719  1.5630 -0.5390  0.2333
  911MPD2    H113396   0.251   1.604  16.625 -0.1958 -0.1627  0.4693
  911MPD2    H213397   0.601   1.457  16.798 -0.1820  0.7122 -0.0694
  911MPD2    H313398   0.369   1.431  16.740 -0.6700  0.8527 -0.7364
  911MPD2     N13399   0.323   1.849  16.584 -0.2378  0.3392 -0.0051
  911MPD2    H513400   0.242   1.814  16.533  1.2688  0.0774 -2.2628
  911MPD2    N113401   0.736   1.688  16.806  0.2686  0.1777 -0.0624
  911MPD2    H713402   0.792   1.608  16.837  0.5865  0.0883 -0.8460
  912MPD2     C13403   4.668   1.710  15.913  0.6299  0.0611  0.2376
  912MPD2    C113404   4.696   1.700  16.045  0.0752  0.4327 -0.4573
  912MPD2    C213405   4.657   1.587  16.112  0.0731  0.4742  0.1028
  912MPD2    C313406   4.581   1.491  16.056 -0.5046  0.1645 -0.2066
  912MPD2    C413407   4.566   1.504  15.916  1.3857 -0.0656 -0.1313
  912MPD2    C513408   4.602   1.614  15.852  0.3684  0.2628 -0.6554
  912MPD2     H13409   4.679   1.580  16.218  0.6337  1.5176  0.0519
  912MPD2    H113410   4.493   1.439  15.868  1.5654 -0.1479 -0.2948
  912MPD2    H213411   4.691   1.798  15.854  1.2419 -0.6411 -0.5609
  912MPD2    H313412   4.564   1.627  15.751  0.7050  0.1898 -0.7894
  912MPD2     N13413   4.542   1.376  16.127  0.5450 -0.5560  0.0933
  912MPD2    H513414   4.559   1.366  16.227  0.6309  0.8055  0.2097
  912MPD2    N113415   0.028   1.811  16.114  0.6925  0.6884 -0.4486
  912MPD2    H713416   0.062   1.891  16.062  1.4516  0.9627  0.4480
  913MPD2     C13417   1.008   3.101  11.127  0.4125  0.3032 -0.6920
  913MPD2    C113418   0.987   3.191  11.024 -0.4270  0.1110 -0.1055
  913MPD2    C213419   0.887   3.291  11.031 -0.0473 -0.2826  0.4443
  913MPD2    C313420   0.802   3.290  11.145  0.2186  0.9418  0.4439
  913MPD2    C413421   0.819   3.198  11.238 -0.0579 -0.7033 -0.4644
  913MPD2    C513422   0.927   3.118  11.236  0.1906  0.8183  1.0667
  913MPD2     H13423   0.872   3.367  10.956  0.8765  0.5750  1.1228
  913MPD2    H113424   0.754   3.176  11.322  1.1249 -2.2246  0.0494
  913MPD2    H213425   1.088   3.032  11.150 -0.9951 -1.6620 -1.6630
  913MPD2    H313426   0.942   3.040  11.310 -0.5552  0.4718  0.8514
  913MPD2     N13427   0.693   3.386  11.161 -0.6450 -0.4443 -0.3610
  913MPD2    H513428   0.644   3.381  11.250  3.0183  1.2104  1.7307
  913MPD2    N113429   1.069   3.180  10.913 -1.0295 -0.6972  0.1201
  913MPD2    H713430   1.127   3.097  10.904 -0.7909 -0.3412 -1.5683
  914MPD2     C13431   3.636   3.635  12.589  0.4198 -0.5241  0.3474
  914MPD2    C113432   3.564   3.701  12.681  0.3956 -1.1186  0.1956
  914MPD2    C213433   3.452   3.642  12.734  0.8167 -0.2559 -0.9047
  914MPD2    C313434   3.409   3.513  12.688  0.3427  0.4992 -0.0238
  914MPD2    C413435   3.479   3.443  12.589 -1.2281  0.0919 -0.2399
  914MPD2    C513436   3.599   3.503  12.548  0.2495  1.1594  0.1100
  914MPD2     H13437   3.387   3.686  12.809  1.8550 -0.7787  0.2940
  914MPD2    H113438   3.447   3.355  12.535 -0.2124 -0.6743  0.3913
  914MPD2    H213439   3.725   3.685  12.552 -1.0943  0.4010 -2.0036
  914MPD2    H313440   3.638   3.462  12.456  1.4815  3.3117 -0.3379
  914MPD2     N13441   3.290   3.457  12.744  0.4590  0.3949 -0.7327
  914MPD2    H513442   3.239   3.515  12.809 -0.2377 -1.2956  0.2264
  914MPD2    N113443   3.597   3.833  12.709 -0.0759 -0.1079  0.6955
  914MPD2    H713444   3.692   3.857  12.680  0.6486  0.5416  3.5955
  915MPD2     C13445   1.778   3.309  15.501 -0.7336 -0.2227 -0.0753
  915MPD2    C113446   1.659   3.379  15.500 -0.8887 -0.5537 -0.6135
  915MPD2    C213447   1.609   3.424  15.622  0.0684  0.1179  0.1116
  915MPD2    C313448   1.667   3.380  15.744 -0.4341 -0.3499  0.5914
  915MPD2    C413449   1.780   3.301  15.737  0.6266 -0.4614 -0.1890
  915MPD2    C513450   1.841   3.274  15.620  0.6027  0.2717  0.4081
  915MPD2     H13451   1.517   3.480  15.615 -0.3589 -0.6391 -0.2138
  915MPD2    H113452   1.810   3.246  15.825 -0.2743 -0.6456  0.0038
  915MPD2    H213453   1.810   3.278  15.402  0.4713 -0.5370  0.4208
  915MPD2    H313454   1.931   3.214  15.615 -0.4052 -1.0619 -1.6355
  915MPD2     N13455   1.608   3.412  15.866  0.2047  0.3954 -0.1538
  915MPD2    H513456   1.526   3.472  15.863  1.0422  1.5641  0.6694
  915MPD2    N113457   1.603   3.390  15.373 -0.2223  0.6888 -0.2395
  915MPD2    H713458   1.650   3.345  15.294  0.8309  0.5731  0.4501
  916MPD2     C13459   4.008   1.403  15.664 -1.0431 -0.2202 -1.3376
  916MPD2    C113460   4.062   1.351  15.777 -0.5421 -0.3412  0.1328
  916MPD2    C213461   4.197   1.317  15.775 -0.1024 -0.2891  0.0220
  916MPD2    C313462   4.273   1.326  15.661 -0.3693  0.4097  0.3912
  916MPD2    C413463   4.215   1.377  15.543 -0.0287  0.0449  0.1917
  916MPD2    C513464   4.082   1.410  15.544 -0.5641 -0.3945  0.4087
  916MPD2     H13465   4.245   1.284  15.866  1.4188  0.5984 -0.4525
  916MPD2    H113466   4.275   1.374  15.453 -0.1292  0.3991  0.1116
  916MPD2    H213467   3.900   1.410  15.672 -1.0330 -1.3888 -0.0420
  916MPD2    H313468   4.037   1.453  15.456  2.1582  0.5535 -0.5099
  916MPD2     N13469   4.413   1.287  15.682 -0.7777 -0.1992 -0.6605
  916MPD2    H513470   4.439   1.253  15.774  0.0294 -1.1725 -1.2510
  916MPD2    N113471   3.992   1.354  15.899  0.3821  0.1777 -0.2715
  916MPD2    H713472   3.903   1.403  15.908  0.8440  1.2929 -1.9643
  917MPD2     C13473   4.267   3.814  11.702  0.2440 -0.6010  0.5455
  917MPD2    C113474   4.370   3.821  11.796  0.3069 -0.7261 -0.5436
  917MPD2    C213475   4.476   3.918  11.776  0.1445  0.5080  0.1914
  917MPD2    C313476   4.472   4.000  11.669  0.5165  0.6000 -0.3256
  917MPD2    C413477   4.369   3.993  11.583 -0.4966 -0.2344 -0.2741
  917MPD2    C513478   4.273   3.895  11.590  0.2444 -0.6643  0.0005
  917MPD2     H13479   4.559   3.939  11.842  1.3524 -1.1527 -0.7775
  917MPD2    H113480   4.359   4.051  11.492 -0.4430 -0.3426 -0.3490
  917MPD2    H213481   4.195   3.733  11.702  2.0526 -2.2284  1.9645
  917MPD2    H313482   4.193   3.892  11.517  0.1130  0.8296  0.0864
  917MPD2     N13483   4.580   4.083  11.635 -0.0392  0.9131  0.2801
  917MPD2    H513484   4.572   4.142  11.553  0.5534 -1.4258 -1.4727
  917MPD2    N113485   4.357   3.746  11.919  0.3467  0.7252 -0.4832
  917MPD2    H713486   4.269   3.695  11.928  1.7104 -1.6087 -0.4058
  918MPD2     C13487   4.718   4.304  12.579 -0.8237  0.5568  0.7660
  918MPD2    C113488   0.051   4.184  12.576 -0.0478  0.6480  0.6739
  918MPD2    C213489   4.719   4.070  12.549  0.0571  1.1346 -0.1911
  918MPD2    C313490   4.580   4.071  12.533  0.3013 -0.4479 -0.1230
  918MPD2    C413491   4.513   4.188  12.538  0.4640  0.8608 -0.5445
  918MPD2    C513492   4.579   4.303  12.567 -0.1082  0.0697  0.0863
  918MPD2     H13493   0.038   3.979  12.529  1.3998  1.8664  0.2549
  918MPD2    H113494   4.406   4.190  12.522 -0.0329 -0.4498  2.4493
  918MPD2    H213495   0.024   4.403  12.593  1.0159  0.0568 -1.3529
  918MPD2    H313496   4.522   4.395  12.575  1.6215  1.2545 -1.0760
  918MPD2     N13497   4.522   3.950  12.491  0.1347 -0.2433  0.6077
  918MPD2    H513498   4.581   3.873  12.462  0.4107 -0.3587  1.4618
  918MPD2    N113499   0.197   4.183  12.584 -0.1759  0.7780  0.3570
  918MPD2    H713500   0.243   4.093  12.589 -0.6341  0.4064 -2.3850
  919MPD2     C13501   0.021   3.127  12.434 -0.3031 -0.2585  0.0790
  919MPD2    C113502   0.051   3.003  12.375 -0.4018  0.5146  0.7872
  919MPD2    C213503   0.092   2.997  12.248 -0.5171 -0.4792  0.7267
  919MPD2    C313504   0.100   3.109  12.172  0.1022  0.8104  0.0291
  919MPD2    C413505   0.081   3.229  12.238  0.9529 -0.2347  0.2358
  919MPD2    C513506   0.024   3.239  12.361  0.2288  0.4111 -0.2038
  919MPD2     H13507   0.118   2.904  12.199  1.1555  0.3145  0.0828
  919MPD2    H113508   0.099   3.320  12.183  0.5353 -1.2592 -1.6050
  919MPD2    H213509   4.726   3.139  12.537 -2.2612 -3.0364 -0.1971
  919MPD2    H313510   0.008   3.335  12.410  0.9362 -0.0184  0.8802
  919MPD2     N13511   0.136   3.105  12.032 -0.0122 -0.1101  0.4304
  919MPD2    H513512   0.118   3.192  11.983  0.1794 -0.7653 -0.8311
  919MPD2    N113513   0.039   2.879  12.441  0.1861  0.4649  0.0451
  919MPD2    H713514   0.072   2.802  12.382 -0.6789 -0.2262  0.4721
  920MPD2     C13515   0.073   3.625  11.228 -0.1346 -0.3836  0.0388
  920MPD2    C113516   4.716   3.526  11.198  0.3618  0.0673 -0.5021
  920MPD2    C213517   4.714   3.411  11.274  0.4002  0.1268  0.1419
  920MPD2    C313518   0.064   3.394  11.379  1.0212  0.0716  0.4024
  920MPD2    C413519   0.156   3.497  11.405  0.2010  0.0414  0.3800
  920MPD2    C513520   0.160   3.607  11.327 -1.1726 -1.1565 -0.2584
  920MPD2     H13521   4.634   3.340  11.253  1.4820 -1.8450  2.6569
  920MPD2    H113522   0.225   3.488  11.488 -0.1993 -1.3170  0.5597
  920MPD2    H213523   0.084   3.719  11.176 -0.4100 -1.4611 -1.9417
  920MPD2    H313524   0.233   3.684  11.351 -1.2559 -0.2792 -2.8409
  920MPD2     N13525   0.061   3.278  11.457  0.2816  0.1786  0.1041
  920MPD2    H513526   4.724   3.212  11.434 -1.1973  2.1135 -0.7192
  920MPD2    N113527   4.631   3.534  11.080 -0.3272  0.6741 -0.1842
  920MPD2    H713528   4.574   3.450  11.070 -3.3812  2.6329  0.9512
  921MPD2     C13529   1.494   2.191  17.324  0.3683  0.3485  0.3479
  921MPD2    C113530   1.527   2.159  17.194 -0.2375 -0.0852 -0.1480
  921MPD2    C213531   1.435   2.097  17.114 -0.1138  0.5765 -0.4809
  921MPD2    C313532   1.304   2.084  17.156 -0.1505  0.2944 -0.1381
  921MPD2    C413533   1.274   2.120  17.279  0.3407 -0.3500  0.1614
  921MPD2    C513534   1.366   2.168  17.362  0.6598  0.3396 -0.2300
  921MPD2     H13535   1.463   2.066  17.014 -0.5734  1.2318 -0.8121
  921MPD2    H113536   1.170   2.109  17.306  0.2947  0.1596  0.2028
  921MPD2    H213537   1.560   2.224  17.404 -2.3171  1.5046  2.0967
  921MPD2    H313538   1.340   2.190  17.465 -2.3041 -1.1136 -0.6617
  921MPD2     N13539   1.203   2.029  17.077  0.5407 -0.6028  0.1135
  921MPD2    H513540   1.122   1.997  17.129 -0.0679 -0.4656 -0.7499
  921MPD2    N113541   1.655   2.172  17.141  1.0779  0.0792 -0.1072
  921MPD2    H713542   1.676   2.151  17.044 -1.1595 -0.2493 -0.5198
  922MPD2     C13543   2.179   0.411  17.717  0.0567  0.3462 -0.0289
  922MPD2    C113544   2.127   0.325   0.058 -0.4083 -0.5170 -0.0233
  922MPD2    C213545   2.060   0.212   0.012  0.0431 -0.2032 -0.0848
  922MPD2    C313546   2.044   0.188  17.620 -0.0297  0.0402  0.3605
  922MPD2    C413547   2.105   0.282  17.529  0.5921 -1.2329  0.3000
  922MPD2    C513548   2.168   0.390  17.581 -0.1516  0.0353 -0.3204
  922MPD2     H13549   2.020   0.136   0.078 -1.2207  1.9157  1.5588
  922MPD2    H113550   2.094   0.278  17.421  0.2704 -1.0858  0.3270
  922MPD2    H213551   2.228   0.504  17.745  0.9225 -0.2476  0.4075
  922MPD2    H313552   2.210   0.464  17.514  0.4246 -1.1938 -1.2990
  922MPD2     N13553   1.960   0.074  17.584  0.2738 -0.5462  0.3428
  922MPD2    H513554   1.928   0.011  17.657  0.1024  1.7193  2.1995
  922MPD2    N113555   2.153   0.332   0.200 -0.1454 -0.3840  0.2379
  922MPD2    H713556   2.113   0.262   0.262 -0.5495  0.0154  0.4314
  923MPD2     C13557   3.240   2.447   9.974 -0.5012 -1.1147 -0.2334
  923MPD2    C113558   3.316   2.561   9.968  0.3931 -0.0345  0.3992
  923MPD2    C213559   3.444   2.559   9.921  0.6427  0.6341  0.4823
  923MPD2    C313560   3.504   2.437   9.888 -0.5017  0.5570  1.5402
  923MPD2    C413561   3.431   2.323   9.895 -0.0581  0.0495 -0.5007
  923MPD2    C513562   3.299   2.326   9.943 -0.1167 -0.0492 -0.0081
  923MPD2     H13563   3.507   2.647   9.927  2.5247 -0.7170  0.2984
  923MPD2    H113564   3.468   2.225   9.868  0.1761  0.1185 -0.4326
  923MPD2    H213565   3.133   2.448   9.991 -0.7468  0.6949 -1.9358
  923MPD2    H313566   3.249   2.231   9.931  1.7807 -1.1328  0.6977
  923MPD2     N13567   3.631   2.430   9.828 -0.6056 -0.3036  0.2921
  923MPD2    H513568   3.667   2.340   9.799  1.8960  1.2569 -1.3960
  923MPD2    N113569   3.259   2.686  10.013 -0.0026 -0.0765  0.1823
  923MPD2    H713570   3.171   2.670  10.061 -0.0325 -1.7393 -0.4119
  924MPD2     C13571   3.758   0.107  15.958  0.1060 -0.2522  0.7926
  924MPD2    C113572   3.682   0.049  16.053  0.0106 -0.3903 -0.8794
  924MPD2    C213573   3.674   0.105  16.176 -0.1245 -0.4827  0.5438
  924MPD2    C313574   3.721   0.239  16.188 -0.1843 -0.7812 -0.2294
  924MPD2    C413575   3.793   0.298  16.088 -0.6568 -0.1557  0.6286
  924MPD2    C513576   3.813   0.229  15.975 -0.8448 -0.2859  1.0603
  924MPD2     H13577   3.621   0.063  16.261 -0.5274 -0.1593  0.4497
  924MPD2    H113578   3.856   0.385  16.103  0.8513 -1.1676  0.1575
  924MPD2    H213579   3.773   0.064  15.859 -1.5699 -0.4563  0.6373
  924MPD2    H313580   3.878   0.269  15.898  0.7321 -0.1207  2.4776
  924MPD2     N13581   3.680   0.324  16.295  0.4790  0.5027 -0.3322
  924MPD2    H513582   3.703   0.422  16.281 -0.2601  0.4359 -2.0191
  924MPD2    N113583   3.634   4.657  16.022 -0.4183  0.1235 -0.5641
  924MPD2    H713584   3.647   4.622  15.928  3.2351  1.6455 -0.6286
  925MPD2     C13585   2.188   2.870  15.245 -1.0584 -0.3035  0.0714
  925MPD2    C113586   2.072   2.922  15.185  0.6747 -0.0763 -0.6111
  925MPD2    C213587   1.968   2.964  15.268  0.4905  0.4752  0.0154
  925MPD2    C313588   1.982   2.944  15.407 -0.0015 -0.0901  0.5922
  925MPD2    C413589   2.100   2.901  15.456  0.0091  0.1151 -0.3191
  925MPD2    C513590   2.202   2.864  15.379 -0.7857  0.9575  0.3428
  925MPD2     H13591   1.885   3.011  15.217  0.9271  0.8001 -0.3983
  925MPD2    H113592   2.122   2.882  15.561 -1.0692 -0.1230 -0.1319
  925MPD2    H213593   2.279   2.834  15.197  0.8050  1.1961  2.4749
  925MPD2    H313594   2.288   2.819  15.426  0.1962  1.7802 -0.6539
  925MPD2     N13595   1.879   2.959  15.501 -0.8889 -0.0557 -0.6114
  925MPD2    H513596   1.909   2.921  15.590 -0.6333  0.2262 -0.5809
  925MPD2    N113597   2.066   2.933  15.041  0.3733 -0.1915  0.0925
  925MPD2    H713598   1.974   2.956  15.005  0.8059  0.1286 -0.8091
  926MPD2     C13599   0.803   1.369  12.914 -0.8038  0.2158 -0.4817
  926MPD2    C113600   0.774   1.505  12.941 -0.3166 -0.4270 -0.2704
  926MPD2    C213601   0.849   1.603  12.882  0.3579  0.3085 -0.0967
  926MPD2    C313602   0.951   1.574  12.799  0.4716  0.3075  0.6013
  926MPD2    C413603   0.985   1.445  12.775 -0.4918  0.1795  0.0133
  926MPD2    C513604   0.915   1.343  12.832 -1.0269 -0.4463  0.1139
  926MPD2     H13605   0.825   1.708  12.896 -2.6314 -0.4015  0.0456
  926MPD2    H113606   1.073   1.429  12.714  0.3930  0.3322  1.2477
  926MPD2    H213607   0.753   1.290  12.968  1.0334 -1.3705 -1.1387
  926MPD2    H313608   0.943   1.241  12.807 -0.3889 -1.5773  5.2638
  926MPD2     N13609   1.025   1.675  12.734  0.3048  0.5490  0.1114
  926MPD2    H513610   1.084   1.646  12.656  1.9846 -1.3984  2.1078
  926MPD2    N113611   0.672   1.547  13.031  0.2355  0.5778 -0.7309
  926MPD2    H713612   0.666   1.645  13.059 -1.2904  0.9234 -2.2412
  927MPD2     C13613   1.080   2.618   0.162 -1.0151  0.1052  0.6025
  927MPD2    C113614   0.983   2.578   0.071  0.2724  0.0044 -0.2731
  927MPD2    C213615   0.989   2.626  17.690  0.5097 -1.2641  0.7997
  927MPD2    C313616   1.081   2.726  17.655 -0.4070 -0.2961  0.1529
  927MPD2    C413617   1.182   2.762   0.000 -0.2247  0.6279  0.0367
  927MPD2    C513618   1.174   2.708   0.126  0.1175  0.4042 -0.0893
  927MPD2     H13619   0.917   2.602  17.613 -0.7846 -1.4103  2.0627
  927MPD2    H113620   1.254   2.842  17.730 -0.6295  0.9014 -0.4290
  927MPD2    H213621   1.089   2.577   0.262 -3.3022  1.9644  1.5705
  927MPD2    H313622   1.236   2.752   0.203  0.1674 -0.5208  0.3898
  927MPD2     N13623   1.066   2.792  17.532 -0.3250 -0.3576 -0.1452
  927MPD2    H513624   0.984   2.763  17.479 -1.5593  1.0785  0.9801
  927MPD2    N113625   0.896   2.472   0.112 -0.0447 -0.1207  0.3963
  927MPD2    H713626   0.928   2.416   0.190  0.0626 -2.9934 -1.6923
  928MPD2     C13627   2.957   1.587   1.112 -0.5954 -0.9346 -0.2446
  928MPD2    C113628   3.010   1.706   1.072 -0.2016  0.0038  1.2307
  928MPD2    C213629   3.131   1.715   1.012 -0.0210  0.3208  0.4333
  928MPD2    C313630   3.201   1.603   0.978  0.4253  0.5666  0.2229
  928MPD2    C413631   3.155   1.480   1.030 -0.2995 -0.1322 -0.7055
  928MPD2    C513632   3.035   1.471   1.101 -0.1587 -0.1165 -0.2343
  928MPD2     H13633   3.161   1.805   0.959  0.1699  0.2826  0.4752
  928MPD2    H113634   3.210   1.391   1.004  2.0986  2.1979 -3.6284
  928MPD2    H213635   2.859   1.584   1.158  0.8302 -0.4249  2.8522
  928MPD2    H313636   3.005   1.371   1.132 -0.5274 -0.6886 -2.4768
  928MPD2     N13637   3.321   1.597   0.891  0.0666 -0.2578 -0.0167
  928MPD2    H513638   3.372   1.512   0.871 -0.0594 -0.3449  0.0358
  928MPD2    N113639   2.932   1.821   1.102  0.7006  0.2520  0.4107
  928MPD2    H713640   2.849   1.800   1.156  1.7103  3.4996  3.2356
  929MPD2     C13641   3.945   2.251  10.796  0.3871 -0.6223 -0.4402
  929MPD2    C113642   3.868   2.133  10.800  0.2529  0.3902  0.2871
  929MPD2    C213643   3.773   2.116  10.701 -0.4346 -0.1728 -0.1327
  929MPD2    C313644   3.753   2.216  10.603 -0.3515  0.0578 -0.2925
  929MPD2    C413645   3.839   2.326  10.601 -0.6144 -0.0314  0.7655
  929MPD2    C513646   3.932   2.345  10.698  0.6809  0.0917  0.1422
  929MPD2     H13647   3.709   2.028  10.704  0.2802 -0.5930  2.6048
  929MPD2    H113648   3.818   2.401  10.526  1.2748  0.5270  0.8028
  929MPD2    H213649   4.017   2.273  10.874  0.3685  2.3652 -1.2476
  929MPD2    H313650   3.992   2.435  10.699  1.3771 -0.3655 -0.0889
  929MPD2     N13651   3.642   2.226  10.516  0.7523  0.6132 -0.9283
  929MPD2    H513652   3.645   2.312  10.463  0.7269  1.2162  0.0476
  929MPD2    N113653   3.902   2.045  10.905  0.2529  0.2713  0.6840
  929MPD2    H713654   3.961   2.078  10.981 -0.2981 -0.9165  1.6303
  930MPD2     C13655   0.198   4.205  14.159  0.1212  0.2352  0.1459
  930MPD2    C113656   0.326   4.151  14.161  0.4749  0.2056  0.5098
  930MPD2    C213657   0.365   4.026  14.108  0.2590  0.6252  0.0366
  930MPD2    C313658   0.266   3.941  14.060 -0.2824  0.1566  0.0203
  930MPD2    C413659   0.137   3.993  14.069 -0.0374  0.8261  0.4951
  930MPD2    C513660   0.102   4.115  14.111  0.1449 -0.4703  0.0636
  930MPD2     H13661   0.469   3.993  14.110 -0.0267 -0.3402 -0.6761
  930MPD2    H113662   0.055   3.930  14.037  0.0975  0.4478  0.8935
  930MPD2    H213663   0.167   4.299  14.203  0.2478  0.1627  0.3918
  930MPD2    H313664   4.736   4.148  14.096  0.2456 -0.9224 -1.6189
  930MPD2     N13665   0.276   3.814  13.988  0.0234 -0.0795 -0.0635
  930MPD2    H513666   0.192   3.780  13.944 -0.8213  1.4719  0.3472
  930MPD2    N113667   0.422   4.236  14.221 -0.5053  0.4191 -1.0650
  930MPD2    H713668   0.386   4.327  14.248 -1.7216 -0.1143 -0.8989
  931MPD2     C13669   1.030   1.838   0.350  0.1624  0.0996  0.6055
  931MPD2    C113670   0.923   1.909   0.405 -0.0577 -0.2249 -0.2001
  931MPD2    C213671   0.895   1.911   0.543 -0.1342 -0.1008 -0.4629
  931MPD2    C313672   0.970   1.828   0.620  0.2366 -0.4529  0.0412
  931MPD2    C413673   1.068   1.754   0.570 -0.0854  0.3758 -0.3738
  931MPD2    C513674   1.101   1.758   0.436  0.4767 -0.2064  0.4723
  931MPD2     H13675   0.806   1.957   0.586 -0.9199 -1.3550 -0.7424
  931MPD2    H113676   1.119   1.685   0.637 -1.1964 -0.6358 -0.5639
  931MPD2    H213677   1.068   1.845   0.248 -0.3532  1.2812  0.4883
  931MPD2    H313678   1.187   1.707   0.396 -0.0492 -1.2873  0.7193
  931MPD2     N13679   0.938   1.819   0.759  0.9190  0.9611  0.1349
  931MPD2    H513680   0.993   1.751   0.811 -2.3924 -0.3849  1.9311
  931MPD2    N113681   0.849   1.988   0.312  0.2993  0.0849 -0.0504
  931MPD2    H713682   0.865   1.976   0.213  0.2733  1.0498 -0.1715
  932MPD2     C13683   2.468   2.695  12.075 -0.4672 -0.8220 -0.5550
  932MPD2    C113684   2.588   2.754  12.036 -0.0822 -0.5784  0.4847
  932MPD2    C213685   2.700   2.669  12.029 -0.0937  0.0280  0.6651
  932MPD2    C313686   2.697   2.533  12.059  0.6582 -0.4319 -0.2943
  932MPD2    C413687   2.580   2.489  12.113 -0.2280  0.3460  0.3564
  932MPD2    C513688   2.469   2.564  12.112  0.5570 -0.7163 -0.1418
  932MPD2     H13689   2.785   2.710  11.976 -1.3226  1.5279 -0.1445
  932MPD2    H113690   2.567   2.387  12.145  1.4699  0.4265  1.2602
  932MPD2    H213691   2.372   2.742  12.055 -0.2543 -0.4319 -0.6617
  932MPD2    H313692   2.374   2.524  12.145 -0.0670  2.5441  2.0342
  932MPD2     N13693   2.804   2.443  12.040 -0.2437 -0.3593  0.0281
  932MPD2    H513694   2.780   2.345  12.053 -1.7823 -0.2393 -1.8744
  932MPD2    N113695   2.599   2.891  11.998  0.2067  0.0572  0.1606
  932MPD2    H713696   2.671   2.924  11.935  0.5022  0.2269  0.5897
  933MPD2     C13697   2.283   1.912   1.070 -0.1160  0.5952 -0.0601
  933MPD2    C113698   2.342   1.897   1.191 -0.1746 -0.6782 -0.6449
  933MPD2    C213699   2.277   1.822   1.289 -0.0147 -0.0982 -0.7047
  933MPD2    C313700   2.152   1.764   1.266  0.9675  0.0743  0.2490
  933MPD2    C413701   2.094   1.786   1.139 -0.2591  0.3988 -0.0214
  933MPD2    C513702   2.158   1.859   1.043  0.4695 -0.1619  0.2224
  933MPD2     H13703   2.327   1.807   1.384 -0.0188 -1.0821 -0.8648
  933MPD2    H113704   1.992   1.752   1.125  0.3865 -1.0143 -1.2005
  933MPD2    H213705   2.327   1.981   0.999  0.4720 -0.7885 -1.0451
  933MPD2    H313706   2.112   1.887   0.949  2.4074  0.0478 -0.6568
  933MPD2     N13707   2.087   1.681   1.355 -0.1092  0.2617  0.0797
  933MPD2    H513708   2.003   1.631   1.326  0.6768 -1.1150  0.1387
  933MPD2    N113709   2.473   1.955   1.198 -0.3623 -0.7872 -0.4468
  933MPD2    H713710   2.509   2.005   1.118 -0.4735  1.3587  0.8529
  934MPD2     C13711   0.100   3.771   1.621  0.1846 -0.3691 -0.7383
  934MPD2    C113712   0.141   3.721   1.499  0.8953 -0.1598 -0.7123
  934MPD2    C213713   0.059   3.633   1.432 -0.4811 -0.1444  0.1716
  934MPD2    C313714   4.677   3.587   1.477  0.4869  0.8623  0.6815
  934MPD2    C413715   4.635   3.643   1.598  0.7240 -1.1175 -0.2139
  934MPD2    C513716   4.720   3.730   1.669  0.4537 -0.0586  0.1574
  934MPD2     H13717   0.095   3.596   1.337  1.0674 -0.3893  0.8487
  934MPD2    H113718   4.542   3.621   1.649  0.2566  0.3477 -0.4410
  934MPD2    H213719   0.146   3.848   1.684 -0.6295 -1.0683  0.7085
  934MPD2    H313720   4.694   3.774   1.765  0.2679  2.3542 -0.9823
  934MPD2     N13721   4.592   3.494   1.413 -0.3504  0.2234 -0.6150
  934MPD2    H513722   4.506   3.474   1.463  0.0733  0.1887  0.0972
  934MPD2    N113723   0.245   3.783   1.418  0.5542  0.8714  0.0053
  934MPD2    H713724   0.247   3.744   1.325 -0.7868 -0.2611  0.4513
  935MPD2     C13725   0.103   2.697   0.825  0.2940  0.3457  0.2375
  935MPD2    C113726   4.703   2.707   0.812  0.1988 -0.5598 -0.0285
  935MPD2    C213727   4.637   2.811   0.875  0.1102  0.0370 -0.6176
  935MPD2    C313728   4.704   2.908   0.953  0.1872 -0.1602 -0.1148
  935MPD2    C413729   0.103   2.898   0.955 -0.3594 -0.3735  0.7179
  935MPD2    C513730   0.167   2.793   0.896 -0.2800  0.0526  0.0043
  935MPD2     H13731   4.529   2.804   0.871 -0.0043  1.7749 -0.5068
  935MPD2    H113732   0.163   2.972   1.007 -1.5239  1.0624  0.0396
  935MPD2    H213733   0.163   2.617   0.784 -1.6189  0.0183 -1.8911
  935MPD2    H313734   0.275   2.796   0.903 -0.4532  2.0242  1.8951
  935MPD2     N13735   4.635   3.006   1.024  0.5372  0.2083 -0.4531
  935MPD2    H513736   4.689   3.058   1.093  0.7091 -1.6988  0.8670
  935MPD2    N113737   4.622   2.606   0.751 -0.1020  0.0481  0.0796
  935MPD2    H713738   4.523   2.625   0.754  0.0698  0.6042  2.5887
  936MPD2     C13739   2.734   0.684  12.616  0.1364  0.2166 -0.0700
  936MPD2    C113740   2.780   0.654  12.745 -0.1074  0.3542  1.1029
  936MPD2    C213741   2.912   0.636  12.771 -0.5233 -0.3843 -0.0086
  936MPD2    C313742   3.002   0.647  12.670 -1.0029  0.3444 -0.1984
  936MPD2    C413743   2.959   0.681  12.548 -0.0670 -0.5651 -0.5054
  936MPD2    C513744   2.826   0.702  12.515 -1.0499 -0.1917  0.4619
  936MPD2     H13745   2.945   0.622  12.873  0.6060  2.8931  0.0793
  936MPD2    H113746   3.023   0.702  12.463  0.6379  3.3754  1.0057
  936MPD2    H213747   2.628   0.703  12.604  0.0295 -0.0297  0.4779
  936MPD2    H313748   2.788   0.728  12.417 -0.1561  0.2267  0.2243
  936MPD2     N13749   3.138   0.643  12.719 -0.2812  0.4894 -0.1553
  936MPD2    H513750   3.152   0.630  12.818  0.4149  1.7918 -0.0933
  936MPD2    N113751   2.707   0.651  12.867  0.8339 -0.1394 -0.1676
  936MPD2    H713752   2.755   0.631  12.953  0.8540  0.4150 -0.0496
  937MPD2     C13753   0.456   2.306  12.404  0.2422 -0.1216  0.0055
  937MPD2    C113754   0.385   2.407  12.340  0.4018  0.3158  0.9205
  937MPD2    C213755   0.446   2.474  12.233 -0.8889  0.8137  0.6104
  937MPD2    C313756   0.560   2.422  12.172 -1.0260  2.0365  0.1194
  937MPD2    C413757   0.615   2.304  12.225 -0.1323 -0.1234  0.1875
  937MPD2    C513758   0.570   2.258  12.344  0.3355 -0.1882  0.0800
  937MPD2     H13759   0.393   2.559  12.192  1.0889  1.2737 -0.9884
  937MPD2    H113760   0.702   2.262  12.176  0.4390  1.5219 -0.1856
  937MPD2    H213761   0.428   2.266  12.501 -0.5341 -0.0844 -0.2013
  937MPD2    H313762   0.620   2.172  12.388 -1.7341 -0.8259  1.2217
  937MPD2     N13763   0.615   2.508  12.071  0.1611 -0.0756 -0.2793
  937MPD2    H513764   0.570   2.595  12.048 -1.0218 -0.9177 -1.1384
  937MPD2    N113765   0.280   2.473  12.406  0.1141  0.4178  0.0306
  937MPD2    H713766   0.237   2.553  12.360 -1.4917 -0.0560  0.7005
  938MPD2     C13767   3.514   3.041   0.889  0.8554 -0.0740  0.1439
  938MPD2    C113768   3.407   3.124   0.920 -1.1713 -0.9701  0.2255
  938MPD2    C213769   3.338   3.099   1.036  0.1684  0.2921 -0.5064
  938MPD2    C313770   3.376   2.996   1.127  0.0032 -0.1610  0.1835
  938MPD2    C413771   3.483   2.923   1.101  0.5275 -0.0856  0.0702
  938MPD2    C513772   3.545   2.940   0.979  0.3086  0.0142 -0.5332
  938MPD2     H13773   3.253   3.163   1.057  0.4231 -0.2654  2.1664
  938MPD2    H113774   3.525   2.843   1.160 -0.1979 -0.2385  0.3763
  938MPD2    H213775   3.581   3.062   0.806  0.9672  0.0319  0.2597
  938MPD2    H313776   3.633   2.884   0.951  1.3551  2.4557 -2.1525
  938MPD2     N13777   3.306   2.960   1.246  0.4726 -0.1150  0.2031
  938MPD2    H513778   3.344   2.880   1.295 -0.0836  0.3575  1.3940
  938MPD2    N113779   3.370   3.241   0.849 -0.1144 -0.5995  0.5175
  938MPD2    H713780   3.287   3.291   0.877  0.0180  0.6687 -1.3137
  939MPD2     C13781   4.566   0.074   1.468  0.1356 -0.5889 -0.0906
  939MPD2    C113782   4.556   4.713   1.376 -0.9198 -0.5939  0.1295
  939MPD2    C213783   4.647   4.703   1.278 -0.3600  0.1769  0.1412
  939MPD2    C313784   0.011   0.059   1.263  0.2032  0.7641 -0.1300
  939MPD2    C413785   0.019   0.160   1.355 -0.1511  0.1892 -0.6316
  939MPD2    C513786   4.666   0.169   1.457 -0.2575 -0.2344  0.0742
  939MPD2     H13787   4.642   4.620   1.209 -0.1378 -0.6071  1.0667
  939MPD2    H113788   0.091   0.240   1.358  0.9035 -0.7976  0.4496
  939MPD2    H213789   4.495   0.093   1.546  1.8264  1.1886  1.0173
  939MPD2    H313790   4.686   0.253   1.523 -2.2418 -0.5492  1.0735
  939MPD2     N13791   0.099   0.045   1.159 -0.0026 -0.2048  0.6503
  939MPD2    H513792   0.086   4.719   1.080 -1.6537  2.1288 -0.9866
  939MPD2    N113793   4.447   4.622   1.385 -0.2518 -0.0743  0.3769
  939MPD2    H713794   4.386   4.637   1.466  0.6877 -2.3188  1.5042
  940MPD2     C13795   3.998   1.511  13.799  0.6137  0.5563  0.5415
  940MPD2    C113796   3.923   1.412  13.750  0.7932 -0.2568 -1.0321
  940MPD2    C213797   3.935   1.373  13.620 -0.1018 -0.1278  0.3165
  940MPD2    C313798   4.033   1.432  13.541 -0.7378  0.3618 -0.0001
  940MPD2    C413799   4.110   1.534  13.590 -0.3158  1.4088  0.1465
  940MPD2    C513800   4.096   1.567  13.721 -0.4075  0.2755  0.2567
  940MPD2     H13801   3.870   1.297  13.580  0.3725 -1.3768  1.9374
  940MPD2    H113802   4.176   1.584  13.520  1.2327  0.0307  0.6435
  940MPD2    H213803   3.990   1.549  13.900  0.9573  1.6010  0.1799
  940MPD2    H313804   4.152   1.654  13.753  0.0760  0.3404 -0.7561
  940MPD2     N13805   4.034   1.408  13.399 -0.1349  0.0982 -0.2439
  940MPD2    H513806   4.114   1.449  13.352  0.7968 -1.1054  0.2570
  940MPD2    N113807   3.819   1.352  13.831  0.4237 -0.2016  0.1235
  940MPD2    H713808   3.757   1.286  13.785 -1.0886  1.3739 -0.1007
  941MPD2     C13809   2.543   0.652   9.996 -0.5750  0.7080  0.4636
  941MPD2    C113810   2.619   0.620  10.108  1.2279 -0.0245  0.5019
  941MPD2    C213811   2.575   0.513  10.187  0.1653 -0.6456 -0.0228
  941MPD2    C313812   2.454   0.446  10.155 -0.0826 -0.0209 -0.1908
  941MPD2    C413813   2.397   0.475  10.031  0.1296  0.5446 -0.1938
  941MPD2    C513814   2.439   0.577   9.952 -0.2505  0.6081  0.2168
  941MPD2     H13815   2.641   0.477  10.266 -0.4674  0.0509  0.8123
  941MPD2    H113816   2.317   0.412   9.993  1.1326 -1.4048  0.9393
  941MPD2    H213817   2.578   0.725   9.923  1.2748  0.4752  1.1074
  941MPD2    H313818   2.386   0.597   9.859  0.5310  2.3611  0.1432
  941MPD2     N13819   2.401   0.331  10.219 -0.1083 -0.0738 -0.0032
  941MPD2    H513820   2.307   0.305  10.192  0.2943 -0.1650 -1.3404
  941MPD2    N113821   2.729   0.692  10.149 -0.3221  0.3696  0.6466
  941MPD2    H713822   2.775   0.669  10.237 -2.2689 -0.0424  1.5394
  942MPD2     C13823   3.426   3.409   9.466  0.7492  0.3755 -0.2794
  942MPD2    C113824   3.295   3.371   9.491 -0.1418 -0.3120  0.0758
  942MPD2    C213825   3.259   3.240   9.498  0.1980 -0.2369  0.0065
  942MPD2    C313826   3.353   3.143   9.485  0.4923 -0.2541  0.2773
  942MPD2    C413827   3.485   3.182   9.459  0.8148  0.0547  0.4313
  942MPD2    C513828   3.520   3.314   9.455  0.8534  0.1511 -0.7884
  942MPD2     H13829   3.157   3.209   9.520  0.0772 -0.9605 -1.6032
  942MPD2    H113830   3.558   3.102   9.452  1.7408  0.8007  1.5229
  942MPD2    H213831   3.452   3.514   9.459 -0.1875  0.7392  1.5025
  942MPD2    H313832   3.619   3.353   9.433  0.5700 -0.9945 -4.1311
  942MPD2     N13833   3.328   3.005   9.499  0.0422  0.0373 -0.0199
  942MPD2    H513834   3.405   2.944   9.472 -0.2308 -0.3299  0.0410
  942MPD2    N113835   3.186   3.460   9.491 -0.2906 -0.5082  0.0690
  942MPD2    H713836   3.098   3.410   9.503 -0.1133 -0.6087  0.9480
  943MPD2     C13837   0.394   4.639   9.801  0.2471 -0.0581  0.0114
  943MPD2    C113838   0.452   4.616   9.925 -0.0037 -0.2682 -0.1326
  943MPD2    C213839   0.556   4.701   9.958 -0.6080 -1.0307  0.2653
  943MPD2    C313840   0.595   0.076   9.889  0.1330  0.8815  0.1134
  943MPD2    C413841   0.530   0.099   9.770  0.0529  0.2857  0.3917
  943MPD2    C513842   0.426   0.014   9.732  0.3719 -0.1329  0.1279
  943MPD2     H13843   0.608   4.687  10.053 -0.1760  1.0369  0.3260
  943MPD2    H113844   0.542   0.190   9.713  2.3890 -0.3873 -0.2118
  943MPD2    H213845   0.315   4.573   9.766 -0.1954 -0.8320  2.5174
  943MPD2    H313846   0.368   0.036   9.643 -0.8246  1.1924  1.2347
  943MPD2     N13847   0.710   0.155   9.914 -0.1736  0.3877 -0.0208
  943MPD2    H513848   0.725   0.238   9.858  0.2586 -1.3795 -2.5151
  943MPD2    N113849   0.402   4.517  10.013  0.0317 -0.3501 -0.2886
  943MPD2    H713850   0.320   4.468   9.979  1.1899 -0.8755 -2.3387
  944MPD2     C13851   0.913   3.629  11.230  0.0600  0.3918 -0.1309
  944MPD2    C113852   0.931   3.760  11.193  0.3983  0.2142  0.5024
  944MPD2    C213853   0.964   3.856  11.285  0.9470  0.0611 -0.7411
  944MPD2    C313854   0.979   3.812  11.414  0.2885  0.5116 -0.3193
  944MPD2    C413855   0.953   3.681  11.453  1.0642  0.2373  0.1906
  944MPD2    C513856   0.913   3.589  11.361  0.0036  0.1405  0.3042
  944MPD2     H13857   0.966   3.964  11.272  0.4793  0.4154  2.1307
  944MPD2    H113858   0.977   3.653  11.554 -1.2156 -0.0212  0.6691
  944MPD2    H213859   0.902   3.558  11.149 -2.0794 -1.0309  1.3877
  944MPD2    H313860   0.895   3.486  11.389  0.4638 -0.2708 -0.9064
  944MPD2     N13861   1.021   3.905  11.512 -0.5204  0.4221  0.9310
  944MPD2    H513862   1.063   3.994  11.487 -1.9950  0.7239 -0.4204
  944MPD2    N113863   0.908   3.783  11.054 -0.2789  0.4104  0.4703
  944MPD2    H713864   0.889   3.697  11.004 -0.0391  0.6701 -0.0710
    1TMC1    C113865   0.051   4.569  14.879  0.5331 -0.0166  0.5106
    1TMC1    C213866   4.660   4.525  14.852 -0.5247 -0.2306  0.2203
    1TMC1    C313867   4.636   4.388  14.858 -0.4206 -0.3045 -0.5512
    1TMC1    C413868   0.148   4.479  14.920  0.0686 -0.0650 -0.1047
    1TMC1    C513869   0.114   4.345  14.924  0.6090  1.2611  0.5580
    1TMC1    C613870   4.727   4.294  14.888  0.4780 -0.1914 -0.3905
    1TMC1     C13871   0.075   4.709  14.919  0.5329 -0.1500 -0.2946
    1TMC1     O13872   0.161   4.736  15.002  0.1587 -0.7043 -0.3121
    1TMC1     H13873   4.580   4.596  14.834 -0.4973 -0.0982  0.6261
    1TMC1    H113874   0.251   4.506  14.937 -0.1726  0.0951  1.1560
    1TMC1    H213875   4.721   4.188  14.866  0.6526 -0.1494 -0.6400
    1TMC1    C713876   0.207   4.243  14.970 -0.0898  0.9027 -0.2501
    1TMC1    C813877   4.509   4.329  14.818 -0.7666 -0.4233  1.3065
    1TMC1    O113878   0.324   4.271  14.986 -0.1785  0.4092  0.3775
    1TMC1    O213879   4.420   4.401  14.775 -0.5057  0.0344  0.1205
    1TMC1    O313880   0.131   4.155  15.044  0.3538  0.1480  0.8535
    1TMC1    H313881   0.036   4.175  15.034  0.4841  2.1404  3.6190
    1TMC1    O513882   4.482   4.209  14.877 -0.9940 -0.2154 -0.4527
    1TMC1    H513883   4.550   4.194  14.947 -0.0709  0.9712 -1.0879
    2MPD2     C13884   4.536   0.416  14.961  0.0931  0.3769 -0.5570
    2MPD2    C113885   4.510   0.355  14.841 -0.2197  0.0819 -0.3896
    2MPD2    C213886   4.596   0.250  14.803 -0.0071  0.1840  0.2417
    2MPD2    C313887   4.685   0.187  14.886 -0.3041  0.0881 -0.0097
    2MPD2    C413888   4.713   0.251  15.001  0.0556  0.4647  0.2937
    2MPD2    C513889   4.641   0.364  15.036 -0.4131 -0.0561  0.1317
    2MPD2     H13890   4.577   0.192  14.714 -2.9555  1.5530 -0.0302
    2MPD2    H113891   0.046   0.208  15.072 -0.5044  0.5246  0.8819
    2MPD2    H213892   4.491   0.509  14.993 -0.1616 -0.6240  1.9836
    2MPD2    H313893   4.645   0.410  15.134 -1.5656 -1.0718  0.6596
    2MPD2     N13894   4.729   0.059  14.841  0.5195  0.4283  0.0238
    2MPD2    H513895   4.690   0.021  14.756 -2.1242  2.3846  0.3421
    2MPD2    N113896   4.417   0.405  14.750  0.2626  0.4156  0.7710
    2MPD2    H713897   4.338   0.456  14.788 -1.9830 -1.0582 -1.9056
    3TMC2    C113898   4.337   0.499  14.554 -0.1915  0.1099  0.3268
    3TMC2    C213899   4.210   0.471  14.596 -0.1438 -0.1887  1.0871
    3TMC2    C313900   4.113   0.557  14.555 -0.5321  0.0747  0.4091
    3TMC2    C413901   4.371   0.585  14.457 -0.1031  0.1131  0.2494
    3TMC2    C513902   4.269   0.665  14.423  0.4126  0.4279  0.0954
    3TMC2    C613903   4.140   0.652  14.466  0.2592 -0.3712 -0.4078
    3TMC2     C13904   4.442   0.420  14.620 -0.1932 -0.4413  0.0498
    3TMC2     O13905   4.551   0.414  14.568  0.6164  0.4880 -1.2245
    3TMC2     H13906   4.185   0.400  14.675 -2.9986  0.3893  0.7325
    3TMC2    H113907   4.474   0.614  14.441 -0.5747  2.3085  1.2109
    3TMC2    H213908   4.072   0.731  14.436  2.8919  2.0901  0.1616
    3TMC2    C713909   4.309   0.777  14.338  0.6021 -0.3971  0.1912
    3TMC2    C813910   3.977   0.506  14.570 -0.1731  0.1246  0.0584
    3TMC2    O113911   4.377   0.747  14.242  0.1774  0.0596  0.2965
    3TMC2    O213912   3.954   0.412  14.645  0.2589 -0.2108  0.3718
    3TMC2    O513913   3.928   0.509  14.451 -0.0624 -0.4149 -0.8974
    3TMC2    H513914   3.994   0.520  14.380  0.0779 -2.6217 -1.1015
    4TMC2    C113915   3.787   1.550  14.302 -0.1424  0.3340 -0.3553
    4TMC2    C213916   3.841   1.671  14.247  0.5458 -0.0715  0.3488
    4TMC2    C313917   3.976   1.681  14.261  0.2291 -0.1558 -0.4449
    4TMC2    C413918   3.857   1.456  14.378  0.6301  0.1602 -0.2461
    4TMC2    C513919   3.990   1.475  14.384 -0.5649  0.3619  0.3475
    4TMC2    C613920   4.047   1.584  14.326  0.1256  0.3942  0.0702
    4TMC2     C13921   3.644   1.556  14.331 -0.5650  0.0925 -0.3140
    4TMC2     O13922   3.614   1.507  14.438 -0.3779  0.0938  0.0149
    4TMC2     H13923   3.775   1.748  14.208  1.9473  0.7451 -0.3905
    4TMC2    H113924   3.810   1.367  14.418  1.1803 -1.7012 -3.7196
    4TMC2    H213925   4.154   1.598  14.335  0.0850 -0.0374  1.2794
    4TMC2    C713926   4.077   1.363  14.420  0.0468  0.3899 -0.7534
    4TMC2    C813927   4.037   1.807  14.233  0.8954  0.3359 -0.7461
    4TMC2    O113928   4.032   1.275  14.493 -0.6748  0.0642  0.1108
    4TMC2    O213929   3.974   1.910  14.242 -0.0812  0.1837 -0.1523
    4TMC2    O513930   4.172   1.800  14.227 -0.4646 -0.7375  0.0126
    4TMC2    H513931   4.200   1.709  14.203 -0.3091 -0.5095 -0.6648
    5MPD2     C13932   3.151   1.665  14.228  0.6253 -0.0367  0.5735
    5MPD2    C113933   3.224   1.655  14.108 -0.4090  0.2832 -0.2826
    5MPD2    C213934   3.358   1.636  14.111 -0.1190 -0.2446 -0.1783
    5MPD2    C313935   3.421   1.625  14.232  0.0363 -0.7850 -0.9198
    5MPD2    C413936   3.353   1.633  14.352  0.4563  0.4848  0.0962
    5MPD2    C513937   3.215   1.651  14.353 -0.6338  0.8465 -0.0007
    5MPD2     H13938   3.419   1.620  14.023 -1.7353  0.6634 -1.4747
    5MPD2    H113939   3.405   1.625  14.447 -0.1287  0.6478  0.4319
    5MPD2    H213940   3.047   1.698  14.230  0.6103 -0.0998  0.8392
    5MPD2    H313941   3.159   1.668  14.445  0.6661  1.1987  0.7317
    5MPD2     N13942   3.565   1.604  14.227  0.1032  0.0347  0.4646
    5MPD2    H513943   3.618   1.625  14.143 -1.0323  1.0624  0.0142
    5MPD2    N113944   3.142   1.664  13.992  0.2152  0.3369  0.5540
    5MPD2    H713945   3.042   1.660  14.004  0.2596  0.1013  0.8429
    6MPD1     C13946   2.644   2.713  12.417 -0.0161 -0.4324 -0.0516
    6MPD1    C113947   2.560   2.726  12.526  0.2797 -0.0262 -0.4384
    6MPD1    C213948   2.608   2.682  12.651  0.3492  0.6990 -0.1080
    6MPD1    C313949   2.739   2.636  12.665 -0.0727 -0.1348  0.2549
    6MPD1    C413950   2.824   2.634  12.553 -0.1503 -0.0011 -0.2559
    6MPD1    C513951   2.770   2.665  12.434  0.4408  0.6153 -0.2797
    6MPD1     H13952   2.542   2.682  12.736  1.1124 -0.0023  0.4797
    6MPD1    H113953   2.922   2.589  12.549  0.2169  0.7164  0.6355
    6MPD1    H213954   2.604   2.737  12.319  2.6723  1.1181 -0.7602
    6MPD1    H313955   2.828   2.661  12.343  1.9432  0.0688  0.7093
    6MPD1     N13956   2.801   2.601  12.784  0.5207  0.0689 -0.0594
    6MPD1    H513957   2.883   2.542  12.770  1.0507  0.7354  0.2313
    6MPD1    N113958   2.422   2.748  12.500  0.0239 -0.4535 -0.1974
    6MPD1    H613959   2.377   2.784  12.584  0.7811 -0.3132  0.1505
    6MPD1    H713960   2.405   2.809  12.420  0.0732  1.2363  1.0664
    7MPD2     C13961   2.847   2.391  13.666 -0.0963  0.3181 -0.6232
    7MPD2    C113962   2.832   2.304  13.558 -0.3399  0.1833 -1.1114
    7MPD2    C213963   2.825   2.167  13.584 -0.6014  0.3166 -0.1525
    7MPD2    C313964   2.862   2.118  13.709  0.2810 -0.5327  0.0868
    7MPD2    C413965   2.877   2.203  13.809  0.2056  0.6797  0.7324
    7MPD2    C513966   2.874   2.337  13.788 -0.2997  0.1119  0.2118
    7MPD2     H13967   2.809   2.103  13.499  0.6378 -1.9730  1.3177
    7MPD2    H113968   2.896   2.175  13.912  0.0182 -0.4568  0.4485
    7MPD2    H213969   2.825   2.497  13.664 -1.8057 -0.0477 -1.4129
    7MPD2    H313970   2.860   2.401  13.874 -0.4712 -0.8696  0.9129
    7MPD2     N13971   2.865   1.980  13.739  0.1022 -0.2131 -1.0196
    7MPD2    H513972   2.863   1.957  13.837  0.3862  4.2172  0.0352
    7MPD2    N113973   2.811   2.346  13.424  0.1590 -0.3201  0.4541
    7MPD2    H713974   2.786   2.282  13.350 -0.8373 -0.3198  0.7883
    8TMC3    C113975   2.887   1.739  13.686  0.5362 -0.3175 -0.0313
    8TMC3    C213976   2.982   1.723  13.776 -0.1564  0.2091 -0.1475
    8TMC3    C313977   3.083   1.630  13.758  0.3346 -0.5344 -0.3573
    8TMC3    C413978   2.904   1.662  13.567  0.4515 -0.2800  0.2197
    8TMC3    C513979   3.025   1.600  13.540 -0.5053  0.7184 -0.5365
    8TMC3    C613980   3.118   1.582  13.636  0.0829  0.2035  0.0537
    8TMC3     C13981   2.859   1.876  13.647  1.2807 -0.7326 -0.2726
    8TMC3     O13982   2.854   1.883  13.524 -0.0944 -0.4425  0.2356
    8TMC3     H13983   2.987   1.787  13.863  1.6934 -1.7098  1.1489
    8TMC3    H113984   2.829   1.662  13.488 -0.0269  1.1989  0.6768
    8TMC3    H213985   3.203   1.518  13.615  1.7559  1.8923  1.6727
    8TMC3    C713986   3.070   1.610  13.401  0.9907  0.0284 -0.7523
    8TMC3    C813987   3.184   1.630  13.859 -0.4436 -0.0502  0.0905
    8TMC3    O113988   3.158   1.532  13.363 -0.7125 -0.0062  0.4993
    8TMC3    O213989   3.297   1.597  13.822 -0.0781  0.4553 -0.4036
    9TMC3    C113990   2.805   2.527  13.008 -0.1543 -1.1618  0.5652
    9TMC3    C213991   2.875   2.421  12.962  0.0349  0.7128 -0.2543
    9TMC3    C313992   2.915   2.335  13.063 -0.3534 -0.0385 -0.7665
    9TMC3    C413993   2.792   2.559  13.143 -0.8989 -0.2673 -0.1687
    9TMC3    C513994   2.841   2.474  13.238 -0.0772 -0.3468  0.3700
    9TMC3    C613995   2.912   2.368  13.194 -0.1974  0.5847  0.5508
    9TMC3     C13996   2.740   2.611  12.907  0.1135  0.9715  1.0350
    9TMC3     O13997   2.656   2.690  12.947 -0.1890 -0.0138  0.0250
    9TMC3     H13998   2.900   2.399  12.859  0.5969  0.1567 -0.0028
    9TMC3    H113999   2.741   2.651  13.170 -1.2288 -0.7497  0.8428
    9TMC3    H214000   2.977   2.321  13.267 -0.1495  0.3544  0.3572
    9TMC3    C714001   2.805   2.478  13.378  0.6735  0.3504  0.7379
    9TMC3    C814002   2.974   2.211  13.015  0.6134 -0.5187  0.2928
    9TMC3    O114003   2.807   2.588  13.432 -0.2438 -0.5609  0.4411
    9TMC3    O214004   3.019   2.210  12.900  0.1634 -0.2867 -0.5798
   10MPD2     C14005   3.155   1.755  13.140  0.0346  0.0920 -0.1199
   10MPD2    C114006   3.065   1.795  13.236  0.7442  0.5699  0.4119
   10MPD2    C214007   3.013   1.918  13.230  0.8423  0.3854  0.0424
   10MPD2    C314008   3.032   1.999  13.122  0.4853  0.9998  0.3178
   10MPD2    C414009   3.134   1.967  13.030  0.5524  0.7551  0.3725
   10MPD2    C514010   3.192   1.842  13.046 -0.3596  0.3793  0.1652
   10MPD2     H14011   2.941   1.937  13.309 -1.2342 -0.4460 -1.6567
   10MPD2    H114012   3.152   2.031  12.944 -2.5332 -0.0334 -0.8896
   10MPD2    H214013   3.198   1.656  13.137  1.1847  0.6666 -3.2075
   10MPD2    H314014   3.277   1.813  12.985  0.3136  2.1553  0.2629
   10MPD2     N14015   2.955   2.116  13.116  0.7392  0.5016 -0.1715
   10MPD2    H514016   2.898   2.140  13.196 -1.0321 -0.4891 -1.1373
   10MPD2    N114017   3.025   1.725  13.350 -0.3130 -0.1664 -0.0555
   10MPD2    H714018   2.965   1.778  13.411 -2.1930 -1.2508 -0.9655
   11MPD2     C14019   4.453   1.042  14.288  0.1612  0.5182 -0.5754
   11MPD2    C114020   4.330   1.027  14.352  0.1365 -0.5749 -0.8397
   11MPD2    C214021   4.247   1.134  14.367  0.2023  0.5404  0.2271
   11MPD2    C314022   4.281   1.261  14.330  0.5763 -0.1246 -0.2020
   11MPD2    C414023   4.392   1.278  14.253 -0.0476 -0.6123 -0.1464
   11MPD2    C514024   4.480   1.169  14.242 -0.0566 -1.1010  0.4160
   11MPD2     H14025   4.153   1.115  14.418 -0.1903  1.3003 -0.2205
   11MPD2    H114026   4.411   1.370  14.199  0.8736  0.5623  2.1720
   11MPD2    H214027   4.536   0.972  14.281 -0.3666  0.2457 -3.9715
   11MPD2    H314028   4.576   1.189  14.195 -1.3041  1.7707 -0.9179
   11MPD2     N14029   4.188   1.364  14.342 -1.1129  0.2704  0.2231
   11MPD2    H514030   4.213   1.445  14.285  1.2386 -1.0116 -0.5859
   11MPD2    N114031   4.280   0.899  14.394  0.3443  0.0729  0.2261
   11MPD2    H714032   4.199   0.895  14.455 -0.1486 -2.8794 -0.5993
    1MPD1     C14033   1.478   1.696  17.025 -0.7861  0.1635  0.3301
    1MPD1    C114034   1.422   1.725  17.146  0.1300 -0.2926  0.3849
    1MPD1    C214035   1.505   1.786  17.240 -0.4795 -0.4664 -0.5710
    1MPD1    C314036   1.639   1.820  17.216  0.1272 -0.4072 -0.2809
    1MPD1    C414037   1.683   1.799  17.087  0.2056 -0.0258  0.0224
    1MPD1    C514038   1.608   1.727  17.001  0.2961  0.3713  0.0729
    1MPD1     H14039   1.457   1.802  17.336  0.9512  2.6155 -0.3644
    1MPD1    H114040   1.788   1.807  17.059 -0.0628  1.1148 -0.6685
    1MPD1    H214041   1.420   1.637  16.955  0.4056 -0.7045  0.0779
    1MPD1    H314042   1.653   1.671  16.920  1.3987  1.7006 -0.2318
    1MPD1     N14043   1.727   1.870  17.315  0.6159 -0.3660  0.0521
    1MPD1    H514044   1.824   1.881  17.288  0.1157  0.6141 -1.3843
    1MPD1    N114045   1.294   1.676  17.185 -0.2995  0.2147  0.1395
    1MPD1    H614046   1.267   1.746  17.254 -0.0066 -1.9425  2.4084
    1MPD1    H714047   1.221   1.669  17.114 -1.1864 -1.3280  1.2145
    2MPD1     C14048   1.851   2.734  17.541 -0.5606  0.1419  0.0701
    2MPD1    C114049   1.761   2.652  17.475 -0.6867 -0.3568 -0.1560
    2MPD1    C214050   1.776   2.517  17.490 -0.3908  0.4949  0.2799
    2MPD1    C314051   1.865   2.466  17.580 -0.3248  1.0321 -0.1550
    2MPD1    C414052   1.941   2.546  17.660  0.1683  0.1881 -0.6901
    2MPD1    C514053   1.932   2.684  17.645 -0.4979 -0.0916  0.2539
    2MPD1     H14054   1.716   2.451  17.429 -0.2996 -0.8816  1.6657
    2MPD1    H114055   2.005   2.509  17.740  0.9753 -0.4169 -1.6256
    2MPD1    H214056   1.858   2.840  17.519 -2.4711  0.0819 -0.7942
    2MPD1    H314057   1.984   2.751  17.712  0.4128 -1.2929  0.7585
    2MPD1     N14058   1.867   2.323  17.580  0.2892 -0.3723  0.3055
    2MPD1    H514059   1.805   2.277  17.514 -0.3744 -0.1192  0.7547
    2MPD1    N114060   1.698   2.698  17.354 -0.6663  0.4148  0.2411
    2MPD1    H614061   1.674   2.796  17.355 -1.2468  0.3077 -1.4695
    2MPD1    H714062   1.609   2.652  17.334 -0.0288 -0.0553 -1.5628
    3TMC3    C114063   1.927   2.101  17.629 -0.0893 -0.0473 -0.0649
    3TMC3    C214064   2.043   2.035  17.614 -0.5186 -0.5209 -0.0762
    3TMC3    C314065   2.036   1.913  17.552 -0.1931  0.3464  0.1420
    3TMC3    C414066   1.801   2.056  17.579  0.0411 -0.2849  0.1355
    3TMC3    C514067   1.806   1.938  17.517  0.6834  0.3946  0.2623
    3TMC3    C614068   1.921   1.862  17.498 -0.3874  0.8038  0.1115
    3TMC3     C14069   1.958   2.238  17.646  0.9888 -0.7078  0.5947
    3TMC3     O14070   2.041   2.279  17.726 -0.8601  0.4476 -0.0496
    3TMC3     H14071   2.134   2.069  17.663 -0.6217 -0.1319 -0.1516
    3TMC3    H114072   1.712   2.117  17.586 -0.0534 -0.3895 -0.1577
    3TMC3    H214073   1.917   1.765  17.451 -2.7837  1.0098 -0.1092
    3TMC3    C714074   1.694   1.895  17.444 -0.1640  0.1776  0.5914
    3TMC3    C814075   2.161   1.839  17.531 -0.1797 -0.1362 -0.7941
    3TMC3    O114076   1.585   1.912  17.500 -0.0922 -0.2657 -0.3035
    3TMC3    O214077   2.262   1.905  17.545  0.2756 -0.2061  0.0990
    4MPD1     C14078   2.456   1.418  17.543  0.4132  0.6778  0.0859
    4MPD1    C114079   2.327   1.370  17.578 -0.3270  0.3984  0.6104
    4MPD1    C214080   2.227   1.466  17.565 -0.5297 -0.5315 -0.0000
    4MPD1    C314081   2.260   1.601  17.546  0.7367 -0.0644 -0.4395
    4MPD1    C414082   2.388   1.645  17.530  0.3732 -0.4170 -0.1843
    4MPD1    C514083   2.487   1.548  17.518  0.3021  0.2205 -0.3808
    4MPD1     H14084   2.122   1.445  17.576 -0.5598 -0.7240 -0.6398
    4MPD1    H114085   2.419   1.745  17.503  2.3597 -0.9649  0.0658
    4MPD1    H214086   2.545   1.356  17.545 -1.1984 -1.7134 -1.4920
    4MPD1    H314087   2.585   1.585  17.490 -0.2424  3.1485  1.5187
    4MPD1     N14088   2.152   1.699  17.541  0.1021 -0.3208 -0.5850
    4MPD1    H514089   2.059   1.658  17.537 -0.2319  0.4678 -1.0606
    4MPD1    N114090   2.306   1.228  17.580  0.4911  0.3473  0.4456
    4MPD1    H614091   2.219   1.207  17.628  0.7038  0.6125  0.9407
    4MPD1    H714092   2.373   1.175  17.635  1.0816  1.0423  0.3903
    1TCq1    O114093   2.255   1.895  11.813  0.3248 -0.2977  0.1555
    1TCq1    C114094   2.211   2.014  11.850 -0.2457 -0.2495  0.1273
    1TCq1    O214095   2.096   2.050  11.821 -0.1096 -0.4192  0.3659
    1TCq1    C214096   2.312   2.103  11.892 -0.9275  1.0175 -0.4062
    1TCq1    C314097   2.397   2.071  11.992 -0.8042 -0.1727  0.1978
    1TCq1    C414098   2.509   2.149  11.991 -0.3921  0.0797 -0.0098
    1TCq1    C514099   2.528   2.244  11.888 -0.5066 -0.1984  0.7297
    1TCq1    C614100   2.426   2.278  11.800 -0.1842 -0.6715  0.1509
    1TCq1    C714101   2.312   2.210  11.815 -0.2875  0.1779 -0.3248
    1TCq1    C814102   2.419   2.393  11.716 -0.0928  0.3283  0.0019
    1TCq1    O414103   2.310   2.412  11.666  0.2677 -0.2943 -0.3233
    1TCq1    C914104   2.622   2.108  12.068  0.0736 -0.0028 -0.5893
    1TCq1    O514105   2.609   2.003  12.138  0.2896  0.1257 -0.3388
    1TCq1    O614106   2.709   2.195  12.088  0.1836  0.1956  0.1144
    1TCq1    H114107   2.352   1.882  11.821  0.1553 -1.4719  0.2909
    1TCq1    H214108   2.390   1.990  12.064  1.8990 -1.5082 -1.0331
    1TCq1    H314109   2.629   2.279  11.873 -0.1382 -0.8611  1.6215
    1TCq1    H414110   2.238   2.221  11.736  1.2373  0.9472 -1.6333
    2MPD1     C14111   2.552   2.860  11.599 -0.4464  0.0769 -0.4582
    2MPD1    C114112   2.668   2.801  11.638 -0.6533 -0.5249 -0.3335
    2MPD1    C214113   2.656   2.669  11.671 -0.0160  0.3397  0.1064
    2MPD1    C314114   2.535   2.603  11.681 -0.0657  0.0063 -0.2031
    2MPD1    C414115   2.422   2.676  11.660  0.1857  0.0795 -0.4822
    2MPD1    C514116   2.432   2.802  11.609  0.2320 -0.4091 -0.4604
    2MPD1     H14117   2.747   2.614  11.692  0.1079  0.1930 -0.7840
    2MPD1    H114118   2.322   2.641  11.683  1.2760 -1.8815  1.2987
    2MPD1    H214119   2.561   2.961  11.561  1.3916 -0.4668 -1.4607
    2MPD1    H314120   2.343   2.861  11.591  1.2047  1.6085  1.2036
    2MPD1     N14121   2.530   2.472  11.726  0.3064 -0.3016  0.3653
    2MPD1    H514122   2.617   2.441  11.770 -0.1841  2.0922  3.0284
    2MPD1    N114123   2.797   2.854  11.618 -0.1214 -0.0199 -0.8491
    2MPD1    H614124   2.856   2.811  11.688 -1.2320  1.1497  0.8075
    2MPD1    H714125   2.799   2.956  11.626  0.7952  0.0315 -1.7915
    1TMC1    C114126   1.046   4.474   1.358  0.3265  0.0701 -0.1729
    1TMC1    C214127   0.933   4.437   1.422 -0.3682 -0.3499  0.1220
    1TMC1    C314128   0.912   4.493   1.547  0.0663  0.0414  0.1829
    1TMC1    C414129   1.142   4.548   1.422  0.1123 -0.2294  0.1628
    1TMC1    C514130   1.121   4.592   1.548 -0.5828 -0.3562 -0.1995
    1TMC1    C614131   1.009   4.563   1.611 -0.4117  0.2646  0.3624
    1TMC1     C14132   1.081   4.424   1.221  0.6749 -0.4513 -0.3846
    1TMC1     O14133   1.171   4.487   1.168 -0.4613 -0.0459  0.2030
    1TMC1     H14134   0.847   4.394   1.372 -0.8482 -1.5061  1.9212
    1TMC1    H114135   1.234   4.572   1.370 -0.7343  0.7855 -0.8823
    1TMC1    H214136   0.987   4.618   1.701  0.9188  0.4420  0.5649
    1TMC1    C714137   1.245   4.616   1.615 -0.3580 -0.8499 -0.5925
    1TMC1    C814138   0.794   4.469   1.621 -0.2526 -0.1208 -1.3107
    1TMC1    O114139   1.348   4.643   1.564 -0.2223 -0.0558 -0.6502
    1TMC1    O214140   0.732   4.364   1.609 -0.1713  0.3075  0.7841
    1TMC1    O314141   1.242   4.537   1.725 -0.2447  0.6176  0.5873
    1TMC1    H314142   1.156   4.496   1.749  0.4114  0.2486  2.3459
    1TMC1    O514143   0.740   4.590   1.651  0.8828 -0.2080  0.1454
    1TMC1    H514144   0.793   4.666   1.616 -0.2597  0.9354  0.8957
    2MPD1     C14145   1.071   4.113   0.814 -0.7247  0.2220  0.1641
    2MPD1    C114146   0.989   4.059   0.913  0.2005  0.0450 -0.5635
    2MPD1    C214147   0.973   4.124   1.036  0.0077 -0.6488 -0.5626
    2MPD1    C314148   1.035   4.249   1.055  0.0723 -0.2211 -0.6536
    2MPD1    C414149   1.123   4.300   0.958 -0.7572 -0.2510 -0.0028
    2MPD1    C514150   1.140   4.229   0.842 -0.0361 -0.0146  0.7792
    2MPD1     H14151   0.917   4.072   1.113 -0.4131  0.8860  0.1764
    2MPD1    H114152   1.165   4.400   0.959 -0.2676 -0.4527 -1.2126
    2MPD1    H214153   1.089   4.067   0.718  1.7763 -2.1616  1.7801
    2MPD1    H314154   1.206   4.273   0.768  0.0317 -0.1194  0.7772
    2MPD1     N14155   1.011   4.309   1.179  0.4236 -0.2997  0.2930
    2MPD1    H514156   0.942   4.261   1.236 -1.2645  0.5240 -1.0551
    2MPD1    N114157   0.913   3.951   0.878 -0.4051  0.0963  0.2826
    2MPD1    H614158   0.882   3.892   0.955  0.3886 -0.7814 -0.0627
    2MPD1    H714159   0.976   3.893   0.822  0.1308  1.6717 -0.7438
    1MPD1     C14160   4.494   1.353  12.054 -0.1461 -0.6649  0.3615
    1MPD1    C114161   4.457   1.431  12.162  0.2390 -0.3345  0.1712
    1MPD1    C214162   4.537   1.538  12.201 -0.1191  0.1085 -0.2364
    1MPD1    C314163   4.655   1.569  12.139 -0.0728  1.1788 -0.0827
    1MPD1    C414164   4.698   1.482  12.038  0.8206 -0.1895  0.2921
    1MPD1    C514165   4.613   1.388  11.989  0.1568  0.0957  0.0978
    1MPD1     H14166   4.517   1.607  12.282 -4.1208 -0.7328 -0.4780
    1MPD1    H114167   0.037   1.519  11.970 -0.0499  0.2880 -0.4254
    1MPD1    H214168   4.434   1.270  12.018 -0.2442 -0.1416 -0.6753
    1MPD1    H314169   4.632   1.341  11.893  2.5040  1.3533 -0.0489
    1MPD1     N14170   4.720   1.683  12.191 -0.5775  0.5265  0.2117
    1MPD1    H514171   4.665   1.744  12.251 -1.1181 -1.3999  1.6874
    1MPD1    N114172   4.370   1.376  12.266 -0.2740 -0.3488  0.2230
    1MPD1    H614173   4.322   1.453  12.312  0.4521  0.2035  0.0581
    1MPD1    H714174   4.299   1.324  12.214 -1.2939  1.0681  0.1961
    2MPD1     C14175   3.787   2.758  10.087  0.1974  0.5788  0.6485
    2MPD1    C114176   3.814   2.635  10.140 -0.1096  0.5359  0.5062
    2MPD1    C214177   3.905   2.637  10.238 -0.4704 -0.5803  0.3267
    2MPD1    C314178   4.003   2.744  10.247 -0.5555 -0.3557 -0.1793
    2MPD1    C414179   3.973   2.864  10.190 -0.1196  0.1420  0.6193
    2MPD1    C514180   3.868   2.869  10.101  0.6334  0.4602 -0.0886
    2MPD1     H14181   3.927   2.543  10.287 -0.5809 -1.3624 -1.1248
    2MPD1    H114182   4.041   2.946  10.208  0.0113  0.3617 -0.9000
    2MPD1    H214183   3.706   2.761  10.015 -1.0776 -0.9064  2.0131
    2MPD1    H314184   3.838   2.958  10.047 -1.2063 -1.0082 -1.4855
    2MPD1     N14185   4.112   2.750  10.341  0.0479  0.5833 -0.1028
    2MPD1    H514186   4.171   2.832  10.332 -0.3341  0.6253 -2.2459
    2MPD1    N114187   3.719   2.532  10.126 -0.2848 -0.0441 -0.0653
    2MPD1    H614188   3.668   2.536  10.038 -0.4352 -4.6707 -0.2055
    2MPD1    H714189   3.756   2.438  10.137 -0.3926 -0.3882 -2.6545
    3MPD1     C14190   0.224   2.872  10.177 -0.3303 -0.7874  0.4340
    3MPD1    C114191   0.152   2.752  10.141  0.8430 -0.6869  1.0384
    3MPD1    C214192   0.051   2.712  10.230 -0.1090  0.0337 -0.3610
    3MPD1    C314193   0.022   2.785  10.341  0.2751 -0.6789  0.6906
    3MPD1    C414194   0.099   2.892  10.375 -0.0112  0.3428  0.3209
    3MPD1    C514195   0.193   2.937  10.290 -0.8103  0.1717 -0.0233
    3MPD1     H14196   4.721   2.635  10.192 -0.2857 -0.5841  1.1926
    3MPD1    H114197   0.076   2.961  10.456  1.8080  0.7414  0.5134
    3MPD1    H214198   0.313   2.904  10.123 -0.9000 -3.2448 -2.0326
    3MPD1    H314199   0.260   3.018  10.316 -0.6805  0.0127  0.1364
    3MPD1     N14200   4.641   2.755  10.413  0.1943  0.0415  0.1985
    3MPD1    H514201   4.580   2.687  10.370  0.2583 -0.7688  1.3893
    3MPD1    N114202   0.169   2.690  10.018 -0.1013 -0.6373 -0.6437
    3MPD1    H614203   0.254   2.725   9.974 -0.4694  0.2488 -0.6403
    3MPD1    H714204   0.161   2.589  10.009 -2.6906 -0.4533 -0.3491
    4MPD2     C14205   4.429   2.285  12.293  0.2063  0.1008  0.5325
    4MPD2    C114206   4.550   2.304  12.226  0.2068 -0.1337 -0.4410
    4MPD2    C214207   4.548   2.382  12.113  0.5093 -0.1266 -0.0438
    4MPD2    C314208   4.437   2.444  12.067 -0.1334  0.8639 -0.1186
    4MPD2    C414209   4.319   2.420  12.129  0.3362  0.1616  0.1851
    4MPD2    C514210   4.314   2.341  12.241  0.5041 -0.3927  0.3830
    4MPD2     H14211   4.640   2.394  12.058  0.8953 -0.2487  0.5715
    4MPD2    H114212   4.224   2.447  12.085 -0.6024 -0.9118  1.5247
    4MPD2    H214213   4.416   2.225  12.383 -3.1918  0.4973  0.2670
    4MPD2    H314214   4.224   2.318  12.296 -0.2260  0.1406 -0.5928
    4MPD2     N14215   4.449   2.514  11.945 -0.3165  0.5079 -0.1870
    4MPD2    H514216   4.545   2.527  11.913 -0.8046 -1.0772 -2.3186
    4MPD2    N114217   4.670   2.238  12.262 -0.1616 -0.3743  0.2615
    4MPD2    H714218   4.734   2.251  12.184 -0.7099  2.9476  0.3552
    5TMC3    C114219   0.070   2.061  12.309 -0.4563 -0.5939 -0.9040
    5TMC3    C214220   0.047   1.927  12.291  0.0123  0.3528  0.3949
    5TMC3    C314221   0.117   1.867  12.186  0.1736 -0.0804  0.4144
    5TMC3    C414222   0.164   2.129  12.238 -0.1917  0.0281  0.0172
    5TMC3    C514223   0.226   2.068  12.134 -0.3243  0.3633 -0.0055
    5TMC3    C614224   0.203   1.935  12.111 -0.0823 -0.5652  0.2962
    5TMC3     C14225   4.686   2.132  12.344 -0.5456 -0.0824 -0.3567
    5TMC3     O14226   4.609   2.090  12.433 -0.5642  0.1297 -0.6449
    5TMC3     H14227   4.700   1.883  12.344  0.8094 -0.7382  0.7457
    5TMC3    H114228   0.176   2.235  12.257  0.2072 -0.1013  0.4827
    5TMC3    H214229   0.227   1.892  12.014  1.7741 -0.4916  0.7178
    5TMC3    C714230   0.183   2.149  12.025  0.5505  0.0325  0.1375
    5TMC3    C814231   0.097   1.735  12.141 -0.5153 -0.3926 -0.0060
    5TMC3    O114232   0.104   2.245  12.042  0.0936  0.1663 -0.2561
    5TMC3    O214233   0.182   1.690  12.067  0.0764 -0.1195 -0.4660
    6TMC3    C114234   4.247   2.688  10.528 -1.3547  0.1466 -0.3855
    6TMC3    C214235   4.354   2.761  10.494 -0.4672 -0.5487 -0.0058
    6TMC3    C314236   4.462   2.772  10.578  0.0861 -0.0528  0.0367
    6TMC3    C414237   4.226   2.662  10.661 -0.8423  0.5921 -0.2390
    6TMC3    C514238   4.318   2.700  10.751 -0.0115  0.0709 -0.0706
    6TMC3    C614239   4.441   2.756  10.714  0.1315  0.4979 -0.3554
    6TMC3     C14240   4.135   2.661  10.440  0.0379 -0.2817  0.1785
    6TMC3     O14241   4.059   2.568  10.469  0.7034  0.0454 -0.2060
    6TMC3     H14242   4.353   2.781  10.387  1.3406 -2.5340 -0.3963
    6TMC3    H114243   4.144   2.595  10.684 -0.6584  0.3761 -0.2097
    6TMC3    H214244   4.519   2.798  10.776  0.4840  0.5791 -0.8584
    6TMC3    C714245   4.312   2.658  10.889 -0.4633  0.0013 -0.7313
    6TMC3    C814246   4.594   2.819  10.528 -0.1193 -0.5105 -0.0295
    6TMC3    O114247   4.410   2.660  10.963  0.4722  1.0253 -0.0773
    6TMC3    O214248   4.639   2.906  10.603 -0.2147  0.4633 -0.1135
    7MPD2     C14249   0.221   2.332  11.529 -1.2891 -0.0766 -0.4992
    7MPD2    C114250   0.138   2.365  11.632  0.5107 -0.2877  0.4647
    7MPD2    C214251   0.149   2.300  11.756  0.1207  0.1560  0.2398
    7MPD2    C314252   0.229   2.189  11.775  0.3744 -0.1238 -0.6883
    7MPD2    C414253   0.313   2.153  11.670  0.5469 -0.2914 -0.5567
    7MPD2    C514254   0.297   2.220  11.545  0.4156 -0.4356 -0.5977
    7MPD2     H14255   0.082   2.325  11.838  1.8117 -3.2447  2.6319
    7MPD2    H114256   0.376   2.065  11.675 -0.6660 -1.0559  0.9280
    7MPD2    H214257   0.228   2.384  11.434 -0.4521 -0.3371 -0.5818
    7MPD2    H314258   0.363   2.178  11.470 -0.1313 -1.8026 -0.3186
    7MPD2     N14259   0.241   2.114  11.904 -0.2444 -0.0394  0.4509
    7MPD2    H514260   0.318   2.048  11.910 -1.0806 -1.0950 -0.3171
    7MPD2    N114261   0.058   2.482  11.606 -0.0210  0.0245 -0.2317
    7MPD2    H714262   0.053   2.512  11.509 -2.0325 -0.2640 -0.2155
    8TMC3    C114263   4.612   2.615  11.640  0.7411  0.9076 -0.1584
    8TMC3    C214264   4.569   2.555  11.527 -0.4231 -0.4037  0.8482
    8TMC3    C314265   4.439   2.525  11.521  0.1238  0.6874  0.3852
    8TMC3    C414266   4.532   2.644  11.745 -0.2530 -0.1084 -0.8549
    8TMC3    C514267   4.403   2.595  11.742 -0.1867 -0.3203  0.5271
    8TMC3    C614268   4.359   2.532  11.629  0.2810  0.0295  0.3424
    8TMC3     C14269   4.721   2.545  11.695 -0.1090 -0.8585  0.0147
    8TMC3     O14270   4.719   2.540  11.816 -0.3177  0.0907 -0.0845
    8TMC3     H14271   4.623   2.558  11.433 -0.6659  0.3160  0.7291
    8TMC3    H114272   4.566   2.707  11.826 -2.8441  2.3349 -1.6829
    8TMC3    H214273   4.263   2.481  11.625  0.4987 -0.4745  1.5224
    8TMC3    C714274   4.348   2.543  11.861 -0.0977  0.8155 -0.9611
    8TMC3    C814275   4.388   2.498  11.384 -0.1912  0.0416 -0.1733
    8TMC3    O114276   4.229   2.517  11.867 -0.3796  0.0743 -0.2611
    8TMC3    O214277   4.464   2.525  11.293 -0.5343 -0.0537 -0.3210
    9MPD2     C14278   4.046   2.418  11.262  0.3396  0.2242  0.1456
    9MPD2    C114279   4.173   2.466  11.259 -0.1407  0.1696 -0.1152
    9MPD2    C214280   4.216   2.528  11.143  0.0488  0.1134 -0.5058
    9MPD2    C314281   4.132   2.561  11.039 -0.2910  0.0438  0.5096
    9MPD2    C414282   3.998   2.521  11.053  0.8037 -0.1676  0.8751
    9MPD2    C514283   3.964   2.441  11.157 -0.0127  0.0590  0.6041
    9MPD2     H14284   4.318   2.564  11.134  0.0153  0.3647  0.1722
    9MPD2    H114285   3.929   2.540  10.971  2.0041 -1.2878 -0.4168
    9MPD2    H214286   4.006   2.359  11.343 -1.6194  0.1991 -0.8543
    9MPD2    H314287   3.859   2.414  11.160  0.0909 -0.4838 -0.6879
    9MPD2     N14288   4.177   2.628  10.920 -0.5769  0.2636 -0.2484
    9MPD2    H514289   4.107   2.634  10.848 -0.9866 -1.7483 -0.0104
    9MPD2    N114290   4.259   2.450  11.373  0.4458 -0.3113 -0.0698
    9MPD2    H714291   4.221   2.392  11.447 -2.2748  0.6371 -0.7035
    1MPD1     C14292   1.510   0.521  16.072 -0.0291 -0.5507  0.5972
    1MPD1    C114293   1.380   0.526  16.125  0.0602 -0.1089  0.5751
    1MPD1    C214294   1.321   0.412  16.177  0.1964  0.4299 -0.3570
    1MPD1    C314295   1.387   0.294  16.184 -0.6989 -0.6369  0.1540
    1MPD1    C414296   1.516   0.290  16.133 -0.4223 -0.2579  0.1504
    1MPD1    C514297   1.582   0.404  16.085  0.1088 -0.4444 -0.3006
    1MPD1     H14298   1.217   0.411  16.209  0.5431  0.6471  0.7737
    1MPD1    H114299   1.574   0.199  16.141  0.6862  0.1924 -2.5581
    1MPD1    H214300   1.571   0.600  16.030 -0.0794 -0.3126  0.9746
    1MPD1    H314301   1.681   0.402  16.042  0.7313 -0.3103  1.1242
    1MPD1     N14302   1.333   0.171  16.228  0.6471 -0.2081  0.2481
    1MPD1    H514303   1.394   0.093  16.251 -1.1854 -1.5373  0.6127
    1MPD1    N114304   1.322   0.653  16.128  0.3245 -0.9761  0.0856
    1MPD1    H614305   1.221   0.645  16.122  0.0801  2.0199  0.5592
    1MPD1    H714306   1.352   0.696  16.041  0.2719 -0.5162  0.2967
    2TMC2    C114307   1.159   4.677  16.533  0.2198 -0.5943  0.5968
    2TMC2    C214308   1.024   4.677  16.537 -0.8270 -0.6926 -0.2329
    2TMC2    C314309   0.951   4.735  16.438  0.3007 -0.3013  0.3443
    2TMC2    C414310   1.225   0.008  16.434  0.3472 -0.4357 -0.5473
    2TMC2    C514311   1.146   0.055  16.326  0.9408 -0.5239  0.4280
    2TMC2    C614312   1.007   0.042  16.324  0.0718  0.4525  0.2420
    2TMC2     C14313   1.221   4.579  16.617  0.3755 -0.0351  0.0965
    2TMC2     O14314   1.133   4.506  16.663 -0.2952 -0.3164 -0.0025
    2TMC2     H14315   0.974   4.644  16.627  0.3250 -0.7820  0.3814
    2TMC2    H114316   1.331   0.025  16.446  0.0613  0.0898  1.2927
    2TMC2    H214317   0.954   0.069  16.234  2.5943  0.7163 -1.1858
    2TMC2    C714318   1.195   0.155  16.235 -0.1919 -0.3376  0.3322
    2TMC2    C814319   0.810   4.713  16.439 -0.3794 -0.4186  0.2014
    2TMC2    O114320   1.104   0.223  16.182 -0.3241  1.0361 -0.3637
    2TMC2    O214321   0.760   4.721  16.550 -0.0650  0.0943  0.6647
    2TMC2    O514322   0.788   4.618  16.344  0.2472  0.3208  0.3745
    2TMC2    H514323   0.855   4.613  16.272  0.5606 -0.2937  0.7082
    3MPD1     C14324   1.589   4.401  16.927  0.1737  0.0621 -0.7513
    3MPD1    C114325   1.641   4.523  16.882 -0.9594  0.2804 -0.0333
    3MPD1    C214326   1.556   4.591  16.788  0.3099  0.3260 -0.1363
    3MPD1    C314327   1.430   4.539  16.752  0.2972  0.1346 -0.5562
    3MPD1    C414328   1.381   4.423  16.809  0.6673 -0.4746  0.3033
    3MPD1    C514329   1.463   4.348  16.897  0.3379 -0.7185 -0.2282
    3MPD1     H14330   1.584   4.685  16.742 -0.3427 -0.2473 -1.7316
    3MPD1    H114331   1.283   4.383  16.783  0.9785 -0.6009 -0.6871
    3MPD1    H214332   1.648   4.335  16.990 -1.5605 -0.7884 -0.0341
    3MPD1    H314333   1.436   4.250  16.935  0.8203 -0.7144  0.1164
    3MPD1     N14334   1.350   4.609  16.654  0.0673 -0.7827 -0.3275
    3MPD1    H514335   1.394   4.693  16.616  0.2612 -1.0211 -0.6344
    3MPD1    N114336   1.777   4.556  16.892 -0.1522 -0.0841  0.1433
    3MPD1    H614337   1.833   4.510  16.963 -1.3417  3.8584  3.6979
    3MPD1    H714338   1.786   4.657  16.900 -0.4644 -0.0696  0.3120
    1TMC1    C114339   2.052   0.567  13.638 -0.0072 -0.0516 -0.2148
    1TMC1    C214340   2.105   0.678  13.697 -0.2957 -0.4202 -0.0870
    1TMC1    C314341   2.026   0.747  13.790  0.2481  0.6006 -0.4071
    1TMC1    C414342   1.927   0.519  13.652  0.2255  0.2733  0.3353
    1TMC1    C514343   1.848   0.585  13.739 -0.2512 -0.0090  0.0641
    1TMC1    C614344   1.896   0.700  13.806 -0.3328 -0.1985  0.6221
    1TMC1     C14345   2.131   0.502  13.531  0.0021  0.0021  0.2561
    1TMC1     O14346   2.082   0.444  13.434 -0.5629 -0.0768  0.4858
    1TMC1     H14347   2.204   0.712  13.670  0.5008 -0.9762  2.1245
    1TMC1    H114348   1.908   0.429  13.594  2.1808  0.9689 -1.3899
    1TMC1    H214349   1.830   0.750  13.876  2.6922  4.1594  0.3403
    1TMC1    C714350   1.711   0.546  13.754 -0.2494 -0.3205  0.4647
    1TMC1    C814351   2.052   0.878  13.858  0.0124  0.3319  0.9310
    1TMC1    O114352   1.652   0.568  13.859 -0.4210 -0.0202  0.0381
    1TMC1    O214353   1.981   0.912  13.953  0.3925  0.2165 -0.8490
    1TMC1    O314354   1.679   0.458  13.650  0.6909 -0.0607  0.2356
    1TMC1    H314355   1.738   0.472  13.573 -1.1554 -0.0612 -1.1689
    1TMC1    O514356   2.137   0.957  13.791  0.5470  0.3511 -0.0155
    1TMC1    H514357   2.172   0.926  13.705  0.2526  0.5163 -0.1968
    2MPD2     C14358   2.349   0.366  13.379 -0.2072  0.3056  0.9591
    2MPD2    C114359   2.370   0.437  13.496 -0.2996  0.3774 -0.8160
    2MPD2    C214360   2.497   0.455  13.553 -0.0701  0.2408 -0.4002
    2MPD2    C314361   2.602   0.397  13.493 -0.1832 -0.6271 -0.0662
    2MPD2    C414362   2.579   0.324  13.374 -0.0181  0.7083  0.6275
    2MPD2    C514363   2.453   0.302  13.325  0.3069 -0.3842  0.7466
    2MPD2     H14364   2.519   0.528  13.630  1.8885 -2.3749  1.5334
    2MPD2    H114365   2.656   0.261  13.332 -1.3980 -0.2639 -0.4357
    2MPD2    H214366   2.247   0.353  13.343 -0.2732 -0.6143  1.4786
    2MPD2    H314367   2.440   0.234  13.242 -1.2752 -2.1111  2.4026
    2MPD2     N14368   2.731   0.413  13.555  0.5949 -0.0817 -1.1241
    2MPD2    H514369   2.733   0.445  13.651  0.2170 -0.7745 -0.8816
    2MPD2    N114370   2.263   0.515  13.562  0.7394  0.2903  0.5686
    2MPD2    H714371   2.274   0.548  13.657  2.2857  0.3565  0.3646
    3TCq1    O114372   3.245   0.124  13.800  0.1833 -0.2900 -0.3590
    3TCq1    C114373   3.262   0.188  13.681 -0.8526 -0.2616 -0.7424
    3TCq1    O214374   3.292   0.129  13.579 -0.6217 -0.2130  0.0274
    3TCq1    C214375   3.158   0.292  13.689  0.2614 -0.3937 -0.8074
    3TCq1    C314376   3.153   0.369  13.801  0.6357  0.5442  0.1998
    3TCq1    C414377   3.053   0.465  13.806 -0.4022 -0.5579 -0.4717
    3TCq1    C514378   2.954   0.468  13.708  0.8542  0.2045 -0.2593
    3TCq1    C614379   2.966   0.386  13.600  0.0992  0.6237 -0.6567
    3TCq1    C714380   3.066   0.296  13.584  0.0646 -0.9634 -0.5735
    3TCq1    C814381   2.855   0.366  13.510  0.3357 -0.0860 -0.1688
    3TCq1    O414382   2.872   0.300  13.405 -0.0512 -0.3405  0.5405
    3TCq1    C914383   3.052   0.553  13.921  0.5592  0.6744 -0.2496
    3TCq1    O514384   2.977   0.656  13.929  0.1744 -0.2450 -0.4656
    3TCq1    O614385   3.124   0.517  14.022  0.4078 -0.0211 -0.2047
    3TCq1    H114386   3.192   0.172  13.866 -0.3362 -1.5354  0.1318
    3TCq1    H214387   3.235   0.367  13.872 -0.1027  1.3676  1.0747
    3TCq1    H314388   2.880   0.546  13.715 -0.5007 -1.2202  1.1861
    3TCq1    H414389   3.080   0.242  13.492 -1.2979  0.4939 -1.6308
    1MPD2     C14390   1.846   1.296  15.060 -0.9186  0.3117 -0.4774
    1MPD2    C114391   1.718   1.248  15.069  0.8114  0.2500 -0.5011
    1MPD2    C214392   1.686   1.142  14.987  0.5388  0.0459  0.6206
    1MPD2    C314393   1.774   1.086  14.899  0.2329  0.4796 -0.0227
    1MPD2    C414394   1.900   1.138  14.888  0.0232 -0.0447  0.3738
    1MPD2    C514395   1.936   1.235  14.975 -0.5105 -0.0206  0.6445
    1MPD2     H14396   1.591   1.090  14.999  0.0387 -0.0943 -3.8825
    1MPD2    H114397   1.964   1.110  14.805  3.0622 -0.1194  2.7074
    1MPD2    H214398   1.886   1.374  15.124  1.3376 -0.4733 -0.8950
    1MPD2    H314399   2.039   1.267  14.984 -0.6894  1.2854 -1.8180
    1MPD2     N14400   1.745   0.975  14.813  0.1802  0.3602  0.0038
    1MPD2    H514401   1.822   0.926  14.768  0.1469 -0.5656  0.9336
    1MPD2    N114402   1.622   1.313  15.145 -0.4510 -0.0849  0.1628
    1MPD2    H714403   1.641   1.398  15.196  1.8092 -0.7783  0.4786
    2TMC3    C114404   1.412   1.375  15.217  0.3182  0.3124 -0.3371
    2TMC3    C214405   1.301   1.328  15.279 -0.1913 -0.6226  1.0598
    2TMC3    C314406   1.181   1.379  15.246  0.4412  0.5128 -1.0637
    2TMC3    C414407   1.412   1.477  15.124 -0.0124 -0.0634 -0.5987
    2TMC3    C514408   1.289   1.533  15.094 -0.1985  0.0508 -0.0838
    2TMC3    C614409   1.174   1.481  15.157 -0.0140 -0.3135 -0.3311
    2TMC3     C14410   1.496   1.266  15.173 -0.4512  0.7351 -0.0832
    2TMC3     O14411   1.446   1.153  15.172  0.8592 -0.0928 -0.0334
    2TMC3     H14412   1.315   1.237  15.337  0.4774 -0.1718  1.6160
    2TMC3    H114413   1.498   1.496  15.061  0.7925  0.2146  0.5775
    2TMC3    H214414   1.073   1.500  15.121 -0.9477 -1.6011  1.5513
    2TMC3    C714415   1.272   1.615  14.979  0.6760  0.3936 -0.1661
    2TMC3    C814416   1.085   1.287  15.202 -1.1118 -0.3629  0.3070
    2TMC3    O114417   1.176   1.597  14.906  0.4836  0.2006  0.2162
    2TMC3    O214418   0.965   1.311  15.192  0.0695  0.0146  0.2031
    3TCq1    O114419   2.166   2.464  14.792  0.3028  0.3816 -0.1687
    3TCq1    C114420   2.077   2.401  14.704 -0.2107  0.6750  0.0726
    3TCq1    O214421   2.020   2.454  14.611 -0.3370  0.0066 -0.1138
    3TCq1    C214422   2.032   2.263  14.748 -0.7814 -0.5745  0.5686
    3TCq1    C314423   2.105   2.189  14.838 -0.0361 -0.2328  0.2157
    3TCq1    C414424   2.078   2.058  14.853  0.0924  0.5288 -0.2526
    3TCq1    C514425   1.980   2.005  14.782  0.3354  0.0033  0.3009
    3TCq1    C614426   1.904   2.082  14.692  0.2750 -0.6983 -0.0763
    3TCq1    C714427   1.936   2.215  14.671  0.1481 -0.9496 -0.1633
    3TCq1    C814428   1.767   2.046  14.666 -0.1522  0.0190  0.4741
    3TCq1    O414429   1.713   2.106  14.574 -0.3371 -0.8202 -0.6158
    3TCq1    C914430   2.145   1.983  14.953 -0.4182 -0.1386 -0.0286
    3TCq1    O514431   2.210   2.052  15.041  0.7348  0.3743  0.3556
    3TCq1    O614432   2.076   1.881  14.984 -0.1801 -0.2270 -0.2596
    3TCq1    H114433   2.202   2.402  14.858  1.3371 -0.1627 -1.2597
    3TCq1    H214434   2.184   2.228  14.901 -0.3831 -0.1790  0.6193
    3TCq1    H314435   1.959   1.901  14.805 -4.4639  1.1623  1.2393
    3TCq1    H414436   1.869   2.278  14.612  1.3600  0.2788 -0.2147
    4MPD2     C14437   1.500   1.926  14.638 -0.0202  0.7893  0.0028
    4MPD2    C114438   1.584   1.898  14.741 -0.3314 -0.5153 -0.9451
    4MPD2    C214439   1.538   1.831  14.849 -0.2824  0.3094 -0.1323
    4MPD2    C314440   1.413   1.772  14.846 -0.3517 -0.2867 -0.0566
    4MPD2    C414441   1.325   1.806  14.744 -0.7098  0.1639 -0.2163
    4MPD2    C514442   1.370   1.882  14.641 -0.4809  0.5043  0.2951
    4MPD2     H14443   1.607   1.814  14.931  1.9823 -1.1681 -2.3363
    4MPD2    H114444   1.218   1.786  14.742 -0.5887 -0.5667  0.7591
    4MPD2    H214445   1.523   1.979  14.546 -0.0931 -1.0549 -1.0760
    4MPD2    H314446   1.303   1.920  14.564  1.6477 -1.7720 -2.6979
    4MPD2     N14447   1.379   1.700  14.964  0.2302 -0.6036 -0.1806
    4MPD2    H514448   1.438   1.697  15.047 -0.5646  3.4247  0.5227
    4MPD2    N114449   1.718   1.950  14.746 -0.4016  0.0792  0.1407
    4MPD2    H714450   1.768   1.918  14.829  1.1404 -0.8210 -1.1323
    5TMC2    C114451   1.385   0.704  14.728  0.7431  1.4495 -0.0702
    5TMC2    C214452   1.456   0.600  14.783  0.3948 -0.6197 -0.1167
    5TMC2    C314453   1.590   0.609  14.779 -0.9431  0.0078  0.2373
    5TMC2    C414454   1.448   0.812  14.675  0.3475  0.3607  0.4516
    5TMC2    C514455   1.586   0.830  14.697 -0.3273 -0.6935 -0.0456
    5TMC2    C614456   1.655   0.724  14.751 -0.3297  0.1112 -0.3397
    5TMC2     C14457   1.250   0.721  14.776 -0.5595 -0.1087 -0.0911
    5TMC2     O14458   1.188   0.622  14.817 -0.0504  0.2726  0.2204
    5TMC2     H14459   1.405   0.514  14.824 -0.2265 -0.9388 -1.5766
    5TMC2    H114460   1.382   0.882  14.625 -1.6539 -1.9423 -0.1248
    5TMC2    H214461   1.762   0.722  14.768 -0.8541 -1.1647  2.9528
    5TMC2    C714462   1.617   0.950  14.772  0.2874  0.9708  0.4744
    5TMC2    C814463   1.660   0.486  14.818 -0.9346  0.3621  1.1464
    5TMC2    O114464   1.516   1.019  14.790  0.4340  0.1436 -0.1525
    5TMC2    O214465   1.635   0.416  14.915 -0.8946  0.4006 -0.2713
    5TMC2    O514466   1.775   0.489  14.756 -0.0584  0.7940 -0.2307
    5TMC2    H514467   1.765   0.529  14.667  2.4366 -1.7675 -1.6792
    6MPD2     C14468   0.957   1.061  15.025 -0.0236  0.2871 -0.2482
    6MPD2    C114469   1.099   1.091  15.047  0.5813 -0.3364 -0.2177
    6MPD2    C214470   1.195   1.015  14.978 -0.3827 -0.3458 -0.1338
    6MPD2    C314471   1.158   0.915  14.890 -0.4353 -0.1913  0.0372
    6MPD2    C414472   1.027   0.889  14.870  0.0137 -0.3526 -0.1939
    6MPD2    C514473   0.929   0.958  14.933  0.1289  0.6420  0.1558
    6MPD2     H14474   1.298   1.051  14.984 -0.6151 -0.1829  3.1988
    6MPD2    H114475   1.003   0.813  14.797 -1.0749 -1.9698  1.8380
    6MPD2    H214476   0.877   1.102  15.085 -1.8106 -0.4654 -2.1056
    6MPD2    H314477   0.825   0.934  14.917 -0.1016  2.5495 -1.2115
    6MPD2     N14478   1.255   0.846  14.820 -0.0109 -0.5991 -0.4826
    6MPD2    H514479   1.348   0.887  14.817 -0.5215  0.6711  0.7621
    6MPD2    N114480   1.152   1.182  15.143  0.3182  0.5092  0.2587
    6MPD2    H714481   1.252   1.178  15.161  0.4662  0.5958 -0.5449
  945NH3     N114482   2.620   1.373  16.171  0.2900 -0.0531 -0.0967
  945NH3     H214483   2.632   1.273  16.168  1.2287  0.0229  0.9496
  945NH3     H314484   2.569   1.372  16.259  2.0355 -0.1820  0.9286
  945NH3     H414485   2.545   1.378  16.103  0.6099 -0.0160 -0.4467
  946SOD     NA14486   4.602   4.321  16.998 -0.0996  0.1435 -0.1326
  947SOD     NA14487   2.707   2.158  12.309 -0.2209 -0.1352 -0.5279
  948SOD     NA14488   3.013   2.768   5.412 -0.0300 -0.4549 -0.0981
  949SOD     NA14489   2.910   0.841   3.030 -0.0688 -0.0031  0.3900
  950SOD     NA14490   1.873   2.692  12.578  0.4761 -0.0188  0.1362
  951SOD     NA14491   2.600   1.178  16.936 -0.5827  0.3252 -0.0931
  952SOD     NA14492   4.580   3.007  15.953  0.1141  0.0012  0.1113
  953SOD     NA14493   2.151   1.882  15.194 -0.5283  0.1511 -0.1889
  954SOL     OW14494   2.806   4.725  14.931  0.4825 -0.4391 -0.2253
  954SOL    HW114495   2.850   4.643  14.907 -1.0782 -0.7061 -2.1536
  954SOL    HW214496   2.766   4.704  15.015 -0.1454  2.5385  0.2315
  955SOL     OW14497   2.839   3.298   6.577 -0.2033  0.2803 -0.2431
  955SOL    HW114498   2.850   3.353   6.499 -0.4713  0.3525 -0.2323
  955SOL    HW214499   2.744   3.283   6.584 -0.1417 -0.2141 -0.4657
  956SOL     OW14500   3.233   2.188   5.682  0.5303 -0.0161 -0.5808
  956SOL    HW114501   3.207   2.181   5.774  1.2994 -0.0777 -0.3712
  956SOL    HW214502   3.152   2.232   5.656 -0.9180 -0.7274  2.7536
  957SOL     OW14503   0.285   4.387   4.606  0.2585  0.0933  0.5665
  957SOL    HW114504   0.351   4.438   4.652  1.5193 -2.1096  1.2346
  957SOL    HW214505   0.250   4.338   4.681 -0.4269 -1.3376 -0.6802
  958SOL     OW14506   0.339   0.897   4.100 -0.2498 -0.6491  0.2632
  958SOL    HW114507   0.293   0.966   4.148 -0.3336  0.5379 -1.5541
  958SOL    HW214508   0.375   0.846   4.173  0.5941  2.1190  1.7759
  959SOL     OW14509   2.451   0.376   0.966 -0.1734  0.2973 -0.3450
  959SOL    HW114510   2.511   0.445   0.936 -1.0594  1.6103  0.9312
  959SOL    HW214511   2.520   0.320   1.002 -2.2034 -1.6194  0.5435
  960SOL     OW14512   2.178   2.402   6.535  0.2129  0.2041  0.0102
  960SOL    HW114513   2.236   2.372   6.604  0.7436  0.5717 -0.2717
  960SOL    HW214514   2.226   2.401   6.452 -0.1140 -0.6106 -0.1716
  961SOL     OW14515   0.472   1.560   2.693  0.1178 -0.0973 -0.4167
  961SOL    HW114516   0.430   1.634   2.736 -1.3586 -0.6660 -0.8800
  961SOL    HW214517   0.565   1.579   2.708  0.1800  0.3019 -1.3098
  962SOL     OW14518   0.358   0.871  14.408  0.1898 -0.0799 -0.0736
  962SOL    HW114519   0.389   0.931  14.341  1.8080 -1.1476 -0.2579
  962SOL    HW214520   0.379   0.927  14.483  1.9432 -0.1587 -0.5114
  963SOL     OW14521   1.107   4.164  11.419 -0.1820 -0.7013 -0.5615
  963SOL    HW114522   1.019   4.202  11.423  0.4104  0.8252 -1.7676
  963SOL    HW214523   1.158   4.242  11.394 -1.0828  0.1474  0.2598
  964SOL     OW14524   3.780   1.229   1.517  0.1713  0.3530  0.1274
  964SOL    HW114525   3.823   1.254   1.435 -1.1936  1.2050 -0.3403
  964SOL    HW214526   3.779   1.134   1.506 -0.1513  0.2790  0.7630
  965SOL     OW14527   2.244   0.540   4.448 -0.0533  0.0925 -0.2053
  965SOL    HW114528   2.323   0.541   4.393 -0.0912 -1.5074 -0.2905
  965SOL    HW214529   2.268   0.610   4.509 -0.3619  1.0489 -1.1769
  966SOL     OW14530   3.845   1.017   6.051 -0.0166  0.1667 -0.2463
  966SOL    HW114531   3.834   1.061   6.135  0.8750  2.0297 -1.1055
  966SOL    HW214532   3.904   0.943   6.066  2.4216  2.8347  3.1553
  967SOL     OW14533   0.301   3.217   8.596 -0.1314  0.1219  0.9637
  967SOL    HW114534   0.250   3.141   8.625  1.7609 -2.0326 -1.3456
  967SOL    HW214535   0.288   3.266   8.677 -0.7054 -3.6982  3.1960
  968SOL     OW14536   2.685   2.307   0.446 -0.3070  0.1681 -0.4149
  968SOL    HW114537   2.709   2.247   0.516  0.7551  2.1018  0.8677
  968SOL    HW214538   2.644   2.247   0.384  1.4383 -1.7589  0.2830
  969SOL     OW14539   1.728   2.924   9.293 -1.0865 -0.0648  0.0347
  969SOL    HW114540   1.767   2.903   9.378 -0.5928  0.7799  0.0215
  969SOL    HW214541   1.644   2.957   9.325 -2.2866 -2.7342 -0.4175
  970SOL     OW14542   1.717   0.886   9.569  0.3604  0.0786 -0.1426
  970SOL    HW114543   1.733   0.897   9.475 -1.5329  0.0459 -0.4558
  970SOL    HW214544   1.711   0.792   9.582 -1.8330 -0.1028 -2.6001
  971SOL     OW14545   0.270   3.781   7.921 -0.2628  0.7214 -0.0685
  971SOL    HW114546   0.302   3.800   8.009 -1.6450 -1.5959  0.9476
  971SOL    HW214547   0.177   3.792   7.942  0.2441  0.3314  2.3857
  972SOL     OW14548   2.605   0.749   7.826 -0.7836 -0.0050 -0.2864
  972SOL    HW114549   2.645   0.759   7.740  2.8270  1.9205  1.6500
  972SOL    HW214550   2.674   0.774   7.886 -1.7234 -2.0193  1.6421
  973SOL     OW14551   3.565   3.832   3.919 -0.0688  0.4118 -0.7183
  973SOL    HW114552   3.635   3.811   3.980  0.9788  0.8255 -1.7694
  973SOL    HW214553   3.584   3.922   3.891  0.9904  0.5876  0.5987
  974SOL     OW14554   0.920   1.946   8.081 -0.0856 -0.5504 -0.4455
  974SOL    HW114555   0.857   1.953   8.010 -0.5498 -0.6354 -0.0420
  974SOL    HW214556   0.933   1.851   8.082  1.0984 -0.3912 -0.3497
  975SOL     OW14557   0.087   1.113  17.125  0.4668  0.2390  0.4659
  975SOL    HW114558   0.078   1.206  17.108  1.5379  0.5593  1.6846
  975SOL    HW214559   0.045   1.089  17.042 -1.5382  1.7816  1.0240
  976SOL     OW14560   0.140   2.519  12.036  0.5854 -0.5444 -0.4279
  976SOL    HW114561   0.168   2.428  12.025 -0.3987 -0.9407  0.4213
  976SOL    HW214562   0.080   2.534  11.962 -1.2482 -1.3495  0.8950
  977SOL     OW14563   2.819   0.563   5.240 -0.0538 -0.3070  0.1816
  977SOL    HW114564   2.800   0.635   5.180  1.6438 -0.1700 -0.1756
  977SOL    HW214565   2.835   0.617   5.318  0.3429  1.1266 -0.9110
  978SOL     OW14566   3.087   2.378  15.649  0.3628  0.0830  0.0122
  978SOL    HW114567   3.102   2.417  15.735 -2.8784  1.8330 -0.2102
  978SOL    HW214568   3.180   2.363  15.631  0.0827 -1.9256  0.2817
  979SOL     OW14569   0.577   3.443  11.413  0.3064 -0.2605 -0.1711
  979SOL    HW114570   0.638   3.409  11.478 -0.6195  0.7257  1.2059
  979SOL    HW214571   0.562   3.525  11.459  1.2949  0.6097 -1.4191
  980SOL     OW14572   0.716   4.242  10.188  0.1253  0.3606 -0.1266
  980SOL    HW114573   0.691   4.304  10.120  0.9932 -0.3339 -1.0799
  980SOL    HW214574   0.789   4.191  10.151 -0.5198 -0.0448 -0.8237
  981SOL     OW14575   1.278   1.000   2.625  0.2666  0.1688 -0.2154
  981SOL    HW114576   1.229   1.055   2.686  0.4077 -1.7824  1.6243
  981SOL    HW214577   1.362   1.046   2.620  1.0646 -1.2778 -0.1524
  982SOL     OW14578   2.441   1.626  16.755  0.4562  0.0630 -0.1401
  982SOL    HW114579   2.383   1.698  16.730  2.2824  2.2283  1.8046
  982SOL    HW214580   2.485   1.679  16.822  0.8925  0.3505 -0.6548
  983SOL     OW14581   4.346   3.672   6.778  0.5607 -0.8853  0.2284
  983SOL    HW114582   4.324   3.734   6.846  0.2501 -0.6446 -0.0930
  983SOL    HW214583   4.285   3.600   6.797 -2.4505  1.0891 -1.9103
  984SOL     OW14584   2.607   3.882   5.961  0.9487  0.7881 -0.6980
  984SOL    HW114585   2.584   3.929   5.881 -1.3568  0.5223 -0.1841
  984SOL    HW214586   2.637   3.801   5.920  1.7975  1.4645 -1.4144
  985SOL     OW14587   2.314   2.202   8.807  1.1688 -0.1006  0.1343
  985SOL    HW114588   2.313   2.241   8.894  2.9983 -0.2265  0.2136
  985SOL    HW214589   2.253   2.129   8.819  1.1180  0.2683  2.1328
  986SOL     OW14590   3.293   4.250  17.179 -0.4061 -0.0334 -0.2433
  986SOL    HW114591   3.340   4.331  17.158  1.5990 -1.0714  0.2561
  986SOL    HW214592   3.251   4.285  17.257 -0.8674 -2.5863  0.6601
  987SOL     OW14593   3.756   2.428   6.607  0.0268  0.1021  0.6576
  987SOL    HW114594   3.683   2.490   6.607 -0.1585 -0.1028 -1.3472
  987SOL    HW214595   3.824   2.472   6.556  0.8397  2.0881  3.4489
  988SOL     OW14596   1.343   4.185   8.095 -0.1176 -0.3949 -0.3676
  988SOL    HW114597   1.332   4.253   8.028 -3.1080 -1.5652 -1.0505
  988SOL    HW214598   1.439   4.192   8.099 -0.0124 -1.3281 -1.2392
  989SOL     OW14599   4.034   2.030   7.502 -0.2523  0.9168 -0.1176
  989SOL    HW114600   4.085   2.049   7.581  0.0976  2.3831 -0.6882
  989SOL    HW214601   4.026   1.936   7.517  1.9281  0.8267  0.4758
  990SOL     OW14602   3.287   3.389   6.483 -0.1741  0.3023 -0.2359
  990SOL    HW114603   3.286   3.354   6.395  0.7366 -1.5930  0.5111
  990SOL    HW214604   3.359   3.451   6.473  0.0278  0.2786  1.0468
  991SOL     OW14605   1.873   4.156   8.692 -0.3630 -0.4392  0.1015
  991SOL    HW114606   1.864   4.252   8.691  1.8388 -0.2130  0.8793
  991SOL    HW214607   1.875   4.146   8.787 -0.9461  0.8353  0.2460
  992SOL     OW14608   4.674   2.072   7.396  0.8974  0.4455 -0.2781
  992SOL    HW114609   4.623   2.112   7.326  0.3434  1.3423  0.6257
  992SOL    HW214610   4.694   1.987   7.357 -0.8358 -0.6815  1.2578
  993SOL     OW14611   0.095   0.696  15.574  0.2912  0.0594 -0.1204
  993SOL    HW114612   0.085   0.680  15.481  0.8681  1.1566 -0.3713
  993SOL    HW214613   0.037   0.635  15.620  1.8933 -0.6857  0.9467
  994SOL     OW14614   3.236   0.869   4.638 -1.0415  0.1060  0.0872
  994SOL    HW114615   3.215   0.808   4.709 -0.7425  0.0481  0.1248
  994SOL    HW214616   3.186   0.944   4.672 -2.6985 -0.6716 -0.6468
  995SOL     OW14617   4.136   3.693   4.803  0.4818  0.7933 -0.0548
  995SOL    HW114618   4.150   3.626   4.737  1.4500  1.2875 -0.3478
  995SOL    HW214619   4.227   3.717   4.820  1.3650 -2.0945 -0.7676
  996SOL     OW14620   1.945   4.124   9.731  0.1458  0.4230  0.5865
  996SOL    HW114621   1.877   4.104   9.796  0.9157 -1.1379  0.9186
  996SOL    HW214622   2.015   4.095   9.791  0.3199 -4.5865 -2.0227
  997SOL     OW14623   4.352   3.192  13.992  0.4207 -0.1947  0.1336
  997SOL    HW114624   4.312   3.111  13.961  1.6188 -0.7639  0.1004
  997SOL    HW214625   4.294   3.262  13.960 -0.4585 -1.6591 -1.4445
  998SOL     OW14626   1.658   2.158  11.275  0.3822  0.2794 -0.0858
  998SOL    HW114627   1.719   2.122  11.339  0.7530 -0.6072 -0.9337
  998SOL    HW214628   1.711   2.164  11.195 -0.4662  2.0109 -0.5131
  999SOL     OW14629   2.597   1.256  11.841 -0.1687  0.3008 -0.1132
  999SOL    HW114630   2.651   1.262  11.762 -0.1345 -1.9791 -0.2674
  999SOL    HW214631   2.581   1.161  11.842 -0.1266  0.2656 -2.1235
 1000SOL     OW14632   3.183   4.592   4.729 -0.0965 -0.5314 -0.1187
 1000SOL    HW114633   3.221   4.514   4.770 -1.2673 -0.7682  0.5520
 1000SOL    HW214634   3.253   4.627   4.675  1.6640 -1.8189  1.3163
 1001SOL     OW14635   1.234   4.154   8.352  0.5401  0.3119 -0.2711
 1001SOL    HW114636   1.290   4.165   8.275 -0.2937 -0.3082 -0.9607
 1001SOL    HW214637   1.149   4.171   8.311 -0.5616 -1.4382  1.3065
 1002SOL     OW14638   4.638   3.105   7.707  0.3155 -0.1385  0.0549
 1002SOL    HW114639   4.544   3.092   7.709  0.3859 -0.0562  3.5074
 1002SOL    HW214640   4.642   3.169   7.636 -0.0968  1.9751  1.9312
 1003SOL     OW14641   3.365   1.452  10.194 -0.1184 -0.0133 -0.4684
 1003SOL    HW114642   3.286   1.398  10.184 -1.6318  2.0823  0.1288
 1003SOL    HW214643   3.416   1.389  10.244 -0.1996  1.2189  1.1530
 1004SOL     OW14644   4.170   4.533   7.834 -0.5540  0.3266 -0.0861
 1004SOL    HW114645   4.099   4.574   7.883 -0.2209 -0.6339  1.2130
 1004SOL    HW214646   4.245   4.555   7.889 -0.1836  0.2784 -0.5680
 1005SOL     OW14647   4.608   0.569   7.123  0.4650  0.5131 -0.0585
 1005SOL    HW114648   4.688   0.537   7.081  1.2687 -0.0258  1.8796
 1005SOL    HW214649   4.543   0.505   7.092  2.6371 -1.0571 -1.4288
 1006SOL     OW14650   1.778   3.129   2.144  0.1707  0.3557 -0.0537
 1006SOL    HW114651   1.872   3.144   2.152 -0.0646  0.8679  1.6894
 1006SOL    HW214652   1.775   3.035   2.162 -0.0031 -0.0595 -2.1853
 1007SOL     OW14653   4.017   0.419   2.608 -0.4122 -0.3694 -0.1308
 1007SOL    HW114654   3.961   0.494   2.589 -1.0315 -1.1322 -1.2844
 1007SOL    HW214655   4.044   0.429   2.700 -0.5482 -0.4461 -0.0829
 1008SOL     OW14656   2.448   2.071   9.372 -0.4667  0.0702 -0.4985
 1008SOL    HW114657   2.368   2.123   9.368  0.0983  0.9315 -0.4581
 1008SOL    HW214658   2.517   2.136   9.366  0.3718 -0.9263 -1.5756
 1009SOL     OW14659   1.142   3.775   6.898  0.5068 -0.1582  0.3436
 1009SOL    HW114660   1.071   3.838   6.892  0.8564  0.4435  2.3799
 1009SOL    HW214661   1.198   3.833   6.950  1.9663 -0.1663 -1.2290
 1010SOL     OW14662   2.982   1.894   4.547  0.2440 -0.2436 -0.1459
 1010SOL    HW114663   3.024   1.869   4.630 -1.5866 -2.2871  0.1608
 1010SOL    HW214664   2.946   1.979   4.571  2.2222  0.2254  1.1826
 1011SOL     OW14665   2.917   4.717   5.597 -0.2390  0.2170 -0.7774
 1011SOL    HW114666   2.995   0.034   5.613 -0.4052 -0.3474  1.9118
 1011SOL    HW214667   2.930   4.658   5.523  2.0498 -2.5694  1.7873
 1012SOL     OW14668   3.766   0.535   2.209 -0.3698  0.4704 -0.0589
 1012SOL    HW114669   3.768   0.446   2.176  1.0907  0.4628  0.0287
 1012SOL    HW214670   3.810   0.584   2.139  1.5925 -1.5949 -0.2540
 1013SOL     OW14671   1.206   1.292   1.076  0.1199 -0.2960  0.0043
 1013SOL    HW114672   1.159   1.218   1.115  0.2462  1.1034  2.8615
 1013SOL    HW214673   1.233   1.331   1.159 -1.5413 -0.4320  0.6247
 1014SOL     OW14674   1.511   0.699   4.112 -0.2110 -0.1531  0.5383
 1014SOL    HW114675   1.597   0.740   4.103  0.0125 -0.5964  0.6263
 1014SOL    HW214676   1.446   0.764   4.087 -0.4067  0.2622  2.1855
 1015SOL     OW14677   2.881   4.413  16.320 -0.0782 -0.0705  0.6935
 1015SOL    HW114678   2.933   4.485  16.285 -0.8830  2.2004  4.2104
 1015SOL    HW214679   2.915   4.338  16.271  0.5652  0.6959 -0.0375
 1016SOL     OW14680   0.921   3.438   1.399 -0.0865 -0.1699  0.1321
 1016SOL    HW114681   0.871   3.508   1.442 -0.8822 -0.3017 -0.5780
 1016SOL    HW214682   0.953   3.479   1.319  1.7271 -0.6106  0.6397
 1017SOL     OW14683   3.890   0.286   1.985  0.2660 -0.3291  0.3184
 1017SOL    HW114684   3.910   0.265   1.894 -0.2367 -1.3525  0.4438
 1017SOL    HW214685   3.798   0.313   1.983  1.0471  2.2048 -1.3831
 1018SOL     OW14686   2.130   0.807   7.844  0.3554  0.0041  0.1265
 1018SOL    HW114687   2.207   0.784   7.791  0.1963 -0.3812  0.0650
 1018SOL    HW214688   2.131   0.741   7.913 -0.3074 -0.9625 -0.7769
 1019SOL     OW14689   3.485   3.768   4.512  0.4724  0.4584 -1.1541
 1019SOL    HW114690   3.444   3.696   4.463  0.2893 -1.3879  1.7095
 1019SOL    HW214691   3.431   3.835   4.470 -1.7335 -0.5663  0.0438
 1020SOL     OW14692   0.975   2.331   0.360  0.4028  0.1023  0.2839
 1020SOL    HW114693   0.941   2.403   0.413 -1.8817 -1.6581  1.1573
 1020SOL    HW214694   0.994   2.265   0.426 -0.3906 -0.5775 -0.1663
 1021SOL     OW14695   3.876   3.493   7.406 -0.3516  0.3057 -0.3459
 1021SOL    HW114696   3.892   3.483   7.312  0.4699 -0.1381 -0.1538
 1021SOL    HW214697   3.801   3.552   7.411  0.9544  1.7765  1.7045
 1022SOL     OW14698   1.297   0.473   4.484  0.0847  0.4748 -0.3372
 1022SOL    HW114699   1.289   0.397   4.542 -1.5089  1.2468  0.4450
 1022SOL    HW214700   1.320   0.545   4.543 -0.7275  0.3281  0.1617
 1023SOL     OW14701   3.458   3.224   4.103 -0.0190 -0.1857 -0.6679
 1023SOL    HW114702   3.388   3.224   4.038  0.7470 -2.1821 -1.4999
 1023SOL    HW214703   3.404   3.229   4.182  0.7203  0.6994 -0.2217
 1024SOL     OW14704   1.095   4.479   9.506  0.1636 -0.8185 -0.2748
 1024SOL    HW114705   1.149   4.435   9.571 -1.9241 -1.9860  0.6911
 1024SOL    HW214706   1.150   4.471   9.428  1.4043  0.5290  0.4701
 1025SOL     OW14707   4.200   0.168   7.972 -0.1706  0.4648  0.3601
 1025SOL    HW114708   4.197   0.074   7.955  1.1229  0.7116 -1.1817
 1025SOL    HW214709   4.255   0.166   8.050 -0.8418  2.5246  0.9110
 1026SOL     OW14710   3.837   4.067   3.485 -0.1026  0.1410 -0.2590
 1026SOL    HW114711   3.912   4.114   3.448 -1.1160  0.4505 -1.9186
 1026SOL    HW214712   3.789   4.045   3.405  0.7766 -1.3146 -0.4040
 1027SOL     OW14713   1.653   0.743   1.566  0.4112 -0.0915 -0.4553
 1027SOL    HW114714   1.722   0.710   1.624 -1.6878 -1.6892  1.1470
 1027SOL    HW214715   1.685   0.707   1.484  0.9629 -1.2115  0.2473
 1028SOL     OW14716   4.677   1.315   7.462  0.0766  0.2234 -0.2380
 1028SOL    HW114717   4.693   1.280   7.550 -1.8176 -0.0394 -0.0002
 1028SOL    HW214718   4.646   1.402   7.487 -2.5032  0.1680 -3.2976
 1029SOL     OW14719   2.253   3.932   8.580  0.1498 -0.3566 -0.6351
 1029SOL    HW114720   2.323   3.881   8.538  1.8824 -0.1325  1.9855
 1029SOL    HW214721   2.301   4.004   8.621  0.8214 -1.1540 -0.0125
 1030SOL     OW14722   2.258   4.238   9.822  0.1637  0.2128  0.7782
 1030SOL    HW114723   2.243   4.325   9.785  0.2782 -0.0439  0.1225
 1030SOL    HW214724   2.235   4.262   9.912 -0.6334 -0.8019  0.8507
 1031SOL     OW14725   3.716   0.804   7.605  0.3355  0.1845  0.0245
 1031SOL    HW114726   3.644   0.804   7.543  0.7468 -3.5232 -0.4513
 1031SOL    HW214727   3.693   0.880   7.659 -0.5657  1.2733 -1.9266
 1032SOL     OW14728   1.569   1.218  14.459  0.6184  0.3867 -0.4342
 1032SOL    HW114729   1.590   1.277  14.387 -1.3326  1.4245 -0.1612
 1032SOL    HW214730   1.653   1.177  14.480 -0.2740 -1.0917  0.2562
 1033SOL     OW14731   1.740   0.987   4.444 -0.5181  0.3592  0.2676
 1033SOL    HW114732   1.730   0.894   4.467 -2.7151  0.3733 -0.6546
 1033SOL    HW214733   1.761   1.017   4.533  0.0549 -1.2756  0.6855
 1034SOL     OW14734   3.877   0.543  17.366  0.3751 -0.7147  0.0005
 1034SOL    HW114735   3.831   0.524  17.284 -0.1761 -0.2796  0.2052
 1034SOL    HW214736   3.815   0.595  17.418  1.3229 -0.0539  0.4771
 1035SOL     OW14737   1.311   3.696   2.503 -0.6207 -0.1896  0.1209
 1035SOL    HW114738   1.357   3.779   2.491  1.3461 -1.3368 -0.3366
 1035SOL    HW214739   1.378   3.634   2.532  1.2502  1.8471  0.1102
 1036SOL     OW14740   0.172   2.780   9.642  0.1322  0.3365 -0.0455
 1036SOL    HW114741   0.223   2.843   9.693  1.1173 -0.6643  0.2105
 1036SOL    HW214742   0.087   2.824   9.636 -0.4351 -0.9268 -1.1775
 1037SOL     OW14743   3.645   4.007   6.806 -0.0802  0.5552 -0.0183
 1037SOL    HW114744   3.672   3.989   6.896 -0.8862  2.6723  0.6474
 1037SOL    HW214745   3.562   3.959   6.798  0.0228  0.5337 -1.0398
 1038SOL     OW14746   0.853   3.880   3.529  0.0060  0.5169  0.4609
 1038SOL    HW114747   0.946   3.886   3.507  1.0316  0.1652  4.8361
 1038SOL    HW214748   0.828   3.810   3.469  1.0501 -1.3935  2.2623
 1039SOL     OW14749   2.818   4.494   1.186 -0.0694  0.7164  0.2133
 1039SOL    HW114750   2.777   4.419   1.228  0.5608 -0.2558 -0.9415
 1039SOL    HW214751   2.886   4.512   1.251 -0.8887 -1.7495  1.7515
 1040SOL     OW14752   2.082   1.414   7.007 -0.0605 -0.4724 -0.1185
 1040SOL    HW114753   2.169   1.409   7.048  0.0237  0.8147 -0.1522
 1040SOL    HW214754   2.024   1.422   7.082 -2.9370 -1.8509 -2.2072
 1041SOL     OW14755   0.555   4.672   3.763  0.1310 -0.0836 -0.2117
 1041SOL    HW114756   0.637   4.659   3.811  1.1465  3.2369 -1.0758
 1041SOL    HW214757   0.496   4.676   3.839  0.2079 -0.1536 -0.1486
 1042SOL     OW14758   2.543   0.178   8.517  0.1529 -0.4079  0.2976
 1042SOL    HW114759   2.609   0.169   8.586  0.2634 -2.0325 -0.0304
 1042SOL    HW214760   2.457   0.165   8.558 -0.1078  1.2422  0.2646
 1043SOL     OW14761   0.428   1.000   4.460  0.1817  0.3150  0.4084
 1043SOL    HW114762   0.442   0.919   4.412  0.7337  1.8907 -2.0985
 1043SOL    HW214763   0.337   0.979   4.479  1.2423 -0.5621  4.6638
 1044SOL     OW14764   1.455   4.535   2.143 -0.0080  0.1116 -0.6716
 1044SOL    HW114765   1.366   4.519   2.112 -0.0841  0.9972 -0.9267
 1044SOL    HW214766   1.504   4.528   2.061 -0.4892 -0.9351 -0.8675
 1045SOL     OW14767   0.532   3.459   4.904 -0.1231 -0.0443 -0.6420
 1045SOL    HW114768   0.551   3.379   4.856  0.3116 -1.7680  2.4597
 1045SOL    HW214769   0.607   3.518   4.895  0.0354 -0.1877 -0.2766
 1046SOL     OW14770   1.345   1.263   9.750  0.0574  0.3083 -0.2052
 1046SOL    HW114771   1.258   1.282   9.714 -0.2581  0.2579  0.5332
 1046SOL    HW214772   1.338   1.278   9.844  0.4382 -0.6875 -0.0142
 1047SOL     OW14773   3.341   1.163   4.832 -0.3787 -0.4379  0.5623
 1047SOL    HW114774   3.272   1.219   4.797 -0.3175  0.6688  2.2050
 1047SOL    HW214775   3.396   1.225   4.880  0.3391 -0.3231 -0.4069
 1048SOL     OW14776   1.973   0.461   2.058  0.0922 -0.4300  0.1272
 1048SOL    HW114777   1.881   0.478   2.038  0.1377 -1.6696 -1.2462
 1048SOL    HW214778   1.968   0.369   2.084 -0.8568 -0.3280  0.3034
 1049SOL     OW14779   0.678   3.993   3.311 -0.1581 -0.1406 -0.5101
 1049SOL    HW114780   0.690   3.920   3.371  0.6339 -0.4969 -1.1084
 1049SOL    HW214781   0.619   4.053   3.357 -2.0246 -1.3923 -1.2635
 1050SOL     OW14782   0.606   0.778   5.607  0.5321 -0.2166 -0.0031
 1050SOL    HW114783   0.672   0.710   5.598 -0.1609 -0.9113  0.2093
 1050SOL    HW214784   0.578   0.775   5.516 -2.2125 -0.7612  0.8428
 1051SOL     OW14785   0.435   3.003   2.747  0.0005  0.3408  0.4283
 1051SOL    HW114786   0.406   2.980   2.659  0.8818 -0.8437  0.4423
 1051SOL    HW214787   0.482   2.924   2.773 -1.1406 -0.5940 -0.3443
 1052SOL     OW14788   1.923   0.383   8.979 -0.3625 -0.2563 -0.2009
 1052SOL    HW114789   1.928   0.365   9.073 -2.9589 -0.7175 -0.1399
 1052SOL    HW214790   2.011   0.356   8.955  0.0616  0.2575  0.7904
 1053SOL     OW14791   0.288   1.328   4.667  0.1132 -0.1023  0.5300
 1053SOL    HW114792   0.201   1.321   4.628  0.5350  2.1913 -0.8521
 1053SOL    HW214793   0.268   1.413   4.706  0.8498 -0.0930  0.8866
 1054SOL     OW14794   1.684   0.748   7.235  0.0016  0.2195  0.1477
 1054SOL    HW114795   1.665   0.664   7.277  1.0826 -1.8340 -3.4792
 1054SOL    HW214796   1.721   0.727   7.150 -2.4900  1.6039 -1.2561
 1055SOL     OW14797   2.648   3.794   3.320 -0.3166  0.1028 -0.0778
 1055SOL    HW114798   2.572   3.764   3.270 -2.5669  1.6610  2.3785
 1055SOL    HW214799   2.694   3.837   3.248  1.7083  0.0661  1.1916
 1056SOL     OW14800   0.660   4.666   8.558 -0.0991  0.2553  0.3787
 1056SOL    HW114801   0.711   4.696   8.633 -0.8077  2.6846 -0.1075
 1056SOL    HW214802   0.585   4.621   8.596  0.1279  1.0659  1.7603
 1057SOL     OW14803   3.474   0.600   9.866  0.0949 -0.1517 -0.3681
 1057SOL    HW114804   3.392   0.552   9.874 -0.8166  1.2593 -1.1340
 1057SOL    HW214805   3.461   0.654   9.788 -3.0566  2.5508  2.0672
 1058SOL     OW14806   3.165   3.895   6.183 -0.1436  0.5353 -0.2211
 1058SOL    HW114807   3.231   3.925   6.246  0.2220  1.9672 -1.2865
 1058SOL    HW214808   3.135   3.976   6.142 -1.8064 -0.0174 -0.0979
 1059SOL     OW14809   4.684   1.379   9.735 -0.1546 -0.5004 -0.6069
 1059SOL    HW114810   4.617   1.352   9.798  0.5914  1.6934  1.1086
 1059SOL    HW214811   4.711   1.461   9.777 -0.4564  0.0439 -1.4611
 1060SOL     OW14812   1.025   2.383   4.535 -0.1475 -0.3567 -0.0489
 1060SOL    HW114813   0.973   2.307   4.561 -0.5538  0.1398  0.6069
 1060SOL    HW214814   1.061   2.360   4.450 -0.7847  1.1889 -0.7296
 1061SOL     OW14815   2.243   3.931   3.634  0.1961  0.0096 -0.3104
 1061SOL    HW114816   2.254   3.844   3.595 -0.7379 -0.6882  0.9655
 1061SOL    HW214817   2.284   3.928   3.720 -1.4942 -2.8875  0.4060
 1062SOL     OW14818   0.185   0.776   7.233 -0.3832  0.0397 -0.4088
 1062SOL    HW114819   0.210   0.684   7.220  1.0017  0.3526  0.0656
 1062SOL    HW214820   0.223   0.790   7.320  1.6870 -0.3846 -1.2603
 1063SOL     OW14821   2.869   4.534  10.866 -0.5521  0.0734  0.5765
 1063SOL    HW114822   2.784   4.529  10.910 -0.7162  0.3939  0.2937
 1063SOL    HW214823   2.879   4.627  10.846  2.7687  0.4082  3.7503
 1064SOL     OW14824   4.328   1.273   4.103 -0.8419 -0.0445 -0.3822
 1064SOL    HW114825   4.278   1.222   4.039 -1.6979  0.6496 -0.2709
 1064SOL    HW214826   4.263   1.326   4.149 -0.9052  0.1527 -0.6936
 1065SOL     OW14827   1.213   0.537  12.648 -0.1284 -0.8909  0.2642
 1065SOL    HW114828   1.237   0.532  12.555 -1.2651  0.0152 -0.0905
 1065SOL    HW214829   1.245   0.624  12.670 -2.0899  0.0047 -0.4193
 1066SOL     OW14830   1.492   1.015   5.267 -0.0804 -0.2395  0.8933
 1066SOL    HW114831   1.472   0.965   5.188  0.9757  2.2191 -0.9329
 1066SOL    HW214832   1.418   0.995   5.324 -0.3621  0.0748  0.6413
 1067SOL     OW14833   0.756   4.649   3.348  0.1012 -0.5156 -0.2203
 1067SOL    HW114834   0.739   4.649   3.254  1.5787 -0.0291 -0.4828
 1067SOL    HW214835   0.848   4.673   3.353  0.6478 -2.2351 -2.0207
 1068SOL     OW14836   1.837   0.605   1.360  0.0765 -0.3302  0.5798
 1068SOL    HW114837   1.861   0.513   1.372  2.1875  0.2021  0.4642
 1068SOL    HW214838   1.919   0.650   1.339 -1.4807  1.7171 -1.1668
 1069SOL     OW14839   0.931   1.987   9.494  0.0579  0.2136 -0.2782
 1069SOL    HW114840   0.959   2.011   9.405  0.2467 -3.0772 -1.1132
 1069SOL    HW214841   0.943   2.062   9.552 -0.4726  1.0422 -1.2374
 1070SOL     OW14842   4.164   0.532   1.304  0.4443 -0.1919  0.2452
 1070SOL    HW114843   4.214   0.473   1.362 -0.4979 -0.7366  0.4987
 1070SOL    HW214844   4.094   0.562   1.362 -2.3490  0.4512 -3.5018
 1071SOL     OW14845   2.436   3.442   8.596 -0.0878  1.1050  0.4499
 1071SOL    HW114846   2.365   3.388   8.561  0.3466  1.4346 -0.9412
 1071SOL    HW214847   2.496   3.436   8.521 -0.8287 -0.3083 -0.0270
 1072SOL     OW14848   3.758   0.592  16.229 -0.6064  0.1329 -0.1860
 1072SOL    HW114849   3.839   0.617  16.273 -0.4519 -1.1072  0.2110
 1072SOL    HW214850   3.724   0.672  16.188  1.3266  0.7606 -0.5785
 1073SOL     OW14851   1.467   2.532   2.611  0.0565  0.2558  0.1391
 1073SOL    HW114852   1.440   2.488   2.531 -0.7192 -0.2860  0.6980
 1073SOL    HW214853   1.557   2.550   2.583  0.3693 -0.9290  0.4122
 1074SOL     OW14854   2.941   2.912   0.761 -0.0236  0.1878 -0.2523
 1074SOL    HW114855   2.979   2.835   0.720  0.5514  0.6529 -0.6009
 1074SOL    HW214856   2.972   2.987   0.710 -0.7584  0.9634  0.4282
 1075SOL     OW14857   1.848   2.124  11.719  0.0260 -0.1457  0.4830
 1075SOL    HW114858   1.937   2.099  11.745  0.7689 -0.1489 -2.1173
 1075SOL    HW214859   1.840   2.214  11.750  0.8488  0.3132 -0.6582
 1076SOL     OW14860   4.503   3.728  16.418 -0.4950 -0.2710 -0.3945
 1076SOL    HW114861   4.550   3.666  16.362 -0.2585 -0.6248  0.1960
 1076SOL    HW214862   4.423   3.679  16.436  0.1261 -0.5680  1.5612
 1077SOL     OW14863   3.686   2.100   7.971 -0.3420  0.1080 -0.4591
 1077SOL    HW114864   3.617   2.053   8.017 -2.1927 -0.1948 -3.5039
 1077SOL    HW214865   3.712   2.175   8.023 -1.7499 -0.0117  0.4217
 1078SOL     OW14866   0.723   3.547   8.688 -0.2745 -0.4922 -0.1164
 1078SOL    HW114867   0.675   3.546   8.771  0.4569 -1.1198  0.2986
 1078SOL    HW214868   0.677   3.615   8.639  0.4585  1.1762  1.4655
 1079SOL     OW14869   0.721   0.556   5.294  0.0658 -0.1965  0.0747
 1079SOL    HW114870   0.760   0.579   5.210  1.9148 -2.4401  0.3324
 1079SOL    HW214871   0.788   0.581   5.357  2.3707 -0.9945 -2.0615
 1080SOL     OW14872   1.699   4.256   2.615 -0.2891  0.4632 -0.0059
 1080SOL    HW114873   1.753   4.218   2.684  1.0889  0.4106 -1.1181
 1080SOL    HW214874   1.745   4.340   2.609 -0.7547  0.5351 -2.5525
 1081SOL     OW14875   2.472   2.060   5.369  0.0676 -0.0475 -0.1806
 1081SOL    HW114876   2.444   2.026   5.453  2.2439  0.5549  0.7865
 1081SOL    HW214877   2.557   2.097   5.394  0.0192  1.0298 -1.5234
 1082SOL     OW14878   4.562   4.623   9.461  0.5590  0.8296 -0.2590
 1082SOL    HW114879   4.522   4.670   9.534  1.0283 -2.5683  2.1666
 1082SOL    HW214880   4.488   4.567   9.438 -0.0075  1.0561  1.0267
 1083SOL     OW14881   3.562   1.834   8.588 -0.4395 -0.1393 -0.4030
 1083SOL    HW114882   3.558   1.739   8.600 -0.5318 -0.4391 -2.9008
 1083SOL    HW214883   3.612   1.865   8.663 -1.8126 -0.3257  0.6046
 1084SOL     OW14884   1.743   1.698   2.192 -0.2089  0.0707  0.1091
 1084SOL    HW114885   1.650   1.676   2.197 -0.2310  0.4314  1.2894
 1084SOL    HW214886   1.773   1.629   2.250  0.1758 -1.0352 -1.4068
 1085SOL     OW14887   4.030   0.345  10.785  0.4284 -0.2090  0.3145
 1085SOL    HW114888   4.016   0.267  10.732 -2.9369 -0.2376  1.2561
 1085SOL    HW214889   3.962   0.397  10.743  0.2805 -0.6272  0.0395
 1086SOL     OW14890   3.972   1.577   2.462  0.7848 -0.4201  0.2783
 1086SOL    HW114891   4.023   1.535   2.532  1.3642 -0.2577 -0.0491
 1086SOL    HW214892   3.914   1.504   2.442  1.4391 -1.6214  2.6929
 1087SOL     OW14893   3.308   3.854  12.501 -0.1493 -0.5108  0.1563
 1087SOL    HW114894   3.333   3.800  12.426 -0.2468  0.3108 -0.4668
 1087SOL    HW214895   3.361   3.804  12.563  0.4860  1.7965  1.5012
 1088SOL     OW14896   4.411   1.906  14.166 -0.3299  0.3787  0.0157
 1088SOL    HW114897   4.316   1.905  14.166 -0.2992 -1.5196  2.5025
 1088SOL    HW214898   4.427   1.816  14.137  1.0986  1.1629 -1.6260
 1089SOL     OW14899   4.121   2.961   4.218 -0.5637 -0.2002  0.5920
 1089SOL    HW114900   4.114   3.010   4.136  0.8684 -1.8322 -0.5074
 1089SOL    HW214901   4.212   2.934   4.217 -0.0392  1.5428  2.3862
 1090SOL     OW14902   4.437   3.927   9.752 -0.2564  0.5365 -0.4594
 1090SOL    HW114903   4.371   3.961   9.813  2.1263 -0.4861  2.6653
 1090SOL    HW214904   4.521   3.926   9.798 -0.0425 -0.4974 -0.8884
 1091SOL     OW14905   3.103   2.353   3.289 -0.0742 -0.7373  0.0202
 1091SOL    HW114906   3.060   2.417   3.232 -1.4698 -0.0768  1.8104
 1091SOL    HW214907   3.034   2.287   3.295  0.8971 -1.4023  3.5906
 1092SOL     OW14908   3.070   2.848   4.562  0.3697 -0.0884 -0.0348
 1092SOL    HW114909   3.011   2.856   4.487  1.1018 -2.1714 -0.8436
 1092SOL    HW214910   3.131   2.785   4.521 -0.6524  0.3778 -2.2599
 1093SOL     OW14911   2.872   2.014   2.145 -0.1354 -0.5183 -0.1288
 1093SOL    HW114912   2.818   1.943   2.178  0.8071 -1.0435  0.3061
 1093SOL    HW214913   2.818   2.025   2.066 -0.8251 -2.6791  0.0571
 1094SOL     OW14914   1.619   4.713   5.169 -0.6182 -0.3345  0.0238
 1094SOL    HW114915   1.574   4.722   5.085 -0.8879  0.2403  0.2259
 1094SOL    HW214916   1.541   4.720   5.224 -1.1326 -1.2988 -0.5902
 1095SOL     OW14917   2.285   3.561   7.121  0.7184  0.1861 -0.0532
 1095SOL    HW114918   2.232   3.631   7.083 -2.2576 -0.3238  3.1146
 1095SOL    HW214919   2.213   3.503   7.146  0.9507  0.7486  1.9081
 1096SOL     OW14920   3.859   2.239   7.489  0.3100  0.1098  0.4039
 1096SOL    HW114921   3.819   2.185   7.421  0.8273 -2.1022  1.8258
 1096SOL    HW214922   3.914   2.168   7.524 -0.2733  0.3271  1.7554
 1097SOL     OW14923   1.723   4.065   1.516 -0.3514 -0.0821  0.1973
 1097SOL    HW114924   1.814   4.078   1.542  0.3191 -1.0720 -1.6609
 1097SOL    HW214925   1.711   4.132   1.448  1.1587 -0.2620 -0.2377
 1098SOL     OW14926   3.747   1.461   7.272  0.5429  0.6659  0.8372
 1098SOL    HW114927   3.692   1.433   7.199 -0.2722  0.2119  1.6300
 1098SOL    HW214928   3.720   1.392   7.332  1.2218 -0.6403 -0.3747
 1099SOL     OW14929   0.601   1.470   8.103 -0.1290  0.0503 -0.0731
 1099SOL    HW114930   0.635   1.450   8.016 -1.6797 -0.1822 -0.6352
 1099SOL    HW214931   0.674   1.485   8.163 -0.9072 -0.4342  0.9950
 1100SOL     OW14932   0.972   2.588   8.004  0.6499 -0.0802 -0.5187
 1100SOL    HW114933   0.998   2.585   8.096 -1.7415  0.0495  0.1649
 1100SOL    HW214934   0.878   2.601   8.013  0.6492 -1.3335  1.4662
 1101SOL     OW14935   1.125   2.069   4.913 -0.3916  0.7002 -0.0521
 1101SOL    HW114936   1.218   2.090   4.914  0.1112 -1.5715 -0.0883
 1101SOL    HW214937   1.087   2.154   4.937  0.3676  1.1074 -0.2973
 1102SOL     OW14938   3.482   0.364  14.618  0.7688  0.3305  0.9998
 1102SOL    HW114939   3.509   0.278  14.651  1.3734  0.5797  1.1410
 1102SOL    HW214940   3.391   0.371  14.648  1.3376  1.8343  2.3447
 1103SOL     OW14941   3.960   2.484   3.289 -0.2450  0.4817 -0.6615
 1103SOL    HW114942   3.964   2.408   3.230  0.4308  0.3181 -0.4002
 1103SOL    HW214943   3.925   2.552   3.231  1.8274  0.2940 -2.1271
 1104SOL     OW14944   1.038   2.605  12.583 -0.6068  0.2058  0.1283
 1104SOL    HW114945   0.954   2.561  12.599 -0.7368 -0.3236 -1.9450
 1104SOL    HW214946   1.084   2.594  12.666  0.7463  1.7764 -0.4293
 1105SOL     OW14947   3.534   2.658   5.319  0.0903  0.5877  0.5633
 1105SOL    HW114948   3.479   2.604   5.375 -1.3489  0.3456 -1.0610
 1105SOL    HW214949   3.577   2.590   5.268 -0.9365  0.9659 -0.8124
 1106SOL     OW14950   3.164   4.166   3.437  0.4344  0.3561 -0.3976
 1106SOL    HW114951   3.127   4.150   3.524 -0.1767  2.3448 -0.2805
 1106SOL    HW214952   3.142   4.083   3.396  2.5559 -0.7393  0.6484
 1107SOL     OW14953   3.068   1.312   8.446 -0.3852 -0.6941  0.3741
 1107SOL    HW114954   3.140   1.317   8.509  2.6378  2.6293 -3.3788
 1107SOL    HW214955   3.074   1.392   8.393 -0.1550 -0.3377  0.9348
 1108SOL     OW14956   4.735   1.804   8.674  0.2030 -0.2589 -0.2219
 1108SOL    HW114957   4.687   1.762   8.603  0.0921  0.3814 -0.5181
 1108SOL    HW214958   0.061   1.852   8.620 -0.8589  1.8726  0.4440
 1109SOL     OW14959   3.334   4.108   8.688 -0.9129  0.0030 -0.5698
 1109SOL    HW114960   3.385   4.126   8.609 -1.2545 -0.7045 -0.9505
 1109SOL    HW214961   3.381   4.034   8.726 -2.3060 -2.1205 -2.9730
 1110SOL     OW14962   0.941   0.549  14.722 -0.1130 -0.3568  0.3572
 1110SOL    HW114963   1.033   0.573  14.729 -0.2447  0.2571 -0.0489
 1110SOL    HW214964   0.951   0.483  14.790 -1.8144 -2.4015 -1.3595
 1111SOL     OW14965   1.140   3.117   2.575  0.0220  0.5085  0.1948
 1111SOL    HW114966   1.065   3.173   2.561 -1.0209 -0.9039  0.1587
 1111SOL    HW214967   1.103   3.036   2.612 -1.5178  0.8911 -0.5606
 1112SOL     OW14968   2.396   4.436   2.504  0.4197 -0.0206  0.3259
 1112SOL    HW114969   2.385   4.498   2.576 -0.3301  0.2147  0.0061
 1112SOL    HW214970   2.458   4.485   2.449 -2.9051  0.9475 -2.5203
 1113SOL     OW14971   0.872   4.311   6.976  0.0427  1.2237  0.2277
 1113SOL    HW114972   0.954   4.360   6.965  0.9523  0.1152  2.0291
 1113SOL    HW214973   0.859   4.297   7.070 -0.3631  0.7584  0.1029
 1114SOL     OW14974   3.651   0.055   7.739 -0.1725 -0.0017  0.3904
 1114SOL    HW114975   3.573   0.102   7.768 -0.2724 -0.0147  0.1457
 1114SOL    HW214976   3.701   0.131   7.708 -1.2687 -0.0753 -1.5571
 1115SOL     OW14977   1.389   3.002   2.453  0.6499 -0.2852 -0.4351
 1115SOL    HW114978   1.354   2.994   2.364 -3.2036  1.9906  0.8845
 1115SOL    HW214979   1.331   3.069   2.488  0.1030 -1.2897  0.6125
 1116SOL     OW14980   3.601   2.231   2.734  0.1942 -0.8038  0.2695
 1116SOL    HW114981   3.510   2.202   2.743 -0.5266  1.3336 -0.0455
 1116SOL    HW214982   3.595   2.326   2.721 -0.6901 -0.7106  1.3891
 1117SOL     OW14983   2.601   4.468  10.481  0.0396 -0.1130  1.2556
 1117SOL    HW114984   2.626   4.409  10.552 -1.6441 -0.8565  1.2067
 1117SOL    HW214985   2.533   4.517  10.525  0.1827 -0.3924  1.7828
 1118SOL     OW14986   3.459   1.937  14.141 -0.4539  0.5220 -0.3046
 1118SOL    HW114987   3.377   1.899  14.108  0.0700 -0.4238 -0.5282
 1118SOL    HW214988   3.517   1.867  14.110 -1.3260  0.5722 -2.0436
 1119SOL     OW14989   4.246   0.529   4.002  0.0682 -0.3948 -0.5114
 1119SOL    HW114990   4.255   0.455   3.942  0.0012 -0.5997 -0.2721
 1119SOL    HW214991   4.247   0.486   4.088  0.4047 -0.8209 -0.7294
 1120SOL     OW14992   2.920   3.126   1.085 -0.0332 -0.1906  0.2364
 1120SOL    HW114993   2.879   3.206   1.118 -0.6753 -0.4393  0.0475
 1120SOL    HW214994   2.992   3.126   1.148  0.7075 -1.9191 -0.6222
 1121SOL     OW14995   2.197   1.498   9.374 -0.4036 -0.1391  0.1567
 1121SOL    HW114996   2.216   1.406   9.355  2.3795  1.0606 -2.7209
 1121SOL    HW214997   2.106   1.508   9.345 -0.4976  0.5180  0.6773
 1122SOL     OW14998   3.229   0.836   1.205 -0.6165 -0.1732 -0.3367
 1122SOL    HW114999   3.232   0.798   1.117 -0.1872  0.0683 -0.4305
 1122SOL    HW215000   3.169   0.778   1.251  0.7229  1.0856  2.9684
 1123SOL     OW15001   1.440   0.480   6.187  0.1281 -0.4863  0.4475
 1123SOL    HW115002   1.475   0.568   6.173  2.2028 -1.6418 -1.6244
 1123SOL    HW215003   1.386   0.459   6.111 -0.5756  1.7998  0.3048
 1124SOL     OW15004   4.728   3.916   9.590  0.0634  0.0525  0.5286
 1124SOL    HW115005   4.717   3.827   9.555  0.0131 -0.7527  2.6001
 1124SOL    HW215006   0.002   3.891   9.682  0.8966  0.9071  0.6648
 1125SOL     OW15007   4.088   4.375   6.199  0.1068  0.2903 -0.4458
 1125SOL    HW115008   4.006   4.327   6.214  0.2889  0.6281  1.6438
 1125SOL    HW215009   4.156   4.311   6.219 -1.1609 -0.3471  1.8057
 1126SOL     OW15010   1.449   0.442   3.926  0.2344 -0.3074 -0.2726
 1126SOL    HW115011   1.444   0.537   3.928  2.5813 -0.2103  1.0714
 1126SOL    HW215012   1.434   0.418   3.835 -1.4576 -0.0584 -0.0564
 1127SOL     OW15013   3.492   3.165   5.217  0.2215 -0.5780 -0.0947
 1127SOL    HW115014   3.545   3.245   5.223  0.8734 -1.1008  1.1324
 1127SOL    HW215015   3.409   3.211   5.222  0.7981  0.3726  0.7970
 1128SOL     OW15016   0.330   0.610   3.767  0.2352  0.4022 -0.2898
 1128SOL    HW115017   0.419   0.625   3.737 -0.5491  2.1926 -1.7027
 1128SOL    HW215018   0.339   0.535   3.825 -4.0556 -0.7727 -1.1226
 1129SOL     OW15019   0.527   2.064   4.989  0.1318  0.3219  0.1446
 1129SOL    HW115020   0.462   2.123   4.951  1.1507  0.5526 -1.2714
 1129SOL    HW215021   0.527   2.098   5.078  1.6326 -1.8975  0.9803
 1130SOL     OW15022   0.240   3.577   3.034 -0.2981 -0.6961 -0.0891
 1130SOL    HW115023   0.275   3.618   2.955  3.8208 -1.6608  1.2227
 1130SOL    HW215024   0.227   3.655   3.088  2.0340  1.5745 -2.8745
 1131SOL     OW15025   0.252   3.047   3.502 -0.2562  0.1635  0.1456
 1131SOL    HW115026   0.235   3.056   3.408 -1.4900 -1.0528  0.2486
 1131SOL    HW215027   0.177   3.099   3.532 -1.7063 -1.0607 -1.3558
 1132SOL     OW15028   2.602   2.906   5.661 -0.2016 -0.7096 -0.8676
 1132SOL    HW115029   2.569   2.986   5.622 -0.1803 -0.0767  0.4327
 1132SOL    HW215030   2.657   2.938   5.732  0.1217  2.0735 -2.3665
 1133SOL     OW15031   4.514   3.651   8.531  0.0730 -0.0601  0.3739
 1133SOL    HW115032   4.467   3.575   8.565 -1.5749  0.7850 -0.0283
 1133SOL    HW215033   4.500   3.705   8.608 -0.0342  2.0826 -1.1464
 1134SOL     OW15034   1.926   2.209   5.890 -0.3996  0.4963  0.3789
 1134SOL    HW115035   1.864   2.212   5.963  2.3980  0.2330  2.7834
 1134SOL    HW215036   1.907   2.301   5.873 -0.5184  0.8019  2.2408
 1135SOL     OW15037   0.808   0.201   7.564  0.2820 -0.4460 -0.1570
 1135SOL    HW115038   0.880   0.262   7.584 -2.0016  2.2665 -0.1416
 1135SOL    HW215039   0.729   0.255   7.556  0.7294  0.0067 -1.3875
 1136SOL     OW15040   1.522   0.532   4.310  0.4045 -0.0746  0.1996
 1136SOL    HW115041   1.436   0.528   4.352  1.2675  0.4467  2.0158
 1136SOL    HW215042   1.502   0.581   4.230  0.6316 -3.1841 -1.7641
 1137SOL     OW15043   3.233   0.998   7.339 -0.5506 -0.3539 -0.0260
 1137SOL    HW115044   3.229   0.909   7.303  1.1885 -0.2256 -0.5478
 1137SOL    HW215045   3.143   1.008   7.311 -0.1289 -1.4104 -1.7714
 1138SOL     OW15046   0.458   2.773   9.950 -0.0736 -1.3237  0.2884
 1138SOL    HW115047   0.521   2.811   9.889 -1.4518 -0.5455 -0.6443
 1138SOL    HW215048   0.509   2.713  10.005 -1.2208 -2.0968  0.5113
 1139SOL     OW15049   0.269   1.777   0.690  0.2660 -0.2720 -0.5259
 1139SOL    HW115050   0.333   1.758   0.621  3.8815  0.2782  2.6562
 1139SOL    HW215051   0.282   1.866   0.724  0.4917 -0.0500 -1.2076
 1140SOL     OW15052   2.627   4.044   7.282  0.0599 -0.1278 -0.1959
 1140SOL    HW115053   2.646   4.126   7.328  3.3911 -1.3153  0.5475
 1140SOL    HW215054   2.542   4.019   7.317  0.1494 -0.8522 -0.5054
 1141SOL     OW15055   4.274   3.579   7.916  0.3371  0.3003  0.1604
 1141SOL    HW115056   4.199   3.638   7.911 -1.4261 -2.0581 -1.6234
 1141SOL    HW215057   4.323   3.596   7.835  0.6802  0.9799  0.5132
 1142SOL     OW15058   3.188   0.008   2.147  0.3111  0.2655 -0.3157
 1142SOL    HW115059   3.163   0.093   2.110  1.7357  1.0979  0.6056
 1142SOL    HW215060   3.141   0.003   2.230 -1.8767 -1.1277 -1.6568
 1143SOL     OW15061   2.055   2.557  16.079  0.4572  0.1168  0.6718
 1143SOL    HW115062   2.091   2.646  16.070 -1.7073  0.8828 -0.2834
 1143SOL    HW215063   1.965   2.586  16.091  0.9066  1.6858  0.2543
 1144SOL     OW15064   1.785   4.418  16.541  0.3245 -0.4586 -0.0975
 1144SOL    HW115065   1.853   4.485  16.533  0.8966 -0.9703  0.4927
 1144SOL    HW215066   1.773   4.401  16.635  0.9070  1.4967  0.3438
 1145SOL     OW15067   3.967   0.315  12.034  0.3458  0.1369 -0.2742
 1145SOL    HW115068   3.896   0.374  12.007  0.0535 -0.0177  0.1595
 1145SOL    HW215069   4.042   0.374  12.035 -0.2842  1.0058 -3.5882
 1146SOL     OW15070   2.271   2.224  10.451 -0.8299  0.3334 -0.2291
 1146SOL    HW115071   2.307   2.141  10.421 -2.3865 -0.7699  1.0314
 1146SOL    HW215072   2.244   2.262  10.367 -0.3188  0.0476 -0.5276
 1147SOL     OW15073   0.779   1.224   6.617  0.5861 -0.1174 -0.4817
 1147SOL    HW115074   0.758   1.192   6.705 -3.5218 -0.9619 -1.7341
 1147SOL    HW215075   0.839   1.294   6.640  1.8014 -0.8676 -1.4052
 1148SOL     OW15076   3.631   3.238  13.514  0.0875 -0.0925 -0.1030
 1148SOL    HW115077   3.638   3.300  13.586  0.7025 -0.2466 -0.0252
 1148SOL    HW215078   3.536   3.231  13.504 -0.1000 -0.1698  1.8440
 1149SOL     OW15079   2.143   3.890   6.792  0.2061  0.3194  0.2845
 1149SOL    HW115080   2.199   3.918   6.865 -1.1049  0.5920  1.1962
 1149SOL    HW215081   2.091   3.822   6.836  0.5933  0.1630  0.4962
 1150SOL     OW15082   2.149   1.586  13.033 -0.2240  0.3335  0.2304
 1150SOL    HW115083   2.170   1.495  13.053  0.2220  0.3559 -0.1452
 1150SOL    HW215084   2.233   1.631  13.027 -1.5967  2.4438 -3.6520
 1151SOL     OW15085   4.078   3.170   4.368 -0.6135 -0.4447 -0.1652
 1151SOL    HW115086   4.076   3.100   4.303  1.6924  0.4203 -1.1847
 1151SOL    HW215087   4.054   3.125   4.448  3.1378 -0.8434  0.7672
 1152SOL     OW15088   2.769   1.440   8.489  0.0859 -0.2330  0.1167
 1152SOL    HW115089   2.844   1.381   8.492 -0.2649 -0.5380  2.5576
 1152SOL    HW215090   2.702   1.381   8.524  1.7935 -2.2221 -0.0065
 1153SOL     OW15091   4.596   2.787   9.679  0.2808  0.0905 -0.0763
 1153SOL    HW115092   4.571   2.862   9.625  0.2757 -0.1599 -0.4189
 1153SOL    HW215093   4.534   2.721   9.649  0.7648 -0.2141 -0.4057
 1154SOL     OW15094   0.134   2.630  16.136  0.3668 -0.4969  0.3161
 1154SOL    HW115095   0.133   2.640  16.231 -1.5471 -2.1087  0.4652
 1154SOL    HW215096   0.160   2.538  16.127  2.7936  0.2394  0.0444
 1155SOL     OW15097   0.372   0.709   9.006 -0.2965 -0.2145  0.1630
 1155SOL    HW115098   0.446   0.676   8.955 -0.5151 -0.6692  0.1387
 1155SOL    HW215099   0.346   0.640   9.067 -3.0362  0.4593 -0.2325
 1156SOL     OW15100   1.926   1.298   8.043 -0.8404  0.1856 -0.4298
 1156SOL    HW115101   1.916   1.374   7.986 -0.0370  0.5956 -0.0314
 1156SOL    HW215102   2.021   1.284   8.037 -1.0408 -1.3167 -0.1064
 1157SOL     OW15103   2.825   1.558   8.069 -0.2162 -0.5277  0.1390
 1157SOL    HW115104   2.870   1.532   7.989  1.6507 -1.0307  1.3665
 1157SOL    HW215105   2.885   1.614   8.118 -0.4135  0.5080 -0.8018
 1158SOL     OW15106   3.876   4.419   5.195  0.2242 -0.7626  0.1447
 1158SOL    HW115107   3.801   4.424   5.137  1.2558 -0.7187 -1.1830
 1158SOL    HW215108   3.900   4.327   5.198 -0.9601 -1.1327 -2.2040
 1159SOL     OW15109   3.210   3.546  17.695 -0.7232 -0.1170 -0.2497
 1159SOL    HW115110   3.186   3.453  17.699  3.6000 -1.3694 -3.4178
 1159SOL    HW215111   3.161   3.571  17.617 -1.1732  2.6008  0.9134
 1160SOL     OW15112   2.856   4.487   2.875  0.0006 -1.3689 -0.8576
 1160SOL    HW115113   2.885   4.464   2.963 -0.0426  0.9308 -0.2432
 1160SOL    HW215114   2.856   4.408   2.822 -0.8150 -1.9546  0.0237
 1161SOL     OW15115   2.020   0.339  11.112 -0.3485 -0.7984 -0.3317
 1161SOL    HW115116   1.969   0.421  11.115  0.7510 -0.1163 -0.3209
 1161SOL    HW215117   1.969   0.284  11.052  0.6398 -3.2111  1.0408
 1162SOL     OW15118   4.275   2.303   8.315  0.7219 -0.3219  0.1501
 1162SOL    HW115119   4.361   2.342   8.329  0.5464 -0.4988  1.6545
 1162SOL    HW215120   4.273   2.271   8.224 -3.3151 -2.3041  0.9374
 1163SOL     OW15121   3.046   1.026   2.060  0.2815 -0.6602  0.2434
 1163SOL    HW115122   3.086   1.084   1.996 -1.0592 -1.0052 -0.9111
 1163SOL    HW215123   3.000   0.964   2.003  1.0976 -0.7571 -0.3095
 1164SOL     OW15124   0.997   4.651   6.693 -0.4290  0.0384 -0.4000
 1164SOL    HW115125   1.053   4.602   6.754  0.2937  0.1973 -0.9317
 1164SOL    HW215126   1.049   4.649   6.612  0.5874 -1.6759  0.2887
 1165SOL     OW15127   2.955   0.404   8.492 -0.6492  0.5098  0.8206
 1165SOL    HW115128   2.912   0.380   8.575 -1.7272  0.3795  0.2160
 1165SOL    HW215129   3.036   0.355   8.510 -0.0978  1.1599  0.0878
 1166SOL     OW15130   0.027   3.618  14.182 -0.0933  0.1930  0.4788
 1166SOL    HW115131   0.083   3.628  14.105 -2.2518 -0.9270 -1.2459
 1166SOL    HW215132   0.037   3.525  14.203  0.0151  0.2028  0.4703
 1167SOL     OW15133   2.023   1.712   3.429 -0.0339 -0.1219  0.2150
 1167SOL    HW115134   2.022   1.782   3.494 -2.1836  0.4308 -0.4167
 1167SOL    HW215135   2.116   1.712   3.406 -0.0701  0.9893  0.0775
 1168SOL     OW15136   0.421   3.629   5.396 -0.0216  0.6767  0.1064
 1168SOL    HW115137   0.448   3.538   5.404 -0.5707  0.5266  0.2838
 1168SOL    HW215138   0.370   3.635   5.477  0.3750  2.3196  0.2464
 1169SOL     OW15139   3.063   0.780   4.430  0.4879  0.0237 -0.0846
 1169SOL    HW115140   3.111   0.821   4.502 -0.0050  3.9558 -1.9453
 1169SOL    HW215141   3.124   0.803   4.360 -1.7046 -0.3474 -2.1278
 1170SOL     OW15142   4.171   2.118   6.319  0.0036  0.3949 -0.2683
 1170SOL    HW115143   4.254   2.139   6.360 -0.7074  1.7787  0.4647
 1170SOL    HW215144   4.127   2.066   6.386  1.3282 -1.3141 -0.7227
 1171SOL     OW15145   1.027   2.773   1.240  0.3689  0.0449  0.0516
 1171SOL    HW115146   0.984   2.775   1.326  0.4723  1.0633  0.0833
 1171SOL    HW215147   1.119   2.787   1.262 -0.0917 -0.1304  2.1395
 1172SOL     OW15148   2.383   1.537   1.907  0.1042 -0.3465  0.1327
 1172SOL    HW115149   2.307   1.591   1.883  2.1365  2.8270  0.8403
 1172SOL    HW215150   2.355   1.507   1.993  0.7816 -0.6410  0.2500
 1173SOL     OW15151   2.758   3.193  13.368  0.4967 -0.0306  0.2440
 1173SOL    HW115152   2.831   3.155  13.321  1.2785  0.9741  0.6421
 1173SOL    HW215153   2.804   3.251  13.429 -1.5459 -0.1198  1.8769
 1174SOL     OW15154   1.428   1.879   6.641 -0.0971  0.2118  0.0371
 1174SOL    HW115155   1.388   1.798   6.671  1.7449 -1.0570 -0.9040
 1174SOL    HW215156   1.359   1.917   6.588 -0.6345 -2.3595 -1.1136
 1175SOL     OW15157   3.854   3.104  15.899 -0.3383  1.0871  0.2417
 1175SOL    HW115158   3.886   3.134  15.984  1.2446  0.8737 -0.2696
 1175SOL    HW215159   3.931   3.123  15.845  0.3635 -1.1212  0.4883
 1176SOL     OW15160   0.165   1.586   2.459 -0.3808 -0.0522  0.5008
 1176SOL    HW115161   0.182   1.522   2.391  0.3317 -0.1358  0.7597
 1176SOL    HW215162   0.070   1.583   2.471 -0.4377  2.0398  0.7222
 1177SOL     OW15163   4.011   2.838   7.541 -0.2299  0.2988 -0.2884
 1177SOL    HW115164   3.994   2.930   7.559  1.7421  0.2448  1.8076
 1177SOL    HW215165   3.965   2.818   7.459 -0.4443  1.5998 -0.4759
 1178SOL     OW15166   3.635   1.206   4.343  0.3541  0.4889 -0.0479
 1178SOL    HW115167   3.582   1.270   4.391  1.5404  0.5534  1.1636
 1178SOL    HW215168   3.705   1.187   4.405  0.3208 -0.1049 -0.1959
 1179SOL     OW15169   0.337   1.908   6.142 -0.5102 -0.9641  0.0273
 1179SOL    HW115170   0.295   1.920   6.056 -1.5653  1.3654  0.8705
 1179SOL    HW215171   0.333   1.997   6.176 -1.9269 -1.1535  0.3293
 1180SOL     OW15172   3.774   2.484   7.928 -0.1712 -0.4919 -0.4760
 1180SOL    HW115173   3.756   2.421   7.859 -2.7667 -0.1466 -0.1089
 1180SOL    HW215174   3.837   2.429   7.976 -0.4101  1.2401  1.8622
 1181SOL     OW15175   2.275   3.638   3.990 -0.0300 -0.8205  0.8244
 1181SOL    HW115176   2.184   3.663   4.008 -1.1247 -4.2125 -0.0730
 1181SOL    HW215177   2.303   3.647   4.081 -0.6164 -1.5345  1.0768
 1182SOL     OW15178   2.503   4.725   9.539 -0.2360 -0.5125 -0.4351
 1182SOL    HW115179   2.425   0.035   9.569  1.0391  1.5714 -0.4391
 1182SOL    HW215180   2.482   4.633   9.553 -1.0362 -0.5094 -1.6074
 1183SOL     OW15181   3.536   4.087   9.135  0.0375 -0.4636 -0.0535
 1183SOL    HW115182   3.623   4.065   9.170  1.2972  0.6987 -2.4194
 1183SOL    HW215183   3.559   4.151   9.067  1.2395 -1.5769 -0.6857
 1184SOL     OW15184   2.979   2.881   7.015  0.0086  0.3203  0.0253
 1184SOL    HW115185   3.011   2.798   7.052  1.4478  1.0939  0.5352
 1184SOL    HW215186   2.890   2.862   6.987 -0.0859 -0.9363  1.1796
 1185SOL     OW15187   1.046   3.103   0.785 -0.0309 -0.4522  0.1289
 1185SOL    HW115188   1.066   3.041   0.856 -2.1913 -1.3951 -0.0937
 1185SOL    HW215189   0.954   3.083   0.769  0.2577 -0.4455 -1.4459
 1186SOL     OW15190   2.704   4.272   7.403  0.6361  0.3658 -0.0780
 1186SOL    HW115191   2.742   4.357   7.382 -0.6956  1.1134  0.5956
 1186SOL    HW215192   2.782   4.220   7.427  1.4030  1.6237  0.1292
 1187SOL     OW15193   4.508   4.417  11.162 -0.3533 -0.3598 -0.4429
 1187SOL    HW115194   4.533   4.392  11.252  1.7720  0.8750 -0.6781
 1187SOL    HW215195   4.497   4.510  11.181 -1.6196 -0.7232  0.6199
 1188SOL     OW15196   4.568   1.260   5.051  0.4815  0.8802  0.6024
 1188SOL    HW115197   4.542   1.177   5.091 -3.3370  0.8831 -1.8855
 1188SOL    HW215198   4.525   1.245   4.967  0.2706 -0.2377  0.9152
 1189SOL     OW15199   0.812   0.363   6.305  0.0507  0.2618 -0.2286
 1189SOL    HW115200   0.835   0.452   6.331 -0.9948  0.1469  1.1430
 1189SOL    HW215201   0.717   0.376   6.309  0.1370  1.0940 -1.1623
 1190SOL     OW15202   4.135   1.205   2.890  0.0528  0.3740 -0.6254
 1190SOL    HW115203   4.078   1.130   2.875  0.8333 -0.3209 -0.1543
 1190SOL    HW215204   4.186   1.211   2.810 -1.4882  1.4539 -1.5234
 1191SOL     OW15205   2.964   3.544  17.107 -0.1626 -0.0485  0.0074
 1191SOL    HW115206   3.010   3.600  17.169 -0.3501 -2.2154  2.0909
 1191SOL    HW215207   2.925   3.476  17.162  4.6117 -0.9068  2.3509
 1192SOL     OW15208   0.419   1.672   7.066 -0.0872 -0.2098 -0.1993
 1192SOL    HW115209   0.455   1.753   7.101  0.0526 -0.3444 -0.0292
 1192SOL    HW215210   0.342   1.666   7.123 -1.1204 -0.1815 -1.5725
 1193SOL     OW15211   0.246   2.667  13.183 -0.0942 -0.7573  0.3771
 1193SOL    HW115212   0.227   2.603  13.114  0.9239  1.3232 -1.8757
 1193SOL    HW215213   0.205   2.744  13.143  0.5842 -1.8015 -2.3450
 1194SOL     OW15214   2.178   1.846   5.277  0.1566  0.0590  0.1152
 1194SOL    HW115215   2.096   1.894   5.266 -0.4025 -0.7935  0.4913
 1194SOL    HW215216   2.147   1.758   5.253 -0.7387 -0.0347  1.5974
 1195SOL     OW15217   0.782   3.447   2.233 -0.9274  0.0609 -0.1634
 1195SOL    HW115218   0.725   3.371   2.218  1.2428 -1.6619  0.3430
 1195SOL    HW215219   0.863   3.400   2.253  0.2586  1.6768 -1.1446
 1196SOL     OW15220   2.880   1.098  13.168  0.1489 -0.0311 -0.4145
 1196SOL    HW115221   2.796   1.135  13.141  1.2270 -0.4422 -4.2451
 1196SOL    HW215222   2.851   1.071  13.256  2.3509  4.2198  1.5812
 1197SOL     OW15223   0.030   3.189   3.075 -0.2139  0.2101  0.1584
 1197SOL    HW115224   4.672   3.181   3.068 -0.0732 -1.7772  0.4914
 1197SOL    HW215225   0.046   3.127   3.146  0.3618  0.8660  0.6000
 1198SOL     OW15226   2.330   3.896  15.011 -0.0849  0.2111  0.1963
 1198SOL    HW115227   2.339   3.821  15.070  1.5913 -0.0502 -0.4017
 1198SOL    HW215228   2.391   3.868  14.943  0.6126  1.3101  0.3671
 1199SOL     OW15229   2.312   3.436   1.833  0.1650 -0.3807 -0.0064
 1199SOL    HW115230   2.329   3.351   1.874 -1.5810 -0.9266 -0.3956
 1199SOL    HW215231   2.396   3.480   1.825 -0.1758  0.6149  1.8661
 1200SOL     OW15232   3.842   1.819   5.571 -0.2758  0.0446  0.9030
 1200SOL    HW115233   3.895   1.888   5.611 -2.8106  2.1344  0.6677
 1200SOL    HW215234   3.800   1.881   5.512  2.0851 -1.1863 -2.0252
 1201SOL     OW15235   2.881   3.551   6.382 -0.2747 -0.0027  0.0654
 1201SOL    HW115236   2.952   3.493   6.357 -1.4630 -1.3102 -0.2751
 1201SOL    HW215237   2.898   3.629   6.329 -2.6576  0.5591  0.1134
 1202SOL     OW15238   3.818   1.130   1.129  0.1232  0.1331 -0.4402
 1202SOL    HW115239   3.841   1.047   1.088 -1.6676 -0.1913 -0.7782
 1202SOL    HW215240   3.802   1.180   1.049  1.4068  0.8926 -0.2216
 1203SOL     OW15241   0.116   1.914   6.688 -0.6092 -0.4153 -0.4080
 1203SOL    HW115242   0.190   1.860   6.660  0.0849 -0.9140  2.4409
 1203SOL    HW215243   0.074   1.922   6.602 -0.8376 -2.8639 -0.5237
 1204SOL     OW15244   3.462   3.251   3.204  0.4475 -0.4634  0.2509
 1204SOL    HW115245   3.495   3.162   3.215  2.2432  0.4654  2.3275
 1204SOL    HW215246   3.538   3.293   3.163  1.1042  0.7763  2.7247
 1205SOL     OW15247   4.493   3.175   3.087 -0.0344  0.4112  0.0759
 1205SOL    HW115248   4.447   3.253   3.056 -0.4836 -0.4160 -1.3426
 1205SOL    HW215249   4.464   3.099   3.037  1.3073 -0.0838  0.0360
 1206SOL     OW15250   3.004   4.058   7.805  0.3341  0.2646  0.3105
 1206SOL    HW115251   3.017   4.149   7.830  0.3981  0.5989 -0.9294
 1206SOL    HW215252   2.986   4.024   7.892  1.8229  1.9176  1.2551
 1207SOL     OW15253   0.876   2.449  11.633  0.3581 -0.3210 -0.3976
 1207SOL    HW115254   0.851   2.529  11.587 -1.6599 -0.1026  1.1043
 1207SOL    HW215255   0.789   2.410  11.641  0.1197 -0.2531 -2.7342
 1208SOL     OW15256   0.150   3.876  10.535  0.0678 -0.1371  0.2615
 1208SOL    HW115257   0.199   3.958  10.527  1.7494 -1.0723  1.0499
 1208SOL    HW215258   0.121   3.860  10.624  1.2285  0.4993  0.7498
 1209SOL     OW15259   4.633   3.521   5.955  0.4598  0.5971  0.1650
 1209SOL    HW115260   4.650   3.513   5.861 -0.4921 -0.0301  0.0587
 1209SOL    HW215261   4.544   3.553   5.949 -0.7204 -2.9594 -1.3684
 1210SOL     OW15262   2.735   3.312  10.232  0.9182 -0.2664 -0.3925
 1210SOL    HW115263   2.812   3.360  10.262  0.6367 -1.6418  2.5896
 1210SOL    HW215264   2.698   3.305  10.321  1.8611 -0.1037  0.0058
 1211SOL     OW15265   0.012   1.802   0.031  0.4264  0.6066  0.4133
 1211SOL    HW115266   0.020   1.856  17.698  0.2049 -1.1750 -0.8363
 1211SOL    HW215267   0.089   1.830   0.080  1.1081 -1.6573  0.6567
 1212SOL     OW15268   4.412   2.732   0.028  0.2617  0.1682  0.2543
 1212SOL    HW115269   4.439   2.797  17.710  1.3890  0.2188  0.7853
 1212SOL    HW215270   4.489   2.676   0.019  1.0448  1.2064  0.5412
 1213SOL     OW15271   0.307   1.631   9.514  0.0695  0.4061 -0.4405
 1213SOL    HW115272   0.219   1.663   9.493 -0.6377 -0.6628  0.8840
 1213SOL    HW215273   0.345   1.717   9.534 -0.2039 -0.5207  4.1606
 1214SOL     OW15274   0.833   1.420   5.273  0.4925  0.2127 -0.2048
 1214SOL    HW115275   0.766   1.487   5.264 -0.4265 -0.7548 -0.6873
 1214SOL    HW215276   0.788   1.336   5.283  0.0582  0.4269 -0.3962
 1215SOL     OW15277   3.271   4.545   7.486  0.0514  0.0117 -0.4922
 1215SOL    HW115278   3.304   4.530   7.574  1.9566  0.9839 -1.0494
 1215SOL    HW215279   3.334   4.615   7.469  0.1441  0.4428  1.6068
 1216SOL     OW15280   4.381   3.844   3.156  0.1018 -0.1592  0.4505
 1216SOL    HW115281   4.324   3.899   3.102  3.4095  1.7405 -1.1073
 1216SOL    HW215282   4.342   3.757   3.149  1.2055 -0.6179  0.0108
 1217SOL     OW15283   2.702   1.376   0.834  0.5256 -0.4618 -0.3705
 1217SOL    HW115284   2.714   1.369   0.928 -2.2566  0.2048  0.0316
 1217SOL    HW215285   2.763   1.308   0.803  1.1280  0.2695 -0.8014
 1218SOL     OW15286   2.787   1.356   7.643 -0.1446 -0.1824 -0.2117
 1218SOL    HW115287   2.761   1.419   7.577  1.4243 -0.1847 -0.8388
 1218SOL    HW215288   2.807   1.278   7.592 -1.1552  0.1564 -1.1089
 1219SOL     OW15289   1.116   4.437   4.973 -0.6073 -0.1011 -0.6280
 1219SOL    HW115290   1.064   4.513   4.945 -0.4482 -0.7104 -2.5603
 1219SOL    HW215291   1.152   4.416   4.886  1.6215 -0.4276  0.3578
 1220SOL     OW15292   1.751   1.501  17.203  0.0973  0.1169 -0.6473
 1220SOL    HW115293   1.725   1.593  17.198  2.4030  0.9061  1.2604
 1220SOL    HW215294   1.675   1.470  17.252  1.7572 -1.4108  0.9867
 1221SOL     OW15295   3.977   1.026   2.776 -0.4241 -0.3826 -0.3617
 1221SOL    HW115296   3.898   1.073   2.803 -1.0815 -1.2446 -0.8131
 1221SOL    HW215297   3.952   1.020   2.684 -1.7346 -0.4983  0.0098
 1222SOL     OW15298   0.680   2.330   5.874  0.3790  0.7268  0.2645
 1222SOL    HW115299   0.729   2.288   5.944  0.2996  0.4314  0.1394
 1222SOL    HW215300   0.594   2.290   5.888  1.4313 -1.5424  0.0714
 1223SOL     OW15301   3.256   4.172   9.715 -0.0796  0.5350 -1.0394
 1223SOL    HW115302   3.171   4.130   9.704 -0.6128  1.6083 -1.0795
 1223SOL    HW215303   3.318   4.100   9.717 -0.4037  0.3124  1.3540
 1224SOL     OW15304   0.198   4.398   3.716  0.2511  0.0233 -0.1529
 1224SOL    HW115305   0.178   4.396   3.623  0.2254  1.0770 -0.1643
 1224SOL    HW215306   0.151   4.471   3.756 -1.4564 -0.3135 -1.5565
 1225SOL     OW15307   3.245   2.410   4.105 -0.2198  0.0242 -0.4759
 1225SOL    HW115308   3.308   2.347   4.069 -0.0252 -0.0750  0.0363
 1225SOL    HW215309   3.230   2.471   4.033 -0.3286 -0.4306 -0.8332
 1226SOL     OW15310   3.150   3.039   6.100  0.4784  0.3789 -0.5798
 1226SOL    HW115311   3.083   3.038   6.032 -2.3653  0.5619  2.2295
 1226SOL    HW215312   3.201   2.962   6.073  0.7848  0.6885 -0.8952
 1227SOL     OW15313   2.350   0.859   7.075 -0.4144  0.3683  0.3088
 1227SOL    HW115314   2.290   0.875   7.002  0.3706  1.4377 -0.0839
 1227SOL    HW215315   2.287   0.858   7.148 -1.1234 -1.2654 -0.3110
 1228SOL     OW15316   4.158   1.201   6.787 -0.7527  0.5950  0.0765
 1228SOL    HW115317   4.131   1.172   6.874  1.0442 -1.8435 -0.1619
 1228SOL    HW215318   4.228   1.260   6.813 -1.8468  1.9324 -0.0349
 1229SOL     OW15319   1.551   2.479   4.469 -0.0727  0.1481 -0.8226
 1229SOL    HW115320   1.536   2.521   4.385  1.3913  0.1033 -1.0946
 1229SOL    HW215321   1.545   2.557   4.524 -0.9781  0.4739 -1.3885
 1230SOL     OW15322   0.353   2.452   1.849 -0.2403 -0.3067  0.4918
 1230SOL    HW115323   0.283   2.413   1.902  0.1312 -2.0552 -0.3021
 1230SOL    HW215324   0.405   2.373   1.835  1.8611  1.0664  0.5525
 1231SOL     OW15325   2.859   0.225   1.417  0.1127 -0.3545 -0.7980
 1231SOL    HW115326   2.879   0.152   1.358 -0.4553 -2.0112  1.0187
 1231SOL    HW215327   2.885   0.185   1.501  0.8599  0.8890 -0.4423
 1232SOL     OW15328   0.806   1.167   5.393  0.2816  0.2266  0.2292
 1232SOL    HW115329   0.733   1.109   5.368 -0.1628  1.8721 -2.3120
 1232SOL    HW215330   0.873   1.104   5.419  0.7288  0.4151 -0.4665
 1233SOL     OW15331   2.172   4.251   5.590  0.0319  0.1443  0.3328
 1233SOL    HW115332   2.260   4.273   5.559  0.2444  1.1074  1.6186
 1233SOL    HW215333   2.126   4.334   5.579  0.8431 -0.0552 -4.3753
 1234SOL     OW15334   3.816   4.036   1.663  0.3231 -0.0956  0.1024
 1234SOL    HW115335   3.734   3.987   1.661  0.7015 -0.6767 -1.0426
 1234SOL    HW215336   3.856   4.003   1.583  2.7722  0.2072  1.1813
 1235SOL     OW15337   1.293   0.459   7.813  0.6761 -0.4945  0.0428
 1235SOL    HW115338   1.369   0.441   7.758  0.3690 -1.2180 -0.1485
 1235SOL    HW215339   1.239   0.516   7.758 -0.6845 -2.2561 -0.4485
 1236SOL     OW15340   3.793   4.352   7.514  0.5062 -0.4969  0.6417
 1236SOL    HW115341   3.736   4.299   7.458  0.5305  0.1709 -0.0233
 1236SOL    HW215342   3.749   4.344   7.598 -1.9506 -0.9604 -0.6874
 1237SOL     OW15343   1.274   0.327   2.973 -0.2980 -0.0278 -0.0635
 1237SOL    HW115344   1.369   0.334   2.967 -0.2911  0.9932  1.4019
 1237SOL    HW215345   1.261   0.372   3.056 -0.2409  0.5134 -0.3438
 1238SOL     OW15346   2.464   3.903   7.690  0.4792 -0.3122 -0.6441
 1238SOL    HW115347   2.492   3.841   7.758 -2.2131  0.0197  0.7895
 1238SOL    HW215348   2.548   3.948   7.688  0.3788 -0.1929 -2.0612
 1239SOL     OW15349   1.568   3.794   7.932  0.0565 -0.1925  0.0963
 1239SOL    HW115350   1.657   3.792   7.966  0.0574 -0.8922  0.0674
 1239SOL    HW215351   1.521   3.854   7.990  0.0206 -0.2740  0.1522
 1240SOL     OW15352   1.035   4.353  15.098  0.2078  0.7840  0.1519
 1240SOL    HW115353   1.002   4.420  15.158 -2.4891 -0.0222 -0.4457
 1240SOL    HW215354   1.125   4.340  15.129  0.7930  2.0557 -1.0409
 1241SOL     OW15355   3.522   1.689  13.759  0.0183 -0.3345  0.1002
 1241SOL    HW115356   3.434   1.657  13.777  0.6804 -1.5545  1.2167
 1241SOL    HW215357   3.549   1.636  13.684 -1.5096 -0.0607 -0.6305
 1242SOL     OW15358   1.453   0.935   0.307 -0.1552 -0.1167 -0.3521
 1242SOL    HW115359   1.445   1.013   0.253 -0.1642 -0.0672 -0.2793
 1242SOL    HW215360   1.548   0.927   0.311 -0.0863  0.6575 -0.4517
 1243SOL     OW15361   1.112   1.019   3.512 -0.2195  0.4865 -0.5162
 1243SOL    HW115362   1.024   1.052   3.530  0.1948  0.7658  0.9506
 1243SOL    HW215363   1.132   1.060   3.428 -2.0059 -0.2591 -1.3078
 1244SOL     OW15364   1.720   4.418   6.899 -0.1209 -0.0561 -0.0441
 1244SOL    HW115365   1.643   4.474   6.911 -0.0835 -0.0542  0.1789
 1244SOL    HW215366   1.693   4.330   6.923  0.4246 -0.3902 -0.6418
 1245SOL     OW15367   2.926   4.011   1.685  0.1355  0.3025  0.3561
 1245SOL    HW115368   2.928   3.986   1.777  0.0714  1.8532  0.7860
 1245SOL    HW215369   2.876   3.935   1.656  1.9261 -0.6172 -0.3551
 1246SOL     OW15370   1.004   0.009   3.381  0.0784 -0.1562  0.1534
 1246SOL    HW115371   1.056   4.721   3.305 -0.6160 -1.6030  0.1519
 1246SOL    HW215372   1.049   4.699   3.451 -2.2625 -1.2427  0.9443
 1247SOL     OW15373   1.556   0.303   2.948  0.0614 -0.1482 -0.4683
 1247SOL    HW115374   1.648   0.278   2.944  0.7591  2.6022 -1.9527
 1247SOL    HW215375   1.564   0.376   2.886  1.7070  0.1622  0.1118
 1248SOL     OW15376   2.628   0.991   6.124 -0.7299 -0.1827  0.1300
 1248SOL    HW115377   2.656   0.902   6.102  0.9017  0.3887 -0.1150
 1248SOL    HW215378   2.535   0.971   6.130 -0.9402  0.8285  0.2519
 1249SOL     OW15379   1.424   1.162   5.500 -0.3403 -0.1775  0.1124
 1249SOL    HW115380   1.495   1.193   5.445 -1.3752  0.2916 -0.9592
 1249SOL    HW215381   1.429   1.220   5.576  0.9449 -0.3188  0.1261
 1250SOL     OW15382   0.051   1.156  16.539  0.0111  0.2244 -0.0314
 1250SOL    HW115383   0.105   1.195  16.608  0.7941 -0.2560 -0.3753
 1250SOL    HW215384   0.100   1.081  16.507 -0.4962 -0.4416  0.7328
 1251SOL     OW15385   1.802   2.548   7.834  0.0617  0.0183 -0.3089
 1251SOL    HW115386   1.780   2.591   7.916  2.4367  1.7466 -0.5649
 1251SOL    HW215387   1.897   2.541   7.838 -0.0803  0.1173  2.7632
 1252SOL     OW15388   1.688   3.949   2.787  0.5937 -0.8909  0.5806
 1252SOL    HW115389   1.716   4.033   2.825  1.5470 -0.1872 -1.7293
 1252SOL    HW215390   1.667   3.901   2.868  0.4501 -3.2999 -0.8897
 1253SOL     OW15391   3.220   0.508   8.597 -0.4398 -0.8049  0.6848
 1253SOL    HW115392   3.244   0.416   8.591  1.5404 -0.1255 -1.6238
 1253SOL    HW215393   3.209   0.519   8.691 -0.8042 -0.4897  0.6058
 1254SOL     OW15394   1.526   1.644   1.307 -0.0732 -0.2309 -0.5276
 1254SOL    HW115395   1.537   1.678   1.219 -0.0930  1.0960 -0.0232
 1254SOL    HW215396   1.479   1.564   1.283 -1.5510  1.2909 -2.6712
 1255SOL     OW15397   4.430   2.560   1.797  0.6021  0.0337  0.0194
 1255SOL    HW115398   4.390   2.564   1.710 -1.2510  1.2778  0.9325
 1255SOL    HW215399   4.516   2.594   1.773  1.2589 -2.4303 -1.0825
 1256SOL     OW15400   4.610   0.650   3.965 -0.1279  0.5208  0.0163
 1256SOL    HW115401   4.704   0.663   3.962 -0.0549 -0.2887 -1.2127
 1256SOL    HW215402   4.573   0.721   4.018 -1.1417  0.5634 -0.7450
 1257SOL     OW15403   2.347   1.019  16.533 -0.0223  0.5343 -0.2355
 1257SOL    HW115404   2.312   0.931  16.521 -0.7518  0.9706 -1.2611
 1257SOL    HW215405   2.309   1.065  16.458 -1.1157  0.8756  0.5335
 1258SOL     OW15406   2.736   0.015  12.293  0.1583  0.8938 -0.2166
 1258SOL    HW115407   2.753   0.037  12.384  0.7720 -1.8990  0.3380
 1258SOL    HW215408   2.823   0.026  12.253  0.4565 -1.3640 -0.1586
 1259SOL     OW15409   4.358   1.618   1.699  0.0422 -0.3315  0.0221
 1259SOL    HW115410   4.448   1.629   1.667  0.1318 -1.3238 -0.0603
 1259SOL    HW215411   4.336   1.707   1.725 -1.4362 -1.3976  2.4061
 1260SOL     OW15412   0.453   0.815   0.456 -0.0965 -0.3736 -0.0185
 1260SOL    HW115413   0.387   0.885   0.454  0.2857  0.0300  1.1207
 1260SOL    HW215414   0.433   0.762   0.379  0.4283 -0.1945 -0.2748
 1261SOL     OW15415   4.052   1.008   9.329 -0.1194  0.1794 -0.1588
 1261SOL    HW115416   3.967   0.966   9.319  0.0366 -0.4028  1.0414
 1261SOL    HW215417   4.095   0.986   9.246  0.1768 -0.6865  0.2373
 1262SOL     OW15418   4.723   2.866   8.179  0.2711 -0.9647 -0.0238
 1262SOL    HW115419   0.010   2.775   8.193  1.4999 -0.3723  1.7920
 1262SOL    HW215420   4.728   2.872   8.084 -2.6875 -0.9499 -0.1858
 1263SOL     OW15421   0.404   3.789   9.893 -0.3487  0.2410  0.0113
 1263SOL    HW115422   0.465   3.832   9.953  0.2404  0.2740 -0.6039
 1263SOL    HW215423   0.452   3.811   9.813  0.7983  0.0547  0.6490
 1264SOL     OW15424   4.587   1.035   9.006 -0.0884  0.0853 -0.1248
 1264SOL    HW115425   4.509   1.069   8.962  0.0249 -0.0225 -0.4087
 1264SOL    HW215426   4.555   1.011   9.093  0.7580 -1.3834 -0.2195
 1265SOL     OW15427   3.166   1.895   1.405  0.0048  0.2376  0.3109
 1265SOL    HW115428   3.163   1.952   1.329  1.1301 -1.4166 -0.9688
 1265SOL    HW215429   3.183   1.809   1.367  3.6824  0.9555  0.2696
 1266SOL     OW15430   1.872   1.513   1.240  0.5296  0.5539 -0.5319
 1266SOL    HW115431   1.817   1.546   1.169 -0.3003 -0.0441 -0.1784
 1266SOL    HW215432   1.813   1.546   1.309  1.0433  0.8427 -0.2307
 1267SOL     OW15433   0.600   4.013   5.912 -0.5593  0.4294 -0.2138
 1267SOL    HW115434   0.694   4.028   5.924 -0.8993  2.8590 -0.6038
 1267SOL    HW215435   0.565   4.077   5.974 -0.3940  0.3164 -0.0011
 1268SOL     OW15436   3.709   1.539   5.507  0.1586 -0.0293  0.6343
 1268SOL    HW115437   3.676   1.591   5.580  0.2777  2.0642 -0.7703
 1268SOL    HW215438   3.765   1.482   5.558 -0.2352 -0.1828  0.8909
 1269SOL     OW15439   2.186   3.421  16.540 -0.3627 -1.0091  0.6482
 1269SOL    HW115440   2.153   3.442  16.627 -0.1113 -0.2106  0.5555
 1269SOL    HW215441   2.111   3.432  16.482  0.5687 -0.4962 -0.4561
 1270SOL     OW15442   3.855   1.698  16.947 -0.3719  0.0636 -0.5888
 1270SOL    HW115443   3.897   1.650  16.876  0.7931 -1.7638  1.3293
 1270SOL    HW215444   3.919   1.705  17.018 -1.6147 -0.9695  0.6203
 1271SOL     OW15445   0.084   4.134   2.248 -0.1239 -0.6276 -0.5193
 1271SOL    HW115446   0.171   4.098   2.229  0.0317  0.8810 -2.6864
 1271SOL    HW215447   0.102   4.183   2.328  2.7660 -0.8736 -1.0455
 1272SOL     OW15448   1.801   2.890  10.706  0.0693  0.5340  0.2003
 1272SOL    HW115449   1.885   2.915  10.667 -0.4778  3.0563  0.6708
 1272SOL    HW215450   1.782   2.940  10.786  1.3127  0.6644  0.4117
 1273SOL     OW15451   3.081   3.890   2.310  0.2283  0.5612  0.1924
 1273SOL    HW115452   3.035   3.856   2.233 -0.8287  0.7179  0.7562
 1273SOL    HW215453   3.145   3.947   2.267 -0.9594  0.8148 -1.2424
 1274SOL     OW15454   2.396   3.514  11.665  0.7456  0.5248 -0.2356
 1274SOL    HW115455   2.374   3.447  11.600  1.3353  0.2728 -0.1820
 1274SOL    HW215456   2.364   3.594  11.624 -1.1025 -1.1427 -2.0269
 1275SOL     OW15457   2.920   0.904  17.700 -0.3247  0.2463 -0.1718
 1275SOL    HW115458   2.911   0.911  17.605  0.0979 -1.0394 -0.3028
 1275SOL    HW215459   3.007   0.866  17.711  0.2616  0.8435 -2.7795
 1276SOL     OW15460   3.113   4.649   5.121 -0.2833 -0.0113  0.0849
 1276SOL    HW115461   3.079   4.730   5.160 -0.5832 -0.1070  0.0266
 1276SOL    HW215462   3.041   4.597   5.156  0.6090  0.4501  2.5933
 1277SOL     OW15463   4.100   2.499   1.079  0.2548  0.0809 -0.9031
 1277SOL    HW115464   4.026   2.552   1.049  0.1084 -0.0246 -0.7291
 1277SOL    HW215465   4.146   2.555   1.140 -0.7825  1.1691 -1.1183
 1278SOL     OW15466   2.847   3.940   8.534  0.1957 -0.0496 -0.3489
 1278SOL    HW115467   2.769   3.909   8.579  0.3121 -0.8531 -0.7035
 1278SOL    HW215468   2.881   4.001   8.599 -0.1713 -2.0152  1.6693
 1279SOL     OW15469   1.827   0.072  10.053 -0.0600  0.2165  0.8271
 1279SOL    HW115470   1.911   0.100  10.017 -0.1089 -0.6952  0.0180
 1279SOL    HW215471   1.829   0.103  10.144 -0.5272  0.7922  0.6471
 1280SOL     OW15472   0.149   0.205   9.726  0.6785 -0.0180  0.4556
 1280SOL    HW115473   0.236   0.192   9.687  0.3352 -0.6499 -0.1044
 1280SOL    HW215474   0.095   0.237   9.653  1.2868  1.4298  0.6414
 1281SOL     OW15475   4.600   4.401  12.076  0.4958 -0.0849 -0.3469
 1281SOL    HW115476   4.597   4.488  12.036 -0.2652 -0.1426 -0.4109
 1281SOL    HW215477   4.512   4.410  12.113  1.4290  1.8177  1.4630
 1282SOL     OW15478   3.649   2.059  12.460 -0.3378 -0.3213  0.3327
 1282SOL    HW115479   3.729   2.060  12.408 -0.5304  0.2696  0.0468
 1282SOL    HW215480   3.640   2.146  12.497 -0.2608 -0.2506  0.1823
 1283SOL     OW15481   0.987   1.690   5.590 -0.1168 -0.2158  0.2468
 1283SOL    HW115482   1.056   1.755   5.594 -1.3378  1.2230 -2.8684
 1283SOL    HW215483   0.995   1.662   5.499  0.2383 -2.3523  0.9220
 1284SOL     OW15484   0.459   1.211   9.500 -0.3743  0.0223  0.6321
 1284SOL    HW115485   0.396   1.283   9.499  1.4046  1.5295 -2.5389
 1284SOL    HW215486   0.508   1.229   9.580 -2.3389 -0.1480  1.8750
 1285SOL     OW15487   2.359   0.136   6.872 -0.0458 -0.3672 -0.0269
 1285SOL    HW115488   2.303   0.137   6.950  0.9263 -1.7751  0.6829
 1285SOL    HW215489   2.381   0.043   6.865  1.9034 -0.0069  1.2093
 1286SOL     OW15490   1.591   2.709   8.771  0.1682  0.8002 -0.3369
 1286SOL    HW115491   1.550   2.622   8.761  0.4423  0.9483 -2.6886
 1286SOL    HW215492   1.597   2.716   8.866  0.0364 -0.4268 -0.2331
 1287SOL     OW15493   1.549   2.289   3.016  0.1280  0.1400  0.1721
 1287SOL    HW115494   1.603   2.355   2.973  0.0899 -0.3367 -0.6076
 1287SOL    HW215495   1.482   2.340   3.062 -0.9715 -0.7453 -0.4455
 1288SOL     OW15496   4.058   3.860  13.692 -0.2644  0.2793  0.6227
 1288SOL    HW115497   4.056   3.887  13.600 -0.2652 -0.7401  0.3219
 1288SOL    HW215498   3.966   3.868  13.720 -0.1911  1.8643  0.4101
 1289SOL     OW15499   4.034   4.532   6.668 -0.1717 -0.5747  0.2343
 1289SOL    HW115500   4.123   4.563   6.653 -0.7286 -0.3783 -2.7383
 1289SOL    HW215501   4.051   4.448   6.711  1.0203  1.2594  3.3697
 1290SOL     OW15502   2.537   2.927  14.835 -0.4279  0.0377 -0.2664
 1290SOL    HW115503   2.591   2.851  14.813 -0.0825  0.2546 -0.1722
 1290SOL    HW215504   2.500   2.893  14.916  2.0625 -0.7958  0.5074
 1291SOL     OW15505   2.620   4.541   2.064 -0.0278  0.1770 -0.6774
 1291SOL    HW115506   2.661   4.491   1.993  1.3614 -2.5337  2.0261
 1291SOL    HW215507   2.567   4.483   2.119  0.3149  2.0424  1.5811
 1292SOL     OW15508   1.878   2.573   4.471  0.6414  0.3122 -0.2467
 1292SOL    HW115509   1.883   2.483   4.504  0.6248  1.5317  3.0741
 1292SOL    HW215510   1.869   2.625   4.550 -1.3665  0.7005 -0.7476
 1293SOL     OW15511   1.019   3.423   4.542 -0.2666  0.0934  0.0122
 1293SOL    HW115512   0.965   3.429   4.463  1.3467 -2.3663 -1.2871
 1293SOL    HW215513   1.105   3.430   4.500  0.3669 -1.8073  0.9759
 1294SOL     OW15514   2.539   2.268   4.908  0.0038 -0.5735 -0.1280
 1294SOL    HW115515   2.614   2.216   4.936  0.1179 -0.5622 -0.4076
 1294SOL    HW215516   2.522   2.310   4.992  1.1756  0.6627 -0.5041
 1295SOL     OW15517   1.918   2.588   6.355  0.4050  0.1096 -0.4980
 1295SOL    HW115518   1.919   2.678   6.387 -0.0093  0.3208 -1.0904
 1295SOL    HW215519   1.867   2.597   6.275  1.7715 -1.1240 -1.5189
 1296SOL     OW15520   4.732   4.678  13.821 -0.2609 -0.6887 -0.3261
 1296SOL    HW115521   0.016   4.679  13.728  0.7660 -1.2195 -0.0973
 1296SOL    HW215522   4.669   0.013  13.816  0.0432 -0.2968  1.5128
 1297SOL     OW15523   0.961   0.044   5.667  0.1527  0.1649 -0.3734
 1297SOL    HW115524   1.009   4.730   5.601 -0.2850 -0.1343 -0.4579
 1297SOL    HW215525   0.957   4.715   5.736 -0.0945  0.3100 -0.2493
 1298SOL     OW15526   0.368   4.145   7.964  0.2812 -0.2903 -0.2570
 1298SOL    HW115527   0.413   4.096   8.032  1.2383  3.0711  1.5146
 1298SOL    HW215528   0.436   4.150   7.896 -0.1053 -0.8308 -0.6791
 1299SOL     OW15529   0.494   3.398   3.041 -0.3070 -0.5742 -0.5542
 1299SOL    HW115530   0.412   3.444   3.027 -0.7502 -0.8676  1.0488
 1299SOL    HW215531   0.489   3.325   2.980 -0.4283  0.0468 -1.2782
 1300SOL     OW15532   0.349   4.636  11.661 -0.0643 -0.3848  0.5039
 1300SOL    HW115533   0.309   4.606  11.742  0.4497 -2.0000  0.1587
 1300SOL    HW215534   0.427   4.665  11.709 -1.0495  2.9430  0.0416
 1301SOL     OW15535   1.063   4.409  15.448 -0.2187 -0.0220  0.1714
 1301SOL    HW115536   1.005   4.468  15.400 -0.3813  0.6150  1.1539
 1301SOL    HW215537   1.047   4.324  15.407 -3.1531 -0.0757  1.4794
 1302SOL     OW15538   0.606   4.081   4.383  0.0977  0.7249  0.0650
 1302SOL    HW115539   0.605   4.168   4.344 -1.2859  0.5042 -0.3963
 1302SOL    HW215540   0.666   4.084   4.458 -0.1492  2.6712  0.1738
 1303SOL     OW15541   4.455   0.041   0.366 -0.6618 -0.1529 -0.1881
 1303SOL    HW115542   4.519   4.711   0.392  0.3840  0.8695 -0.1094
 1303SOL    HW215543   4.487   0.042   0.276  0.3952 -1.0824  0.1757
 1304SOL     OW15544   2.524   4.206   5.919 -0.2830 -0.0571 -0.1343
 1304SOL    HW115545   2.483   4.121   5.904 -0.6481  0.4704 -2.0981
 1304SOL    HW215546   2.573   4.188   5.999  0.0257 -1.5285 -0.6491
 1305SOL     OW15547   0.861   0.749   3.308 -0.4028  0.0110 -0.0186
 1305SOL    HW115548   0.797   0.681   3.285  1.5071 -1.4946 -0.8513
 1305SOL    HW215549   0.811   0.794   3.376 -0.8272  0.9758 -0.9705
 1306SOL     OW15550   2.621   1.573   5.659 -0.1538 -0.3600  0.0502
 1306SOL    HW115551   2.542   1.524   5.638 -0.9558  0.1205  1.9334
 1306SOL    HW215552   2.640   1.528   5.742  3.0893 -1.7701 -1.4593
 1307SOL     OW15553   3.647   2.691   2.784  0.4376 -0.5985  0.0649
 1307SOL    HW115554   3.741   2.706   2.783  0.5369 -1.2273  1.4331
 1307SOL    HW215555   3.626   2.772   2.737  0.7885 -1.4564 -1.5678
 1308SOL     OW15556   3.710   4.403   0.743  0.0407  0.3333 -0.0165
 1308SOL    HW115557   3.723   4.487   0.701 -1.3660 -0.8909 -2.8782
 1308SOL    HW215558   3.684   4.356   0.664 -2.2225  0.1808  0.7934
 1309SOL     OW15559   2.125   1.569  14.991 -0.7882 -0.1465  0.0027
 1309SOL    HW115560   2.101   1.519  15.069 -0.2429  0.8815  0.8282
 1309SOL    HW215561   2.119   1.660  15.021 -2.4310 -0.4002  0.4594
 1310SOL     OW15562   3.242   4.612   3.030 -0.0653  1.0551 -0.7561
 1310SOL    HW115563   3.221   4.624   3.123 -1.7966  1.5667 -1.2177
 1310SOL    HW215564   3.283   4.526   3.035  0.7261  1.4936  0.5423
 1311SOL     OW15565   4.218   4.450   9.542 -0.0407 -0.6261  0.2531
 1311SOL    HW115566   4.216   4.483   9.632 -1.0988 -1.2776  0.4683
 1311SOL    HW215567   4.313   4.436   9.544  0.1993  1.0228  0.4479
 1312SOL     OW15568   2.578   3.720   4.139 -0.3324 -0.6837  0.6139
 1312SOL    HW115569   2.620   3.693   4.221  1.6172 -0.6436 -0.3844
 1312SOL    HW215570   2.487   3.699   4.160 -1.3215  1.5547 -1.4532
 1313SOL     OW15571   1.738   4.638  16.168  0.4071 -0.4303  0.3308
 1313SOL    HW115572   1.788   4.630  16.087 -1.9376  1.9145 -1.3246
 1313SOL    HW215573   1.756   4.554  16.211 -0.6272 -0.3060  1.0045
 1314SOL     OW15574   3.078   3.133   8.850 -0.1330 -0.4791  0.2019
 1314SOL    HW115575   3.115   3.119   8.762  0.7651  0.2303  0.4617
 1314SOL    HW215576   3.020   3.057   8.850  0.3910 -0.8810 -0.6015
 1315SOL     OW15577   1.237   1.446   7.398 -0.7661  0.1920  0.4174
 1315SOL    HW115578   1.249   1.356   7.428 -0.1690  1.0405  2.6472
 1315SOL    HW215579   1.276   1.489   7.474 -3.2843 -1.9565  2.9075
 1316SOL     OW15580   0.988   3.871   9.687 -0.1328 -0.1004 -0.0774
 1316SOL    HW115581   1.011   3.961   9.665  0.7748  0.1489  1.8195
 1316SOL    HW215582   1.042   3.825   9.623  1.1041  1.7605 -0.3506
 1317SOL     OW15583   0.958   1.039   1.378  0.2041 -0.1628 -0.0595
 1317SOL    HW115584   1.039   1.034   1.327 -0.1864  1.8241 -0.8611
 1317SOL    HW215585   0.907   1.103   1.328  1.4166  0.5160 -0.4354
 1318SOL     OW15586   2.021   3.010  10.398  0.1858 -0.6502  0.2490
 1318SOL    HW115587   2.003   2.986  10.489 -2.0896  0.4796  0.0684
 1318SOL    HW215588   2.110   3.045  10.392 -0.8242  1.7954 -0.1372
 1319SOL     OW15589   0.834   0.559  16.372 -0.4380  0.5208  0.2352
 1319SOL    HW115590   0.872   0.593  16.291 -1.1219  1.9507  0.5274
 1319SOL    HW215591   0.906   0.573  16.434  0.7987 -0.1766 -1.0359
 1320SOL     OW15592   2.666   4.476   4.973  0.1029  0.2428 -0.5370
 1320SOL    HW115593   2.622   4.548   5.018  0.5467  0.8297 -1.0469
 1320SOL    HW215594   2.754   4.513   4.971  1.0592 -2.0234  0.4605
 1321SOL     OW15595   2.207   3.019   5.621  0.2606  0.6714 -0.5672
 1321SOL    HW115596   2.203   3.060   5.708 -1.7433 -0.3138 -0.1903
 1321SOL    HW215597   2.230   2.928   5.643 -0.3081  0.7303  0.2777
 1322SOL     OW15598   3.789   3.503  11.729  0.0813 -0.2930 -0.1459
 1322SOL    HW115599   3.696   3.481  11.721  0.3120 -0.8806 -1.2194
 1322SOL    HW215600   3.773   3.587  11.772  2.9348  0.6807 -0.9922
 1323SOL     OW15601   1.891   0.053   6.416  0.2323  0.0412  0.2889
 1323SOL    HW115602   1.810   0.105   6.409  0.0066 -0.4155 -0.4470
 1323SOL    HW215603   1.878   4.733   6.341  2.0970 -0.9311  0.7155
 1324SOL     OW15604   4.479   3.234   3.866 -0.1095  0.3961  0.0988
 1324SOL    HW115605   4.402   3.178   3.870 -1.0351  1.7594  1.4050
 1324SOL    HW215606   4.473   3.285   3.785  1.6112  2.4103  1.2235
 1325SOL     OW15607   2.902   1.351  16.519 -0.1743  0.4953  0.0106
 1325SOL    HW115608   2.866   1.393  16.441  0.1322  2.0840  0.7352
 1325SOL    HW215609   2.974   1.409  16.545  0.9364 -0.3323 -1.1892
 1326SOL     OW15610   4.332   4.553  15.468  0.3325  0.5424 -0.3024
 1326SOL    HW115611   4.297   4.550  15.379 -0.0721  1.4598 -0.1765
 1326SOL    HW215612   4.384   4.472  15.462  0.7260  0.8972 -1.5495
 1327SOL     OW15613   0.355   4.530   7.069 -0.2323  0.3670  0.5815
 1327SOL    HW115614   0.356   4.447   7.117 -3.1146 -0.5831 -0.9974
 1327SOL    HW215615   0.311   4.588   7.131 -0.4096 -0.3134  1.0999
 1328SOL     OW15616   0.474   2.382   7.548 -0.2269  0.5444 -0.0061
 1328SOL    HW115617   0.425   2.449   7.597  1.0161  0.0889  1.8763
 1328SOL    HW215618   0.484   2.427   7.464 -1.7038  0.3595 -0.2644
 1329SOL     OW15619   2.087   3.649   9.658  0.1761 -0.6314  0.0331
 1329SOL    HW115620   2.177   3.674   9.681 -0.3952  2.1607 -0.9057
 1329SOL    HW215621   2.047   3.728   9.623  1.6906  0.6953  1.2986
 1330SOL     OW15622   3.736   1.031   8.693  0.0032  0.3762  0.5094
 1330SOL    HW115623   3.672   0.991   8.635 -0.8341  1.0971  0.9423
 1330SOL    HW215624   3.819   1.014   8.648  0.1145  1.0450  0.4593
 1331SOL     OW15625   0.892   4.218  13.887 -0.4081  0.0325 -0.0426
 1331SOL    HW115626   0.798   4.232  13.892  0.0903  2.7014  2.1859
 1331SOL    HW215627   0.905   4.276  13.812 -1.0160 -0.6950 -0.6990
 1332SOL     OW15628   0.282   4.437   4.955 -0.5902 -0.0207 -0.0856
 1332SOL    HW115629   0.198   4.480   4.935 -1.2609 -0.6820  1.2832
 1332SOL    HW215630   0.291   4.357   4.904 -2.0612 -0.2750  0.0410
 1333SOL     OW15631   4.107   3.391   5.423 -0.4594 -0.3567 -0.2926
 1333SOL    HW115632   4.133   3.299   5.412 -0.8785 -0.4230 -0.7619
 1333SOL    HW215633   4.079   3.419   5.335 -0.1414 -1.3025 -0.6958
 1334SOL     OW15634   0.065   0.781   6.321 -0.2335  0.1402  0.0396
 1334SOL    HW115635   0.043   0.818   6.406  2.0307 -0.1800  0.7621
 1334SOL    HW215636   4.717   0.759   6.281 -0.1550  1.7809 -1.0579
 1335SOL     OW15637   2.697   0.064   8.724 -0.0351  0.1071  0.4092
 1335SOL    HW115638   2.677   0.062   8.817 -0.4866 -2.1480  0.2484
 1335SOL    HW215639   2.700   4.709   8.696  1.0154  0.1551  0.3522
 1336SOL     OW15640   3.864   4.522  17.175  0.5094 -0.0865 -0.0695
 1336SOL    HW115641   3.813   4.501  17.253 -0.3016  1.9025 -0.0591
 1336SOL    HW215642   3.920   4.587  17.218 -0.4400  1.9709 -1.9493
 1337SOL     OW15643   1.171   3.605  11.749  0.0860  0.2800  0.3738
 1337SOL    HW115644   1.206   3.686  11.711  0.5280 -0.3691 -0.6092
 1337SOL    HW215645   1.224   3.609  11.828  0.1971  0.5523  0.2832
 1338SOL     OW15646   1.218   1.106   5.044 -0.0443 -0.0483  0.4219
 1338SOL    HW115647   1.250   1.159   4.971 -1.2422 -1.8853 -1.4462
 1338SOL    HW215648   1.130   1.142   5.051 -0.2922 -0.6997  0.6134
 1339SOL     OW15649   4.187   2.884   8.454 -0.6872  0.8214 -0.1121
 1339SOL    HW115650   4.155   2.803   8.415 -0.1774 -0.4118  2.0660
 1339SOL    HW215651   4.281   2.868   8.444 -0.7971  0.1147  0.0122
 1340SOL     OW15652   1.220   2.347   8.383 -0.4365 -0.6197  0.1916
 1340SOL    HW115653   1.280   2.421   8.369 -1.8622  0.5222  0.1665
 1340SOL    HW215654   1.221   2.314   8.294  1.2680 -2.9448  1.0658
 1341SOL     OW15655   2.620   0.195   7.078  0.5571 -0.0252 -0.1441
 1341SOL    HW115656   2.651   0.130   7.141  0.7575  1.3477  1.1827
 1341SOL    HW215657   2.583   0.255   7.143 -1.4948 -0.5859 -0.7959
 1342SOL     OW15658   0.813   0.669  14.532 -0.2635  0.6378 -1.0096
 1342SOL    HW115659   0.865   0.631  14.602 -1.2131  3.0329  1.0131
 1342SOL    HW215660   0.766   0.737  14.581 -1.7105 -1.5281  0.5941
 1343SOL     OW15661   0.519   4.473   5.494 -0.1598 -0.4460 -0.3950
 1343SOL    HW115662   0.431   4.449   5.464 -0.9407 -0.0000  1.5022
 1343SOL    HW215663   0.496   4.487   5.586 -1.5688 -0.8443 -0.6837
 1344SOL     OW15664   1.471   2.222   1.916  0.3725 -0.2198 -0.2329
 1344SOL    HW115665   1.392   2.187   1.876 -0.0480 -0.7540  1.0544
 1344SOL    HW215666   1.530   2.151   1.943  0.9765 -0.4484 -2.2002
 1345SOL     OW15667   4.205   1.636   7.933  0.0346 -0.5533  0.3624
 1345SOL    HW115668   4.141   1.682   7.878  0.8234 -1.1094 -1.0019
 1345SOL    HW215669   4.267   1.709   7.933 -1.5886  0.8377 -0.6189
 1346SOL     OW15670   1.343   4.419   8.359  0.0721  0.2439 -0.2117
 1346SOL    HW115671   1.258   4.457   8.337 -0.0739 -1.2281 -2.1651
 1346SOL    HW215672   1.367   4.382   8.274 -0.0680 -0.2620 -0.0320
 1347SOL     OW15673   1.012   3.096   3.461 -0.1133 -0.3752  0.1222
 1347SOL    HW115674   1.032   3.189   3.456 -1.2690 -0.0831  0.8651
 1347SOL    HW215675   0.940   3.094   3.524 -0.7803 -2.5799 -0.6817
 1348SOL     OW15676   2.383   2.148   0.020  0.4595  0.7162  0.0086
 1348SOL    HW115677   2.318   2.217   0.033 -1.0980 -0.6506 -0.4678
 1348SOL    HW215678   2.460   2.205   0.026  0.0226  1.2259  0.7462
 1349SOL     OW15679   3.494   2.053   9.234 -0.1875 -0.0981 -0.0703
 1349SOL    HW115680   3.585   2.048   9.263 -0.2495  2.6777  0.6616
 1349SOL    HW215681   3.482   2.137   9.188 -0.9329 -0.5672 -0.7175
 1350SOL     OW15682   1.018   0.191   3.036  0.2871 -0.0629  0.0785
 1350SOL    HW115683   1.110   0.218   3.035  0.2565 -0.0025 -1.6047
 1350SOL    HW215684   0.991   0.221   3.123 -1.0044 -0.4367 -0.2063
 1351SOL     OW15685   2.286   2.880  12.713  0.1265 -0.2303 -0.2021
 1351SOL    HW115686   2.339   2.852  12.788  0.0217  0.5470  0.1629
 1351SOL    HW215687   2.323   2.966  12.695 -0.7633  0.8551  3.0559
 1352SOL     OW15688   2.212   1.431   5.004  0.5418 -0.4126 -0.0965
 1352SOL    HW115689   2.303   1.401   4.997  0.4557 -0.5406 -0.6965
 1352SOL    HW215690   2.198   1.497   4.936  0.2589 -1.8528 -1.4558
 1353SOL     OW15691   3.964   2.613   3.047 -0.2497 -0.8912  0.4592
 1353SOL    HW115692   3.951   2.621   2.953 -1.1085 -2.5298  0.4369
 1353SOL    HW215693   4.007   2.695   3.070 -0.6294 -0.7890  0.8222
 1354SOL     OW15694   3.530   1.536   8.524  0.0137  0.8466 -0.1014
 1354SOL    HW115695   3.550   1.488   8.604  1.1964 -1.0209 -1.5230
 1354SOL    HW215696   3.618   1.547   8.487  0.8382  1.9725  2.2279
 1355SOL     OW15697   2.986   0.776   9.107  0.2592 -0.0237 -0.0151
 1355SOL    HW115698   2.946   0.820   9.182 -0.5875 -3.2603  1.4415
 1355SOL    HW215699   3.055   0.722   9.146 -1.0107 -1.6120  0.0507
 1356SOL     OW15700   1.873   0.782   6.620 -0.1015 -0.1601 -0.3106
 1356SOL    HW115701   1.929   0.791   6.543 -3.8478 -0.3421 -3.0584
 1356SOL    HW215702   1.900   0.696   6.654 -0.4056  1.1813  3.3393
 1357SOL     OW15703   0.466   4.202  12.250 -0.1335  0.0976 -0.2938
 1357SOL    HW115704   0.521   4.201  12.172  0.7047 -0.9354  0.3128
 1357SOL    HW215705   0.499   4.128  12.301  0.0105 -0.1418 -0.7433
 1358SOL     OW15706   2.927   2.881   8.308 -0.4777 -0.4512 -0.6845
 1358SOL    HW115707   2.848   2.929   8.282  0.5260  2.0612  0.8828
 1358SOL    HW215708   2.960   2.858   8.221  1.0605 -0.9608  0.0403
 1359SOL     OW15709   3.641   0.679  13.577  0.3877  0.6465  0.3682
 1359SOL    HW115710   3.587   0.605  13.606 -0.3037  0.6104 -1.0406
 1359SOL    HW215711   3.572   0.740  13.551 -0.3773 -1.1759 -1.8546
 1360SOL     OW15712   0.273   1.242   6.371  0.4981  0.6311  0.4797
 1360SOL    HW115713   0.255   1.245   6.465  0.0860  0.0007  0.4250
 1360SOL    HW215714   0.333   1.168   6.360 -0.5486  0.0154 -1.1241
 1361SOL     OW15715   1.925   3.837   5.076 -0.0153 -0.0217  0.3687
 1361SOL    HW115716   1.993   3.857   5.141 -0.9967  2.1738  0.7173
 1361SOL    HW215717   1.963   3.853   4.990  0.8419 -1.8688  0.4120
 1362SOL     OW15718   0.742   4.278  15.671 -0.3232  0.2600 -0.5284
 1362SOL    HW115719   0.679   4.301  15.602  0.0611 -0.4514 -1.1178
 1362SOL    HW215720   0.742   4.183  15.660  3.7309  0.5394 -2.7536
 1363SOL     OW15721   3.817   4.577   8.367 -0.3161 -0.4356 -0.2033
 1363SOL    HW115722   3.840   4.485   8.357  0.0780 -0.5327  1.5988
 1363SOL    HW215723   3.884   4.606   8.428 -0.0107 -0.8104 -0.3615
 1364SOL     OW15724   0.564   0.573  10.884  0.0255 -0.5050  0.1590
 1364SOL    HW115725   0.619   0.577  10.805  0.7493  1.2020  0.7453
 1364SOL    HW215726   0.491   0.520  10.853 -1.4709  0.8596  1.3607
 1365SOL     OW15727   3.855   4.448   4.264 -0.4607  0.1939  0.2424
 1365SOL    HW115728   3.865   4.491   4.349  0.5730  3.2112 -1.3821
 1365SOL    HW215729   3.934   4.473   4.215 -1.7353  1.2902 -1.2781
 1366SOL     OW15730   0.696   1.331   7.885  0.1405 -0.4527  0.0318
 1366SOL    HW115731   0.650   1.256   7.848  0.1857 -2.5081  4.1493
 1366SOL    HW215732   0.787   1.320   7.858 -0.6084 -0.0078 -2.7068
 1367SOL     OW15733   4.718   3.953   1.335 -0.0584  0.3828  0.1767
 1367SOL    HW115734   0.028   3.944   1.418  0.6643  1.0494 -0.1567
 1367SOL    HW215735   4.676   4.037   1.355 -3.3267 -0.6959 -2.1220
 1368SOL     OW15736   1.303   3.899   3.678  0.1069  0.0076  0.0380
 1368SOL    HW115737   1.287   3.908   3.772 -0.6253 -1.3075  0.0490
 1368SOL    HW215738   1.352   3.817   3.688  0.6517  0.1645 -1.3501
 1369SOL     OW15739   3.309   4.261  13.597  0.1042  0.4154 -0.0337
 1369SOL    HW115740   3.388   4.276  13.544 -0.0296 -0.1314 -0.3888
 1369SOL    HW215741   3.255   4.339  13.583 -0.4948 -0.1452 -0.8246
 1370SOL     OW15742   2.919   1.564  10.841  0.2445  0.0389  0.3130
 1370SOL    HW115743   2.860   1.510  10.893  1.0511 -1.7647 -0.6561
 1370SOL    HW215744   2.918   1.652  10.880 -0.3689  0.4543 -0.6405
 1371SOL     OW15745   2.443   2.653   6.174 -0.3095 -0.5067 -0.0863
 1371SOL    HW115746   2.523   2.626   6.219  0.0902  0.8705  0.0351
 1371SOL    HW215747   2.447   2.607   6.090 -0.0049  0.9667 -0.8804
 1372SOL     OW15748   0.530   0.641   1.091 -0.6613  0.1762  0.1367
 1372SOL    HW115749   0.601   0.705   1.086 -1.2792  0.7631 -1.1125
 1372SOL    HW215750   0.567   0.557   1.066 -1.3333 -0.4564  1.2756
 1373SOL     OW15751   3.449   2.371   3.914 -0.5309 -0.0108  0.4615
 1373SOL    HW115752   3.478   2.280   3.907  1.1250  0.6818 -1.6515
 1373SOL    HW215753   3.439   2.396   3.822  1.9314 -0.9840 -0.0624
 1374SOL     OW15754   2.905   0.426   1.839 -0.2615 -0.0157  0.4974
 1374SOL    HW115755   2.960   0.497   1.807 -1.4806 -0.1594 -1.8742
 1374SOL    HW215756   2.862   0.473   1.910 -1.5825  0.7955 -0.8399
 1375SOL     OW15757   1.054   3.258  12.737  0.5007  0.5361 -0.4175
 1375SOL    HW115758   1.037   3.166  12.760 -1.5671  0.4171 -2.4319
 1375SOL    HW215759   1.122   3.247  12.672 -0.6011  0.3352 -1.5395
 1376SOL     OW15760   1.475   3.102   7.801 -0.5977 -0.0421  0.5467
 1376SOL    HW115761   1.442   3.153   7.727 -0.3527  1.3044  1.3631
 1376SOL    HW215762   1.405   3.109   7.866 -0.8374  0.5136  0.2316
 1377SOL     OW15763   2.243   3.485   5.371 -0.2845 -0.1404  0.4574
 1377SOL    HW115764   2.275   3.480   5.462 -0.4172 -0.8075  0.4648
 1377SOL    HW215765   2.324   3.514   5.328 -0.4119 -0.1384  0.2233
 1378SOL     OW15766   3.053   2.609   2.699 -0.3412  0.0460  0.2400
 1378SOL    HW115767   3.038   2.621   2.605 -1.3036 -0.1229  0.3752
 1378SOL    HW215768   2.966   2.627   2.735 -1.2473 -0.4546 -1.6723
 1379SOL     OW15769   0.853   4.413  13.421 -0.3332  0.0315  0.2519
 1379SOL    HW115770   0.762   4.387  13.433 -0.6232  0.2300 -1.4295
 1379SOL    HW215771   0.864   4.386  13.330 -2.2737 -3.4816  1.0781
 1380SOL     OW15772   3.224   2.132   4.499  0.9906  0.6899 -0.1652
 1380SOL    HW115773   3.228   2.134   4.595 -0.4529 -0.9723 -0.0585
 1380SOL    HW215774   3.195   2.220   4.477  1.1312  1.1647  1.5566
 1381SOL     OW15775   4.190   3.148   6.846  0.1956 -0.3007 -0.1842
 1381SOL    HW115776   4.258   3.092   6.808  1.7793  1.1695  0.5043
 1381SOL    HW215777   4.141   3.184   6.771 -0.6433  0.5401  0.7692
 1382SOL     OW15778   3.602   0.014   5.861  0.3742 -0.1473 -0.3649
 1382SOL    HW115779   3.512   0.013   5.895  0.9214 -0.7517  1.0894
 1382SOL    HW215780   3.648   4.736   5.944  1.0444 -0.2633 -0.7553
 1383SOL     OW15781   4.198   1.136   3.898 -0.2109 -0.2225 -0.2238
 1383SOL    HW115782   4.234   1.057   3.857 -0.9499 -1.1043  0.8013
 1383SOL    HW215783   4.127   1.100   3.951 -0.5854 -0.8181 -1.1324
 1384SOL     OW15784   3.472   2.537  13.485 -0.3763 -0.2293  0.2370
 1384SOL    HW115785   3.422   2.458  13.505 -0.3513 -0.5482 -0.9614
 1384SOL    HW215786   3.409   2.583  13.430 -0.0660  0.4110  0.4173
 1385SOL     OW15787   0.065   2.710   4.701 -0.0429 -0.1627  0.3309
 1385SOL    HW115788   0.150   2.667   4.690 -0.0532 -0.4153  1.2648
 1385SOL    HW215789   0.080   2.742   4.791 -1.3261 -2.1228  1.2278
 1386SOL     OW15790   0.087   1.800   9.414 -0.1117  0.2052 -0.6188
 1386SOL    HW115791   0.082   1.862   9.487 -1.8522 -0.8741  0.1819
 1386SOL    HW215792   0.130   1.843   9.339  2.6046 -2.2902 -0.4622
 1387SOL     OW15793   4.694   0.922  14.018 -0.3372 -0.5433 -0.6237
 1387SOL    HW115794   0.007   0.984  14.070 -1.5308 -0.0820 -0.0425
 1387SOL    HW215795   0.008   0.842  14.037  0.5484  0.2742  0.4619
 1388SOL     OW15796   1.967   3.506  16.399 -0.4448 -0.3427 -0.1426
 1388SOL    HW115797   1.922   3.425  16.425  0.5364 -0.4791  1.1398
 1388SOL    HW215798   1.955   3.574  16.465  0.8314 -1.3698  1.1534
 1389SOL     OW15799   3.306   2.026   5.478  0.1595 -0.2868 -0.3854
 1389SOL    HW115800   3.284   2.072   5.559  0.5473  3.0303 -2.1747
 1389SOL    HW215801   3.380   2.078   5.446 -0.0573 -0.0875 -0.5629
 1390SOL     OW15802   0.381   3.336   6.467  0.2347 -0.6206  0.5243
 1390SOL    HW115803   0.442   3.263   6.463 -0.2934 -0.9030 -2.5265
 1390SOL    HW215804   0.300   3.293   6.438 -0.5721  2.8465 -2.3715
 1391SOL     OW15805   3.955   1.849   1.858 -0.7218  0.4143  0.1085
 1391SOL    HW115806   3.954   1.787   1.784  1.7446  1.6425 -0.9494
 1391SOL    HW215807   3.987   1.784   1.920  0.1828  3.2302  2.5299
 1392SOL     OW15808   1.606   1.414   2.868  0.1266  0.1464  0.5892
 1392SOL    HW115809   1.675   1.402   2.803  0.5314  1.6622  0.7392
 1392SOL    HW215810   1.637   1.486   2.922 -0.9312  1.6917 -0.8893
 1393SOL     OW15811   1.617   1.720   9.119  0.5843  0.3796 -0.3639
 1393SOL    HW115812   1.679   1.732   9.191  0.2647 -1.1904  0.1656
 1393SOL    HW215813   1.572   1.805   9.116 -0.7844 -0.2687  1.7041
 1394SOL     OW15814   3.082   1.243   2.795 -0.2548  1.1728  0.2640
 1394SOL    HW115815   3.142   1.294   2.850  0.7449  0.7385 -0.4115
 1394SOL    HW215816   2.996   1.283   2.798 -1.0868 -0.5258 -0.6719
 1395SOL     OW15817   1.464   2.683   4.305  0.1329  0.0719  0.3380
 1395SOL    HW115818   1.370   2.662   4.307  0.5761 -1.9056  0.0077
 1395SOL    HW215819   1.468   2.769   4.347 -2.7719 -0.1353  1.0247
 1396SOL     OW15820   2.679   0.126  14.525 -0.2301  0.6016  0.2728
 1396SOL    HW115821   2.584   0.132  14.513 -0.3383  1.8506  1.7644
 1396SOL    HW215822   2.709   0.216  14.529  0.8906  0.2435 -0.0393
 1397SOL     OW15823   0.006   1.590  16.549  0.3017  0.5046  0.6528
 1397SOL    HW115824   4.698   1.523  16.500  1.5491  0.3037 -0.2130
 1397SOL    HW215825   4.727   1.667  16.494  1.7309 -0.6484 -1.3688
 1398SOL     OW15826   3.682   1.705  13.979 -0.0373 -0.3226  0.5125
 1398SOL    HW115827   3.641   1.741  13.901 -0.1671  1.5737  1.4566
 1398SOL    HW215828   3.765   1.676  13.940 -0.7172  0.3289 -1.3941
 1399SOL     OW15829   0.885   1.967   3.062 -0.1130  0.1708  0.7398
 1399SOL    HW115830   0.833   1.976   2.983  1.1223 -1.5059 -0.2556
 1399SOL    HW215831   0.939   1.893   3.033  0.3607  0.1149  1.7321
 1400SOL     OW15832   1.913   1.535  17.546 -0.3723  0.1655  0.4959
 1400SOL    HW115833   1.919   1.499  17.635  0.2192  2.4393  1.3712
 1400SOL    HW215834   1.818   1.541  17.538 -0.5173 -0.7309  1.5548
 1401SOL     OW15835   3.208   3.272   8.300 -0.5239 -0.1273 -0.9656
 1401SOL    HW115836   3.264   3.349   8.292 -0.1615 -0.3551 -0.6410
 1401SOL    HW215837   3.161   3.285   8.382  0.3479 -0.2482 -0.4479
 1402SOL     OW15838   0.884   2.278   5.445  0.0716  0.6696  0.1403
 1402SOL    HW115839   0.898   2.351   5.385 -0.5210  0.7021  0.0475
 1402SOL    HW215840   0.794   2.289   5.474 -0.5406 -0.2007 -1.3771
 1403SOL     OW15841   3.053   0.061   8.834 -0.1481  0.3562  0.3029
 1403SOL    HW115842   3.110   0.060   8.910  0.8886  0.1178 -0.4723
 1403SOL    HW215843   2.968   0.036   8.870  0.1219 -2.7918 -1.2679
 1404SOL     OW15844   4.291   1.195  12.714  0.1309 -0.0863 -0.0255
 1404SOL    HW115845   4.347   1.225  12.643 -0.2859  0.3256 -0.1713
 1404SOL    HW215846   4.351   1.144  12.770 -2.0459 -0.1024  2.2822
 1405SOL     OW15847   3.906   2.451   3.546 -0.2378  0.1012 -0.2462
 1405SOL    HW115848   3.834   2.511   3.566 -0.5454 -0.1429 -0.6373
 1405SOL    HW215849   3.912   2.472   3.453 -1.0774 -0.8840 -0.5136
 1406SOL     OW15850   1.662   2.477  11.016  0.2950  0.7114 -0.0809
 1406SOL    HW115851   1.740   2.498  11.067 -0.1367 -4.3708  2.6506
 1406SOL    HW215852   1.682   2.524  10.935  0.1776  0.6100 -0.1698
 1407SOL     OW15853   4.215   1.145   5.147  0.0567 -0.4572  0.1740
 1407SOL    HW115854   4.227   1.167   5.054  1.4250  1.6822  0.8428
 1407SOL    HW215855   4.120   1.139   5.159  0.3535 -1.0680  2.2005
 1408SOL     OW15856   1.551   1.750   3.490 -0.0423 -0.3110  0.3286
 1408SOL    HW115857   1.609   1.701   3.432  0.3260  0.4940  0.0025
 1408SOL    HW215858   1.497   1.799   3.428  0.8668 -0.6633 -0.7340
 1409SOL     OW15859   0.407   0.434   9.649  0.2587 -0.2672  0.6964
 1409SOL    HW115860   0.360   0.510   9.613 -1.1624 -1.7049 -0.4826
 1409SOL    HW215861   0.390   0.443   9.743  0.5418  2.4549  0.4720
 1410SOL     OW15862   4.278   1.847  13.859 -0.1680 -0.2053 -0.6228
 1410SOL    HW115863   4.344   1.821  13.923  0.6262  0.5403 -1.1229
 1410SOL    HW215864   4.251   1.934  13.889  2.2255  1.1598 -2.3458
 1411SOL     OW15865   0.774   2.448   9.834 -0.8320 -0.0691  0.0365
 1411SOL    HW115866   0.687   2.485   9.820 -0.6161  0.5283  0.2665
 1411SOL    HW215867   0.793   2.465   9.926  1.5634  0.4432 -0.5399
 1412SOL     OW15868   0.244   3.834   3.424  0.0208  0.1173 -0.2209
 1412SOL    HW115869   0.295   3.854   3.503  0.3365  1.1068 -0.6729
 1412SOL    HW215870   0.229   3.741   3.441 -0.8547  0.5994  1.6415
 1413SOL     OW15871   3.276   1.935   2.214  0.2165  0.0408 -0.7157
 1413SOL    HW115872   3.321   1.973   2.290 -0.2068  0.6806 -0.7842
 1413SOL    HW215873   3.217   1.880   2.266 -1.0269  1.3462 -0.7468
 1414SOL     OW15874   1.964   2.932   2.386  0.4011  0.0419 -0.0529
 1414SOL    HW115875   2.056   2.949   2.365  0.3951  0.9391  0.6727
 1414SOL    HW215876   1.971   2.980   2.468 -1.9766 -0.4130  0.4320
 1415SOL     OW15877   4.173   2.530   2.471 -0.2865  0.1914 -0.0013
 1415SOL    HW115878   4.103   2.483   2.425  0.1713  0.4776 -1.0127
 1415SOL    HW215879   4.152   2.519   2.563 -1.0402  1.9636  0.0445
 1416SOL     OW15880   3.723   1.088   2.833  1.1330  0.3295  0.0226
 1416SOL    HW115881   3.671   1.030   2.888  1.2155 -0.5706 -0.8449
 1416SOL    HW215882   3.668   1.166   2.829 -0.1250 -0.5127  1.0628
 1417SOL     OW15883   2.135   3.408  10.271 -0.1274  0.2122 -0.3578
 1417SOL    HW115884   2.083   3.333  10.242 -1.1986  1.5817 -1.9870
 1417SOL    HW215885   2.075   3.443  10.337  1.1194 -0.0410  0.9241
 1418SOL     OW15886   3.507   3.926   8.254  0.1536  0.6894  0.0204
 1418SOL    HW115887   3.589   3.878   8.239  0.0898  1.0555 -1.5480
 1418SOL    HW215888   3.540   4.009   8.287  2.5302  0.1378 -0.8841
 1419SOL     OW15889   0.366   0.721  12.884  0.1446 -0.1982 -0.5467
 1419SOL    HW115890   0.396   0.811  12.896  0.5483 -0.6763  1.8914
 1419SOL    HW215891   0.411   0.694  12.804 -0.8166 -2.0396 -0.4758
 1420SOL     OW15892   1.170   1.864  10.512  0.0022  0.0670 -0.3956
 1420SOL    HW115893   1.107   1.926  10.548 -0.3515 -0.2648 -0.4483
 1420SOL    HW215894   1.157   1.881  10.419  0.8702  0.9535 -0.3651
 1421SOL     OW15895   4.348   3.259   0.025 -0.3668 -0.1341  0.8579
 1421SOL    HW115896   4.363   3.323   0.094  1.1007  1.1651 -0.6534
 1421SOL    HW215897   4.327   3.178   0.071  0.7222 -1.6264 -1.2420
 1422SOL     OW15898   3.758   0.936   4.126 -0.1750 -0.3178 -0.3977
 1422SOL    HW115899   3.752   0.900   4.038  0.9235  0.8156 -0.9327
 1422SOL    HW215900   3.849   0.914   4.147  0.7266  0.4790 -3.5047
 1423SOL     OW15901   0.570   1.040  15.480  0.0045  0.6676 -0.0216
 1423SOL    HW115902   0.633   1.098  15.437 -0.3116  1.3383  0.4058
 1423SOL    HW215903   0.610   0.954  15.486  0.2508  0.6489 -2.2401
 1424SOL     OW15904   1.760   1.081   3.924  0.2708 -0.2468  1.0224
 1424SOL    HW115905   1.840   1.115   3.885 -1.3353  2.5254  0.1056
 1424SOL    HW215906   1.784   1.063   4.015  0.9070  1.5806  1.2029
 1425SOL     OW15907   1.425   1.769  12.801  0.1582 -0.0260  0.5981
 1425SOL    HW115908   1.484   1.694  12.793  1.1131  1.0281 -2.2167
 1425SOL    HW215909   1.363   1.744  12.870 -0.8774 -0.9072 -0.6472
 1426SOL     OW15910   2.879   2.038   6.794 -0.3292  0.3441  0.1668
 1426SOL    HW115911   2.805   2.047   6.855 -2.3321 -1.9987 -1.9359
 1426SOL    HW215912   2.852   1.963   6.741 -0.5097 -0.8737  1.9706
 1427SOL     OW15913   4.002   0.104   8.933  0.9433 -0.3798  0.0814
 1427SOL    HW115914   3.937   0.171   8.958  1.3531  0.1788 -0.3608
 1427SOL    HW215915   4.044   0.154   8.864 -0.5986  2.0639  0.8774
 1428SOL     OW15916   3.775   0.277   2.713 -0.3394 -0.1501 -0.6082
 1428SOL    HW115917   3.789   0.305   2.803 -2.8507  0.1011 -0.2951
 1428SOL    HW215918   3.721   0.353   2.690 -1.6042 -1.4834 -2.0263
 1429SOL     OW15919   4.256   3.551   4.213 -0.7263 -0.3414  0.5152
 1429SOL    HW115920   4.178   3.506   4.245 -1.3378 -0.0555 -0.5311
 1429SOL    HW215921   4.221   3.632   4.176 -0.3465  0.0759  1.0731
 1430SOL     OW15922   1.522   0.549   8.784 -0.1294  0.2947 -0.5355
 1430SOL    HW115923   1.530   0.586   8.697 -0.3722  2.8262  0.5323
 1430SOL    HW215924   1.614   0.526   8.799  0.3467  3.4784  1.3911
 1431SOL     OW15925   4.734   0.732   2.422  0.1419 -0.4740  0.2746
 1431SOL    HW115926   0.051   0.750   2.499  0.4160  1.7389 -0.4227
 1431SOL    HW215927   0.054   0.752   2.348 -1.6447 -3.3939 -1.8872
 1432SOL     OW15928   1.557   3.700  10.634  0.6674 -0.4371  0.0855
 1432SOL    HW115929   1.491   3.751  10.681 -0.4699 -0.4470 -1.4979
 1432SOL    HW215930   1.495   3.638  10.595  1.4214 -0.1902 -1.5096
 1433SOL     OW15931   3.940   1.364   9.496 -0.0089 -0.3929 -0.0080
 1433SOL    HW115932   3.980   1.318   9.422  2.1606 -1.0110  1.5293
 1433SOL    HW215933   3.849   1.344   9.477 -0.1028  0.2995 -0.2921
 1434SOL     OW15934   1.634   4.558   5.968  0.4451  0.0096 -0.0156
 1434SOL    HW115935   1.710   4.599   5.926  0.1482 -0.1471 -0.6996
 1434SOL    HW215936   1.643   4.464   5.959  0.8439 -0.0211  0.7234
 1435SOL     OW15937   2.191   2.495   2.628 -0.4662  0.1366 -0.0610
 1435SOL    HW115938   2.112   2.544   2.653 -0.3684  0.7471 -0.9398
 1435SOL    HW215939   2.157   2.412   2.596 -1.1291  0.1770  0.5352
 1436SOL     OW15940   2.701   2.009   3.788  0.8514 -0.3220 -0.1526
 1436SOL    HW115941   2.750   1.940   3.744  3.1179  1.9868 -1.2386
 1436SOL    HW215942   2.710   1.992   3.882 -0.8403  0.7465  0.1863
 1437SOL     OW15943   3.628   3.715   5.748 -0.5015 -0.1589  0.2109
 1437SOL    HW115944   3.604   3.763   5.668 -1.4218 -0.4153  0.3234
 1437SOL    HW215945   3.722   3.710   5.737 -0.5034  0.7782 -0.2578
 1438SOL     OW15946   4.084   3.392   1.477  0.8024 -0.1293 -0.9422
 1438SOL    HW115947   3.990   3.397   1.489  0.7242 -1.7603 -0.8828
 1438SOL    HW215948   4.097   3.420   1.386  1.6850 -2.0731 -1.4060
 1439SOL     OW15949   3.844   3.437   9.574 -0.3578 -0.4757 -0.2706
 1439SOL    HW115950   3.874   3.358   9.620 -1.9270 -0.8298  0.1460
 1439SOL    HW215951   3.891   3.414   9.494  2.8402 -1.7731  1.9683
 1440SOL     OW15952   3.204   4.508   2.712  0.1749 -0.1556 -0.2725
 1440SOL    HW115953   3.254   4.461   2.779 -0.9780  1.0692  1.4333
 1440SOL    HW215954   3.132   4.446   2.700  0.8814 -1.0792  0.2190
 1441SOL     OW15955   1.499   2.208   5.275 -1.0347 -0.6585 -0.1127
 1441SOL    HW115956   1.475   2.274   5.340  0.0206  0.8676 -1.2753
 1441SOL    HW215957   1.557   2.268   5.229 -0.5970 -0.4476  0.7183
 1442SOL     OW15958   0.345   4.341  16.599 -0.6483 -0.2628 -0.3988
 1442SOL    HW115959   0.253   4.367  16.608 -0.5676 -0.0739 -0.1343
 1442SOL    HW215960   0.390   4.426  16.599  0.0101 -0.6239 -1.9289
 1443SOL     OW15961   4.485   1.025   1.338 -0.0137 -0.3128 -0.1132
 1443SOL    HW115962   4.523   1.061   1.418 -1.4711  0.8602  0.0439
 1443SOL    HW215963   4.406   0.984   1.373 -0.3731 -1.7161 -2.5618
 1444SOL     OW15964   0.204   1.805   8.281 -0.2883 -0.0725 -0.7984
 1444SOL    HW115965   0.247   1.721   8.266  0.1987  0.2461 -1.1818
 1444SOL    HW215966   0.132   1.810   8.218  1.3161  1.0797 -2.5253
 1445SOL     OW15967   1.983   3.818   2.877 -0.1502 -0.7104 -0.1625
 1445SOL    HW115968   1.950   3.795   2.963 -0.4715 -2.1422 -0.6670
 1445SOL    HW215969   1.908   3.842   2.822  0.7528  0.5317 -0.8626
 1446SOL     OW15970   2.626   0.710   5.978  0.3956 -1.1054  0.0289
 1446SOL    HW115971   2.700   0.654   5.953  1.3166 -0.2156  0.8086
 1446SOL    HW215972   2.563   0.639   5.988  0.4346 -1.1887 -0.2950
 1447SOL     OW15973   0.836   1.704   7.926  0.3834 -0.0578  0.1984
 1447SOL    HW115974   0.825   1.792   7.889 -0.0766 -1.0580 -2.0764
 1447SOL    HW215975   0.902   1.670   7.866  0.9130  2.0455 -0.4283
 1448SOL     OW15976   1.972   2.143   8.761 -0.0094  0.7391 -0.7178
 1448SOL    HW115977   2.040   2.199   8.726  3.4450 -3.0451 -0.1113
 1448SOL    HW215978   1.914   2.205   8.805 -0.7222  0.5117 -1.3408
 1449SOL     OW15979   1.495   3.604  13.941 -0.8518  0.1017 -0.2412
 1449SOL    HW115980   1.497   3.680  14.000 -0.9162 -1.5687  1.9083
 1449SOL    HW215981   1.409   3.620  13.902 -0.9683  2.0326  0.7988
 1450SOL     OW15982   2.262   1.867  16.758  0.2913  0.0950 -0.0408
 1450SOL    HW115983   2.318   1.945  16.752 -0.5425  0.6501 -0.6520
 1450SOL    HW215984   2.239   1.868  16.665  1.5959  0.7731 -0.3692
 1451SOL     OW15985   4.580   4.293   2.445 -0.2905 -0.2032  0.3253
 1451SOL    HW115986   4.519   4.278   2.373 -1.3191 -0.6718  1.3077
 1451SOL    HW215987   4.538   4.235   2.509 -2.7721  1.2351 -0.0107
 1452SOL     OW15988   1.310   0.679   5.566 -0.6869  0.5005  0.2945
 1452SOL    HW115989   1.373   0.669   5.638  0.6095 -1.0569 -1.0945
 1452SOL    HW215990   1.229   0.681   5.617 -2.1030  2.6580 -2.0541
 1453SOL     OW15991   0.742   1.282   5.672  0.4507 -0.4477  0.3069
 1453SOL    HW115992   0.824   1.326   5.693 -1.5491  1.6680  3.6171
 1453SOL    HW215993   0.702   1.332   5.602  1.6156 -0.1657 -0.1512
 1454SOL     OW15994   3.427   4.288  17.599  0.5770  0.2045 -0.2885
 1454SOL    HW115995   3.376   4.236  17.662 -0.3311  1.1659 -0.2352
 1454SOL    HW215996   3.457   4.212  17.549  1.0287  0.0385  0.2433
 1455SOL     OW15997   1.756   2.263  12.661 -0.2790  0.5646 -1.0064
 1455SOL    HW115998   1.673   2.225  12.634 -1.1852  1.1936  0.9127
 1455SOL    HW215999   1.807   2.182  12.662  2.1389  2.1377  2.9709
 1456SOL     OW16000   1.718   0.606   0.963  0.2667  0.0947  0.2511
 1456SOL    HW116001   1.709   0.600   0.868 -0.0888  1.4975  0.1949
 1456SOL    HW216002   1.732   0.515   0.987  0.6824  0.4338  1.3223
 1457SOL     OW16003   3.924   1.894  13.829  0.4432  0.1818 -0.1823
 1457SOL    HW116004   3.955   1.982  13.850 -2.1179  1.1212 -0.3313
 1457SOL    HW216005   3.934   1.883  13.734  2.4657 -0.0691  0.0563
 1458SOL     OW16006   4.597   1.693   4.725 -0.0997 -0.3915  0.3211
 1458SOL    HW116007   4.643   1.775   4.706 -1.8917  1.2444  3.0281
 1458SOL    HW216008   4.558   1.718   4.809 -4.4663 -0.9002 -1.5585
 1459SOL     OW16009   0.712   0.986   9.258  0.8527 -0.1435  0.3203
 1459SOL    HW116010   0.769   1.061   9.240 -0.5613  0.6984 -0.6240
 1459SOL    HW216011   0.769   0.913   9.281  1.5985 -0.0305 -1.1761
 1460SOL     OW16012   1.662   2.465   1.861 -0.4823  0.3883 -0.0002
 1460SOL    HW116013   1.603   2.404   1.904  1.7034 -0.1949  2.1509
 1460SOL    HW216014   1.670   2.412   1.782 -1.0983 -0.7731  0.7235
 1461SOL     OW16015   0.058   1.719   5.009  0.1747  0.3047  0.4267
 1461SOL    HW116016   0.073   1.747   5.100 -2.2582  0.2530  0.8664
 1461SOL    HW216017   4.699   1.717   5.002  0.2216  1.4272 -0.4399
 1462SOL     OW16018   0.477   1.883   8.064 -0.3467  0.0042 -0.2363
 1462SOL    HW116019   0.391   1.898   8.026 -0.8718 -1.3916  0.3886
 1462SOL    HW216020   0.448   1.850   8.149 -0.2288 -0.0851 -0.2296
 1463SOL     OW16021   3.995   2.859  11.525 -0.3585  0.2668  0.3468
 1463SOL    HW116022   4.061   2.917  11.564 -0.8649  2.3760 -1.9416
 1463SOL    HW216023   4.014   2.773  11.562  2.3681  0.1653 -1.3244
 1464SOL     OW16024   4.126   1.253  11.850  0.5919  0.1520 -0.0481
 1464SOL    HW116025   4.174   1.336  11.852  3.9868 -1.7902 -2.3689
 1464SOL    HW216026   4.136   1.225  11.759  0.8356 -2.0005  0.6447
 1465SOL     OW16027   0.379   4.649   2.066 -0.2693 -0.2377 -0.0586
 1465SOL    HW116028   0.326   4.570   2.057  0.6141 -0.5902 -2.1257
 1465SOL    HW216029   0.330   4.710   2.010  3.0234  3.0605  0.6596
 1466SOL     OW16030   0.565   2.240   1.792 -0.0988  0.2270  0.6675
 1466SOL    HW116031   0.647   2.221   1.746  0.2646  0.3785  1.2618
 1466SOL    HW216032   0.506   2.233   1.717  0.9586 -0.3533 -0.1171
 1467SOL     OW16033   0.856   3.892   8.025  0.3925  0.0748 -0.0746
 1467SOL    HW116034   0.890   3.834   8.094 -0.0544 -0.6637 -0.4821
 1467SOL    HW216035   0.936   3.940   8.004  1.0951 -0.7820  0.5982
 1468SOL     OW16036   0.619   4.497   4.323  0.0420 -0.6371 -0.5099
 1468SOL    HW116037   0.570   4.490   4.405  0.3497  0.8205 -0.2177
 1468SOL    HW216038   0.681   4.425   4.333  0.9906  0.9634  5.1829
 1469SOL     OW16039   4.380   4.595   3.651 -0.1546  0.0059 -0.1566
 1469SOL    HW116040   4.351   4.556   3.568 -1.1571 -1.2101  0.7721
 1469SOL    HW216041   4.475   4.585   3.645 -0.0723 -0.6475  2.2533
 1470SOL     OW16042   1.837   1.663   0.230  0.1509  0.1565  0.7087
 1470SOL    HW116043   1.875   1.642   0.316  1.8233  0.2943  0.0028
 1470SOL    HW216044   1.876   1.748   0.211 -0.5525  0.1149 -0.9105
 1471SOL     OW16045   1.102   2.179   8.144 -0.4002  0.0428 -0.1154
 1471SOL    HW116046   1.066   2.094   8.169 -1.0493  0.2710 -0.2722
 1471SOL    HW216047   1.042   2.214   8.078  1.6206 -0.8761 -2.4481
 1472SOL     OW16048   4.421   2.623   3.061  0.0163 -0.5490  0.2270
 1472SOL    HW116049   4.498   2.569   3.081  0.6873 -0.0874 -1.1066
 1472SOL    HW216050   4.365   2.601   3.136  3.1067 -4.2748  1.4488
 1473SOL     OW16051   4.246   1.956   5.331 -0.3182  0.0891 -0.3046
 1473SOL    HW116052   4.337   1.929   5.315 -0.4003 -0.7284  0.5714
 1473SOL    HW216053   4.201   1.871   5.337  1.5575 -0.8703  0.2005
 1474SOL     OW16054   4.192   0.664   5.745 -0.6095 -0.0303 -0.5140
 1474SOL    HW116055   4.157   0.751   5.767  3.0281  1.3952 -0.4437
 1474SOL    HW216056   4.264   0.654   5.806 -1.2940 -0.2325  0.2630
 1475SOL     OW16057   1.630   3.380   3.030  0.0920 -0.6011  0.3509
 1475SOL    HW116058   1.546   3.401   2.988 -0.5929  0.7869  2.4150
 1475SOL    HW216059   1.644   3.290   3.001 -1.8322 -1.3278  1.7010
 1476SOL     OW16060   1.614   2.343   5.814 -0.1458  0.0057  0.6437
 1476SOL    HW116061   1.609   2.314   5.723 -0.8571  0.5391  0.5158
 1476SOL    HW216062   1.701   2.383   5.819  1.4636 -3.2498 -1.6237
 1477SOL     OW16063   1.945   1.495   0.062  0.1758  0.5349  0.2493
 1477SOL    HW116064   1.875   1.543   0.107 -1.0153 -1.9077  1.0141
 1477SOL    HW216065   2.019   1.549   0.091  0.4642 -1.0771  2.4932
 1478SOL     OW16066   3.233   2.165   4.775  0.2912 -0.4524 -0.3910
 1478SOL    HW116067   3.157   2.202   4.820  1.6961 -0.0747  1.7032
 1478SOL    HW216068   3.301   2.223   4.809 -1.2731  1.4650 -0.5406
 1479SOL     OW16069   1.828   4.281   3.119  0.3972 -0.0246 -0.1982
 1479SOL    HW116070   1.904   4.265   3.175  0.3443 -1.3345 -0.4948
 1479SOL    HW216071   1.803   4.372   3.137 -3.2554 -1.1151  0.4121
 1480SOL     OW16072   0.576   3.812   9.253 -0.4552  0.1612  0.1015
 1480SOL    HW116073   0.588   3.765   9.170 -1.6349 -0.0506  0.0459
 1480SOL    HW216074   0.490   3.852   9.241 -0.5148  0.2253  0.7318
 1481SOL     OW16075   2.984   4.568   0.601 -0.2602  0.4785 -0.4085
 1481SOL    HW116076   2.930   4.555   0.678  1.2771 -0.3191  0.5401
 1481SOL    HW216077   2.977   4.485   0.553 -0.3261 -0.1558  0.7210
 1482SOL     OW16078   3.628   0.700   7.253  0.8793  0.3157  0.7595
 1482SOL    HW116079   3.581   0.762   7.309  0.0754  0.0214  0.4144
 1482SOL    HW216080   3.685   0.762   7.208 -0.7045 -0.1892 -1.9463
 1483SOL     OW16081   4.282   2.059  15.381 -0.5933  0.3949 -0.0009
 1483SOL    HW116082   4.236   2.102  15.309 -0.9784  2.0523  1.2469
 1483SOL    HW216083   4.260   1.970  15.352 -2.0505  1.6106 -2.6099
 1484SOL     OW16084   0.926   4.308   7.544  0.1676  0.2213 -0.1088
 1484SOL    HW116085   0.866   4.308   7.470 -1.0622  4.0431  0.8848
 1484SOL    HW216086   0.990   4.244   7.514  1.4725  2.0362 -1.2167
 1485SOL     OW16087   2.355   1.781   4.294 -0.6123  0.4290  0.4608
 1485SOL    HW116088   2.286   1.770   4.360 -0.7560  0.7509  0.3651
 1485SOL    HW216089   2.406   1.703   4.316 -0.1680  0.5203 -0.2541
 1486SOL     OW16090   3.333   2.352  14.935  0.8730 -0.9284 -0.2413
 1486SOL    HW116091   3.423   2.380  14.950  0.2190  0.3707  1.3213
 1486SOL    HW216092   3.332   2.258  14.953  1.3376 -0.4540  2.1807
 1487SOL     OW16093   0.574   0.454  12.909  0.5285 -0.0067  0.1567
 1487SOL    HW116094   0.587   0.374  12.961 -3.2470  0.1646  1.3664
 1487SOL    HW216095   0.485   0.469  12.941  0.3397 -0.5036 -0.1269
 1488SOL     OW16096   4.015   3.614   3.610  0.0676 -0.0280  0.0378
 1488SOL    HW116097   4.034   3.543   3.671 -1.4750 -0.5456 -0.0658
 1488SOL    HW216098   3.925   3.628   3.640  0.5157 -1.1241  1.8564
 1489SOL     OW16099   4.659   2.464   4.728 -0.5094 -1.0405  0.4377
 1489SOL    HW116100   4.646   2.557   4.747 -1.0303 -1.2051  0.8622
 1489SOL    HW216101   0.010   2.473   4.689 -0.1978 -2.0539  0.9041
 1490SOL     OW16102   2.415   4.389   5.552 -0.2331 -0.8994 -0.0638
 1490SOL    HW116103   2.427   4.436   5.635  0.4765 -1.5715  0.2160
 1490SOL    HW216104   2.398   4.460   5.491 -1.0821 -1.1701 -0.1454
 1491SOL     OW16105   2.990   4.118   7.030 -0.1425 -0.0379  0.5724
 1491SOL    HW116106   2.897   4.099   7.043 -0.3628  0.6086 -0.0545
 1491SOL    HW216107   2.980   4.180   6.958 -0.6666  0.8090  1.3704
 1492SOL     OW16108   3.572   2.521   3.132 -0.3941 -0.2460 -0.2459
 1492SOL    HW116109   3.493   2.481   3.096  0.0416 -0.7268 -0.6668
 1492SOL    HW216110   3.628   2.443   3.138  1.6797  1.1509 -1.5127
 1493SOL     OW16111   1.208   0.571   7.496  0.4482  0.0960  0.3632
 1493SOL    HW116112   1.298   0.587   7.465  1.1544  0.6418  2.7426
 1493SOL    HW216113   1.156   0.636   7.449 -0.6983  0.0006  1.5361
 1494SOL     OW16114   0.166   1.336  14.285  0.0787 -0.2796 -0.4606
 1494SOL    HW116115   0.209   1.402  14.340  0.7832 -0.9785 -0.1689
 1494SOL    HW216116   0.191   1.362  14.196  1.7767 -1.5241 -0.3525
 1495SOL     OW16117   2.827   1.162  16.888  0.2687  0.0850 -0.2448
 1495SOL    HW116118   2.895   1.225  16.863 -0.2540  0.7172 -0.0783
 1495SOL    HW216119   2.875   1.099  16.941 -0.6047 -1.5837 -1.4518
 1496SOL     OW16120   2.812   4.612   6.540 -0.9684  0.9590  0.5292
 1496SOL    HW116121   2.807   4.647   6.628 -0.9365 -1.5834  1.5305
 1496SOL    HW216122   2.743   4.546   6.533  1.0918 -1.0519 -0.5522
 1497SOL     OW16123   1.915   1.983  15.256 -0.1997 -0.5325  0.6231
 1497SOL    HW116124   1.841   2.040  15.236 -0.1208 -0.6202  0.0865
 1497SOL    HW216125   1.862   1.923  15.309 -2.3430 -0.6977 -1.7283
 1498SOL     OW16126   2.247   0.402   8.713 -0.4118 -0.0485  0.3016
 1498SOL    HW116127   2.179   0.437   8.656  1.2140  1.5728 -0.6637
 1498SOL    HW216128   2.238   0.307   8.715 -0.4930 -0.0524 -0.4825
 1499SOL     OW16129   0.370   1.192  16.437  0.1717  0.2280  0.9376
 1499SOL    HW116130   0.462   1.189  16.412  0.1823 -1.3501  1.1438
 1499SOL    HW216131   0.374   1.246  16.516 -0.2186 -0.3073  1.3290
 1500SOL     OW16132   1.246   1.533   8.816  0.9401  0.2902 -0.1020
 1500SOL    HW116133   1.254   1.448   8.773 -0.1208 -0.6374  1.5288
 1500SOL    HW216134   1.329   1.537   8.865  2.0700  1.4407 -2.0911
 1501SOL     OW16135   0.046   1.315  13.985  0.0210  0.2819 -0.1237
 1501SOL    HW116136   0.101   1.241  13.961 -0.2661  0.0533 -0.0745
 1501SOL    HW216137   4.698   1.270  13.987  0.9597 -1.3646  2.3167
 1502SOL     OW16138   0.402   0.714  15.331  0.1641 -0.0209  0.3338
 1502SOL    HW116139   0.339   0.711  15.260 -1.3016 -0.8689  1.6714
 1502SOL    HW216140   0.477   0.749  15.282 -1.6744  0.4395 -2.1646
 1503SOL     OW16141   2.170   3.286   2.430 -0.2462 -0.5638 -0.0033
 1503SOL    HW116142   2.158   3.285   2.525  3.3658 -0.2797  0.4694
 1503SOL    HW216143   2.202   3.373   2.405 -2.9563  0.2957 -0.4729
 1504SOL     OW16144   0.440   0.291  13.124  0.0371  0.1044 -0.2781
 1504SOL    HW116145   0.409   0.379  13.102 -0.9723  0.4028  2.3728
 1504SOL    HW216146   0.458   0.295  13.218  1.8648 -0.8270 -0.5912
 1505SOL     OW16147   3.552   3.106   8.507  0.3439  0.1413  0.1312
 1505SOL    HW116148   3.640   3.074   8.526  0.2930  0.0518  0.2181
 1505SOL    HW216149   3.579   3.162   8.435  0.2960  1.0886  0.8508
 1506SOL     OW16150   4.459   4.353   9.508  0.2684 -0.4315 -0.2974
 1506SOL    HW116151   4.484   4.285   9.572  2.2881  0.9308  0.3745
 1506SOL    HW216152   4.464   4.307   9.424  1.1811 -0.6176 -0.1487
 1507SOL     OW16153   2.291   3.354   3.377 -0.0546 -0.7994 -0.2369
 1507SOL    HW116154   2.331   3.427   3.330 -0.0594  2.1130  4.2330
 1507SOL    HW216155   2.325   3.277   3.332  1.9670  0.5280 -0.9695
 1508SOL     OW16156   2.175   1.371  11.272  0.4477 -0.0072  0.0489
 1508SOL    HW116157   2.100   1.312  11.272 -0.1404  0.7462  0.8125
 1508SOL    HW216158   2.224   1.349  11.192  1.5146 -0.9151  0.9524
 1509SOL     OW16159   2.543   2.805   9.493 -0.1519 -0.5483  0.1909
 1509SOL    HW116160   2.585   2.878   9.447  0.3414  0.4142  2.1669
 1509SOL    HW216161   2.453   2.832   9.511 -0.0122 -0.1758  0.3222
 1510SOL     OW16162   3.814   2.319   8.663 -0.1397  0.4049 -0.1982
 1510SOL    HW116163   3.729   2.344   8.696 -0.4496 -0.2445 -0.4954
 1510SOL    HW216164   3.800   2.334   8.569 -0.3060 -2.2713 -0.6146
 1511SOL     OW16165   3.857   0.654  13.759  0.0926 -0.3730 -0.5018
 1511SOL    HW116166   3.785   0.692  13.709 -1.1342 -1.4844  0.4387
 1511SOL    HW216167   3.806   0.608  13.826 -1.2018  0.3308 -1.0114
 1512SOL     OW16168   3.419   4.518   1.398  0.3841 -0.4205  0.0375
 1512SOL    HW116169   3.511   4.493   1.391 -0.3073 -2.7110 -0.7380
 1512SOL    HW216170   3.376   4.436   1.421  0.2015 -0.4578 -0.4484
 1513SOL     OW16171   2.410   1.298   8.079 -0.7137 -0.5491  0.3362
 1513SOL    HW116172   2.494   1.309   8.035 -0.2794 -1.7264  0.8597
 1513SOL    HW216173   2.443   1.286   8.169 -0.2570  0.4879  0.3017
 1514SOL     OW16174   3.289   1.209   7.810  0.0163 -0.7073  0.1560
 1514SOL    HW116175   3.340   1.281   7.772 -1.1690 -0.0106 -0.1139
 1514SOL    HW216176   3.270   1.239   7.899 -0.4666 -1.3468  0.2662
 1515SOL     OW16177   2.662   0.862   1.620 -0.0447 -0.1749 -0.2844
 1515SOL    HW116178   2.692   0.930   1.681  1.2261 -0.3185 -0.7441
 1515SOL    HW216179   2.672   0.914   1.540 -0.3785 -0.4195 -0.4831
 1516SOL     OW16180   0.306   4.572   3.311 -0.2294 -1.0528 -0.2708
 1516SOL    HW116181   0.355   4.596   3.389  0.4548  0.3002 -1.1122
 1516SOL    HW216182   0.382   4.548   3.258  1.3447 -0.4421  1.7300
 1517SOL     OW16183   3.671   4.508   3.285  0.1801  0.2656  0.3153
 1517SOL    HW116184   3.764   4.500   3.308  0.2116 -2.1903 -0.7023
 1517SOL    HW216185   3.669   4.525   3.191  1.7648  0.1904  0.2726
 1518SOL     OW16186   2.627   0.927  15.253  0.2696 -0.5769 -0.0982
 1518SOL    HW116187   2.615   0.834  15.231 -0.3896 -0.8123  1.2743
 1518SOL    HW216188   2.721   0.933  15.270 -0.0885 -2.4581  2.5228
 1519SOL     OW16189   1.774   0.944   8.886 -0.0534 -0.4072 -0.6194
 1519SOL    HW116190   1.685   0.941   8.920  0.0096 -1.0740 -0.5103
 1519SOL    HW216191   1.752   0.888   8.811 -1.4553 -1.7391  0.7966
 1520SOL     OW16192   0.353   1.102   1.049 -0.1205 -0.2837  0.1628
 1520SOL    HW116193   0.428   1.043   1.041  0.7078  0.6607  0.8793
 1520SOL    HW216194   0.288   1.054   1.100  0.4806 -1.1109  0.1545
 1521SOL     OW16195   1.543   2.506  16.107  0.1260 -0.4092 -0.4694
 1521SOL    HW116196   1.467   2.531  16.054  0.2317 -0.0331 -0.4448
 1521SOL    HW216197   1.533   2.411  16.098 -0.6885 -0.3355 -0.3972
 1522SOL     OW16198   0.434   2.680  16.337  0.4103  0.1953  0.7831
 1522SOL    HW116199   0.530   2.683  16.328  0.2988 -1.7520 -1.1459
 1522SOL    HW216200   0.410   2.715  16.423  0.2042  0.4562  0.6211
 1523SOL     OW16201   3.155   1.608   9.343  0.0709 -0.3449  0.8890
 1523SOL    HW116202   3.063   1.630   9.333  0.5005 -0.4999 -3.5465
 1523SOL    HW216203   3.201   1.685   9.309  0.7350 -1.2461 -0.2772
 1524SOL     OW16204   0.212   2.363   7.201 -0.1490 -0.2421 -0.2480
 1524SOL    HW116205   0.199   2.385   7.294  0.8664 -2.2220  0.3802
 1524SOL    HW216206   0.235   2.449   7.168  0.1014 -0.2307 -0.0437
 1525SOL     OW16207   2.801   3.369  15.878  0.2177 -0.0303  0.0566
 1525SOL    HW116208   2.794   3.295  15.817 -0.6296  0.9202 -1.0137
 1525SOL    HW216209   2.892   3.364  15.906  0.0673 -0.5036  0.4700
 1526SOL     OW16210   3.322   3.971   9.041  0.0500  0.3303  0.1381
 1526SOL    HW116211   3.296   3.935   9.126  1.4646 -0.9642  0.0208
 1526SOL    HW216212   3.407   4.009   9.063 -0.1648  1.5820 -1.1929
 1527SOL     OW16213   0.102   0.811   1.350  0.7197  0.3978 -0.4252
 1527SOL    HW116214   0.174   0.774   1.298  0.5688  0.4554 -0.6737
 1527SOL    HW216215   0.122   0.903   1.335 -0.3582  0.8479  0.9507
 1528SOL     OW16216   4.373   0.699   2.404 -0.3200  0.1741  0.0633
 1528SOL    HW116217   4.454   0.747   2.388 -0.7733  1.2631  1.0055
 1528SOL    HW216218   4.354   0.669   2.316 -0.2801  1.0613 -0.2488
 1529SOL     OW16219   1.585   3.485   4.256  0.5879 -0.3777  0.3790
 1529SOL    HW116220   1.580   3.407   4.312  1.0472  0.2017  1.2235
 1529SOL    HW216221   1.514   3.466   4.195  0.1841 -0.4150  0.8635
 1530SOL     OW16222   3.281   0.281   5.081  0.0660 -0.2380 -0.1116
 1530SOL    HW116223   3.193   0.277   5.043  0.5405 -2.4917 -0.9368
 1530SOL    HW216224   3.250   0.321   5.162  1.5929  0.7042 -0.0036
 1531SOL     OW16225   4.496   0.606   4.613  0.3615  0.2293 -0.3459
 1531SOL    HW116226   4.586   0.635   4.604 -0.1141  1.6676 -0.3478
 1531SOL    HW216227   4.496   0.530   4.554  0.8103 -2.0614  2.6010
 1532SOL     OW16228   2.999   0.315   3.082  0.0652  0.0353  0.0593
 1532SOL    HW116229   3.081   0.307   3.131 -0.0591  0.5915  0.3654
 1532SOL    HW216230   2.943   0.346   3.154 -0.5913 -0.4887 -0.2293
 1533SOL     OW16231   3.686   0.484   3.192  0.4155 -0.0066 -0.7396
 1533SOL    HW116232   3.715   0.553   3.252  0.9624 -1.2804  0.4491
 1533SOL    HW216233   3.644   0.545   3.132 -3.2663 -2.9044 -1.0745
 1534SOL     OW16234   0.267   1.594   5.615 -0.2910  0.0871  0.0775
 1534SOL    HW116235   0.226   1.626   5.535  2.3780  1.0221 -0.9363
 1534SOL    HW216236   0.256   1.671   5.672 -0.3535 -0.9467  1.4520
 1535SOL     OW16237   2.383   2.595   9.870 -0.3393  0.3442  0.1172
 1535SOL    HW116238   2.295   2.619   9.895 -0.4145  1.8543 -1.5946
 1535SOL    HW216239   2.411   2.681   9.837 -2.2379  1.2239  0.8540
 1536SOL     OW16240   3.195   1.296   8.954  0.2158 -0.4162 -0.3218
 1536SOL    HW116241   3.140   1.237   9.005  0.1717  1.1485  1.4371
 1536SOL    HW216242   3.147   1.312   8.872  0.8555  2.1126 -0.1836
 1537SOL     OW16243   2.780   4.000   2.656  0.0288  0.6097 -0.3616
 1537SOL    HW116244   2.866   4.000   2.614  0.7306  2.1262  1.0911
 1537SOL    HW216245   2.798   4.059   2.729 -0.9718 -2.6840  2.5964
 1538SOL     OW16246   1.798   3.361  14.862 -0.2706 -0.9035 -0.0320
 1538SOL    HW116247   1.882   3.317  14.855 -0.2634 -0.9835  0.5815
 1538SOL    HW216248   1.776   3.380  14.771  2.4538 -0.3777 -0.5743
 1539SOL     OW16249   2.889   1.077   5.349  0.0583 -0.5674 -0.0350
 1539SOL    HW116250   2.838   1.116   5.278 -0.3394 -0.9207  0.0554
 1539SOL    HW216251   2.825   1.016   5.386 -2.0769  0.6434 -1.7360
 1540SOL     OW16252   0.539   2.070   9.093  0.1498 -0.6234 -0.0895
 1540SOL    HW116253   0.523   2.153   9.137 -0.6477 -1.2148  0.7495
 1540SOL    HW216254   0.532   2.085   8.999  0.9042  0.9260  0.1074
 1541SOL     OW16255   4.025   1.826   2.598  0.3234 -0.4516 -0.3958
 1541SOL    HW116256   4.018   1.735   2.567 -0.4086 -0.1980 -0.9604
 1541SOL    HW216257   4.096   1.826   2.662  0.5177 -4.6236 -0.5727
 1542SOL     OW16258   2.168   0.748  15.267  0.7586  0.7146 -0.0836
 1542SOL    HW116259   2.120   0.671  15.237  0.2263  0.7440  0.7167
 1542SOL    HW216260   2.132   0.761  15.355  0.3763  1.3517 -0.3342
 1543SOL     OW16261   0.020   3.188   3.571 -0.0763 -0.2313 -0.7217
 1543SOL    HW116262   0.058   3.238   3.644 -0.5444 -2.3462  0.9684
 1543SOL    HW216263   4.700   3.132   3.624  1.7557  0.8818  2.4246
 1544SOL     OW16264   3.842   0.677   4.742  0.4014 -0.2742  0.0894
 1544SOL    HW116265   3.890   0.672   4.824 -1.5961 -0.5118  1.2469
 1544SOL    HW216266   3.756   0.647   4.774 -1.2393  1.3515 -2.7669
 1545SOL     OW16267   1.500   2.829   7.845  0.0947 -0.5923 -0.5458
 1545SOL    HW116268   1.494   2.924   7.843  0.9542 -0.5287 -0.1142
 1545SOL    HW216269   1.540   2.806   7.761  1.2369 -1.6290  0.2813
 1546SOL     OW16270   4.293   0.715  13.804  0.0522  0.0115  0.3367
 1546SOL    HW116271   4.284   0.772  13.728 -0.1091  1.6782  1.6111
 1546SOL    HW216272   4.363   0.758  13.853 -0.1322  0.0877  0.5307
 1547SOL     OW16273   4.450   2.953   5.093 -0.1888 -0.3117 -0.0968
 1547SOL    HW116274   4.459   3.007   5.014 -0.1787  0.4376  0.4121
 1547SOL    HW216275   4.366   2.908   5.084  0.1404 -0.8690 -0.3296
 1548SOL     OW16276   4.209   3.728  13.861 -0.3170 -0.0557 -0.3640
 1548SOL    HW116277   4.295   3.752  13.826 -1.3689  1.0207 -2.2473
 1548SOL    HW216278   4.144   3.771  13.805 -0.1413 -0.2451 -0.7078
 1549SOL     OW16279   0.401   2.496  10.232  0.3854  0.1736  0.4738
 1549SOL    HW116280   0.326   2.547  10.264 -0.0472 -1.0203  1.3760
 1549SOL    HW216281   0.359   2.449  10.160 -0.0797  2.0687 -0.4930
 1550SOL     OW16282   2.785   1.202   6.017  0.4202 -0.3603 -0.0505
 1550SOL    HW116283   2.716   1.148   6.056  0.0382 -0.1343 -0.4085
 1550SOL    HW216284   2.780   1.186   5.923 -1.3554 -2.2729  0.3770
 1551SOL     OW16285   3.127   0.054   2.832 -0.5600 -0.5986 -0.4415
 1551SOL    HW116286   3.188   0.035   2.762 -0.1518  0.0995 -0.2741
 1551SOL    HW216287   3.157   4.732   2.902  2.3516 -0.9950 -2.0475
 1552SOL     OW16288   3.046   1.752  16.754 -0.2761  0.4458 -0.0007
 1552SOL    HW116289   2.955   1.738  16.727 -0.3447 -2.2457  1.6258
 1552SOL    HW216290   3.105   1.765  16.679 -0.4383  0.0984 -0.1893
 1553SOL     OW16291   4.015   1.081  11.252  0.7639 -0.0664 -0.2639
 1553SOL    HW116292   3.981   1.007  11.301 -0.3379  0.9948  0.5974
 1553SOL    HW216293   3.938   1.138  11.261  0.1155 -0.7258 -1.5697
 1554SOL     OW16294   1.889   1.646   7.402 -0.1042 -0.6025 -0.4686
 1554SOL    HW116295   1.887   1.685   7.489  1.2175 -0.8561 -0.3112
 1554SOL    HW216296   1.930   1.717   7.352  0.9296 -0.2893  0.8216
 1555SOL     OW16297   2.651   3.114   8.955 -0.4433  0.3517 -0.5510
 1555SOL    HW116298   2.556   3.130   8.954 -0.5237  0.1001  1.7117
 1555SOL    HW216299   2.664   3.079   8.867  0.5883  0.4196 -0.4197
 1556SOL     OW16300   2.334   0.928  11.189 -0.2960 -0.9789  0.5916
 1556SOL    HW116301   2.366   0.995  11.129 -3.2162  0.0306  0.1432
 1556SOL    HW216302   2.380   0.849  11.159 -0.6182 -1.0003  0.1524
 1557SOL     OW16303   3.657   3.042   7.383 -0.1770 -0.1133  0.2507
 1557SOL    HW116304   3.748   3.050   7.357 -0.1733  1.2318  0.6740
 1557SOL    HW216305   3.623   3.028   7.295  0.1238 -0.8282  0.2541
 1558SOL     OW16306   1.392   1.624   4.218  0.2831  0.1145 -0.4549
 1558SOL    HW116307   1.450   1.700   4.208  0.1046  0.5009  1.4552
 1558SOL    HW216308   1.309   1.665   4.192  0.2133 -0.9111 -1.8307
 1559SOL     OW16309   1.969   2.148   9.161 -0.0370 -0.1216 -0.2223
 1559SOL    HW116310   1.995   2.240   9.152  1.3644 -0.4569  0.4198
 1559SOL    HW216311   1.915   2.150   9.240 -1.1732 -2.6378 -0.9232
 1560SOL     OW16312   0.574   1.471   5.523  0.2942  0.3881 -0.2276
 1560SOL    HW116313   0.656   1.521   5.522  1.0643 -0.7959  1.5410
 1560SOL    HW216314   0.533   1.518   5.596  2.2044  0.6012  0.7348
 1561SOL     OW16315   1.025   0.642  16.147 -0.2817  0.0016  0.1306
 1561SOL    HW116316   0.981   0.727  16.146  1.8845  1.1285 -0.2561
 1561SOL    HW216317   0.986   0.598  16.072 -3.0843 -0.2233  1.7016
 1562SOL     OW16318   1.773   0.057  17.208  0.7333  0.5276  0.2829
 1562SOL    HW116319   1.842   0.100  17.258  1.0286  0.0857  0.2551
 1562SOL    HW216320   1.787   0.091  17.119 -2.1592  2.4774  0.5705
 1563SOL     OW16321   3.887   3.014   3.218  0.2764  0.6662 -0.0940
 1563SOL    HW116322   3.917   3.085   3.274  0.0506  1.0359 -0.4410
 1563SOL    HW216323   3.956   3.001   3.153  0.2741  1.0368 -0.1674
 1564SOL     OW16324   3.382   2.944   3.426 -0.0701 -0.1022 -0.4485
 1564SOL    HW116325   3.325   2.888   3.479  1.3706  0.8766  2.1945
 1564SOL    HW216326   3.392   2.884   3.352  0.7874  1.2620 -1.4302
 1565SOL     OW16327   1.543   3.970   3.270  0.1747 -0.4333 -0.0413
 1565SOL    HW116328   1.524   4.004   3.358  3.9253  0.0908  0.5340
 1565SOL    HW216329   1.466   3.915   3.254 -3.4491  5.0728 -1.7792
 1566SOL     OW16330   3.717   1.574   5.011  0.1308  0.2828 -0.1487
 1566SOL    HW116331   3.748   1.486   4.991 -0.4375  0.0684 -0.0749
 1566SOL    HW216332   3.801   1.619   5.020 -0.0349  0.8041 -1.1396
 1567SOL     OW16333   2.763   1.052  13.404 -0.0450  0.2870 -0.5821
 1567SOL    HW116334   2.741   0.966  13.439  0.2188  0.2959 -0.3931
 1567SOL    HW216335   2.751   1.118  13.472  1.5079 -1.9045  1.7956
 1568SOL     OW16336   3.070   2.533  17.023  0.0441  0.2245  0.2221
 1568SOL    HW116337   3.148   2.548  17.077  0.8051 -0.3901 -0.6996
 1568SOL    HW216338   3.108   2.492  16.945  0.5889 -0.0140  0.6119
 1569SOL     OW16339   0.268   3.646   9.191  0.0435 -0.0453 -0.3414
 1569SOL    HW116340   0.233   3.735   9.190  1.0563  0.3558  0.1207
 1569SOL    HW216341   0.334   3.654   9.260 -0.6034  1.5060  0.1049
 1570SOL     OW16342   0.429   1.305   3.626  0.4165 -0.5676  0.1559
 1570SOL    HW116343   0.459   1.382   3.675 -0.8869  0.7314 -1.0691
 1570SOL    HW216344   0.342   1.334   3.598  1.0910  0.9104 -0.4196
 1571SOL     OW16345   0.532   0.717  16.619  0.0865 -0.2619  0.1689
 1571SOL    HW116346   0.443   0.730  16.650 -0.5652  0.2009 -1.9262
 1571SOL    HW216347   0.527   0.626  16.590  2.4320 -0.0627 -0.9204
 1572SOL     OW16348   3.484   4.704  12.908  0.3048 -0.0936 -0.0666
 1572SOL    HW116349   3.557   0.027  12.924  0.3931 -0.3591  0.5071
 1572SOL    HW216350   3.513   4.641  12.842 -0.2023  0.9954 -1.3286
 1573SOL     OW16351   3.548   3.623   4.744  0.1861  0.2799  0.3439
 1573SOL    HW116352   3.591   3.650   4.664 -0.7593  1.2312  0.1537
 1573SOL    HW216353   3.457   3.636   4.717 -0.3648 -0.2445  1.9137
 1574SOL     OW16354   1.803   2.360   8.817  0.1766  0.6004  0.1274
 1574SOL    HW116355   1.722   2.344   8.769 -0.0386 -2.3638  1.4639
 1574SOL    HW216356   1.815   2.454   8.801 -0.5289  0.0277 -3.6539
 1575SOL     OW16357   4.428   4.255  10.950  0.2613 -0.4697 -0.1088
 1575SOL    HW116358   4.465   4.317  11.013 -0.5641 -0.8514  0.7405
 1575SOL    HW216359   4.343   4.236  10.989 -0.2015  3.1435  0.6534
 1576SOL     OW16360   4.129   3.785   4.138 -0.6138  0.1308  0.3111
 1576SOL    HW116361   4.035   3.789   4.156 -0.9116 -0.7848 -1.1036
 1576SOL    HW216362   4.141   3.871   4.099 -0.0533 -0.1534 -0.1358
 1577SOL     OW16363   3.709   3.384  16.109 -1.1687 -0.2752 -0.4684
 1577SOL    HW116364   3.708   3.347  16.197 -0.6750 -0.0375 -0.3637
 1577SOL    HW216365   3.793   3.429  16.108 -0.4732 -1.5744  0.3913
 1578SOL     OW16366   2.835   3.806   5.388  0.3240 -0.1286 -0.3357
 1578SOL    HW116367   2.781   3.885   5.391  2.5625  1.3256  1.4429
 1578SOL    HW216368   2.836   3.776   5.478  1.3475  0.5191 -0.1245
 1579SOL     OW16369   0.471   1.983  10.314 -0.3217 -1.0610 -0.3397
 1579SOL    HW116370   0.458   1.972  10.408 -1.9585 -0.2922 -0.4711
 1579SOL    HW216371   0.475   2.077  10.296  2.2109 -0.3872  3.6021
 1580SOL     OW16372   0.139   0.380   5.788 -0.1894  0.2034  0.0328
 1580SOL    HW116373   0.142   0.345   5.698 -0.7510  0.9644 -0.2779
 1580SOL    HW216374   0.048   0.410   5.790 -0.3277 -0.3400  1.4077
 1581SOL     OW16375   2.133   0.810   2.792  0.4943 -0.1649  0.2462
 1581SOL    HW116376   2.214   0.782   2.750 -0.1268 -2.4774  0.5477
 1581SOL    HW216377   2.166   0.851   2.871  0.2536 -2.0896  1.3425
 1582SOL     OW16378   4.118   0.910   5.823  0.1352  0.6346 -0.3722
 1582SOL    HW116379   4.044   0.937   5.770 -0.3318 -0.9485 -0.5118
 1582SOL    HW216380   4.077   0.871   5.900  0.1307 -0.9244 -1.1647
 1583SOL     OW16381   1.291   3.271   9.918  0.0984  0.2405  0.3629
 1583SOL    HW116382   1.350   3.291   9.845 -1.2522 -2.0614 -1.3521
 1583SOL    HW216383   1.214   3.320   9.890  1.4868  1.0089 -2.0468
 1584SOL     OW16384   3.123   0.522   9.506 -0.4122  0.6382 -0.2305
 1584SOL    HW116385   3.065   0.581   9.553 -0.7655  1.3803 -1.6147
 1584SOL    HW216386   3.186   0.498   9.574 -0.3047 -2.7535 -1.5331
 1585SOL     OW16387   1.398   2.031  11.941  0.2416  0.4066  0.1467
 1585SOL    HW116388   1.321   2.008  11.888  1.0270 -0.0004 -0.8189
 1585SOL    HW216389   1.475   2.003  11.891  0.4939 -1.6875  1.6749
 1586SOL     OW16390   1.702   2.021  16.088 -0.1277 -0.8451  0.5391
 1586SOL    HW116391   1.645   2.098  16.080 -0.2044 -1.0802 -1.2233
 1586SOL    HW216392   1.729   2.015  15.996  0.2031  0.1184  0.5693
 1587SOL     OW16393   2.456   0.324   6.236 -0.6987 -0.1265 -0.6811
 1587SOL    HW116394   2.461   0.369   6.320  1.7385 -2.6435  0.4969
 1587SOL    HW216395   2.365   0.296   6.240 -0.3619 -1.1140  0.0213
 1588SOL     OW16396   1.645   1.434   6.377  0.2680  0.4199  0.5930
 1588SOL    HW116397   1.613   1.524   6.371 -3.9279 -1.2782 -2.8316
 1588SOL    HW216398   1.629   1.416   6.284  1.7119 -0.0937  0.4466
 1589SOL     OW16399   4.392   0.020   7.723 -0.1829 -0.4706 -0.2638
 1589SOL    HW116400   4.477   4.718   7.743 -0.2412 -1.8217 -2.6822
 1589SOL    HW216401   4.330   4.683   7.731  0.7310 -1.1723  0.3178
 1590SOL     OW16402   1.302   2.677   3.374  1.1617  0.4503  0.2202
 1590SOL    HW116403   1.377   2.694   3.431  1.6716  2.0754 -0.9405
 1590SOL    HW216404   1.262   2.764   3.366 -0.2820 -0.0437  2.0557
 1591SOL     OW16405   3.294   4.058  14.051  0.3355  0.2681  0.2606
 1591SOL    HW116406   3.276   4.149  14.072  0.9001  0.2460  0.8294
 1591SOL    HW216407   3.214   4.023  14.092  0.3759  0.4020  0.4548
 1592SOL     OW16408   3.302   0.942   2.892  0.2338 -0.3751  0.0010
 1592SOL    HW116409   3.254   0.860   2.879  1.0041 -0.8138 -0.0686
 1592SOL    HW216410   3.295   0.979   2.804  2.8558  1.2296  0.4669
 1593SOL     OW16411   3.760   3.075  11.650  0.5871  0.1370  0.3759
 1593SOL    HW116412   3.805   2.999  11.688 -0.9212 -0.7487  0.3722
 1593SOL    HW216413   3.667   3.054  11.647  0.3645  1.1412  0.3764
 1594SOL     OW16414   2.004   1.467  16.011  0.0834  0.5511 -0.2667
 1594SOL    HW116415   2.060   1.501  15.941  0.4367  0.3699 -0.0700
 1594SOL    HW216416   1.991   1.548  16.061  1.5630  0.7227 -0.1540
 1595SOL     OW16417   0.157   4.392   3.452  0.3095  0.1966  0.9480
 1595SOL    HW116418   0.197   4.458   3.396 -0.4099  0.6562  0.9777
 1595SOL    HW216419   0.161   4.321   3.388  0.2881 -1.9062  3.2775
 1596SOL     OW16420   3.514   1.149   8.085 -0.3846 -0.4009  0.3216
 1596SOL    HW116421   3.468   1.227   8.115  1.0609 -0.0202  1.5156
 1596SOL    HW216422   3.456   1.080   8.119  0.6660 -1.2121  0.4911
 1597SOL     OW16423   4.331   4.733   3.358 -0.4547 -0.4061  0.0764
 1597SOL    HW116424   4.416   0.015   3.317 -0.6633  2.4055  0.9838
 1597SOL    HW216425   4.267   0.029   3.296 -0.3557 -2.5131 -1.1652
 1598SOL     OW16426   0.917   4.282   2.753 -0.4199 -0.1762 -0.2268
 1598SOL    HW116427   0.881   4.371   2.759 -0.4735 -0.2127 -0.0257
 1598SOL    HW216428   0.856   4.238   2.812  2.8876 -3.3939  0.7730
 1599SOL     OW16429   3.352   2.474   3.310  0.2208 -0.0388  0.0739
 1599SOL    HW116430   3.303   2.532   3.369 -0.5968 -0.6992  0.0461
 1599SOL    HW216431   3.273   2.427   3.282  1.0142 -0.2846 -1.7306
 1600SOL     OW16432   0.190   3.004   3.223 -0.1208 -0.5609 -0.1960
 1600SOL    HW116433   0.194   2.918   3.265 -0.1701  0.1961  1.3833
 1600SOL    HW216434   0.270   3.001   3.171  0.5301 -0.0615  0.7639
 1601SOL     OW16435   2.458   1.715  15.575 -0.6465 -0.4459  0.1959
 1601SOL    HW116436   2.506   1.726  15.493  0.6631  1.4173  1.2066
 1601SOL    HW216437   2.503   1.777  15.633 -2.8491  0.1785  1.2602
 1602SOL     OW16438   4.425   0.246  12.102 -0.3698  0.1581  0.5230
 1602SOL    HW116439   4.438   0.231  12.009  0.8106  0.4811  0.6438
 1602SOL    HW216440   4.349   0.193  12.127 -1.0610  0.7104 -0.4052
 1603SOL     OW16441   1.269   1.439  11.965 -0.1311 -0.0496  0.1826
 1603SOL    HW116442   1.321   1.505  12.011  0.8485  0.0645 -1.0964
 1603SOL    HW216443   1.324   1.419  11.889 -2.4450  0.1722 -1.5405
 1604SOL     OW16444   0.785   2.601   3.894 -0.2808  0.4564  0.0541
 1604SOL    HW116445   0.844   2.550   3.839  1.5232 -0.9355  3.2658
 1604SOL    HW216446   0.778   2.537   3.965 -0.4251  3.2458  2.5783
 1605SOL     OW16447   0.581   1.368   7.226 -0.4029 -0.1302 -0.7358
 1605SOL    HW116448   0.605   1.442   7.169  2.3736  0.2496  0.9108
 1605SOL    HW216449   0.533   1.415   7.294 -1.0739 -2.4243  0.3668
 1606SOL     OW16450   3.600   0.219   7.393  0.0901 -0.2199 -0.0751
 1606SOL    HW116451   3.523   0.240   7.340 -1.6539  0.4786  2.7019
 1606SOL    HW216452   3.621   0.307   7.425  1.2336 -0.5810  0.1542
 1607SOL     OW16453   0.800   0.096   3.757  0.1026 -0.0952  0.4041
 1607SOL    HW116454   0.764   0.027   3.700  0.1660 -1.2638  1.7617
 1607SOL    HW216455   0.733   0.136   3.812  2.0191 -1.5276  3.7976
 1608SOL     OW16456   4.703   1.910   9.954  0.4584  0.0621  0.4081
 1608SOL    HW116457   4.666   1.924   9.866  2.9799 -0.5487 -0.7540
 1608SOL    HW216458   0.050   1.871   9.928 -0.6467 -1.8163 -0.2749
 1609SOL     OW16459   1.301   3.348   2.626 -0.2331 -0.3443  0.5697
 1609SOL    HW116460   1.266   3.261   2.646 -2.2387  0.3165 -0.1090
 1609SOL    HW216461   1.302   3.345   2.531  0.3261  1.3207  0.5276
 1610SOL     OW16462   4.305   3.562   2.490 -0.2581 -0.5083  0.3949
 1610SOL    HW116463   4.372   3.528   2.550 -0.7481 -2.3563 -0.0807
 1610SOL    HW216464   4.234   3.498   2.498  0.5260 -1.0558  3.0920
 1611SOL     OW16465   2.043   1.123  12.420  0.7951 -0.2379  0.3927
 1611SOL    HW116466   2.083   1.111  12.506  1.5982  0.6133  0.1386
 1611SOL    HW216467   2.060   1.039  12.375 -0.5341 -0.3289  0.0513
 1612SOL     OW16468   3.441   2.584   6.193  0.4169 -0.2771  0.3409
 1612SOL    HW116469   3.473   2.660   6.240 -1.6896  1.7453 -1.5221
 1612SOL    HW216470   3.522   2.533   6.201  0.1691 -1.1551 -2.8174
 1613SOL     OW16471   2.018   2.214   4.582  0.4395  0.2137 -0.2613
 1613SOL    HW116472   2.063   2.264   4.650 -1.3108  0.2895  0.8412
 1613SOL    HW216473   1.937   2.263   4.569  0.4241  0.2714  0.0634
 1614SOL     OW16474   1.154   1.097   8.275  0.1603  0.3940  0.1492
 1614SOL    HW116475   1.199   1.121   8.357 -0.6168 -0.2833  0.7773
 1614SOL    HW216476   1.063   1.099   8.305  0.0008 -2.0206 -0.1600
 1615SOL     OW16477   2.005   2.163   5.200 -0.3143  0.5087  0.1374
 1615SOL    HW116478   1.999   2.068   5.194 -1.1599  0.6732 -1.6262
 1615SOL    HW216479   2.072   2.177   5.133  0.5291  1.9538  1.2499
 1616SOL     OW16480   1.633   1.201   9.777  0.2274  0.0044 -0.0949
 1616SOL    HW116481   1.637   1.136   9.847  1.6269 -0.5599 -0.7182
 1616SOL    HW216482   1.542   1.205   9.748  0.9789 -1.1584 -2.5289
 1617SOL     OW16483   0.785   3.134   3.608  0.0245 -0.0659  0.3817
 1617SOL    HW116484   0.759   3.218   3.572  0.3316 -0.1679 -0.0765
 1617SOL    HW216485   0.755   3.070   3.543 -0.6841  1.1252 -0.4601
 1618SOL     OW16486   4.675   1.246  15.243 -0.3066  0.4253  0.2381
 1618SOL    HW116487   4.615   1.239  15.317  0.3519 -0.2934  0.7057
 1618SOL    HW216488   4.620   1.275  15.170 -0.7258 -0.7342  0.0908
 1619SOL     OW16489   0.692   3.901   3.047  0.0347 -0.6866  0.9788
 1619SOL    HW116490   0.697   3.811   3.078 -0.2321 -0.6827  1.0338
 1619SOL    HW216491   0.675   3.954   3.126 -0.1750  1.5371 -0.5564
 1620SOL     OW16492   4.608   2.099   5.188  0.2584  0.1464  0.1640
 1620SOL    HW116493   4.696   2.067   5.168  1.0734  1.1037  2.2069
 1620SOL    HW216494   4.569   2.029   5.240 -0.6607  0.4736 -0.0859
 1621SOL     OW16495   3.823   4.157   3.106  0.0162 -0.1154 -0.4956
 1621SOL    HW116496   3.845   4.070   3.073 -0.3011 -0.7769  1.0516
 1621SOL    HW216497   3.760   4.135   3.175  1.6903 -0.5004  0.9191
 1622SOL     OW16498   3.543   0.926   5.365  0.2974 -0.1899  0.6957
 1622SOL    HW116499   3.448   0.936   5.375  0.4118 -0.3499  1.8930
 1622SOL    HW216500   3.556   0.833   5.384  0.9268 -0.3336 -0.4304
 1623SOL     OW16501   1.366   2.483   3.183  0.1706 -0.0140  0.1309
 1623SOL    HW116502   1.428   2.543   3.141  0.6060 -0.2276  0.4659
 1623SOL    HW216503   1.327   2.534   3.254  1.3534  0.4276  0.4640
 1624SOL     OW16504   1.891   1.962   7.333  0.0132  0.2428  0.4077
 1624SOL    HW116505   1.830   1.952   7.260  0.1463  0.5753  0.2522
 1624SOL    HW216506   1.969   1.930   7.288  0.0116  0.7956  0.0130
 1625SOL     OW16507   0.042   1.416  10.485  0.0789  0.4384 -0.0191
 1625SOL    HW116508   0.113   1.480  10.489 -0.8369  1.2499  3.2229
 1625SOL    HW216509   4.713   1.472  10.526 -0.2526  0.7441 -0.9641
 1626SOL     OW16510   1.653   4.456   7.352 -0.0255  0.8240 -0.4254
 1626SOL    HW116511   1.617   4.544   7.354  1.6195  1.4713  1.1548
 1626SOL    HW216512   1.668   4.450   7.446 -0.1301  0.3475 -0.4391
 1627SOL     OW16513   3.574   2.808  11.938 -0.4749 -0.2579 -0.4675
 1627SOL    HW116514   3.545   2.899  11.936  0.3956  0.0499  1.0259
 1627SOL    HW216515   3.666   2.822  11.914 -0.7526  1.3464 -0.6203
 1628SOL     OW16516   2.194   3.407   9.013 -0.4551 -0.0582 -0.1236
 1628SOL    HW116517   2.237   3.483   8.973  1.3987 -0.5883  0.8832
 1628SOL    HW216518   2.126   3.379   8.951 -0.4227  0.5525 -0.4343
 1629SOL     OW16519   0.943   2.180   6.244 -0.2096 -0.4615  0.1721
 1629SOL    HW116520   1.004   2.197   6.172 -2.4799  2.0122 -1.1869
 1629SOL    HW216521   0.880   2.251   6.237 -0.2860 -0.2255  3.1435
 1630SOL     OW16522   0.433   0.808   3.119 -0.2009  0.2499 -0.2822
 1630SOL    HW116523   0.346   0.781   3.087  0.7837 -1.7375 -1.3367
 1630SOL    HW216524   0.480   0.807   3.036  1.6234  0.4065  0.7652
 1631SOL     OW16525   1.739   2.591   9.822 -0.1235 -0.8718  0.3213
 1631SOL    HW116526   1.692   2.509   9.809 -2.3018  0.8823 -2.8413
 1631SOL    HW216527   1.832   2.572   9.816 -0.0848 -1.2693  2.1548
 1632SOL     OW16528   3.571   0.674   0.440 -0.2688  0.6446  0.7483
 1632SOL    HW116529   3.536   0.601   0.390  0.8049 -0.2830  1.3264
 1632SOL    HW216530   3.638   0.709   0.382 -0.7202 -2.3908 -1.6089
 1633SOL     OW16531   3.479   3.575  16.994 -0.1143  0.1044  0.0084
 1633SOL    HW116532   3.426   3.544  17.068 -1.4862  0.4181 -0.8504
 1633SOL    HW216533   3.521   3.494  16.965  1.3128  1.2237 -1.0506
 1634SOL     OW16534   0.740   0.513   3.260 -0.7010 -0.2944  0.0250
 1634SOL    HW116535   0.716   0.420   3.253 -2.1218 -0.0351  1.4896
 1634SOL    HW216536   0.779   0.526   3.174  1.4940 -1.2538  0.8731
 1635SOL     OW16537   0.508   0.071   7.435 -0.0014 -0.0243  0.8576
 1635SOL    HW116538   0.582   0.113   7.390 -1.2869  0.4835 -0.7728
 1635SOL    HW216539   0.430   0.098   7.386 -0.2961  0.1736  1.4414
 1636SOL     OW16540   4.286   4.126   7.545  0.0006 -0.0496 -0.2653
 1636SOL    HW116541   4.305   4.090   7.632 -0.1162  2.0677  0.6263
 1636SOL    HW216542   4.193   4.148   7.550  0.5853  1.9849  1.6509
 1637SOL     OW16543   3.224   1.018   3.975 -0.0939 -0.2273 -0.1242
 1637SOL    HW116544   3.293   0.953   3.963 -0.6591 -0.1604 -3.9924
 1637SOL    HW216545   3.264   1.096   4.014 -0.8532 -0.7780  1.7551
 1638SOL     OW16546   3.514   3.224   2.493  0.6707  0.0203 -0.0973
 1638SOL    HW116547   3.570   3.294   2.461  0.2322  1.1390  1.5765
 1638SOL    HW216548   3.440   3.241   2.434 -0.6252  0.7078  1.7214
 1639SOL     OW16549   3.288   0.389   4.204 -0.2125  0.2828  0.0739
 1639SOL    HW116550   3.193   0.379   4.194 -0.4090  0.4771  1.7037
 1639SOL    HW216551   3.323   0.311   4.162  0.1554  2.2195 -3.2046
 1640SOL     OW16552   4.537   4.227  15.889  0.1636 -0.3888 -0.6812
 1640SOL    HW116553   4.584   4.207  15.808  1.5743 -1.6849  0.4593
 1640SOL    HW216554   4.490   4.303  15.856  0.2284  0.3862  1.0005
 1641SOL     OW16555   2.584   1.248   2.429  0.0800  0.3773  0.1681
 1641SOL    HW116556   2.538   1.309   2.488  0.5676  2.2978 -1.4265
 1641SOL    HW216557   2.615   1.187   2.495  0.0870  1.1824  0.9074
 1642SOL     OW16558   3.776   3.351  14.234 -0.0589 -0.4742 -0.3666
 1642SOL    HW116559   3.799   3.427  14.289  0.4788 -0.5907 -0.4370
 1642SOL    HW216560   3.821   3.389  14.159  1.3800 -1.0418  0.2237
 1643SOL     OW16561   2.802   2.559  17.666  0.3638  0.3672 -0.0058
 1643SOL    HW116562   2.794   2.620  17.740 -0.5135  0.1661  0.0635
 1643SOL    HW216563   2.777   2.613  17.591  0.7492 -1.0085 -1.1268
 1644SOL     OW16564   1.517   2.934   3.710  0.0623  0.0461  0.4552
 1644SOL    HW116565   1.436   2.963   3.670 -0.5603 -0.3989  1.3773
 1644SOL    HW216566   1.575   2.916   3.636 -1.1050  1.9747 -0.8994
 1645SOL     OW16567   2.641   3.817   2.813 -0.1016 -0.0388  0.5583
 1645SOL    HW116568   2.634   3.865   2.896  1.4846 -1.3746  1.4636
 1645SOL    HW216569   2.694   3.870   2.753 -0.0090 -1.0269 -0.2416
 1646SOL     OW16570   1.508   4.277   9.793  0.2450  0.1923 -0.4781
 1646SOL    HW116571   1.529   4.282   9.886  0.1726  1.2731 -0.5198
 1646SOL    HW216572   1.509   4.181   9.794  0.3882  0.1889 -1.3171
 1647SOL     OW16573   0.611   2.333   6.747 -0.7638  0.2096 -0.0090
 1647SOL    HW116574   0.618   2.248   6.704  0.8399  0.8149 -0.9228
 1647SOL    HW216575   0.534   2.315   6.800 -1.1471  0.6028 -0.4244
 1648SOL     OW16576   2.013   3.472  15.839 -0.3160 -0.0066 -0.4890
 1648SOL    HW116577   1.929   3.432  15.822 -0.8691  0.3317  1.4330
 1648SOL    HW216578   1.984   3.561  15.858  0.0223  0.6781 -3.1965
 1649SOL     OW16579   1.640   1.915   7.186  0.2619  0.2769  0.5858
 1649SOL    HW116580   1.666   1.846   7.126 -1.5131  0.4688 -0.3848
 1649SOL    HW216581   1.547   1.931   7.173  0.0334  0.8999  3.0132
 1650SOL     OW16582   2.271   1.793   3.107 -0.0372  1.1867 -0.4591
 1650SOL    HW116583   2.252   1.884   3.087  1.1077  1.6448  0.5650
 1650SOL    HW216584   2.276   1.796   3.202  2.1898 -3.9400 -0.3970
 1651SOL     OW16585   0.662   1.336   2.971  0.6419  0.5162  0.1323
 1651SOL    HW116586   0.574   1.353   2.936  1.4689 -0.4010 -2.3433
 1651SOL    HW216587   0.650   1.295   3.057 -0.6828 -1.8608 -1.1847
 1652SOL     OW16588   0.148   2.788   8.464  0.3317 -0.1213 -0.8513
 1652SOL    HW116589   0.100   2.750   8.390  0.9447 -1.9170 -0.3205
 1652SOL    HW216590   0.210   2.717   8.481 -0.9418 -1.1868 -0.6247
 1653SOL     OW16591   2.630   1.151  10.194 -0.1431 -0.1587  0.6076
 1653SOL    HW116592   2.616   1.142  10.100 -0.8340 -1.3344  0.8330
 1653SOL    HW216593   2.699   1.218  10.201  1.0139 -1.2102 -0.6582
 1654SOL     OW16594   4.195   4.666  15.671  0.2071  0.4124 -0.5038
 1654SOL    HW116595   4.113   4.619  15.658 -0.7352  2.3380 -1.4543
 1654SOL    HW216596   4.257   4.628  15.609  0.0139 -1.2294  0.2839
 1655SOL     OW16597   1.565   1.377   5.341 -0.3414  0.6707 -0.0655
 1655SOL    HW116598   1.479   1.420   5.336 -0.3070  0.7862  0.3155
 1655SOL    HW216599   1.583   1.334   5.258  1.3608  0.8174  0.2423
 1656SOL     OW16600   0.978   0.493   4.153  0.5217 -0.1262 -0.1837
 1656SOL    HW116601   1.009   0.470   4.241  0.1150 -0.0047 -0.0055
 1656SOL    HW216602   1.049   0.478   4.091  0.9462  1.2794 -0.0485
 1657SOL     OW16603   2.272   3.344   7.498 -0.1507  0.4714  0.3180
 1657SOL    HW116604   2.266   3.428   7.543 -1.7201 -0.3591  1.6602
 1657SOL    HW216605   2.183   3.319   7.476 -0.5316  1.1110  1.1383
 1658SOL     OW16606   1.106   1.768   5.121 -0.2919 -0.2577  0.5001
 1658SOL    HW116607   1.141   1.680   5.112 -0.7590 -0.4099  0.1879
 1658SOL    HW216608   1.051   1.779   5.043 -0.2397 -0.5993  0.4173
 1659SOL     OW16609   2.605   2.101   0.274 -0.0391  0.8121 -0.0096
 1659SOL    HW116610   2.556   2.126   0.196 -1.7895 -0.9153  0.5431
 1659SOL    HW216611   2.573   2.011   0.285 -0.2149  0.9241  0.3788
 1660SOL     OW16612   1.633   4.213   3.333  0.5350  0.1010 -0.4648
 1660SOL    HW116613   1.678   4.218   3.249  1.5544 -2.3714 -0.0692
 1660SOL    HW216614   1.560   4.155   3.309  0.4377  0.1464 -0.2763
 1661SOL     OW16615   3.001   3.369   7.292 -0.3476  0.1793 -0.7560
 1661SOL    HW116616   2.921   3.392   7.243 -0.6815  1.1395  0.2414
 1661SOL    HW216617   3.050   3.450   7.292  3.1652 -1.9615 -1.0504
 1662SOL     OW16618   2.304   0.956   6.349 -0.3919 -0.2093 -0.2830
 1662SOL    HW116619   2.321   0.937   6.257  1.0404 -1.0034  0.1408
 1662SOL    HW216620   2.316   1.051   6.342 -3.2245  0.1985  0.3006
 1663SOL     OW16621   3.069   4.572   1.699  0.4274 -0.4179  0.0413
 1663SOL    HW116622   3.024   4.639   1.648 -0.3821  1.3183  3.0306
 1663SOL    HW216623   3.053   4.496   1.643 -0.2559  0.0557 -0.4145
 1664SOL     OW16624   2.004   4.157   2.020 -0.1346  0.0743  0.5445
 1664SOL    HW116625   1.914   4.127   2.031  0.1565 -0.7714  0.6460
 1664SOL    HW216626   1.999   4.206   1.938 -0.0458  0.2409  0.6399
 1665SOL     OW16627   1.948   0.673   5.424 -0.1682  0.1047  0.0450
 1665SOL    HW116628   1.953   0.718   5.340  1.5452  0.6809  0.4536
 1665SOL    HW216629   1.953   0.748   5.482 -0.0782  1.0194 -1.1427
 1666SOL     OW16630   2.007   4.306  11.518  0.3681  0.1857 -0.7178
 1666SOL    HW116631   2.053   4.361  11.581 -0.3052  0.4992 -0.4945
 1666SOL    HW216632   1.919   4.305  11.557  0.8960 -0.2161  0.4576
 1667SOL     OW16633   4.633   4.185   1.103  0.0805 -0.3405 -0.0410
 1667SOL    HW116634   4.677   4.260   1.143  0.9900 -0.2682 -1.1620
 1667SOL    HW216635   4.540   4.200   1.123  0.3659  1.7386 -0.2357
 1668SOL     OW16636   2.558   2.447   7.413  0.3948  0.3440  0.1521
 1668SOL    HW116637   2.487   2.491   7.459  0.6949  0.9105  0.0702
 1668SOL    HW216638   2.621   2.437   7.485  0.5534  2.1042  0.2454
 1669SOL     OW16639   3.627   0.289   1.708 -0.1221  0.1916 -0.3291
 1669SOL    HW116640   3.609   0.214   1.651 -1.0139  0.8102 -0.8610
 1669SOL    HW216641   3.706   0.327   1.669 -0.2473  0.9546  0.1648
 1670SOL     OW16642   4.226   1.465  17.688  0.4820  0.1142 -0.2377
 1670SOL    HW116643   4.194   1.424  17.607 -2.1062  2.3528 -0.3673
 1670SOL    HW216644   4.249   1.383  17.731  1.0199  1.0526  1.2262
 1671SOL     OW16645   4.466   2.941   4.216 -0.6046  0.2499  0.8652
 1671SOL    HW116646   4.557   2.967   4.229 -0.4903 -0.2193  1.0030
 1671SOL    HW216647   4.428   3.028   4.209 -1.3962 -0.2805 -1.3726
 1672SOL     OW16648   3.890   1.259   6.744 -0.1305  0.4208 -0.1731
 1672SOL    HW116649   3.910   1.317   6.670  0.3715 -0.3287 -0.6232
 1672SOL    HW216650   3.977   1.224   6.763  0.2528  0.6524 -1.4584
 1673SOL     OW16651   1.267   3.800   2.017  0.3568 -0.1056  0.6389
 1673SOL    HW116652   1.268   3.874   1.956 -1.5655 -0.6816 -0.0578
 1673SOL    HW216653   1.269   3.843   2.103  2.5235  0.4133  0.3562
 1674SOL     OW16654   1.675   2.521   2.948  0.5936  0.1797 -0.0188
 1674SOL    HW116655   1.624   2.589   2.992  2.3003  1.2538  0.2927
 1674SOL    HW216656   1.681   2.569   2.866 -1.7552  2.0733  0.9058
 1675SOL     OW16657   3.189   4.109   3.911 -0.1529 -0.1672  0.2167
 1675SOL    HW116658   3.103   4.149   3.897 -0.1568  0.1357  1.1028
 1675SOL    HW216659   3.192   4.146   4.000  1.2568  1.2276 -0.4104
 1676SOL     OW16660   0.955   3.555   1.101  0.2234  0.3354 -0.2406
 1676SOL    HW116661   0.906   3.634   1.077 -0.2736  0.4481  1.1309
 1676SOL    HW216662   0.914   3.487   1.048 -0.3153  0.3105  0.2046
 1677SOL     OW16663   1.358   1.469   6.051 -0.4249  0.1171 -0.7335
 1677SOL    HW116664   1.414   1.546   6.049 -2.8407  1.8950 -1.0761
 1677SOL    HW216665   1.282   1.503   6.098 -1.3949 -3.2083  0.0927
 1678SOL     OW16666   3.665   3.430  16.558  0.1435 -0.5555 -0.1202
 1678SOL    HW116667   3.649   3.523  16.547 -2.4650 -1.0023 -0.0935
 1678SOL    HW216668   3.621   3.424  16.643 -0.5103 -1.1937 -0.5033
 1679SOL     OW16669   3.340   0.392   6.753 -0.2804  0.0543  0.0342
 1679SOL    HW116670   3.327   0.301   6.777  0.2556  0.5430  2.2239
 1679SOL    HW216671   3.335   0.436   6.838  0.7018 -1.2546  0.7704
 1680SOL     OW16672   3.390   3.519  16.516 -0.3201  0.9040 -0.1985
 1680SOL    HW116673   3.329   3.473  16.573  2.1682  0.2882  1.9868
 1680SOL    HW216674   3.420   3.577  16.587 -0.6321  1.4095 -0.4801
 1681SOL     OW16675   4.270   0.636   7.159 -0.0739  0.4643  0.3689
 1681SOL    HW116676   4.182   0.614   7.186  0.0101  0.1029  0.3519
 1681SOL    HW216677   4.309   0.549   7.147  2.4091  1.6697 -0.3566
 1682SOL     OW16678   0.985   1.995   3.431  0.0873 -0.6955  0.3326
 1682SOL    HW116679   0.902   2.037   3.411 -0.3436 -1.2779  0.8937
 1682SOL    HW216680   0.986   1.916   3.376 -1.7991 -0.3686 -0.1773
 1683SOL     OW16681   3.846   3.029   1.533 -0.3899 -0.3353  0.5051
 1683SOL    HW116682   3.867   2.996   1.620 -1.3516  0.6034  1.0972
 1683SOL    HW216683   3.830   3.121   1.553  1.0825 -0.1911  1.0590
 1684SOL     OW16684   1.108   2.495   7.778  0.0547 -0.0879  0.3360
 1684SOL    HW116685   1.142   2.579   7.748  0.3380 -0.4171 -0.2712
 1684SOL    HW216686   1.076   2.514   7.866  0.9654 -0.6114  0.7911
 1685SOL     OW16687   3.572   2.934   1.480 -0.1435 -0.1130 -0.3759
 1685SOL    HW116688   3.538   3.020   1.455  1.3897  0.7351  0.4673
 1685SOL    HW216689   3.662   2.957   1.502 -0.5862 -0.6988  2.0603
 1686SOL     OW16690   4.270   3.879   9.528 -0.5950  0.1150 -0.2836
 1686SOL    HW116691   4.331   3.916   9.592  1.3646 -2.7666 -0.4692
 1686SOL    HW216692   4.211   3.834   9.590 -0.6585 -0.9185 -1.0873
 1687SOL     OW16693   2.714   0.283   6.445  0.1310 -0.1498  0.0018
 1687SOL    HW116694   2.776   0.344   6.484  0.5806  0.1990 -1.2540
 1687SOL    HW216695   2.631   0.323   6.472 -0.2858  1.4512 -3.6509
 1688SOL     OW16696   1.116   4.407  12.945  0.8891  0.0923 -0.8470
 1688SOL    HW116697   1.075   4.494  12.949  0.2577 -0.2428 -0.0943
 1688SOL    HW216698   1.128   4.384  12.853  0.6090 -0.9580 -0.6132
 1689SOL     OW16699   4.261   3.207   8.492  0.4468 -0.3473 -0.2365
 1689SOL    HW116700   4.354   3.200   8.468  0.5837  1.2009 -0.1750
 1689SOL    HW216701   4.232   3.116   8.484  1.3245 -0.5718 -0.9524
 1690SOL     OW16702   3.581   3.542   6.898 -0.0494 -0.3471  0.7614
 1690SOL    HW116703   3.544   3.629   6.915 -2.5511 -1.2885  0.1790
 1690SOL    HW216704   3.567   3.495   6.980 -2.8164 -1.5722 -0.4259
 1691SOL     OW16705   1.988   0.623   2.901  0.6652  0.0040  0.0056
 1691SOL    HW116706   2.025   0.652   2.984  1.9754 -0.9872 -0.2342
 1691SOL    HW216707   2.033   0.678   2.837 -0.1711  0.8712  0.1684
 1692SOL     OW16708   3.050   3.869   4.125 -0.5606 -0.5832 -0.0618
 1692SOL    HW116709   3.088   3.951   4.157  0.3353 -0.8276 -0.5104
 1692SOL    HW216710   2.970   3.866   4.176 -1.5081 -0.3754 -1.5149
 1693SOL     OW16711   1.013   3.259   8.871 -0.3200  0.2721 -0.1133
 1693SOL    HW116712   1.107   3.259   8.853  0.2797  0.2165  3.0874
 1693SOL    HW216713   0.998   3.213   8.954 -1.3098 -1.5053 -1.2786
 1694SOL     OW16714   2.400   1.118   4.522 -0.4313  0.2960  0.1449
 1694SOL    HW116715   2.323   1.069   4.551 -0.7675  0.6450 -0.1566
 1694SOL    HW216716   2.465   1.062   4.566 -1.1196 -0.7908 -0.2282
 1695SOL     OW16717   4.706   3.284   6.066 -0.7090 -0.0986 -1.2675
 1695SOL    HW116718   4.683   3.368   6.027 -0.5613  0.9885  1.0415
 1695SOL    HW216719   4.694   3.229   5.988  0.3520 -2.1091 -0.0048
 1696SOL     OW16720   2.891   3.892  14.847 -0.5673  0.4736 -0.2525
 1696SOL    HW116721   2.965   3.873  14.789 -1.8675  0.7495 -1.9867
 1696SOL    HW216722   2.904   3.982  14.874  0.3023  0.9724 -2.3222
 1697SOL     OW16723   3.177   1.947  15.649 -0.0762 -0.4674  0.4205
 1697SOL    HW116724   3.265   1.973  15.678 -0.5816 -0.8085  2.2855
 1697SOL    HW216725   3.206   1.857  15.635  2.4531  0.7518 -2.2953
 1698SOL     OW16726   3.100   4.090   6.486 -0.0677  0.0781 -0.0002
 1698SOL    HW116727   3.145   4.109   6.568 -0.8068 -1.6750  0.8069
 1698SOL    HW216728   3.171   4.059   6.430 -1.3522 -0.4339 -1.3591
 1699SOL     OW16729   3.144   1.505   2.529 -0.0929 -0.4195 -0.0079
 1699SOL    HW116730   3.136   1.522   2.435  0.4049 -1.2806 -0.2080
 1699SOL    HW216731   3.052   1.501   2.554 -0.1248 -0.3232 -0.1126
 1700SOL     OW16732   4.477   2.347   6.746 -0.0713 -0.4625 -0.0560
 1700SOL    HW116733   4.436   2.288   6.809 -0.1638  0.1965  0.4916
 1700SOL    HW216734   4.547   2.287   6.720  0.0354 -1.5615  2.7726
 1701SOL     OW16735   1.928   2.552  11.150 -0.3523 -0.6212 -0.5624
 1701SOL    HW116736   2.005   2.499  11.128 -0.8528 -1.1002 -1.1560
 1701SOL    HW216737   1.920   2.501  11.230 -1.6496 -1.2266 -1.0887
 1702SOL     OW16738   3.781   4.256   2.430  0.0978  0.0660  0.2898
 1702SOL    HW116739   3.843   4.302   2.488  1.0393  0.1407 -0.7634
 1702SOL    HW216740   3.840   4.212   2.369 -0.4258 -0.0092 -0.1576
 1703SOL     OW16741   3.520   3.367   9.155  0.2031  0.4930 -0.2569
 1703SOL    HW116742   3.441   3.323   9.124  1.7362 -1.3923 -1.4664
 1703SOL    HW216743   3.501   3.384   9.248  0.2900  1.9636 -0.5066
 1704SOL     OW16744   0.565   3.815   6.738 -0.0773  0.1754  0.0123
 1704SOL    HW116745   0.539   3.760   6.664  1.8951 -1.2558  0.3931
 1704SOL    HW216746   0.508   3.892   6.734 -0.9975 -0.5222 -0.2657
 1705SOL     OW16747   3.401   2.320   1.556  0.0747 -0.4799  0.0661
 1705SOL    HW116748   3.362   2.364   1.481  0.5029 -0.6790 -0.2729
 1705SOL    HW216749   3.487   2.363   1.557 -0.3462  0.2752  2.8796
 1706SOL     OW16750   1.499   3.805  14.129 -0.4003  0.1102  0.0523
 1706SOL    HW116751   1.439   3.880  14.123 -0.6174 -0.1035 -0.4385
 1706SOL    HW216752   1.583   3.840  14.101 -0.1607 -0.2938  0.2635
 1707SOL     OW16753   1.036   1.026   2.164  0.0995 -0.4713  0.4220
 1707SOL    HW116754   1.027   0.976   2.245 -2.7022 -0.0354  0.3500
 1707SOL    HW216755   1.117   0.987   2.130  1.0466  2.4465 -0.7450
 1708SOL     OW16756   0.254   1.597  14.264  0.1023  0.0966 -0.2591
 1708SOL    HW116757   0.316   1.640  14.205  0.8684  1.1068  1.2824
 1708SOL    HW216758   0.172   1.641  14.237  1.2391  1.0157 -2.2765
 1709SOL     OW16759   2.678   0.723  16.972  0.3613  0.0162 -0.1344
 1709SOL    HW116760   2.693   0.718  16.877  0.3859 -2.0933 -0.0122
 1709SOL    HW216761   2.731   0.646  16.990 -3.2362 -2.5588 -0.5821
 1710SOL     OW16762   1.579   3.139   7.121 -0.4633 -0.0309 -0.2380
 1710SOL    HW116763   1.536   3.182   7.195  4.8510  2.2506  1.5330
 1710SOL    HW216764   1.629   3.073   7.169 -0.9263  0.6811  1.2444
 1711SOL     OW16765   3.629   1.943   4.303  0.2941 -0.3477 -0.5262
 1711SOL    HW116766   3.616   1.924   4.396  2.6884 -0.6202 -0.2410
 1711SOL    HW216767   3.615   2.036   4.284  0.3899 -0.0491  0.8532
 1712SOL     OW16768   0.106   2.322   2.301 -0.8268 -0.1208  0.0150
 1712SOL    HW116769   0.156   2.367   2.369 -0.2328 -0.7324 -0.0135
 1712SOL    HW216770   0.043   2.277   2.357  0.3488 -0.6560  0.8992
 1713SOL     OW16771   0.562   2.590   6.816  0.2094  0.2112  0.1129
 1713SOL    HW116772   0.534   2.636   6.737 -0.2112 -0.5096 -0.1612
 1713SOL    HW216773   0.603   2.515   6.771 -0.6404  0.5672 -1.2524
 1714SOL     OW16774   1.874   3.643   5.450 -0.2071 -0.3631  0.1792
 1714SOL    HW116775   1.874   3.592   5.369  3.3412 -0.3483  0.1940
 1714SOL    HW216776   1.805   3.706   5.431  0.7196  0.2380 -1.1755
 1715SOL     OW16777   4.363   1.340   6.912 -0.0425 -0.0616  0.6925
 1715SOL    HW116778   4.398   1.309   6.995  2.9236 -1.0768 -0.9332
 1715SOL    HW216779   4.434   1.384   6.865 -2.1644 -0.6549 -3.1429
 1716SOL     OW16780   1.443   0.741  12.137 -0.3905  0.0714 -0.2474
 1716SOL    HW116781   1.418   0.649  12.137 -2.2832  0.5897 -0.2833
 1716SOL    HW216782   1.367   0.777  12.091 -2.1404  1.3344  3.5646
 1717SOL     OW16783   2.136   2.065   4.383 -0.1141 -0.5163  0.2303
 1717SOL    HW116784   2.104   2.142   4.431  1.0012  1.2572 -1.8637
 1717SOL    HW216785   2.230   2.084   4.386 -0.0247 -1.0530  0.7033
 1718SOL     OW16786   1.350   4.221   2.312  0.3486  0.2292 -0.0505
 1718SOL    HW116787   1.308   4.257   2.390  2.2323 -0.3104  1.2152
 1718SOL    HW216788   1.427   4.278   2.314  1.7083 -1.6010 -0.2024
 1719SOL     OW16789   3.808   3.886   6.433  0.1888 -0.3356 -0.3166
 1719SOL    HW116790   3.819   3.809   6.488  0.1128 -0.0583  0.0853
 1719SOL    HW216791   3.893   3.880   6.389  0.1446  0.0797 -0.4664
 1720SOL     OW16792   4.557   0.474   8.622 -0.0065 -0.0745 -0.3860
 1720SOL    HW116793   4.632   0.506   8.571  0.6181 -0.6657  0.1479
 1720SOL    HW216794   4.575   0.511   8.708 -2.0134  1.9149 -0.8101
 1721SOL     OW16795   2.038   2.735   3.430  0.4195  0.2257  0.4343
 1721SOL    HW116796   2.074   2.824   3.427  1.4226 -0.1315  1.8488
 1721SOL    HW216797   2.015   2.723   3.522 -2.4192 -2.6711 -0.6695
 1722SOL     OW16798   1.354   1.221   9.238 -0.0061  0.1394  0.1597
 1722SOL    HW116799   1.354   1.316   9.243  0.5194  0.1918 -0.7835
 1722SOL    HW216800   1.272   1.193   9.278 -0.5291 -0.3521 -1.2557
 1723SOL     OW16801   0.819   1.200   7.123  0.1440  0.3746  0.1471
 1723SOL    HW116802   0.793   1.278   7.172 -0.4111  1.0085 -1.1663
 1723SOL    HW216803   0.890   1.230   7.067 -0.9490  0.3848 -1.2249
 1724SOL     OW16804   1.091   2.279   6.526  0.2825  0.0139  0.2269
 1724SOL    HW116805   1.174   2.239   6.502  1.4484  0.6022  3.2004
 1724SOL    HW216806   1.041   2.198   6.530  0.8872 -0.4471 -1.4821
 1725SOL     OW16807   4.314   2.532  16.995  0.0723 -0.5670  0.1822
 1725SOL    HW116808   4.236   2.586  16.985  0.5724  0.4305  1.7218
 1725SOL    HW216809   4.301   2.507  17.086 -1.2550  0.2125  0.1991
 1726SOL     OW16810   2.258   2.865   4.533  0.6881  0.0423 -0.5111
 1726SOL    HW116811   2.294   2.800   4.473 -1.6695  0.0468 -1.9335
 1726SOL    HW216812   2.215   2.801   4.590  1.1314 -0.0581 -0.2937
 1727SOL     OW16813   0.558   0.608   7.764  0.0729  0.0469  0.3150
 1727SOL    HW116814   0.572   0.540   7.699 -0.8977  0.6376 -0.5077
 1727SOL    HW216815   0.472   0.590   7.802 -0.2426  2.8167  0.9447
 1728SOL     OW16816   1.027   3.174   9.135  0.0150  0.0987  0.1991
 1728SOL    HW116817   0.973   3.173   9.214  1.6840  2.7677  1.3719
 1728SOL    HW216818   1.112   3.211   9.161 -0.3355 -0.0721  1.6048
 1729SOL     OW16819   4.633   3.349  17.646 -0.4250 -0.4802 -0.1644
 1729SOL    HW116820   4.556   3.299  17.674  0.1047 -1.4086 -0.4039
 1729SOL    HW216821   4.605   3.441  17.642 -0.7805 -0.6360 -1.2704
 1730SOL     OW16822   2.079   2.999  10.709  0.1935  0.2123 -0.1051
 1730SOL    HW116823   2.171   2.977  10.695  0.5326  1.9650 -0.6432
 1730SOL    HW216824   2.081   3.093  10.723  0.9456  0.5981 -2.6738
 1731SOL     OW16825   2.808   2.768   6.574  0.1480  0.1732 -0.1692
 1731SOL    HW116826   2.834   2.763   6.482  0.8551  1.3638 -0.0278
 1731SOL    HW216827   2.866   2.717   6.630 -0.0122 -0.6173 -0.7233
 1732SOL     OW16828   1.933   2.749   7.597 -0.4437 -0.0553  0.3580
 1732SOL    HW116829   1.956   2.682   7.661  1.0660  1.1613  1.0761
 1732SOL    HW216830   1.940   2.693   7.520 -0.0139  2.8851 -1.7755
 1733SOL     OW16831   0.898   2.403   1.833  0.0038 -0.0741 -0.6333
 1733SOL    HW116832   0.867   2.472   1.774 -0.1908  0.2251 -0.1793
 1733SOL    HW216833   0.990   2.426   1.851 -0.3356  0.6482  0.1785
 1734SOL     OW16834   1.941   1.577   4.422  0.2875  0.1142 -0.1294
 1734SOL    HW116835   1.938   1.481   4.422 -1.3519  0.1546  2.4486
 1734SOL    HW216836   1.930   1.594   4.329 -0.8694 -0.5792 -0.1246
 1735SOL     OW16837   0.114   2.073  13.479 -0.3838  0.2513  0.1549
 1735SOL    HW116838   0.146   2.019  13.552 -1.6555  0.6692  1.0327
 1735SOL    HW216839   0.140   2.040  13.393 -1.0273 -0.2690  0.1587
 1736SOL     OW16840   2.879   2.559   4.361 -0.1914 -0.1009 -0.0985
 1736SOL    HW116841   2.902   2.639   4.314 -0.2676  0.6021  1.0527
 1736SOL    HW216842   2.784   2.561   4.348 -0.2179  1.0793  0.3452
 1737SOL     OW16843   2.769   3.429   4.216  0.1337  0.1604 -0.0063
 1737SOL    HW116844   2.721   3.384   4.146  1.2120 -1.2456  0.1637
 1737SOL    HW216845   2.803   3.359   4.273  2.4385  1.7000  0.4875
 1738SOL     OW16846   2.469   2.948   3.004  0.2941  0.3237  0.5205
 1738SOL    HW116847   2.429   2.936   3.090  4.7993  0.8052  2.6917
 1738SOL    HW216848   2.395   2.992   2.962  0.7779  0.6026 -0.0317
 1739SOL     OW16849   2.153   1.345   9.806 -0.4316  0.1231 -0.1693
 1739SOL    HW116850   2.103   1.280   9.857 -0.0191 -0.4849 -0.5412
 1739SOL    HW216851   2.225   1.308   9.756  0.0641  0.4225  0.3263
 1740SOL     OW16852   2.400   4.672  14.373  0.5622 -0.6462 -0.4899
 1740SOL    HW116853   2.409   0.003  14.439  0.9735  1.1865 -2.4443
 1740SOL    HW216854   2.390   4.719  14.290  0.9419 -2.1650 -1.3940
 1741SOL     OW16855   4.219   0.523   3.267  0.0116  0.0259 -0.4611
 1741SOL    HW116856   4.209   0.573   3.348 -0.1361 -0.8193  0.0499
 1741SOL    HW216857   4.244   0.434   3.294 -1.0756 -0.3245 -0.6083
 1742SOL     OW16858   4.113   4.509   4.797 -0.3381  0.3933 -0.0306
 1742SOL    HW116859   4.111   4.483   4.889 -0.7487 -2.2278 -0.7674
 1742SOL    HW216860   4.165   4.436   4.762 -0.9885  0.4494 -1.0884
 1743SOL     OW16861   2.227   3.676   5.839  0.2261  0.1545  0.1767
 1743SOL    HW116862   2.196   3.695   5.750  2.8871 -0.1852 -0.8152
 1743SOL    HW216863   2.184   3.740   5.896 -1.4401 -2.0197  1.3299
 1744SOL     OW16864   3.670   0.166   9.724  0.2574  0.0601  0.1883
 1744SOL    HW116865   3.676   0.071   9.731 -0.4595 -0.0073 -0.1342
 1744SOL    HW216866   3.753   0.191   9.764  1.2688 -1.3678 -1.0196
 1745SOL     OW16867   4.326   0.909   3.772 -0.3140 -0.3202  0.7748
 1745SOL    HW116868   4.268   0.835   3.795  0.0300 -0.6057  0.7193
 1745SOL    HW216869   4.389   0.855   3.724 -0.0044  0.5002  0.2660
 1746SOL     OW16870   2.048   3.207   2.213  0.3048  0.3022  0.2446
 1746SOL    HW116871   2.105   3.226   2.288  1.0024 -1.0971  0.0676
 1746SOL    HW216872   2.032   3.294   2.178  0.2985 -0.2922 -1.2237
 1747SOL     OW16873   1.545   4.379   4.975  0.2144 -0.2178  0.6697
 1747SOL    HW116874   1.565   4.323   5.050  0.0021  0.5285  1.2869
 1747SOL    HW216875   1.489   4.445   5.017 -0.5447 -0.4519  0.0206
 1748SOL     OW16876   1.835   4.490   3.821 -0.1275 -0.0259 -0.3313
 1748SOL    HW116877   1.912   4.543   3.839  0.4541 -0.4181 -1.7307
 1748SOL    HW216878   1.792   4.563   3.776 -1.6900 -0.8160 -0.1097
 1749SOL     OW16879   1.368   4.485  17.303  0.2739 -0.2233  0.6135
 1749SOL    HW116880   1.365   4.569  17.349 -2.0600  0.3739 -0.6055
 1749SOL    HW216881   1.411   4.513  17.222 -3.2620 -2.1764 -1.9967
 1750SOL     OW16882   4.711   3.837   3.533 -0.2068  0.3730  0.3289
 1750SOL    HW116883   4.671   3.798   3.455  0.4919 -1.4095  0.8650
 1750SOL    HW216884   0.061   3.860   3.503  0.2847  0.4451  1.8005
 1751SOL     OW16885   1.544   4.541   2.568 -0.2683  0.7222  0.3860
 1751SOL    HW116886   1.635   4.521   2.589 -0.0591 -0.3952 -1.5653
 1751SOL    HW216887   1.494   4.486   2.628  0.6315 -1.5908 -0.9861
 1752SOL     OW16888   4.336   1.245   2.045  0.2656 -0.5159  0.7967
 1752SOL    HW116889   4.417   1.196   2.028  2.1648  2.9150 -0.0979
 1752SOL    HW216890   4.319   1.221   2.136 -1.0940 -0.1733  0.6284
 1753SOL     OW16891   1.512   3.525   6.448  0.2669 -0.0898 -0.5949
 1753SOL    HW116892   1.599   3.541   6.484 -0.2053 -0.5801  0.7932
 1753SOL    HW216893   1.455   3.501   6.522 -1.8042  1.5099 -1.6724
 1754SOL     OW16894   0.569   3.228   5.731 -0.1872  0.1187  0.4296
 1754SOL    HW116895   0.483   3.251   5.695 -0.7665  0.2982  1.9220
 1754SOL    HW216896   0.593   3.314   5.764 -0.0012  0.2862 -0.1396
 1755SOL     OW16897   0.857   4.348   4.341 -0.7473 -0.0433  0.0022
 1755SOL    HW116898   0.848   4.262   4.382 -0.6203 -1.0029 -1.9729
 1755SOL    HW216899   0.900   4.323   4.259 -1.4286  0.1702 -0.4207
 1756SOL     OW16900   3.785   0.553  13.292 -0.0264  0.4639 -0.1796
 1756SOL    HW116901   3.846   0.521  13.359 -3.1809  0.1216  2.4868
 1756SOL    HW216902   3.703   0.565  13.339  1.5855 -1.0838  2.9952
 1757SOL     OW16903   0.311   2.157   9.675  0.2313  0.1256 -0.1053
 1757SOL    HW116904   0.372   2.193   9.610 -0.4761 -0.2443 -0.9671
 1757SOL    HW216905   0.361   2.185   9.752 -3.0031 -0.0499  2.0529
 1758SOL     OW16906   2.268   3.375   9.989 -0.4163  0.2226 -0.4113
 1758SOL    HW116907   2.240   3.288   9.960  1.3369  0.2242 -2.1127
 1758SOL    HW216908   2.205   3.399  10.057  0.2736 -1.8514  0.9807
 1759SOL     OW16909   0.192   4.325   9.063  0.5789 -0.0699 -0.4872
 1759SOL    HW116910   0.211   4.416   9.084  1.8709  0.0229 -2.0899
 1759SOL    HW216911   0.115   4.306   9.117 -0.4862  1.3495 -1.5330
 1760SOL     OW16912   2.711   1.264  10.902 -0.1457 -0.2264 -0.2073
 1760SOL    HW116913   2.750   1.229  10.821  2.9955  1.7318  0.4502
 1760SOL    HW216914   2.673   1.185  10.941  0.1013  0.0375  0.5671
 1761SOL     OW16915   3.187   4.262   4.673 -0.4490 -0.8254  0.2402
 1761SOL    HW116916   3.196   4.293   4.763 -0.7888  2.2010 -0.7354
 1761SOL    HW216917   3.096   4.237   4.659 -0.2350 -1.0501 -0.7494
 1762SOL     OW16918   1.397   2.582   6.759 -0.2713 -0.0266  0.2086
 1762SOL    HW116919   1.422   2.585   6.851 -0.4795 -0.8605  0.2955
 1762SOL    HW216920   1.312   2.539   6.750 -0.7098  0.8141  0.3660
 1763SOL     OW16921   2.572   4.640   2.385  0.1191  0.3860 -0.2917
 1763SOL    HW116922   2.618   4.669   2.307  0.9177 -0.0156  0.0330
 1763SOL    HW216923   2.503   4.706   2.393 -1.7965 -1.9483  2.4665
 1764SOL     OW16924   3.856   2.161  11.925  0.6059 -0.5784  0.0529
 1764SOL    HW116925   3.771   2.118  11.934 -0.1150  0.7349 -0.4412
 1764SOL    HW216926   3.904   2.084  11.894  0.8311 -1.2716  2.1569
 1765SOL     OW16927   0.027   4.038   5.497  0.0216  0.0842 -0.4998
 1765SOL    HW116928   0.010   4.048   5.403 -0.8359 -0.1311 -0.3747
 1765SOL    HW216929   0.120   4.020   5.489 -0.1676 -1.2289  0.3252
 1766SOL     OW16930   4.687   0.555   2.080 -0.1175  0.7654 -0.3075
 1766SOL    HW116931   4.706   0.462   2.066 -0.1031  0.7301 -0.0418
 1766SOL    HW216932   4.673   0.555   2.174 -1.7556  3.0245 -0.5509
 1767SOL     OW16933   0.233   4.709   4.829 -0.5857  0.2268 -0.0459
 1767SOL    HW116934   0.306   4.652   4.851 -0.3527  0.5743  0.0667
 1767SOL    HW216935   0.224   4.695   4.735 -1.8904  0.1878  0.0780
 1768SOL     OW16936   2.366   4.505   1.264  0.5698  0.6187  0.1539
 1768SOL    HW116937   2.345   4.445   1.193  1.8818 -0.6281  0.8175
 1768SOL    HW216938   2.334   4.590   1.234 -2.2410  0.1324  1.7563
 1769SOL     OW16939   1.092   1.905   8.824  0.7404  0.0272 -0.4959
 1769SOL    HW116940   1.077   1.824   8.775  1.3537 -0.8351  0.7414
 1769SOL    HW216941   1.128   1.886   8.911 -1.9448  0.8024  0.8053
 1770SOL     OW16942   4.209   3.600   9.137 -0.0538  0.1916 -0.2353
 1770SOL    HW116943   4.115   3.613   9.128 -0.1686  0.0072  0.7789
 1770SOL    HW216944   4.231   3.675   9.191  0.6854 -0.9939  1.0944
 1771SOL     OW16945   0.918   2.540   0.526  0.0891 -0.5105 -0.2359
 1771SOL    HW116946   0.879   2.625   0.545 -1.3194 -0.9609 -1.1006
 1771SOL    HW216947   1.001   2.554   0.572  1.8146 -1.6050 -2.9726
 1772SOL     OW16948   1.549   0.504   6.886  0.0317 -1.1134 -0.0121
 1772SOL    HW116949   1.619   0.549   6.933 -1.0913  0.7949 -0.1556
 1772SOL    HW216950   1.557   0.547   6.800  2.9623 -0.8523  0.4054
 1773SOL     OW16951   4.329   3.321   2.943 -0.3899  0.7868 -0.4084
 1773SOL    HW116952   4.259   3.279   2.892  0.3239 -2.4481  1.2887
 1773SOL    HW216953   4.327   3.414   2.923 -1.2986  0.7283 -0.6040
 1774SOL     OW16954   3.688   0.043   8.995 -0.0447  0.2469 -0.0936
 1774SOL    HW116955   3.714   4.709   8.936  0.3543  1.0325 -0.8474
 1774SOL    HW216956   3.616   4.733   9.038 -1.1218  2.2864  0.3213
 1775SOL     OW16957   2.026   4.296   8.189 -0.5766 -0.5527 -0.4917
 1775SOL    HW116958   2.002   4.236   8.260  2.1792 -0.4500  0.5170
 1775SOL    HW216959   2.119   4.289   8.209 -0.2628  0.6660 -1.5027
 1776SOL     OW16960   1.343   1.715   8.604  0.3348 -0.6977 -0.0442
 1776SOL    HW116961   1.292   1.662   8.666 -1.2727  1.1763  0.2287
 1776SOL    HW216962   1.284   1.715   8.529 -0.5283  1.3083  0.6430
 1777SOL     OW16963   3.126   1.238   7.483  0.4336 -0.6331  0.0686
 1777SOL    HW116964   3.204   1.248   7.428  0.9635  1.5485  1.2135
 1777SOL    HW216965   3.052   1.232   7.422  0.8464  0.7499 -0.5697
 1778SOL     OW16966   4.457   3.838   6.405 -0.2619 -0.5109  0.3349
 1778SOL    HW116967   4.460   3.767   6.341 -0.6248  0.2122 -0.4834
 1778SOL    HW216968   4.373   3.819   6.446 -1.3652  1.9966 -0.7648
 1779SOL     OW16969   2.292   2.045   3.005 -0.1137  0.5619  0.4062
 1779SOL    HW116970   2.370   2.074   3.051  1.3952 -1.8187 -0.6533
 1779SOL    HW216971   2.307   2.076   2.915 -1.2971 -1.2789 -0.4284
 1780SOL     OW16972   4.193   2.655   2.211  0.0619 -0.1251  0.3740
 1780SOL    HW116973   4.169   2.586   2.150  0.5572  0.1620 -0.1433
 1780SOL    HW216974   4.214   2.606   2.291 -2.7136 -0.4410  0.8906
 1781SOL     OW16975   1.318   1.355  16.491  0.3090 -0.0155  0.2936
 1781SOL    HW116976   1.389   1.404  16.531 -0.1288  1.1137 -0.3183
 1781SOL    HW216977   1.240   1.388  16.534  1.5925  1.1530  1.7209
 1782SOL     OW16978   0.513   3.566   6.221  0.3162  0.1589  0.2916
 1782SOL    HW116979   0.461   3.646   6.217 -0.7640 -0.5372  0.2054
 1782SOL    HW216980   0.443   3.500   6.211 -0.3526  1.0929 -1.1614
 1783SOL     OW16981   1.738   0.793   8.660  0.4119 -0.5163  0.0898
 1783SOL    HW116982   1.668   0.792   8.595  0.1201 -0.4678  0.4058
 1783SOL    HW216983   1.782   0.710   8.640 -0.5767 -0.6715 -1.4095
 1784SOL     OW16984   0.772   1.951   7.850  0.4446 -0.0731  0.1999
 1784SOL    HW116985   0.762   1.918   7.760 -3.4686 -0.9383  0.9357
 1784SOL    HW216986   0.781   2.045   7.836 -1.1865 -0.3536 -2.8072
 1785SOL     OW16987   2.528   1.421   5.371 -0.3445 -0.3996  0.2061
 1785SOL    HW116988   2.620   1.445   5.360  0.0719 -1.8714  0.5317
 1785SOL    HW216989   2.494   1.505   5.402  0.9358 -0.1860  1.0190
 1786SOL     OW16990   0.034   4.537   4.954 -0.0140  0.2588  0.1238
 1786SOL    HW116991   0.029   4.573   5.042  0.5596 -1.9953  1.0668
 1786SOL    HW216992   0.022   4.619   4.905  1.5394 -0.5665 -1.6590
 1787SOL     OW16993   1.485   2.430   8.739 -0.3779  0.7231 -0.2234
 1787SOL    HW116994   1.518   2.375   8.668  1.2371  1.9825 -0.4400
 1787SOL    HW216995   1.390   2.427   8.742 -0.4215  2.4757  0.0286
 1788SOL     OW16996   2.134   2.438   6.161 -0.3428  0.2544  0.0664
 1788SOL    HW116997   2.210   2.414   6.215 -0.5371 -1.6448 -0.4956
 1788SOL    HW216998   2.084   2.475   6.234 -2.0261 -0.1086 -0.8952
 1789SOL     OW16999   1.713   3.015  10.981  0.1649 -0.3805 -0.4787
 1789SOL    HW117000   1.708   2.978  11.069  1.3877  2.9851  1.0301
 1789SOL    HW217001   1.638   3.073  10.966  0.7805  0.8323  1.1494
 1790SOL     OW17002   4.345   2.895   7.175 -0.6562 -0.7817 -0.3620
 1790SOL    HW117003   4.335   2.892   7.270 -0.4685 -3.6329 -0.4280
 1790SOL    HW217004   4.395   2.817   7.148 -0.3036 -0.4243 -0.7363
 1791SOL     OW17005   3.960   1.522   1.775 -0.8290 -0.1466 -0.3952
 1791SOL    HW117006   4.043   1.474   1.786 -1.2010 -0.1836  2.3870
 1791SOL    HW217007   3.935   1.539   1.866 -0.1903  1.2114 -0.4665
 1792SOL     OW17008   2.266   1.085   3.878  0.0862  0.3756 -0.3398
 1792SOL    HW117009   2.286   1.011   3.934  0.0600  1.7079  1.4131
 1792SOL    HW217010   2.236   1.039   3.799 -0.6359  3.2223 -1.7153
 1793SOL     OW17011   4.363   3.025  11.198 -0.0126 -0.6502 -0.0513
 1793SOL    HW117012   4.411   2.947  11.168 -1.4218 -1.2573 -0.7304
 1793SOL    HW217013   4.294   2.987  11.253 -2.0974  0.2870 -2.0250
 1794SOL     OW17014   2.785   2.027   4.324 -0.0474 -0.1823 -0.2013
 1794SOL    HW117015   2.788   1.942   4.367 -2.3039  0.1743  0.6273
 1794SOL    HW217016   2.721   2.083   4.366  0.0941  0.1911 -0.4809
 1795SOL     OW17017   3.951   1.784   3.603  0.4113  0.1954  0.5227
 1795SOL    HW117018   3.864   1.784   3.563 -0.2505  1.3940  1.9679
 1795SOL    HW217019   3.992   1.846   3.543 -0.5491 -0.5941 -0.9432
 1796SOL     OW17020   2.013   4.697   2.711  0.0370 -0.2558 -0.2926
 1796SOL    HW117021   2.107   4.678   2.699  0.1447  1.3270 -1.9367
 1796SOL    HW217022   2.012   0.056   2.712 -0.1435 -0.2726  0.5142
 1797SOL     OW17023   3.836   0.942  15.966 -0.7427 -0.2855 -0.0196
 1797SOL    HW117024   3.824   0.976  15.877  2.7854  2.0451  0.3879
 1797SOL    HW217025   3.921   0.898  15.962 -1.5161 -1.9741  2.1905
 1798SOL     OW17026   0.187   0.350   8.056  0.4542 -0.1960  0.5621
 1798SOL    HW117027   0.217   0.265   8.024  1.2837 -0.2885  1.5865
 1798SOL    HW217028   0.269   0.399   8.051 -0.6135  1.2881 -2.7369
 1799SOL     OW17029   3.054   0.496   2.627 -0.6222 -0.0953  0.7885
 1799SOL    HW117030   3.031   0.483   2.719 -2.5456  1.4508  0.5237
 1799SOL    HW217031   3.068   0.590   2.629  1.7371 -0.4412  0.6063
 1800SOL     OW17032   1.532   1.223   7.336  0.2451 -0.1522  0.0271
 1800SOL    HW117033   1.443   1.190   7.346  0.5598 -1.1998 -0.5837
 1800SOL    HW217034   1.551   1.266   7.419 -1.4987 -0.7302  0.7187
 1801SOL     OW17035   0.123   2.061   4.865 -0.0896 -0.0493 -0.1575
 1801SOL    HW117036   0.097   2.010   4.788  0.6100  0.7615 -0.9269
 1801SOL    HW217037   0.051   2.124   4.867  2.3361  2.7324  0.6485
 1802SOL     OW17038   0.528   3.904   9.668 -0.2932 -0.4763  0.4146
 1802SOL    HW117039   0.502   3.989   9.633 -0.1735 -1.2982 -1.6669
 1802SOL    HW217040   0.621   3.905   9.646 -0.7279 -0.2390 -1.4549
 1803SOL     OW17041   3.079   0.475   7.401 -0.2668 -0.3316 -0.9589
 1803SOL    HW117042   3.019   0.402   7.422  2.7920 -2.6033 -0.1665
 1803SOL    HW217043   3.087   0.455   7.308  2.8220 -2.7501 -0.1674
 1804SOL     OW17044   0.061   1.493   8.473 -0.2599 -0.3841 -0.8305
 1804SOL    HW117045   0.028   1.580   8.448 -0.1703  0.1908  1.0468
 1804SOL    HW217046   0.153   1.481   8.449 -0.4857  0.9289 -2.3490
 1805SOL     OW17047   3.349   2.126   2.725  1.0327 -0.2115  0.3954
 1805SOL    HW117048   3.274   2.088   2.771  1.3069 -0.5538  0.5558
 1805SOL    HW217049   3.303   2.194   2.676 -0.4815 -0.6974  1.1413
 1806SOL     OW17050   1.120   3.828   3.473  0.1847  0.0477 -0.1314
 1806SOL    HW117051   1.093   3.748   3.517 -1.3290  0.9357  0.5813
 1806SOL    HW217052   1.197   3.852   3.524 -0.6876  1.3189  0.6172
 1807SOL     OW17053   2.133   1.590   6.813  0.3373  0.1402 -0.0437
 1807SOL    HW117054   2.135   1.539   6.732 -2.6858  1.1506 -0.7658
 1807SOL    HW217055   2.110   1.533   6.886  0.9056 -0.4405 -0.3188
 1808SOL     OW17056   2.564   1.970   6.027  0.6578  0.7723  0.5921
 1808SOL    HW117057   2.523   2.054   6.047 -1.8200 -0.4988  0.7555
 1808SOL    HW217058   2.538   1.921   6.105  1.0847 -0.5390 -0.0908
 1809SOL     OW17059   0.533   4.208   3.400  0.0375 -0.0831  0.0443
 1809SOL    HW117060   0.475   4.242   3.468  0.4276  0.9598 -0.1436
 1809SOL    HW217061   0.613   4.256   3.420  0.5566 -0.7503 -0.4394
 1810SOL     OW17062   0.747   2.801   0.310  0.0463  0.3124  0.2548
 1810SOL    HW117063   0.776   2.844   0.230  0.9871  0.2380  0.5610
 1810SOL    HW217064   0.829   2.789   0.358  0.2699 -0.3549 -0.2969
 1811SOL     OW17065   3.570   0.902  15.091  0.2776  0.0747  0.0583
 1811SOL    HW117066   3.605   0.889  15.179  0.2706 -0.0117  0.0480
 1811SOL    HW217067   3.576   0.997  15.079  3.1160 -0.0048  0.8140
 1812SOL     OW17068   2.337   0.225   8.297 -0.2935 -0.3343  0.7336
 1812SOL    HW117069   2.409   0.217   8.360  0.1100  2.0611  0.5631
 1812SOL    HW217070   2.351   0.144   8.248 -0.5214  0.5655 -0.8370
 1813SOL     OW17071   0.872   1.794  13.336  0.6241 -0.1123 -0.0053
 1813SOL    HW117072   0.914   1.834  13.259  1.6098  0.8447  1.0257
 1813SOL    HW217073   0.881   1.701  13.316  1.1876  0.2154 -1.2651
 1814SOL     OW17074   2.259   4.058   2.756  0.4663 -0.1452  0.5399
 1814SOL    HW117075   2.324   4.128   2.755  0.5135 -0.1650  2.7793
 1814SOL    HW217076   2.198   4.084   2.824 -1.0117  1.5409 -1.4562
 1815SOL     OW17077   4.645   1.330   0.023 -0.1708 -0.0819 -0.8854
 1815SOL    HW117078   4.566   1.276   0.020  0.6984 -1.4879  1.0657
 1815SOL    HW217079   4.688   1.268  17.709 -1.5616 -2.0421  0.1535
 1816SOL     OW17080   2.582   3.368   5.935  0.8158 -0.2434  0.0799
 1816SOL    HW117081   2.595   3.336   6.025  1.0311  2.5303  1.0378
 1816SOL    HW217082   2.670   3.390   5.905  2.1253 -2.3286  2.3389
 1817SOL     OW17083   2.811   0.559   3.562  0.2069 -0.1554 -0.0342
 1817SOL    HW117084   2.886   0.580   3.618  0.2369 -2.5291  0.8290
 1817SOL    HW217085   2.735   0.611   3.585 -0.9798 -1.4610 -1.0365
 1818SOL     OW17086   1.008   0.848   3.034  0.1180 -0.5191 -0.2040
 1818SOL    HW117087   0.986   0.832   3.126  3.6894  2.2255  1.1173
 1818SOL    HW217088   0.926   0.880   2.996 -0.2776 -0.3523  0.7933
 1819SOL     OW17089   3.875   3.212   2.658 -0.2269  0.3037  0.0963
 1819SOL    HW117090   3.826   3.155   2.598 -2.5009  1.4464  0.8973
 1819SOL    HW217091   3.811   3.252   2.716  1.8321  2.8657  0.5923
 1820SOL     OW17092   4.596   2.411   3.083  0.2617 -0.0097 -0.1030
 1820SOL    HW117093   4.657   2.375   3.018  1.5083  0.7757  0.6111
 1820SOL    HW217094   4.643   2.384   3.162  2.6965  0.4246 -1.3932
 1821SOL     OW17095   4.053   1.127   1.783 -0.0752  0.2258  0.0688
 1821SOL    HW117096   4.056   1.209   1.832 -1.2396  1.2586 -1.6172
 1821SOL    HW217097   4.084   1.158   1.698 -2.0203  3.6769  0.6202
 1822SOL     OW17098   4.419   4.148  11.272  0.2210  0.6538  0.3307
 1822SOL    HW117099   4.386   4.233  11.244 -0.1895  0.8417  1.3979
 1822SOL    HW217100   4.335   4.114  11.303  0.8429 -0.2610  0.9874
 1823SOL     OW17101   1.117   2.238   3.786  0.1579 -0.3168  0.4800
 1823SOL    HW117102   1.189   2.177   3.769 -1.2144 -0.9576 -2.9303
 1823SOL    HW217103   1.069   2.200   3.860 -0.4062 -0.0083  0.2707
 1824SOL     OW17104   0.397   4.447  16.048  0.4566 -0.1357 -0.1481
 1824SOL    HW117105   0.368   4.518  15.991 -0.5340 -1.0678 -0.8005
 1824SOL    HW217106   0.440   4.497  16.117  1.7418 -1.6961  0.1995
 1825SOL     OW17107   1.576   0.200   8.624  0.7314  0.3098 -0.4872
 1825SOL    HW117108   1.624   0.117   8.628 -0.6479 -0.4517  0.7977
 1825SOL    HW217109   1.623   0.241   8.552 -0.1894  0.0284 -1.2599
 1826SOL     OW17110   2.182   0.126  11.322  0.2772 -0.1422 -0.0764
 1826SOL    HW117111   2.093   0.141  11.291 -0.2443 -1.0548  0.9793
 1826SOL    HW217112   2.182   0.174  11.405  1.0113 -0.6309  0.2147
 1827SOL     OW17113   4.692   0.738   0.256 -0.0134  0.5374  0.4067
 1827SOL    HW117114   0.002   0.812   0.218  0.0867 -1.1369 -2.7355
 1827SOL    HW217115   4.685   0.775   0.344 -0.9721 -2.6660  1.6757
 1828SOL     OW17116   0.830   3.394   9.569 -0.1516  0.0752 -0.5478
 1828SOL    HW117117   0.914   3.437   9.582  0.2274 -1.1252  0.9024
 1828SOL    HW217118   0.777   3.472   9.555 -0.2896  0.0118 -0.3798
 1829SOL     OW17119   1.593   1.636   8.698 -0.2414 -0.4016  0.0480
 1829SOL    HW117120   1.507   1.667   8.667  0.1479  2.4397  1.8237
 1829SOL    HW217121   1.577   1.542   8.694 -0.1499 -0.5382  3.1813
 1830SOL     OW17122   2.432   2.260   7.991 -0.3231 -0.3536  0.2958
 1830SOL    HW117123   2.362   2.323   8.007 -0.5379 -1.1453  2.3571
 1830SOL    HW217124   2.506   2.315   7.964 -0.8584 -0.0684 -0.6155
 1831SOL     OW17125   4.225   1.921   6.134 -0.3742 -0.1550 -0.6074
 1831SOL    HW117126   4.180   2.001   6.162 -1.4109 -0.6135 -0.9638
 1831SOL    HW217127   4.223   1.928   6.039  0.1062  0.6353 -0.5611
 1832SOL     OW17128   3.434   0.401  15.608  0.1702  0.4146 -0.0615
 1832SOL    HW117129   3.426   0.363  15.695 -0.1067  0.8101  0.0882
 1832SOL    HW217130   3.437   0.493  15.636 -1.4300  0.2863  0.5437
 1833SOL     OW17131   0.006   0.677   4.259 -0.5377  0.3051  0.1405
 1833SOL    HW117132   4.651   0.704   4.253 -0.9410 -0.4991  2.5786
 1833SOL    HW217133   0.042   0.676   4.170  2.1962 -1.9355  1.2414
 1834SOL     OW17134   3.085   3.721   3.165 -0.2459  0.1851  0.1426
 1834SOL    HW117135   3.177   3.719   3.190 -0.4061 -1.2844  0.6471
 1834SOL    HW217136   3.051   3.647   3.214 -0.4803 -0.2243 -0.6367
 1835SOL     OW17137   3.667   1.694   5.732 -0.2003  0.6963  0.3233
 1835SOL    HW117138   3.740   1.732   5.684  0.1908  1.7603  1.7783
 1835SOL    HW217139   3.631   1.768   5.780 -0.7747 -0.0614  1.0509
 1836SOL     OW17140   0.650   4.638   5.780 -0.4890 -0.0563  0.1558
 1836SOL    HW117141   0.565   4.677   5.760 -0.1023  0.3185 -0.7270
 1836SOL    HW217142   0.705   4.715   5.790 -1.2271  0.8828 -2.9582
 1837SOL     OW17143   1.388   3.664   5.983  0.2150 -0.0151  0.1014
 1837SOL    HW117144   1.396   3.598   5.914  1.6204 -0.8430  1.0571
 1837SOL    HW217145   1.298   3.696   5.976  0.9108  1.4939 -1.7508
 1838SOL     OW17146   4.689   3.942   9.865 -0.1587  0.1377 -0.5837
 1838SOL    HW117147   4.713   3.860   9.908 -3.1143 -0.1217  0.6163
 1838SOL    HW217148   0.008   4.002   9.914 -0.8025 -0.0076  0.3262
 1839SOL     OW17149   1.348   4.256   3.858  0.8553 -0.2528  0.2308
 1839SOL    HW117150   1.372   4.344   3.827 -0.4520 -0.3667 -1.1202
 1839SOL    HW217151   1.303   4.219   3.782 -2.3329  2.1564  0.9232
 1840SOL     OW17152   0.993   1.120   5.859 -0.0545 -0.6446  0.4077
 1840SOL    HW117153   0.906   1.115   5.820  0.0453 -0.3368  0.1479
 1840SOL    HW217154   1.059   1.126   5.790 -0.8839  1.2943 -0.2260
 1841SOL     OW17155   1.533   0.034   6.984  0.4981  0.3298 -0.4770
 1841SOL    HW117156   1.526   4.679   7.012  4.4293  0.3734  0.6959
 1841SOL    HW217157   1.460   0.041   6.924 -0.3377 -1.1598  0.3494
 1842SOL     OW17158   0.370   0.554  11.613 -0.0835  0.0323  0.1078
 1842SOL    HW117159   0.399   0.573  11.524 -1.3177  1.0218 -0.0891
 1842SOL    HW217160   0.445   0.559  11.672  0.8333  0.7440 -1.1236
 1843SOL     OW17161   4.230   1.943  16.324 -0.3024 -0.4382  0.5533
 1843SOL    HW117162   4.148   1.984  16.296 -0.2095 -1.7317 -1.5767
 1843SOL    HW217163   4.252   2.011  16.388  2.1324 -2.2051  1.5953
 1844SOL     OW17164   0.641   0.381   3.835 -0.0566  0.4555 -0.0273
 1844SOL    HW117165   0.564   0.333   3.805  0.2562 -0.9315  1.4204
 1844SOL    HW217166   0.660   0.344   3.921  0.4720 -0.2288 -0.4426
 1845SOL     OW17167   4.561   1.351  14.976 -0.2826  0.3262 -0.2694
 1845SOL    HW117168   4.555   1.405  14.898  2.1398  1.0989  0.0805
 1845SOL    HW217169   4.471   1.318  14.979 -1.0732  2.4251 -1.1856
 1846SOL     OW17170   0.120   2.467   4.262 -0.1590 -0.1435 -0.2220
 1846SOL    HW117171   0.030   2.496   4.271  0.4089  1.7393 -0.5525
 1846SOL    HW217172   0.132   2.434   4.173  0.8589 -1.3872  0.3667
 1847SOL     OW17173   3.770   1.657   8.410 -0.0911  0.5395  1.2457
 1847SOL    HW117174   3.750   1.747   8.384  2.6133  1.1026  1.1307
 1847SOL    HW217175   3.803   1.667   8.499  1.4071  0.2894  0.7266
 1848SOL     OW17176   0.705   3.700   4.711  0.3951  0.2082 -0.2010
 1848SOL    HW117177   0.781   3.751   4.739  1.1473 -1.2331  0.4381
 1848SOL    HW217178   0.648   3.773   4.688  3.0405  1.9435 -1.2741
 1849SOL     OW17179   4.616   1.947   3.235  1.1477  0.1452  0.3573
 1849SOL    HW117180   4.673   1.991   3.171 -2.5677  1.1384 -2.2265
 1849SOL    HW217181   4.531   1.988   3.226  0.6218 -0.7414  1.2587
 1850SOL     OW17182   3.486   2.019  12.051  0.1345  0.3965  0.1911
 1850SOL    HW117183   3.542   2.096  12.065 -0.3780  1.1084 -1.5592
 1850SOL    HW217184   3.549   1.956  12.017 -0.7308 -0.0982 -0.5068
 1851SOL     OW17185   3.537   1.535   1.117  0.0584  0.4362 -0.3573
 1851SOL    HW117186   3.604   1.601   1.100  0.4641  0.2830  0.6971
 1851SOL    HW217187   3.457   1.587   1.124  1.2811  2.0031  2.0405
 1852SOL     OW17188   0.086   3.430   9.265  0.1226 -0.1368 -0.3638
 1852SOL    HW117189   0.164   3.374   9.272 -0.4275 -0.7801  0.6333
 1852SOL    HW217190   0.129   3.515   9.278  0.9979 -0.7754  0.9748
 1853SOL     OW17191   0.552   2.438   8.845  0.1652  0.5644  0.2993
 1853SOL    HW117192   0.628   2.416   8.792 -0.1808  1.4250 -0.5497
 1853SOL    HW217193   0.540   2.346   8.871 -2.3423  1.0477  0.8265
 1854SOL     OW17194   3.403   3.008   2.254  0.2275 -0.0824  0.0838
 1854SOL    HW117195   3.391   2.916   2.278  2.0640 -0.6453 -1.1750
 1854SOL    HW217196   3.321   3.051   2.278  1.2440  1.4753  0.7266
 1855SOL     OW17197   3.643   1.335   9.889  0.1693  0.4374 -0.3507
 1855SOL    HW117198   3.620   1.342   9.796 -2.0021 -1.5544  0.0115
 1855SOL    HW217199   3.691   1.252   9.890  0.9164  0.8890  1.2615
 1856SOL     OW17200   4.466   1.691   3.268 -0.1811 -0.2721  0.2028
 1856SOL    HW117201   4.530   1.761   3.256 -0.9767  0.4949  0.4044
 1856SOL    HW217202   4.380   1.732   3.279 -0.2424 -0.4718  0.4723
 1857SOL     OW17203   0.056   0.351   8.962 -0.6233 -0.1127  0.3181
 1857SOL    HW117204   0.024   0.431   9.003 -0.9332  0.5030 -1.0964
 1857SOL    HW217205   0.045   0.360   8.867  3.0991 -1.6109 -0.2581
 1858SOL     OW17206   0.643   1.603   5.233 -0.1748  0.5140 -0.4510
 1858SOL    HW117207   0.560   1.623   5.277  0.1453 -2.3235  1.4289
 1858SOL    HW217208   0.673   1.692   5.211 -1.3106  1.8379  3.2027
 1859SOL     OW17209   2.209   4.093   4.971 -0.5801 -0.0496  0.1891
 1859SOL    HW117210   2.205   4.000   4.947  0.9118  0.0709 -0.4864
 1859SOL    HW217211   2.303   4.107   4.976 -0.5797  0.4879 -1.4642
 1860SOL     OW17212   4.494   0.689   5.647  0.1780 -0.0010  0.3133
 1860SOL    HW117213   4.572   0.745   5.647 -0.5058  0.9445  1.3360
 1860SOL    HW217214   4.466   0.679   5.738  0.7632  1.2341  0.6319
 1861SOL     OW17215   3.430   1.863   1.742  0.2087  0.0871  0.5730
 1861SOL    HW117216   3.356   1.891   1.687  1.7157 -1.2311 -2.1629
 1861SOL    HW217217   3.392   1.867   1.829  1.0040  0.5251  0.9002
 1862SOL     OW17218   4.296   0.469   6.826 -0.0825  0.3857 -0.1257
 1862SOL    HW117219   4.284   0.564   6.838 -0.6606  0.3530 -0.4035
 1862SOL    HW217220   4.210   0.441   6.793 -0.3009  1.3167 -0.3760
 1863SOL     OW17221   0.168   3.219   6.366  0.5358 -0.3025  0.0151
 1863SOL    HW117222   0.083   3.251   6.396  0.4612 -2.2052  1.8161
 1863SOL    HW217223   0.153   3.129   6.337 -0.6504  0.1189 -0.6645
 1864SOL     OW17224   0.897   4.098   6.687 -0.0498  0.8410 -0.2778
 1864SOL    HW117225   0.807   4.114   6.659  0.2688 -0.0658 -1.8688
 1864SOL    HW217226   0.930   4.183   6.656 -1.9552  1.0785 -1.6439
 1865SOL     OW17227   3.334   2.501  17.124  0.4629 -0.4778  0.3512
 1865SOL    HW117228   3.373   2.473  17.041 -2.8153 -2.0735 -0.6511
 1865SOL    HW217229   3.411   2.514  17.179  0.4952  1.8991 -0.2733
 1866SOL     OW17230   2.501   0.035  11.478  0.4319  0.3396 -0.0243
 1866SOL    HW117231   2.434   4.704  11.480  2.2074 -1.3736  0.9529
 1866SOL    HW217232   2.466   0.105  11.423 -1.4128 -0.9987 -0.5277
 1867SOL     OW17233   3.535   0.081   3.605  0.4463  0.8400 -0.1181
 1867SOL    HW117234   3.498   0.009   3.553  3.3978  0.4341 -1.6841
 1867SOL    HW217235   3.476   0.071   3.679  1.6832 -1.1759  0.6075
 1868SOL     OW17236   2.757   4.320   2.627  0.3508 -0.3606  0.2988
 1868SOL    HW117237   2.848   4.300   2.646  0.6853 -0.9865 -1.9631
 1868SOL    HW217238   2.761   4.290   2.536 -1.2883  0.4802 -0.0612
 1869SOL     OW17239   2.940   1.098   4.307 -0.2624 -0.3720  0.2233
 1869SOL    HW117240   2.928   1.192   4.317 -2.5530 -0.8070  1.8033
 1869SOL    HW217241   3.020   1.086   4.357 -0.9672  0.1018  1.4806
 1870SOL     OW17242   0.391   0.066   5.685 -0.3151  0.6790 -0.1440
 1870SOL    HW117243   0.348   0.103   5.762 -1.3660  2.2871 -1.4972
 1870SOL    HW217244   0.446   0.138   5.654  0.3411  1.9560  4.0150
 1871SOL     OW17245   3.074   3.104   4.649  0.0394 -0.0995 -0.2001
 1871SOL    HW117246   3.098   3.021   4.608 -3.1192 -0.8534 -0.5324
 1871SOL    HW217247   3.006   3.130   4.587  0.9223 -0.3498 -1.2573
 1872SOL     OW17248   2.123   0.031  15.706  0.0813  0.2512 -0.2206
 1872SOL    HW117249   2.033   0.036  15.673 -0.3290 -3.1128  0.4067
 1872SOL    HW217250   2.174   0.011  15.628  0.3152  1.6169 -0.4030
 1873SOL     OW17251   3.235   1.083   0.036  0.0831  0.1205  0.6565
 1873SOL    HW117252   3.281   1.135   0.102 -0.3752 -0.5700  1.5213
 1873SOL    HW217253   3.208   1.007   0.087 -0.7778  1.2580  1.9217
 1874SOL     OW17254   0.263   3.425  12.496 -0.3124  0.2195  0.0111
 1874SOL    HW117255   0.325   3.352  12.500  0.9782  1.2595 -1.3572
 1874SOL    HW217256   0.207   3.410  12.573 -0.0576  0.9568  0.3373
 1875SOL     OW17257   2.987   0.669   8.486  0.1744  0.0338 -0.0235
 1875SOL    HW117258   2.970   0.579   8.512  1.4881 -0.5547 -1.1956
 1875SOL    HW217259   3.070   0.676   8.535  0.3883  2.1596 -0.7034
 1876SOL     OW17260   2.833   0.286  12.037  0.3642 -0.2251  0.6904
 1876SOL    HW117261   2.762   0.224  12.017 -1.2686  1.5939  0.9207
 1876SOL    HW217262   2.876   0.284  11.951 -0.0220 -3.4128  0.5368
 1877SOL     OW17263   2.422   3.979   5.780  0.2342 -0.3112 -0.6013
 1877SOL    HW117264   2.358   3.980   5.852  0.1745 -0.0384 -0.6569
 1877SOL    HW217265   2.367   3.982   5.702  0.2660  1.2447 -0.5785
 1878SOL     OW17266   2.946   1.775   1.572  0.7531 -0.1071  0.4321
 1878SOL    HW117267   2.917   1.721   1.645 -2.8721 -0.2089 -1.0527
 1878SOL    HW217268   3.040   1.759   1.565  0.6734 -0.6729  0.6949
 1879SOL     OW17269   2.986   3.013   4.972 -0.1193 -0.0694  0.0157
 1879SOL    HW117270   2.933   3.007   5.052 -0.4139  2.3823  0.0071
 1879SOL    HW217271   3.074   2.998   5.005  0.2680  3.2116  0.4112
 1880SOL     OW17272   3.296   3.326   2.679  0.5182  0.4698 -1.2479
 1880SOL    HW117273   3.309   3.413   2.716  1.9695 -0.3091  0.0956
 1880SOL    HW217274   3.384   3.314   2.642  1.1007  0.7477  0.0437
 1881SOL     OW17275   2.784   3.737  15.169 -0.1118 -0.4078  0.0157
 1881SOL    HW117276   2.878   3.754  15.157  0.3756 -3.1710 -0.2123
 1881SOL    HW217277   2.738   3.777  15.095  0.0381  0.8393  0.6042
 1882SOL     OW17278   4.709   4.721   6.215  0.0570  0.4190 -0.0206
 1882SOL    HW117279   4.687   4.724   6.122 -3.0174 -1.2607  0.6223
 1882SOL    HW217280   0.067   4.731   6.224  0.1579 -0.1062 -0.5291
 1883SOL     OW17281   0.280   1.017   0.414  0.2879  0.1267 -0.1788
 1883SOL    HW117282   0.312   1.101   0.383 -2.9680  1.0134 -1.1199
 1883SOL    HW217283   0.191   1.042   0.440  0.0522 -0.9820  0.0763
 1884SOL     OW17284   0.448   4.536   2.998  0.2129  0.4173  0.3485
 1884SOL    HW117285   0.470   4.500   2.913 -0.7635 -0.1260  0.3270
 1884SOL    HW217286   0.372   4.482   3.021  0.1751  0.3912  0.1579
 1885SOL     OW17287   1.377   0.706  17.303  0.2203  0.1746 -0.3535
 1885SOL    HW117288   1.400   0.614  17.313  0.9378  0.1775 -1.8303
 1885SOL    HW217289   1.362   0.731  17.394 -1.5270 -0.2568 -0.5357
 1886SOL     OW17290   3.901   1.731   4.717  0.2215  0.5428  0.0139
 1886SOL    HW117291   3.956   1.807   4.700  1.6220 -0.0800  1.7822
 1886SOL    HW217292   3.909   1.714   4.811  1.9162  0.0586 -0.2263
 1887SOL     OW17293   0.813   0.595   4.993 -0.3885  0.1839  0.0500
 1887SOL    HW117294   0.757   0.532   4.949 -0.6975 -0.9650  2.1027
 1887SOL    HW217295   0.750   0.663   5.020  0.1575  0.7812 -0.1776
 1888SOL     OW17296   0.767   2.777  10.335  0.2135 -0.1512  0.0565
 1888SOL    HW117297   0.773   2.843  10.266  0.0712 -1.0507 -0.8278
 1888SOL    HW217298   0.687   2.805  10.380  0.5957 -0.7049  1.0765
 1889SOL     OW17299   0.953   1.076   3.247  0.4807  0.1126 -0.0322
 1889SOL    HW117300   0.993   1.163   3.249 -0.0837  0.4062 -1.8584
 1889SOL    HW217301   0.918   1.075   3.336 -0.2458  0.6679 -0.3100
 1890SOL     OW17302   4.274   0.655  14.907  0.2606  0.1308  0.0950
 1890SOL    HW117303   4.306   0.658  14.998  0.9486  0.0517 -0.1394
 1890SOL    HW217304   4.333   0.716  14.863 -0.6982  1.1628  0.2393
 1891SOL     OW17305   3.853   2.445   2.556  0.6604  0.1007  0.1729
 1891SOL    HW117306   3.909   2.402   2.491  0.3355  0.5381 -0.4084
 1891SOL    HW217307   3.828   2.523   2.505 -0.8595 -0.5711 -0.0959
 1892SOL     OW17308   2.058   4.596   9.264 -0.7093  0.0798 -0.5772
 1892SOL    HW117309   2.045   4.534   9.335  1.3418  0.0998 -0.1649
 1892SOL    HW217310   2.112   4.659   9.313 -0.2543 -0.1150 -0.8221
 1893SOL     OW17311   3.662   3.285   7.549 -0.6733 -0.5235  0.5383
 1893SOL    HW117312   3.596   3.324   7.493  1.7174  0.4345 -1.6307
 1893SOL    HW217313   3.676   3.202   7.503  0.3483  1.2360 -2.3123
 1894SOL     OW17314   0.208   0.804   3.607 -0.2870 -0.9086  0.8255
 1894SOL    HW117315   0.248   0.748   3.674  0.2323 -2.6216 -0.9168
 1894SOL    HW217316   0.236   0.889   3.641  0.9867  0.5036 -3.7144
 1895SOL     OW17317   0.328   2.630   4.336 -0.3107 -0.0432 -0.0322
 1895SOL    HW117318   0.254   2.592   4.289 -0.6678 -1.5575  1.7371
 1895SOL    HW217319   0.399   2.570   4.315  0.8241  1.6868 -1.1020
 1896SOL     OW17320   4.199   0.939   2.436 -0.1088  0.0743  0.0773
 1896SOL    HW117321   4.190   0.905   2.525  1.0711 -0.0518  0.1562
 1896SOL    HW217322   4.252   0.867   2.400 -0.3821 -0.1572  0.1357
 1897SOL     OW17323   0.202   3.817   3.156  0.5107 -0.4495  0.2215
 1897SOL    HW117324   0.208   3.820   3.252 -1.9490  1.2141  0.3474
 1897SOL    HW217325   0.276   3.873   3.132 -0.1427 -0.1145 -0.9814
 1898SOL     OW17326   0.804   2.067   5.990  0.7767 -0.1353  0.0821
 1898SOL    HW117327   0.872   2.089   5.927  0.0336  2.7503  0.2823
 1898SOL    HW217328   0.847   2.063   6.075 -1.9192 -0.1712  1.4613
 1899SOL     OW17329   4.348   4.381   8.922 -0.1670 -0.1024  0.7744
 1899SOL    HW117330   4.399   4.384   9.003 -2.6577 -1.1848  2.4111
 1899SOL    HW217331   4.390   4.448   8.869 -1.8032  0.8942  0.7357
 1900SOL     OW17332   2.651   1.511   1.939  0.0578  0.2197 -0.3997
 1900SOL    HW117333   2.568   1.547   1.910 -0.4433 -0.1923  0.5337
 1900SOL    HW217334   2.611   1.429   1.968 -0.6338  0.2476 -1.2733
 1901SOL     OW17335   3.311   1.752   3.456  0.0299 -0.1165 -0.0352
 1901SOL    HW117336   3.334   1.749   3.549  0.9930 -0.2953 -0.2794
 1901SOL    HW217337   3.375   1.817   3.427 -0.7149 -0.2183 -1.9377
 1902SOL     OW17338   3.884   3.038  11.385  0.0883  0.0853  0.4203
 1902SOL    HW117339   3.928   2.976  11.443 -0.5487 -1.0944 -0.3525
 1902SOL    HW217340   3.847   3.098  11.449  1.8508  1.8910 -0.2500
 1903SOL     OW17341   0.967   1.532   7.211 -0.2926 -0.3188  0.3804
 1903SOL    HW117342   1.061   1.512   7.213 -0.4383 -0.9460  0.8860
 1903SOL    HW217343   0.942   1.454   7.259 -1.0571 -0.4691 -0.2605
 1904SOL     OW17344   0.672   1.227  16.695  0.6222  0.4586 -0.4166
 1904SOL    HW117345   0.631   1.190  16.773 -1.7294  2.3085 -0.7739
 1904SOL    HW217346   0.661   1.152  16.635  2.5544 -1.6093  1.8199
 1905SOL     OW17347   4.614   1.040   9.864 -0.2159 -0.3694  0.4470
 1905SOL    HW117348   4.611   1.133   9.888  0.0264 -0.5975  1.3412
 1905SOL    HW217349   4.552   1.031   9.791 -0.2669  0.0905  0.4333
 1906SOL     OW17350   4.734   3.753   2.972 -0.1658 -0.4497 -0.2331
 1906SOL    HW117351   0.048   3.777   3.049  0.3956 -0.5011 -0.5931
 1906SOL    HW217352   4.734   3.836   2.924 -0.8809  0.7353  1.8157
 1907SOL     OW17353   1.764   4.193   2.302  0.1041 -0.7795  0.8091
 1907SOL    HW117354   1.679   4.235   2.318 -0.2952 -1.3753  0.2192
 1907SOL    HW217355   1.812   4.275   2.307  2.2349 -1.9490 -0.5520
 1908SOL     OW17356   2.850   1.579  14.043  0.0797 -0.2988 -0.4452
 1908SOL    HW117357   2.773   1.592  14.098  0.0044  1.7905 -1.0396
 1908SOL    HW217358   2.874   1.492  14.075 -1.6075 -1.4655 -2.3307
 1909SOL     OW17359   3.418   1.028   9.141  0.0568  0.6095  0.5613
 1909SOL    HW117360   3.358   1.004   9.070  1.3063 -2.3962  0.5502
 1909SOL    HW217361   3.436   1.121   9.128  1.2425  0.1994 -0.6193
 1910SOL     OW17362   4.227   0.350   1.951  0.3718 -0.4244  0.2688
 1910SOL    HW117363   4.158   0.369   1.888  0.0066 -0.2597  0.7202
 1910SOL    HW217364   4.206   0.264   1.987 -0.2858  0.2108  1.3690
 1911SOL     OW17365   0.214   2.706   7.603  0.2796  0.0037 -0.2757
 1911SOL    HW117366   0.120   2.692   7.590  0.4359 -1.5034  0.3361
 1911SOL    HW217367   0.230   2.705   7.697  0.5996  0.9643 -0.3088
 1912SOL     OW17368   1.984   2.818  11.222 -0.2664 -0.3372  0.1231
 1912SOL    HW117369   1.898   2.843  11.257 -0.4611  0.0011 -0.5964
 1912SOL    HW217370   1.959   2.745  11.166  1.7848 -0.0494 -1.1746
 1913SOL     OW17371   2.525   3.141   9.825 -0.0169  0.9571  0.5016
 1913SOL    HW117372   2.500   3.145   9.917  2.4678 -0.9908  1.2733
 1913SOL    HW217373   2.621   3.135   9.825 -0.0009  1.1554 -2.1341
 1914SOL     OW17374   1.030   3.141   2.279 -0.3329  0.3993  0.3003
 1914SOL    HW117375   0.966   3.158   2.348 -0.9227 -1.3828  0.1806
 1914SOL    HW217376   1.106   3.191   2.310  0.2742 -0.4067  0.1286
 1915SOL     OW17377   1.781   2.532   5.454 -0.5126  0.1656 -0.5649
 1915SOL    HW117378   1.829   2.485   5.386 -0.9762  0.5923 -1.1876
 1915SOL    HW217379   1.750   2.617   5.421 -0.8484  0.8577  1.5038
 1916SOL     OW17380   1.607   0.869   2.657 -0.0373  0.5487 -0.4236
 1916SOL    HW117381   1.679   0.876   2.719 -0.3222  1.3021 -0.1813
 1916SOL    HW217382   1.655   0.841   2.578  2.2695  2.4947  0.2856
 1917SOL     OW17383   2.067   1.244   0.094  0.3041  0.0730 -0.5967
 1917SOL    HW117384   2.125   1.310   0.133  1.3211  0.2295 -2.3886
 1917SOL    HW217385   2.006   1.296   0.041  0.4314 -0.5684 -1.3697
 1918SOL     OW17386   2.880   2.530   1.507 -0.0206 -1.0670  0.5009
 1918SOL    HW117387   2.834   2.517   1.424 -0.5983  1.7159  0.3598
 1918SOL    HW217388   2.946   2.461   1.504  0.1416 -0.8745 -0.5136
 1919SOL     OW17389   0.256   3.816   7.361  0.5830  0.1918  0.2481
 1919SOL    HW117390   0.351   3.804   7.365  0.6225 -0.1175 -1.5997
 1919SOL    HW217391   0.228   3.799   7.451 -0.6039 -0.3807 -0.2397
 1920SOL     OW17392   1.455   0.792  11.817 -0.0414 -0.4364 -0.3242
 1920SOL    HW117393   1.541   0.753  11.835  0.1613 -0.2626 -0.9071
 1920SOL    HW217394   1.400   0.715  11.803  1.0399 -1.1552 -0.6067
 1921SOL     OW17395   3.494   4.682   3.363  0.0535  0.6808 -0.0287
 1921SOL    HW117396   3.565   4.628   3.328 -2.0071 -1.7209 -0.4731
 1921SOL    HW217397   3.490   0.018   3.302  1.5462  0.3801 -0.4900
 1922SOL     OW17398   3.917   2.757   1.479 -0.6771 -0.1299  0.0793
 1922SOL    HW117399   3.996   2.789   1.522 -0.5530 -1.0009  0.4900
 1922SOL    HW217400   3.864   2.837   1.478 -0.1767  0.2050 -0.0350
 1923SOL     OW17401   3.930   0.064   6.866  0.0146  0.4496 -0.1681
 1923SOL    HW117402   3.862   0.132   6.868  0.2619  0.6592  0.9936
 1923SOL    HW217403   3.952   0.057   6.959  1.1367  0.9755 -0.3974
 1924SOL     OW17404   1.715   4.464  15.914  0.1833  0.6643  0.8851
 1924SOL    HW117405   1.714   4.372  15.941 -0.7375  0.0231 -1.3063
 1924SOL    HW217406   1.788   4.460  15.853  0.4005 -0.3445  1.2093
 1925SOL     OW17407   3.242   2.531   5.775 -0.2855  0.1686 -0.1240
 1925SOL    HW117408   3.159   2.558   5.816  0.1495  1.5381 -0.1520
 1925SOL    HW217409   3.286   2.485   5.846  0.2662  3.2415  1.5181
 1926SOL     OW17410   0.777   1.883   5.644 -0.5982 -0.5629 -0.3207
 1926SOL    HW117411   0.824   1.952   5.597 -2.4700  0.5302 -0.5795
 1926SOL    HW217412   0.848   1.827   5.677  0.9647  1.4033 -0.4149
 1927SOL     OW17413   2.307   2.735   9.157 -0.1295  0.2007 -0.4363
 1927SOL    HW117414   2.306   2.748   9.063 -0.1999  0.8295 -0.3502
 1927SOL    HW217415   2.374   2.800   9.180  2.8723 -3.4682  1.1431
 1928SOL     OW17416   0.380   2.194  12.710  0.5859 -0.1462 -0.1531
 1928SOL    HW117417   0.323   2.232  12.643 -0.9239  0.0199  1.2310
 1928SOL    HW217418   0.437   2.136  12.658  1.6226  1.0064 -0.3015
 1929SOL     OW17419   0.120   0.657   0.554  0.0628 -0.1947 -0.1866
 1929SOL    HW117420   0.073   0.731   0.593  1.4472  1.0143 -0.8149
 1929SOL    HW217421   0.180   0.630   0.624  0.2618 -0.5577 -0.4989
 1930SOL     OW17422   3.858   3.907   9.164 -0.1195 -0.0554  0.1752
 1930SOL    HW117423   3.840   3.990   9.121  0.9061  0.1500  0.1296
 1930SOL    HW217424   3.846   3.934   9.255 -4.1651 -1.4685  0.0580
 1931SOL     OW17425   4.462   1.807  17.564  0.2386 -0.2553  0.2474
 1931SOL    HW117426   4.535   1.750  17.588 -0.9497 -1.3562  1.2649
 1931SOL    HW217427   4.395   1.773  17.624 -0.4365 -1.3411 -1.0935
 1932SOL     OW17428   2.154   3.089  11.505  0.5783  0.0223  0.0527
 1932SOL    HW117429   2.154   3.119  11.414  1.6534 -0.1814 -0.0136
 1932SOL    HW217430   2.091   3.017  11.500  0.7628 -0.2421  1.7509
 1933SOL     OW17431   0.537   4.355   6.677 -0.0309  0.0912  0.1800
 1933SOL    HW117432   0.550   4.293   6.749 -0.2089  1.5357  1.4508
 1933SOL    HW217433   0.587   4.426   6.719 -0.7304  1.6576 -1.6252
 1934SOL     OW17434   1.153   1.806   4.208  0.0138  0.2249 -0.2488
 1934SOL    HW117435   1.106   1.841   4.133 -0.2729 -1.2448 -0.7569
 1934SOL    HW217436   1.219   1.875   4.217  2.9726 -2.2978 -2.6930
 1935SOL     OW17437   2.602   4.505   1.436 -0.5106  0.8843  0.2252
 1935SOL    HW117438   2.647   4.587   1.417  0.5785  0.1301 -0.4509
 1935SOL    HW217439   2.521   4.516   1.387 -1.4544  1.9691  2.0187
 1936SOL     OW17440   0.594   2.034   2.617  0.3097 -0.9687 -0.4823
 1936SOL    HW117441   0.635   1.953   2.585 -0.4729 -1.3544 -0.5013
 1936SOL    HW217442   0.585   2.087   2.538  2.9679  0.9576  0.5099
 1937SOL     OW17443   3.185   4.219  15.003 -0.6664  0.0742  0.5446
 1937SOL    HW117444   3.109   4.219  14.944 -0.4266  0.9692  0.2290
 1937SOL    HW217445   3.213   4.128  14.999 -0.7474 -0.0230  2.4142
 1938SOL     OW17446   2.021   2.809  12.394  0.1961 -0.0722 -0.7510
 1938SOL    HW117447   1.982   2.848  12.316 -0.8440 -2.2722 -1.3482
 1938SOL    HW217448   2.109   2.845  12.384  0.4789 -0.1824  1.1737
 1939SOL     OW17449   4.268   4.736   5.244 -0.3272  0.3549 -0.0143
 1939SOL    HW117450   4.203   0.039   5.302 -0.9096  1.5958 -1.4982
 1939SOL    HW217451   4.255   4.643   5.259 -1.4471  0.7860  1.6502
 1940SOL     OW17452   3.368   3.720   7.070  0.2139 -0.1253 -0.2319
 1940SOL    HW117453   3.394   3.801   7.114  0.9770 -0.3350 -0.3036
 1940SOL    HW217454   3.284   3.746   7.032 -0.1736  0.3259  0.9412
 1941SOL     OW17455   3.783   4.399   5.926 -0.0127  0.5015 -0.3096
 1941SOL    HW117456   3.817   4.488   5.914  0.9305  0.1671 -0.1373
 1941SOL    HW217457   3.739   4.402   6.011 -1.2166 -0.5118 -0.8957
 1942SOL     OW17458   2.516   4.474   5.816 -0.0935 -0.1232  0.2811
 1942SOL    HW117459   2.480   4.389   5.841  0.9993 -0.6997 -0.1483
 1942SOL    HW217460   2.492   4.522   5.895  1.5741  1.5413 -0.2178
 1943SOL     OW17461   3.305   3.572   3.860 -0.0486  0.1658  0.3222
 1943SOL    HW117462   3.224   3.622   3.849 -0.2811 -0.2961 -0.0450
 1943SOL    HW217463   3.279   3.511   3.930  0.5609 -0.6466 -0.1566
 1944SOL     OW17464   2.394   4.013   9.843  0.3334  0.4825 -0.0757
 1944SOL    HW117465   2.335   4.088   9.841  1.0038  1.0371  1.3983
 1944SOL    HW217466   2.337   3.947   9.881  0.7886 -0.8530 -1.6976
 1945SOL     OW17467   1.600   0.033   3.465 -0.2138 -0.3069 -0.6830
 1945SOL    HW117468   1.626   0.041   3.373  3.3741 -2.1983  0.1676
 1945SOL    HW217469   1.507   0.012   3.451 -0.6477 -0.6745  2.7466
 1946SOL     OW17470   2.370   2.382   5.227 -0.2035 -0.1601 -0.0332
 1946SOL    HW117471   2.358   2.374   5.132 -2.8922 -0.2767  0.3224
 1946SOL    HW217472   2.290   2.338   5.256 -0.7228  2.3066  2.2884
 1947SOL     OW17473   2.258   1.959  10.648 -0.3218 -0.5477 -0.1357
 1947SOL    HW117474   2.288   1.868  10.640  1.7699  0.1303  0.2543
 1947SOL    HW217475   2.329   2.003  10.694 -2.3826  0.6933  1.8773
 1948SOL     OW17476   4.637   0.091   6.452  0.0371 -0.0540  0.5855
 1948SOL    HW117477   4.726   0.119   6.430 -0.0970  0.3906  0.6199
 1948SOL    HW217478   4.621   0.048   6.368 -1.8221  1.0246  0.4112
 1949SOL     OW17479   2.625   3.240   9.231  0.3368 -0.0549  0.0367
 1949SOL    HW117480   2.649   3.260   9.140  0.0027  2.8495  0.6080
 1949SOL    HW217481   2.601   3.328   9.257  1.9705  0.0810  1.0157
 1950SOL     OW17482   1.396   1.884   3.859  0.0916 -0.3350 -0.3311
 1950SOL    HW117483   1.409   1.800   3.815 -1.8004 -1.6052  1.5376
 1950SOL    HW217484   1.388   1.950   3.791  1.0664 -0.6644 -0.7650
 1951SOL     OW17485   2.076   0.345   4.446 -0.1285  0.2544  0.4749
 1951SOL    HW117486   2.128   0.312   4.519  1.9215 -0.1155 -1.1846
 1951SOL    HW217487   2.126   0.426   4.441 -0.7040  0.5326 -0.7438
 1952SOL     OW17488   4.707   2.216  16.123 -0.5182  0.1719  0.7268
 1952SOL    HW117489   0.005   2.138  16.078 -0.8252  0.7735 -0.5628
 1952SOL    HW217490   4.614   2.196  16.115 -0.8247  1.4857  1.1259
 1953SOL     OW17491   3.960   4.028  11.149  0.0296 -0.3547 -0.1644
 1953SOL    HW117492   3.992   3.944  11.182 -1.1504 -1.1232 -0.9694
 1953SOL    HW217493   3.884   4.038  11.206  0.4198 -0.5970  0.3961
 1954SOL     OW17494   1.899   1.412   7.244 -0.1509  0.5644  0.2542
 1954SOL    HW117495   1.887   1.324   7.281 -0.4822  0.6184  0.2748
 1954SOL    HW217496   1.899   1.472   7.318  1.3116  0.9697 -0.0704
 1955SOL     OW17497   1.354   3.566   3.387  0.4365  0.3265  0.2189
 1955SOL    HW117498   1.277   3.574   3.330  1.2563 -0.2449 -0.9674
 1955SOL    HW217499   1.428   3.574   3.327 -0.1206 -1.1564 -0.6899
 1956SOL     OW17500   3.591   1.393   7.067 -0.0790  0.5433  0.8474
 1956SOL    HW117501   3.658   1.390   6.999 -1.4278  2.7708 -0.5703
 1956SOL    HW217502   3.543   1.464   7.024  0.4102 -0.0635 -0.7152
 1957SOL     OW17503   3.238   1.964   9.485 -0.5417 -0.1745 -0.7663
 1957SOL    HW117504   3.233   1.938   9.393 -2.7738  3.7473 -1.7715
 1957SOL    HW217505   3.154   1.926   9.511 -1.0030  2.0055  0.9505
 1958SOL     OW17506   0.611   4.014   6.445  0.0408 -0.2782  0.7477
 1958SOL    HW117507   0.705   4.019   6.425 -0.2033 -1.3747 -0.6798
 1958SOL    HW217508   0.610   3.932   6.495 -3.2259  0.9655  2.6926
 1959SOL     OW17509   4.547   3.305   7.100  0.4899  0.0486 -0.8167
 1959SOL    HW117510   4.637   3.321   7.129  0.0650 -0.2994  0.6893
 1959SOL    HW217511   4.520   3.238   7.163 -1.3443  0.1787 -1.4531
 1960SOL     OW17512   3.730   1.923   8.351 -0.4258 -0.0815 -0.0686
 1960SOL    HW117513   3.668   1.927   8.278 -0.8042  1.0620  0.3282
 1960SOL    HW217514   3.670   1.936   8.424 -0.4305  0.3763 -0.1564
 1961SOL     OW17515   0.797   0.560  12.812  0.0614  0.5274 -0.3289
 1961SOL    HW117516   0.833   0.615  12.882 -2.5183  1.2505  0.4140
 1961SOL    HW217517   0.720   0.523  12.856 -1.4549  1.5857 -2.1116
 1962SOL     OW17518   3.352   1.670   2.072 -0.1000  0.2338  0.2224
 1962SOL    HW117519   3.296   1.651   1.997  0.8614 -1.6892  0.0013
 1962SOL    HW217520   3.354   1.765   2.082  0.8271  0.3200 -0.8523
 1963SOL     OW17521   2.023   1.123  14.303  0.0037 -0.2658  0.0740
 1963SOL    HW117522   1.997   1.035  14.275 -0.0933 -0.4576  0.7672
 1963SOL    HW217523   2.040   1.165  14.219  0.3752 -1.0474 -0.2381
 1964SOL     OW17524   3.576   3.371   4.386 -0.9619  0.1328  0.1162
 1964SOL    HW117525   3.653   3.420   4.357 -1.7228  1.5413  0.4623
 1964SOL    HW217526   3.510   3.433   4.354  0.0444  1.0867 -0.1333
 1965SOL     OW17527   3.774   3.295   1.629  0.3902 -0.2580  0.3455
 1965SOL    HW117528   3.703   3.268   1.687  1.2543 -1.9136  0.6177
 1965SOL    HW217529   3.841   3.313   1.695  2.0709 -3.1641 -0.5676
 1966SOL     OW17530   0.486   0.678   0.674 -0.3295  0.2661  0.0080
 1966SOL    HW117531   0.528   0.731   0.741  1.3921 -0.4082 -0.5429
 1966SOL    HW217532   0.487   0.732   0.595 -1.8799 -0.8238 -0.7666
 1967SOL     OW17533   3.480   2.036   8.157  0.0955  0.2288  0.3578
 1967SOL    HW117534   3.416   1.990   8.211 -0.7527 -1.5583 -2.1727
 1967SOL    HW217535   3.466   2.127   8.182  0.5613  0.1101  1.0513
 1968SOL     OW17536   0.446   1.018   9.312  0.5303 -0.4720  0.5729
 1968SOL    HW117537   0.477   1.092   9.365 -0.1579 -1.5727  2.5149
 1968SOL    HW217538   0.532   0.995   9.277  0.5685  1.4045 -0.5936
 1969SOL     OW17539   0.669   0.061   8.811 -0.1678  0.4512 -0.0290
 1969SOL    HW117540   0.577   0.064   8.838 -0.8140  0.1007 -2.1956
 1969SOL    HW217541   0.711   0.080   8.895  0.7289  1.0916 -0.6096
 1970SOL     OW17542   0.312   2.551  12.902 -0.3656 -0.2817 -0.0859
 1970SOL    HW117543   0.390   2.497  12.885 -2.0232 -2.0755 -2.0233
 1970SOL    HW217544   0.240   2.491  12.923 -1.5806  1.7092  1.3580
 1971SOL     OW17545   4.563   3.955  16.691 -0.1055  0.2915 -0.0101
 1971SOL    HW117546   4.564   3.965  16.596 -1.1980 -2.1526 -0.2871
 1971SOL    HW217547   4.555   3.859  16.687 -3.0462  0.4911  1.2305
 1972SOL     OW17548   3.983   1.519   8.141  0.5489  0.0852 -0.8157
 1972SOL    HW117549   4.037   1.579   8.090  0.3129 -0.5970 -1.8766
 1972SOL    HW217550   3.942   1.578   8.204  1.3474  1.2916 -1.4360
 1973SOL     OW17551   3.960   1.694   4.976  0.5135  0.1513  0.2978
 1973SOL    HW117552   3.994   1.782   4.962 -0.2141  0.2877 -0.5370
 1973SOL    HW217553   4.037   1.648   5.010 -0.9780 -0.4686  2.8411
 1974SOL     OW17554   0.782   3.923   9.519 -0.0744 -0.4844 -0.5799
 1974SOL    HW117555   0.838   3.887   9.588  0.3046  1.2725  0.0169
 1974SOL    HW217556   0.832   3.891   9.444  0.8219 -3.3038  1.2192
 1975SOL     OW17557   2.613   3.838   8.656  0.0604 -0.7553  0.6822
 1975SOL    HW117558   2.623   3.745   8.636  1.0467  0.2696 -3.5696
 1975SOL    HW217559   2.570   3.860   8.573 -2.2331 -1.0643  1.7706
 1976SOL     OW17560   0.421   1.771  14.417 -0.4285  0.4412 -0.6077
 1976SOL    HW117561   0.375   1.707  14.362 -2.7045  0.8991  0.7821
 1976SOL    HW217562   0.407   1.856  14.375 -1.0070  0.7579  0.2183
 1977SOL     OW17563   2.191   2.569   3.286 -0.3369  0.0396 -0.2756
 1977SOL    HW117564   2.139   2.577   3.207 -0.8248 -1.3115 -0.0786
 1977SOL    HW217565   2.149   2.640   3.335 -2.0214 -0.8550 -0.4512
 1978SOL     OW17566   1.377   0.074  10.145  0.0082 -0.3295 -0.3083
 1978SOL    HW117567   1.422   4.732  10.113 -1.6616 -1.4102 -0.0007
 1978SOL    HW217568   1.289   0.039  10.159  0.5790 -2.0314 -1.0207
 1979SOL     OW17569   2.798   3.137   3.574  0.3517 -0.1396 -0.3002
 1979SOL    HW117570   2.771   3.225   3.545 -1.2963  0.1502  2.0910
 1979SOL    HW217571   2.728   3.079   3.544 -0.7119  0.5296  0.8741
 1980SOL     OW17572   4.683   3.589  16.255  0.0468 -0.3293 -0.0392
 1980SOL    HW117573   0.018   3.531  16.229  0.6200  1.6332 -2.8199
 1980SOL    HW217574   4.699   3.670  16.207  1.5096 -0.1242  0.8121
 1981SOL     OW17575   2.233   2.599   9.385  0.6867 -0.9613 -0.6381
 1981SOL    HW117576   2.256   2.640   9.302  0.6213 -1.3749 -0.8591
 1981SOL    HW217577   2.246   2.665   9.453 -1.9813  0.4556 -1.5283
 1982SOL     OW17578   3.400   3.941   9.742  0.3642  0.2579  0.4410
 1982SOL    HW117579   3.448   3.942   9.824  1.6948  0.2279 -0.3306
 1982SOL    HW217580   3.321   3.897   9.771  0.4164  0.2260  0.5330
 1983SOL     OW17581   4.264   0.746   6.900  0.7651  0.6387 -0.5665
 1983SOL    HW117582   4.336   0.810   6.902  1.3420 -0.0084 -0.4533
 1983SOL    HW217583   4.265   0.726   6.993 -4.5421 -1.1576 -0.9329
 1984SOL     OW17584   2.964   3.868  11.691 -0.8709  0.7120  0.3651
 1984SOL    HW117585   3.054   3.863  11.659 -1.0343 -1.2696  0.1998
 1984SOL    HW217586   2.978   3.926  11.766 -0.5742  0.7895  0.2516
 1985SOL     OW17587   1.331   0.139   7.543 -0.3003 -0.4287 -0.2095
 1985SOL    HW117588   1.313   0.195   7.467  3.5793  0.7998 -0.2517
 1985SOL    HW217589   1.366   0.201   7.607 -1.2442 -0.5983  0.4579
 1986SOL     OW17590   2.528   2.718   8.862  0.3052  0.5765  0.7478
 1986SOL    HW117591   2.538   2.686   8.952 -0.9661  0.7904  0.9646
 1986SOL    HW217592   2.598   2.668   8.821  0.7873 -0.3302  2.6611
 1987SOL     OW17593   4.643   3.243   4.457 -0.5604 -0.4961 -0.2143
 1987SOL    HW117594   4.726   3.282   4.485  0.1867 -2.7717  0.7108
 1987SOL    HW217595   4.670   3.185   4.386  2.3724  0.4066  0.1902
 1988SOL     OW17596   3.384   0.774   8.868  0.1420 -0.3537  0.8824
 1988SOL    HW117597   3.310   0.828   8.895  0.1952  0.2025 -0.1160
 1988SOL    HW217598   3.347   0.687   8.883 -0.1098 -0.4739 -0.4915
 1989SOL     OW17599   2.193   1.848  14.544  0.0367  0.2434 -0.1182
 1989SOL    HW117600   2.219   1.771  14.596  1.3970  0.3283 -0.6693
 1989SOL    HW217601   2.236   1.916  14.596 -0.1774  0.0570  0.2997
 1990SOL     OW17602   3.657   1.175   3.543 -0.4170  0.3126 -0.2191
 1990SOL    HW117603   3.643   1.188   3.636 -1.2850  1.6940 -0.5405
 1990SOL    HW217604   3.679   1.082   3.535 -1.9042  0.0966 -1.7790
 1991SOL     OW17605   3.039   4.495   6.280 -0.5751  0.2135  0.1698
 1991SOL    HW117606   3.093   4.532   6.350 -1.1368  2.6819 -0.7141
 1991SOL    HW217607   3.036   4.564   6.214 -0.1992 -0.0929 -0.1719
 1992SOL     OW17608   2.776   2.337  12.404  0.3174 -0.1195  0.0535
 1992SOL    HW117609   2.826   2.310  12.481 -1.0761 -1.2159  0.5802
 1992SOL    HW217610   2.739   2.420  12.433  0.7475  0.0578  0.1024
 1993SOL     OW17611   0.305   1.248   7.652 -0.2133 -0.0967 -0.2427
 1993SOL    HW117612   0.229   1.192   7.638  1.2466 -1.8656 -1.0504
 1993SOL    HW217613   0.330   1.228   7.742  0.6294  1.1148 -0.2061
 1994SOL     OW17614   1.360   2.331   2.162  0.3209 -0.1478  0.2046
 1994SOL    HW117615   1.361   2.308   2.069  1.0924 -1.1120  0.4551
 1994SOL    HW217616   1.385   2.245   2.196 -2.1858  0.1405  2.7019
 1995SOL     OW17617   1.008   3.887   3.202  0.5609 -0.6649 -1.1264
 1995SOL    HW117618   0.928   3.835   3.208  0.7381 -1.0638 -2.1575
 1995SOL    HW217619   1.032   3.865   3.292 -1.4576 -0.0346 -0.4538
 1996SOL     OW17620   4.392   2.585  14.425  0.2741  0.4750  0.6901
 1996SOL    HW117621   4.467   2.560  14.479 -0.8867 -1.7709  1.2442
 1996SOL    HW217622   4.392   2.519  14.356 -0.9570  1.2187 -0.0191
 1997SOL     OW17623   2.496   2.938   9.155  0.1977 -0.0894 -0.0667
 1997SOL    HW117624   2.561   2.995   9.198  1.2246 -1.6280  0.4191
 1997SOL    HW217625   2.460   3.012   9.106  2.8556  0.1087 -1.7107
 1998SOL     OW17626   0.774   2.710  17.453  0.0900 -0.6639  0.4180
 1998SOL    HW117627   0.720   2.685  17.528 -0.8960  0.4400  0.0654
 1998SOL    HW217628   0.704   2.749  17.402  1.9757  0.5064 -1.2911
 1999SOL     OW17629   3.991   4.713   8.548 -0.3683  0.5082  0.1867
 1999SOL    HW117630   4.026   0.027   8.621 -1.6158  2.6294 -0.7023
 1999SOL    HW217631   3.916   0.034   8.533 -1.6442 -1.3912 -0.7060
 2000SOL     OW17632   4.552   3.101   4.876  0.3546  0.0443 -0.3402
 2000SOL    HW117633   4.579   3.170   4.937 -0.4179 -0.6054  0.7352
 2000SOL    HW217634   4.638   3.086   4.836  0.4744  0.8907 -0.4030
 2001SOL     OW17635   1.951   3.307   6.013 -0.1145 -0.2189 -0.0841
 2001SOL    HW117636   1.884   3.304   6.082 -0.2196 -1.0048 -0.2208
 2001SOL    HW217637   1.922   3.371   5.948  0.9941 -0.0808 -0.4357
 2002SOL     OW17638   0.196   4.206  12.226 -0.1701 -0.0834 -0.3256
 2002SOL    HW117639   0.172   4.118  12.253 -0.4830 -0.5533 -2.1519
 2002SOL    HW217640   0.291   4.199  12.234 -0.4431 -0.5682  2.7812
 2003SOL     OW17641   3.678   0.235   6.951 -0.1240 -0.0036 -0.0190
 2003SOL    HW117642   3.677   0.170   7.021  3.9079  0.7141  0.7239
 2003SOL    HW217643   3.615   0.196   6.891  0.4908 -0.7901 -0.1518
 2004SOL     OW17644   3.957   3.655   9.246  0.0929  0.2977  0.1778
 2004SOL    HW117645   3.911   3.718   9.191  1.8623  0.3397 -1.2498
 2004SOL    HW217646   3.925   3.685   9.332 -1.9117  1.2359 -0.9009
 2005SOL     OW17647   2.925   4.530   4.911  0.4966  0.3857 -0.5189
 2005SOL    HW117648   2.951   4.520   4.819 -1.3226 -0.5578 -0.9255
 2005SOL    HW217649   2.997   4.583   4.946  0.9657 -1.2285  0.9066
 2006SOL     OW17650   3.941   3.168   2.209 -0.3768  0.5462 -0.1349
 2006SOL    HW117651   4.030   3.181   2.178 -0.7306  0.1528 -1.2970
 2006SOL    HW217652   3.897   3.144   2.128  0.3195  1.9620 -0.9413
 2007SOL     OW17653   2.868   0.913  15.513 -0.0506 -0.0366  0.4793
 2007SOL    HW117654   2.791   0.964  15.541  0.9814  0.8478  1.6827
 2007SOL    HW217655   2.826   0.830  15.490  1.1170 -0.4705 -0.0851
 2008SOL     OW17656   3.151   4.266   0.199 -0.2841 -0.4967 -0.5276
 2008SOL    HW117657   3.228   4.216   0.171  1.2477  1.6036 -0.0840
 2008SOL    HW217658   3.117   4.290   0.113 -2.6617 -0.7770  0.3329
 2009SOL     OW17659   3.661   1.491   2.413  0.1876 -0.2689 -0.0831
 2009SOL    HW117660   3.573   1.529   2.422 -0.7988 -2.5957  0.2816
 2009SOL    HW217661   3.679   1.540   2.332  2.5985 -0.1536  0.5355
 2010SOL     OW17662   2.024   0.450   4.815  0.5381 -0.0286 -0.3316
 2010SOL    HW117663   2.037   0.522   4.877 -2.3328 -0.4855  0.7943
 2010SOL    HW217664   1.996   0.380   4.873  0.7805  0.3086  0.1929
 2011SOL     OW17665   3.341   0.145   2.377 -0.1918 -0.1652  0.8400
 2011SOL    HW117666   3.289   0.127   2.455 -0.9382 -3.4627 -0.4025
 2011SOL    HW217667   3.302   0.225   2.343 -1.5439 -1.3549 -0.4301
 2012SOL     OW17668   1.323   2.260   6.871  0.4466 -0.4512  0.5163
 2012SOL    HW117669   1.342   2.328   6.936 -3.1490  0.9589  0.0813
 2012SOL    HW217670   1.258   2.305   6.817  3.4569  3.4656  0.1215
 2013SOL     OW17671   3.973   4.284  12.187 -0.0264  0.3272  0.1429
 2013SOL    HW117672   3.926   4.326  12.259 -0.6673  0.0916 -0.1379
 2013SOL    HW217673   3.998   4.363  12.138  0.3191  1.5635  2.3121
 2014SOL     OW17674   4.047   1.409   0.581  0.2523 -0.3241  0.8804
 2014SOL    HW117675   4.032   1.428   0.674  1.3704  1.5814  0.6804
 2014SOL    HW217676   3.961   1.377   0.554  0.4794  0.6299 -0.9483
 2015SOL     OW17677   3.383   3.624  14.638  0.4865  1.0286  0.1771
 2015SOL    HW117678   3.310   3.643  14.698 -1.7374 -0.7609 -1.9724
 2015SOL    HW217679   3.360   3.536  14.610 -2.2948  1.3780  1.3148
 2016SOL     OW17680   2.361   0.157  16.573 -0.2537 -0.3085  0.0204
 2016SOL    HW117681   2.340   0.085  16.514 -1.5371 -0.4096  0.5901
 2016SOL    HW217682   2.414   0.200  16.506 -0.9800  1.3966  0.5540
 2017SOL     OW17683   2.520   3.328   8.383  0.1335 -0.0820  0.3281
 2017SOL    HW117684   2.472   3.255   8.344  0.6509 -1.2930  1.9541
 2017SOL    HW217685   2.607   3.306   8.351  1.7403  2.6929  2.7295
 2018SOL     OW17686   4.567   1.723   7.720 -0.1696  0.1405  0.0851
 2018SOL    HW117687   4.534   1.648   7.770 -0.1107 -0.3376 -0.5983
 2018SOL    HW217688   4.659   1.733   7.744 -0.1640 -1.8729  0.9008
 2019SOL     OW17689   3.370   3.570  13.157 -0.7056 -0.4191  0.2358
 2019SOL    HW117690   3.416   3.543  13.237 -0.2678  0.8795  0.4291
 2019SOL    HW217691   3.280   3.565  13.190 -0.3307  0.8200  1.4684
 2020SOL     OW17692   3.802   0.601   2.514 -0.0495  0.5527 -0.1908
 2020SOL    HW117693   3.832   0.618   2.424 -1.1307  0.7974 -0.5053
 2020SOL    HW217694   3.777   0.688   2.545 -1.8257 -0.3963  1.0255
 2021SOL     OW17695   1.008   4.379   2.475 -0.4925 -0.1673  0.0522
 2021SOL    HW117696   0.920   4.412   2.491 -0.5328  0.1473 -0.8599
 2021SOL    HW217697   0.994   4.290   2.508 -0.8485  0.3562  1.3394
 2022SOL     OW17698   4.444   1.325   9.591  0.6146  0.4953 -0.0830
 2022SOL    HW117699   4.531   1.357   9.612  1.5019 -0.8357 -1.7411
 2022SOL    HW217700   4.465   1.289   9.505 -0.3374 -0.9195  0.2704
 2023SOL     OW17701   3.229   3.303   2.960  0.4985 -0.2506  0.0259
 2023SOL    HW117702   3.210   3.216   2.996 -0.1755 -0.9591 -2.0183
 2023SOL    HW217703   3.285   3.278   2.887  0.0515 -1.1272 -0.0192
 2024SOL     OW17704   1.645   1.946   5.797 -0.3486 -0.3199 -0.2092
 2024SOL    HW117705   1.573   1.956   5.859  0.3449 -1.3685  0.7845
 2024SOL    HW217706   1.632   2.019   5.737  1.9642  1.6982  1.7035
 2025SOL     OW17707   0.926   1.171   7.955 -0.2098 -0.0719  0.4565
 2025SOL    HW117708   0.920   1.213   8.041 -1.6116 -0.6651  0.6427
 2025SOL    HW217709   0.887   1.084   7.969 -1.2692  0.1938 -0.8280
 2026SOL     OW17710   2.167   4.086  17.221 -0.1358  0.5104  0.0242
 2026SOL    HW117711   2.134   3.999  17.244 -1.7365  0.8550 -1.0303
 2026SOL    HW217712   2.123   4.105  17.139 -2.1182  0.0828  0.9881
 2027SOL     OW17713   0.742   0.069  12.993 -0.4029  0.5425  0.2619
 2027SOL    HW117714   0.748   0.142  13.055  0.6096 -0.5978  1.5166
 2027SOL    HW217715   0.763   0.113  12.911 -0.4741  0.6451  0.2983
 2028SOL     OW17716   2.501   2.613   4.813 -0.0893  0.4413 -0.4039
 2028SOL    HW117717   2.469   2.702   4.823  0.1248  0.4149  0.5637
 2028SOL    HW217718   2.523   2.596   4.905  2.6337 -2.2195 -1.5505
 2029SOL     OW17719   3.364   1.436  12.632 -0.2787  0.0189 -0.1787
 2029SOL    HW117720   3.287   1.412  12.580 -0.7365 -0.8088  0.9014
 2029SOL    HW217721   3.378   1.363  12.692 -1.5280 -0.5138 -0.5371
 2030SOL     OW17722   2.691   2.717  17.472  0.1947 -0.0873 -0.9766
 2030SOL    HW117723   2.776   2.740  17.434  1.3369 -3.0220 -0.2018
 2030SOL    HW217724   2.637   2.710  17.392  0.0041  0.8603 -0.9342
 2031SOL     OW17725   4.025   4.448   2.099  0.3467 -0.4450  0.7548
 2031SOL    HW117726   3.971   4.515   2.058  0.4487 -0.5829  0.3906
 2031SOL    HW217727   4.079   4.511   2.146  0.1723  0.9020 -0.8391
 2032SOL     OW17728   1.223   0.584  11.704 -0.5768  1.0013 -0.2879
 2032SOL    HW117729   1.304   0.541  11.676 -0.7865  0.4004  0.0249
 2032SOL    HW217730   1.194   0.624  11.622 -1.0001 -2.7248 -1.9197
 2033SOL     OW17731   1.479   3.527   5.742 -0.3700 -0.7583 -0.2662
 2033SOL    HW117732   1.456   3.503   5.652  0.6568 -0.3322 -0.6379
 2033SOL    HW217733   1.524   3.608   5.718 -1.8154  0.4527  1.0906
 2034SOL     OW17734   4.587   1.029  12.468  0.1919 -0.3958 -0.2945
 2034SOL    HW117735   4.612   1.070  12.551 -2.5667 -1.5359  1.0789
 2034SOL    HW217736   4.525   0.961  12.492  0.4437 -0.7556 -0.6587
 2035SOL     OW17737   1.775   0.667   9.104 -0.3111  0.3130  0.2523
 2035SOL    HW117738   1.800   0.631   9.019 -0.6105  1.5848 -0.3718
 2035SOL    HW217739   1.680   0.667   9.097 -0.1944 -1.3945 -1.1162
 2036SOL     OW17740   4.142   2.122  15.152  0.1330  0.0905 -0.4230
 2036SOL    HW117741   4.083   2.186  15.114  1.1502  0.3188 -1.6457
 2036SOL    HW217742   4.219   2.136  15.096 -0.4320  1.8060 -0.7639
 2037SOL     OW17743   3.419   4.584   6.904 -0.1254 -0.0925  0.2011
 2037SOL    HW117744   3.330   4.549   6.896 -0.1170 -0.1149  0.2043
 2037SOL    HW217745   3.455   4.541   6.826  0.3450  1.4513 -0.4229
 2038SOL     OW17746   0.252   3.022  16.623  0.2781 -0.5470 -0.1251
 2038SOL    HW117747   0.159   3.040  16.639  0.9648 -0.1790  3.4851
 2038SOL    HW217748   0.264   3.094  16.562  3.8213 -1.2774 -0.2769
 2039SOL     OW17749   1.192   4.616   7.548  0.5927 -0.3231 -0.1990
 2039SOL    HW117750   1.226   4.704   7.562 -0.5263 -0.1249  1.2959
 2039SOL    HW217751   1.108   4.648   7.515 -0.4286 -2.0971  0.6757
 2040SOL     OW17752   1.484   3.398   9.478 -0.6109  0.1870 -0.3535
 2040SOL    HW117753   1.424   3.371   9.548  2.1812 -0.6374  1.7058
 2040SOL    HW217754   1.493   3.490   9.502 -0.1813  0.0827 -0.1154
 2041SOL     OW17755   3.548   0.734  14.875  0.0752 -0.1548 -0.3417
 2041SOL    HW117756   3.626   0.681  14.891  0.7666  1.0337  0.1432
 2041SOL    HW217757   3.552   0.794  14.949 -0.4636  1.1572 -1.3686
 2042SOL     OW17758   3.732   3.973   1.074 -0.0965 -0.0125  0.1940
 2042SOL    HW117759   3.719   4.056   1.119  2.7777  1.7293 -2.1993
 2042SOL    HW217760   3.728   4.004   0.984  2.1481  0.5545  0.2774
 2043SOL     OW17761   3.588   3.010   8.012 -0.3633  0.3998  0.1672
 2043SOL    HW117762   3.656   3.050   8.066  0.7520  1.2327 -1.9008
 2043SOL    HW217763   3.621   2.924   7.984 -0.0698  0.3429  0.6743
 2044SOL     OW17764   1.547   2.263   2.701 -0.2568  0.6611 -0.2525
 2044SOL    HW117765   1.534   2.225   2.614 -2.6377  1.9466 -0.4826
 2044SOL    HW217766   1.522   2.356   2.702  0.3426  0.8238 -0.2286
 2045SOL     OW17767   0.838   3.990   0.595 -0.1935  0.0348  0.2613
 2045SOL    HW117768   0.876   3.986   0.683 -2.3197  0.2307  1.1743
 2045SOL    HW217769   0.881   3.911   0.563 -0.0909 -1.1510  3.3242
 2046SOL     OW17770   1.334   0.417   1.096  0.2095 -0.3225  0.4829
 2046SOL    HW117771   1.391   0.369   1.156  0.6255 -3.1890 -2.2125
 2046SOL    HW217772   1.381   0.420   1.013  0.7432  0.6375  0.8159
 2047SOL     OW17773   4.543   2.720   2.016  0.2471  0.4879 -0.3072
 2047SOL    HW117774   4.477   2.656   1.990 -0.1609  0.3175  1.1226
 2047SOL    HW217775   4.500   2.770   2.085  2.1388  0.5561  0.8194
 2048SOL     OW17776   2.749   2.703   9.688 -0.4745  0.5878 -0.0314
 2048SOL    HW117777   2.788   2.784   9.721  0.4329  1.0036 -2.1315
 2048SOL    HW217778   2.670   2.738   9.647 -0.3473  0.1550 -0.6372
 2049SOL     OW17779   3.243   0.855   2.256 -0.4325 -0.2827 -0.6635
 2049SOL    HW117780   3.263   0.784   2.196  1.7602  0.0151 -0.2991
 2049SOL    HW217781   3.180   0.911   2.211  2.7559  2.2480 -1.9323
 2050SOL     OW17782   0.687   2.061   8.604  0.2850  0.5534  0.5113
 2050SOL    HW117783   0.621   1.996   8.579 -0.7130  1.5904  0.4464
 2050SOL    HW217784   0.724   2.082   8.518  0.8720 -1.2976  0.3191
 2051SOL     OW17785   3.991   3.413   7.652  0.2352  0.2605 -0.1402
 2051SOL    HW117786   4.062   3.476   7.659  0.2622  0.2651 -0.4849
 2051SOL    HW217787   3.938   3.455   7.585  0.9677  0.0351 -0.8581
 2052SOL     OW17788   0.450   1.046   5.019  0.4175  0.0773 -0.3518
 2052SOL    HW117789   0.498   1.128   5.025  1.7264 -0.6423 -1.1893
 2052SOL    HW217790   0.434   1.047   4.924 -1.6495  0.4028 -0.0138
 2053SOL     OW17791   1.840   4.201  14.052  0.1167 -0.1343  0.1176
 2053SOL    HW117792   1.866   4.291  14.036 -0.1561 -0.3327 -1.5260
 2053SOL    HW217793   1.919   4.165  14.091  0.7142 -0.4677 -1.4066
 2054SOL     OW17794   1.985   4.210   4.796  0.2256  0.3949  0.1803
 2054SOL    HW117795   1.933   4.130   4.804  0.0834  0.5138  0.4437
 2054SOL    HW217796   2.064   4.186   4.845 -0.8179  1.4990  2.4184
 2055SOL     OW17797   2.133   2.480   5.672 -0.0025 -0.0321 -0.3675
 2055SOL    HW117798   2.120   2.406   5.612  0.2636 -0.4611  0.1069
 2055SOL    HW217799   2.185   2.440   5.742 -0.2502 -0.6384 -0.5334
 2056SOL     OW17800   2.524   2.622   3.548  0.3523  0.1638  0.4876
 2056SOL    HW117801   2.448   2.645   3.603 -0.8180 -0.9645 -0.6722
 2056SOL    HW217802   2.560   2.555   3.606 -0.1903 -1.6054 -1.2299
 2057SOL     OW17803   3.754   1.517   3.808 -0.0502  0.1165  0.4653
 2057SOL    HW117804   3.841   1.559   3.811  0.4582 -0.8544 -0.5934
 2057SOL    HW217805   3.767   1.425   3.830  0.3149 -0.2096 -1.0748
 2058SOL     OW17806   3.348   0.521  11.198  0.7537 -0.5129  0.0766
 2058SOL    HW117807   3.401   0.463  11.143  1.6347  1.3141 -0.9780
 2058SOL    HW217808   3.413   0.547  11.263  1.7788 -3.4694  0.2370
 2059SOL     OW17809   3.048   1.139  17.575 -0.0838  0.2401 -0.2091
 2059SOL    HW117810   3.091   1.181  17.500 -3.4768  1.9249 -1.2251
 2059SOL    HW217811   3.124   1.113  17.627 -0.7391 -0.2670  0.4865
 2060SOL     OW17812   1.452   2.740   7.017  0.5714 -0.2007  0.3367
 2060SOL    HW117813   1.453   2.687   7.096  0.9238 -1.2240 -0.3563
 2060SOL    HW217814   1.542   2.734   6.985 -0.1090 -0.7480 -1.5010
 2061SOL     OW17815   0.900   1.000   8.354 -0.0071 -0.3735 -0.3334
 2061SOL    HW117816   0.828   0.958   8.306 -1.7994  1.9392  0.3244
 2061SOL    HW217817   0.863   1.008   8.441 -0.9028 -3.8367 -0.4131
 2062SOL     OW17818   0.560   1.099   3.095  0.3140  0.3463  0.1273
 2062SOL    HW117819   0.572   1.059   3.181  1.2936 -0.7341 -0.5088
 2062SOL    HW217820   0.465   1.112   3.091 -0.2778 -3.1802  2.1402
 2063SOL     OW17821   1.775   1.053   5.260 -0.2770 -0.0692  0.3000
 2063SOL    HW117822   1.691   1.011   5.272 -0.7508  0.9145  0.4371
 2063SOL    HW217823   1.740   1.131   5.217  0.9745 -0.2202 -1.0359
 2064SOL     OW17824   2.318   4.215   9.519 -0.1431 -0.2089 -0.3118
 2064SOL    HW117825   2.359   4.153   9.458 -1.6163 -1.3778 -0.1092
 2064SOL    HW217826   2.319   4.164   9.600 -0.3424 -0.6974 -0.6122
 2065SOL     OW17827   0.296   3.973   0.033 -0.7908  0.6501  0.0765
 2065SOL    HW117828   0.205   3.973   0.061 -0.7771 -1.9288  0.1472
 2065SOL    HW217829   0.348   3.970   0.114 -0.6736 -4.1810 -0.1486
 2066SOL     OW17830   1.681   0.642  10.778 -0.1676 -0.0621 -0.0178
 2066SOL    HW117831   1.602   0.695  10.764 -0.7197 -1.4848 -2.2669
 2066SOL    HW217832   1.752   0.704  10.760 -0.6611  0.3302 -0.6294
 2067SOL     OW17833   3.220   0.953   7.910 -0.3006  0.1844 -0.5426
 2067SOL    HW117834   3.221   0.950   8.005  0.0367  0.0034 -0.5508
 2067SOL    HW217835   3.253   1.040   7.891 -0.3018  0.2241 -0.3618
 2068SOL     OW17836   0.015   4.189  17.515  0.2021 -0.0188 -0.0708
 2068SOL    HW117837   4.716   4.110  17.554 -1.7821  0.7126 -0.4166
 2068SOL    HW217838   4.733   4.259  17.578 -2.9129 -0.7878 -0.1405
 2069SOL     OW17839   1.292   4.657  13.885  0.0644  0.1193  0.1638
 2069SOL    HW117840   1.233   4.614  13.947 -1.9670  0.3602 -1.6134
 2069SOL    HW217841   1.232   4.706  13.829 -0.2963 -1.9236 -1.2295
 2070SOL     OW17842   2.266   1.478   3.586 -0.0415  0.4515 -0.1606
 2070SOL    HW117843   2.294   1.436   3.667  1.8189  3.5771  0.8262
 2070SOL    HW217844   2.344   1.517   3.547  0.8258 -1.3771 -0.2690
 2071SOL     OW17845   2.354   3.673   4.614 -0.5555  0.4181  0.3560
 2071SOL    HW117846   2.371   3.591   4.566 -1.3058  1.1897 -1.2236
 2071SOL    HW217847   2.300   3.640   4.686  0.5512 -1.1764  0.4569
 2072SOL     OW17848   2.663   2.620  17.187  0.0999  0.0497 -0.1363
 2072SOL    HW117849   2.700   2.645  17.102  1.8751 -3.7733 -0.5155
 2072SOL    HW217850   2.727   2.557  17.219 -0.6690 -1.9556 -2.4973
 2073SOL     OW17851   3.883   3.283  11.561 -0.0171  0.1870  0.2259
 2073SOL    HW117852   3.855   3.360  11.610  0.5013  0.5303 -0.0192
 2073SOL    HW217853   3.846   3.212  11.614  0.1875  0.8442  1.2636
 2074SOL     OW17854   2.890   3.635   5.184 -1.0116 -0.6233 -0.3907
 2074SOL    HW117855   2.830   3.585   5.238  1.1279  0.9752  3.4213
 2074SOL    HW217856   2.892   3.717   5.233 -1.1672  0.6651 -2.4963
 2075SOL     OW17857   1.554   4.376   2.329 -0.6292 -0.0958  0.3566
 2075SOL    HW117858   1.555   4.448   2.266 -2.9184  0.7436  1.2868
 2075SOL    HW217859   1.499   4.407   2.401 -0.8978  1.5620 -0.5801
 2076SOL     OW17860   0.157   4.686   7.982 -0.5321  0.4235  0.0203
 2076SOL    HW117861   0.199   0.031   7.957 -0.8470  1.4781  2.8581
 2076SOL    HW217862   0.232   4.627   7.989  0.6793  2.2594  2.2988
 2077SOL     OW17863   1.933   0.618   7.507  0.0072  0.5873 -0.1696
 2077SOL    HW117864   1.996   0.570   7.454 -0.9302  1.0030 -1.6803
 2077SOL    HW217865   1.916   0.697   7.456 -0.6298 -0.2898 -1.3041
 2078SOL     OW17866   1.271   4.370   7.922 -0.2794 -0.1704 -0.3429
 2078SOL    HW117867   1.181   4.379   7.953 -0.3414  0.8820 -0.8505
 2078SOL    HW217868   1.301   4.460   7.915  1.8826 -0.9446 -1.0011
 2079SOL     OW17869   1.486   3.909   4.510 -0.7113  0.0532  0.0777
 2079SOL    HW117870   1.497   3.816   4.528  3.0533  1.0332  2.8107
 2079SOL    HW217871   1.400   3.918   4.552 -0.5175  1.1144  0.2482
 2080SOL     OW17872   0.325   2.190  15.822 -0.3194 -0.0222 -0.1931
 2080SOL    HW117873   0.342   2.279  15.852  0.0729 -1.2209  3.2226
 2080SOL    HW217874   0.371   2.139  15.889 -0.4358 -2.0825 -1.6708
 2081SOL     OW17875   0.114   1.321   9.234  0.0539 -0.0265 -0.0049
 2081SOL    HW117876   0.088   1.376   9.160  0.3206 -0.2703 -0.2768
 2081SOL    HW217877   0.165   1.256   9.186  1.0895  0.3056  0.6618
 2082SOL     OW17878   3.800   2.486   4.344 -0.4056  0.5907  0.1678
 2082SOL    HW117879   3.790   2.560   4.404 -1.4182 -0.0767  0.8340
 2082SOL    HW217880   3.775   2.531   4.263  2.9943  1.3303 -0.4383
 2083SOL     OW17881   2.462   0.936   5.719  0.0415  0.1897  1.1990
 2083SOL    HW117882   2.479   0.893   5.635  2.4740  1.1100  1.2212
 2083SOL    HW217883   2.492   1.027   5.714  2.1158 -0.6845 -2.2501
 2084SOL     OW17884   2.438   2.939   6.440 -0.3111  0.2949 -0.3383
 2084SOL    HW117885   2.424   2.854   6.482 -0.7983  0.4587 -0.1692
 2084SOL    HW217886   2.527   2.966   6.459  0.2385 -2.1614  0.5389
 2085SOL     OW17887   0.435   2.210   9.914  0.2085 -0.0253 -0.2113
 2085SOL    HW117888   0.531   2.208   9.920  0.1588 -2.5856 -0.3378
 2085SOL    HW217889   0.424   2.133   9.969  0.6637 -1.8219 -2.6523
 2086SOL     OW17890   4.672   2.609   2.796 -0.1917  0.3257 -0.2935
 2086SOL    HW117891   4.717   2.659   2.864  1.4725 -1.2333 -0.2403
 2086SOL    HW217892   0.008   2.572   2.746  0.4699  0.1798  0.7822
 2087SOL     OW17893   3.627   4.706   4.963 -0.4398 -0.5018  0.1355
 2087SOL    HW117894   3.658   0.058   4.982 -1.5244  0.2653 -1.6683
 2087SOL    HW217895   3.546   4.700   5.013 -0.2213  0.3089  0.5811
 2088SOL     OW17896   2.611   0.821  11.326 -0.2566 -0.3252 -0.5105
 2088SOL    HW117897   2.689   0.867  11.358  0.4189 -1.6049 -0.3122
 2088SOL    HW217898   2.636   0.737  11.364  0.7645  1.0696  1.9143
 2089SOL     OW17899   0.228   0.892   5.916 -0.1172  0.0699 -0.0689
 2089SOL    HW117900   0.276   0.882   5.834 -1.5528  1.4327 -1.0720
 2089SOL    HW217901   0.199   0.802   5.931  0.0886 -0.8140 -4.8291
 2090SOL     OW17902   0.969   3.480   8.358 -0.0303 -0.4572 -0.3716
 2090SOL    HW117903   0.937   3.469   8.447 -2.1788  0.2907 -1.0633
 2090SOL    HW217904   1.029   3.553   8.374 -1.8330  1.3277 -1.7230
 2091SOL     OW17905   0.474   2.432   2.494  0.7493 -0.9049 -0.9370
 2091SOL    HW117906   0.452   2.519   2.460 -2.3074 -1.3007 -0.0271
 2091SOL    HW217907   0.561   2.421   2.455  2.3073  0.2536  2.2457
 2092SOL     OW17908   4.611   0.133  17.247  0.2080 -0.3374  0.0627
 2092SOL    HW117909   4.568   0.056  17.283  2.0784 -1.8507 -0.9192
 2092SOL    HW217910   4.550   0.205  17.234 -0.2787 -0.6561  0.6060
 2093SOL     OW17911   1.023   3.252   5.825 -0.5056  0.2361 -0.0542
 2093SOL    HW117912   1.091   3.202   5.870 -0.3489 -0.1298 -0.6841
 2093SOL    HW217913   1.070   3.328   5.791 -1.9729  0.5663 -1.3455
 2094SOL     OW17914   4.669   2.429  16.296 -0.1896  0.0959  0.3348
 2094SOL    HW117915   4.698   2.368  16.229  0.7796  0.0870  0.7578
 2094SOL    HW217916   0.015   2.465  16.329 -1.6916  1.4265  2.6014
 2095SOL     OW17917   4.334   2.894   2.175 -0.0419  0.5771 -0.3187
 2095SOL    HW117918   4.316   2.926   2.264 -1.8436  1.4005 -0.9822
 2095SOL    HW217919   4.279   2.816   2.167 -1.4947  1.2963  2.6237
 2096SOL     OW17920   0.624   2.401   5.502  0.6679  0.1745 -0.0746
 2096SOL    HW117921   0.688   2.455   5.546 -1.4688  2.8826 -0.3082
 2096SOL    HW217922   0.554   2.403   5.567  1.5558 -1.4461  0.9316
 2097SOL     OW17923   1.153   1.618   0.883  0.0251  0.5769  0.8640
 2097SOL    HW117924   1.205   1.541   0.861  0.1184  0.6901  0.6963
 2097SOL    HW217925   1.194   1.652   0.963  1.0235  0.5969  0.3400
 2098SOL     OW17926   2.187   1.560  15.463 -0.2887 -0.2625 -0.2539
 2098SOL    HW117927   2.259   1.623  15.454 -0.2561  0.1259  2.7697
 2098SOL    HW217928   2.231   1.509  15.531 -0.5128  0.6274  0.5472
 2099SOL     OW17929   1.442   4.534   1.163  0.0572 -0.8792  0.3951
 2099SOL    HW117930   1.480   4.460   1.114  1.0230  1.3228 -2.2016
 2099SOL    HW217931   1.349   4.510   1.169  0.0522 -0.5992  1.4539
 2100SOL     OW17932   4.199   3.306   1.890  0.5043  0.6156 -0.5284
 2100SOL    HW117933   4.247   3.224   1.899  1.0681  1.0271  0.2169
 2100SOL    HW217934   4.238   3.378   1.940  1.6573  0.3492 -1.0466
 2101SOL     OW17935   4.072   4.258  15.941 -0.3027 -0.6293  0.3023
 2101SOL    HW117936   4.138   4.252  16.010  0.9130  2.3242 -0.6073
 2101SOL    HW217937   4.118   4.236  15.860  0.3690  0.2482  0.4454
 2102SOL     OW17938   3.764   0.979   1.401  0.3828  0.1980 -0.2403
 2102SOL    HW117939   3.742   0.886   1.403 -2.9010  0.9257 -2.7821
 2102SOL    HW217940   3.709   1.011   1.329  0.0060 -0.0488 -0.0635
 2103SOL     OW17941   4.370   3.689   8.315  0.1317  0.0037  0.0174
 2103SOL    HW117942   4.333   3.609   8.278 -0.7287  0.4340 -0.0538
 2103SOL    HW217943   4.442   3.661   8.371 -1.6521  0.8551  2.7426
 2104SOL     OW17944   2.049   3.079   5.098 -0.7218  0.1173  0.4321
 2104SOL    HW117945   1.959   3.094   5.125 -1.2013 -1.6323 -0.2197
 2104SOL    HW217946   2.100   3.119   5.168 -0.2061 -0.5353  0.4400
 2105SOL     OW17947   1.053   1.564   5.336  0.5903 -0.3224 -0.3148
 2105SOL    HW117948   0.988   1.495   5.350 -0.2289  0.3570 -0.7880
 2105SOL    HW217949   1.059   1.539   5.243  0.6687  1.6490 -0.8344
 2106SOL     OW17950   1.865   2.626   8.715  0.6248  0.8581 -0.3439
 2106SOL    HW117951   1.818   2.596   8.638 -0.4671  0.0178  0.6635
 2106SOL    HW217952   1.791   2.665   8.761 -0.1138 -0.6199 -0.2952
 2107SOL     OW17953   0.141   3.322   4.565 -0.1947  0.3578  0.6464
 2107SOL    HW117954   0.215   3.364   4.522 -0.8852  1.7034  0.7869
 2107SOL    HW217955   0.110   3.398   4.613  1.3335 -0.5814  3.1609
 2108SOL     OW17956   3.022   4.654   6.043 -0.3317 -0.0332  0.0001
 2108SOL    HW117957   3.093   4.635   5.981 -0.3287  2.3968 -0.7434
 2108SOL    HW217958   2.956   4.693   5.986 -1.4654 -1.0195  0.6394
 2109SOL     OW17959   1.374   0.319   5.935 -0.0168  0.0617  0.0884
 2109SOL    HW117960   1.309   0.269   5.886  1.6772  0.5571 -2.6554
 2109SOL    HW217961   1.328   0.401   5.920  2.3566  1.0114 -1.9603
 2110SOL     OW17962   4.526   2.116   8.502 -0.3452 -0.0748  0.2058
 2110SOL    HW117963   4.506   2.077   8.417 -0.5366 -0.6181  0.4975
 2110SOL    HW217964   4.442   2.117   8.548  1.1093  2.7090  2.8403
 2111SOL     OW17965   1.913   2.446   1.958  0.2045 -0.9117 -1.1060
 2111SOL    HW117966   1.927   2.354   1.936  1.8175 -0.6688 -1.0802
 2111SOL    HW217967   1.826   2.467   1.924 -0.3489 -0.2600  0.7017
 2112SOL     OW17968   2.334   2.152   2.071 -0.2168  0.0814 -0.2011
 2112SOL    HW117969   2.281   2.109   2.138  1.4500 -0.6925  0.6199
 2112SOL    HW217970   2.333   2.097   1.993 -1.0902  1.4102 -1.1391
 2113SOL     OW17971   0.907   1.256   8.523  0.0206 -0.5715 -0.1269
 2113SOL    HW117972   0.946   1.332   8.566 -1.6369  0.2045  0.0012
 2113SOL    HW217973   0.885   1.202   8.599 -1.2488 -0.8763 -0.7201
 2114SOL     OW17974   3.060   1.415   3.941  0.1076 -0.3136  0.5495
 2114SOL    HW117975   3.007   1.459   4.008  0.3364 -1.3704  1.4183
 2114SOL    HW217976   3.144   1.455   3.966 -0.2852  0.2707  0.9556
 2115SOL     OW17977   0.128   1.064   1.215 -0.0664  0.6077  0.6414
 2115SOL    HW117978   0.144   1.152   1.250 -0.2592  1.3086 -1.0756
 2115SOL    HW217979   0.049   1.076   1.163 -0.1726 -0.5785  0.5413
 2116SOL     OW17980   4.221   2.812   6.485 -0.6491 -0.2152 -0.0376
 2116SOL    HW117981   4.153   2.806   6.552 -0.5367  1.0962  0.1977
 2116SOL    HW217982   4.273   2.889   6.507  1.4650 -1.7018  0.1735
 2117SOL     OW17983   0.080   1.106   7.962  0.0696 -0.3837 -0.2254
 2117SOL    HW117984   0.075   1.051   8.040 -3.0287 -2.1610 -1.6725
 2117SOL    HW217985   0.167   1.075   7.935  0.7432  2.2919 -1.1183
 2118SOL     OW17986   4.256   2.405  17.268  0.2388  0.5930 -0.4919
 2118SOL    HW117987   4.243   2.491  17.307 -0.5965 -0.2769  1.1633
 2118SOL    HW217988   4.309   2.364  17.336 -1.6948  2.6145  2.2572
 2119SOL     OW17989   1.038   4.217   5.107 -0.3089  0.1947  1.0486
 2119SOL    HW117990   0.956   4.220   5.156 -0.5015  2.0116  0.5966
 2119SOL    HW217991   1.052   4.305   5.073 -2.1119  0.5559  1.2667
 2120SOL     OW17992   1.648   1.923   9.682  0.2722  0.5844  0.1733
 2120SOL    HW117993   1.662   1.891   9.771 -0.1514  1.2048  0.4671
 2120SOL    HW217994   1.584   1.862   9.646  0.4233 -0.7357  2.1888
 2121SOL     OW17995   1.390   2.862   8.630 -0.0500 -0.2010  0.4900
 2121SOL    HW117996   1.467   2.821   8.670 -0.5244 -0.8842  0.7185
 2121SOL    HW217997   1.343   2.882   8.711  0.7593  3.1123  0.1413
 2122SOL     OW17998   3.927   0.347   6.541 -0.4453  0.3401  0.3729
 2122SOL    HW117999   3.954   0.255   6.550  0.4461  0.5998  0.3552
 2122SOL    HW218000   3.834   0.336   6.519 -0.2575 -0.0186 -0.2511
 2123SOL     OW18001   4.016   3.129   4.875 -0.2257 -0.9789 -0.2080
 2123SOL    HW118002   3.968   3.083   4.944 -1.2919  1.9007  0.9712
 2123SOL    HW218003   4.104   3.142   4.913  0.1304 -1.2533 -0.9417
 2124SOL     OW18004   4.016   4.409  16.510 -0.3688 -0.3655 -0.2915
 2124SOL    HW118005   3.969   4.453  16.581  1.5270 -1.4659  1.6814
 2124SOL    HW218006   3.960   4.426  16.435 -2.2109 -4.4501  0.1666
 2125SOL     OW18007   1.215   0.482  15.034 -0.1962  0.3874  0.2202
 2125SOL    HW118008   1.185   0.524  14.954 -3.4106  1.2125  1.8425
 2125SOL    HW218009   1.293   0.526  15.068  0.0258 -0.1448  0.3986
 2126SOL     OW18010   4.441   3.941   1.223  0.1439 -0.0937  0.1260
 2126SOL    HW118011   4.534   3.950   1.241 -0.2871 -0.6992  2.6763
 2126SOL    HW218012   4.423   3.990   1.143  1.7915 -0.0606 -0.2051
 2127SOL     OW18013   0.766   1.839   1.561  0.1054 -0.2872  0.3560
 2127SOL    HW118014   0.693   1.897   1.581  0.2955  0.0007  0.2022
 2127SOL    HW218015   0.797   1.835   1.652 -1.8131  1.1468  1.0744
 2128SOL     OW18016   3.531   2.461   7.277  0.3835 -0.2135 -0.1481
 2128SOL    HW118017   3.456   2.453   7.218 -0.8646 -0.1448  1.4275
 2128SOL    HW218018   3.487   2.440   7.359  1.5905 -1.6704  0.1251
 2129SOL     OW18019   0.085   2.634   6.508 -0.0495 -0.7529 -0.2887
 2129SOL    HW118020   0.137   2.660   6.432  0.3408 -0.7640 -0.0230
 2129SOL    HW218021   0.023   2.583   6.455 -0.0359  0.0103 -1.0327
 2130SOL     OW18022   2.202   0.681   3.791 -0.9727 -0.0976  0.2352
 2130SOL    HW118023   2.146   0.672   3.714 -1.4199 -0.7449  0.6296
 2130SOL    HW218024   2.281   0.715   3.749 -1.2323  4.4035  3.4991
 2131SOL     OW18025   3.553   1.069   7.673 -0.7549 -0.0231 -0.4952
 2131SOL    HW118026   3.460   1.089   7.670 -0.7406  0.2824  0.8920
 2131SOL    HW218027   3.584   1.132   7.739  1.4506  0.0195 -1.5840
 2132SOL     OW18028   3.188   0.933   8.951  0.2599  0.0227 -0.5809
 2132SOL    HW118029   3.131   0.971   9.018  0.2302  0.2158 -0.7165
 2132SOL    HW218030   3.134   0.930   8.872 -0.9910 -1.3671  0.3305
 2133SOL     OW18031   3.409   3.724   7.413  0.6011  0.3855 -0.1723
 2133SOL    HW118032   3.397   3.819   7.421 -1.8717  0.1414 -1.1689
 2133SOL    HW218033   3.329   3.692   7.455  0.6679  0.5934  0.1158
 2134SOL     OW18034   1.568   3.008   8.170  0.3141  0.5325 -0.0401
 2134SOL    HW118035   1.548   3.046   8.255  1.2899 -1.2091  0.9545
 2134SOL    HW218036   1.605   3.089   8.135  1.3212 -0.1425 -0.5514
 2135SOL     OW18037   3.646   1.748   1.832 -0.2946 -0.2297  0.2986
 2135SOL    HW118038   3.700   1.726   1.756 -2.7935 -1.0393 -1.2346
 2135SOL    HW218039   3.571   1.795   1.797 -0.9045  1.1397  3.4392
 2136SOL     OW18040   0.241   4.272  17.411 -0.1401  0.1384  0.4965
 2136SOL    HW118041   0.222   4.330  17.338  2.2248 -0.6266 -0.7317
 2136SOL    HW218042   0.154   4.241  17.438 -0.8026  1.6147  0.0157
 2137SOL     OW18043   0.232   1.413   2.659  0.1538 -0.5156 -0.3133
 2137SOL    HW118044   0.208   1.482   2.597 -0.0870  0.3779  0.7727
 2137SOL    HW218045   0.324   1.437   2.672 -0.6332  1.7279  1.1717
 2138SOL     OW18046   4.450   4.559  13.688 -0.8769  0.6542 -0.3494
 2138SOL    HW118047   4.530   4.524  13.647 -1.2696 -1.7151  0.9141
 2138SOL    HW218048   4.455   4.653  13.673 -2.4838  0.4405 -2.0976
 2139SOL     OW18049   2.676   2.243  17.063  0.3063  0.2172  0.0234
 2139SOL    HW118050   2.708   2.264  17.151  0.6124  1.3336 -0.3520
 2139SOL    HW218051   2.683   2.328  17.021 -0.1263 -0.2227 -0.9286
 2140SOL     OW18052   0.387   1.332   7.939 -0.3650 -0.1377  0.2042
 2140SOL    HW118053   0.334   1.409   7.919 -0.7334 -0.1645  1.0822
 2140SOL    HW218054   0.474   1.369   7.950 -0.6513  0.7626 -0.5536
 2141SOL     OW18055   2.469   1.520   8.987 -0.9368 -0.8337  0.6694
 2141SOL    HW118056   2.475   1.426   9.001  0.4532 -0.6664  1.1632
 2141SOL    HW218057   2.468   1.550   9.077  3.0724  1.0859  0.0652
 2142SOL     OW18058   4.400   4.532   5.925 -0.3299  0.7471  0.4312
 2142SOL    HW118059   4.413   4.606   5.984  2.1678  1.2333 -0.7635
 2142SOL    HW218060   4.363   4.568   5.845  0.6281  1.1811  0.1918
 2143SOL     OW18061   1.717   3.111   3.182 -0.5386  0.0166  0.0810
 2143SOL    HW118062   1.667   3.155   3.250  1.1158  0.2206  1.1616
 2143SOL    HW218063   1.728   3.020   3.209 -1.4810  0.0782  0.6517
 2144SOL     OW18064   2.017   0.442   6.289  0.3665  0.4231 -0.0750
 2144SOL    HW118065   1.952   0.437   6.219  1.2199 -1.7842 -0.7384
 2144SOL    HW218066   2.075   0.368   6.270 -2.0347 -1.9765  1.9912
 2145SOL     OW18067   2.088   3.289   7.753  0.0716  0.5410 -0.1497
 2145SOL    HW118068   2.145   3.366   7.753  1.3848 -0.4354  0.3467
 2145SOL    HW218069   2.140   3.230   7.809  1.0316  0.5406 -1.0419
 2146SOL     OW18070   2.959   3.815   0.231 -0.0556 -0.1365 -0.1140
 2146SOL    HW118071   2.877   3.864   0.231 -0.8260 -1.4297 -1.1240
 2146SOL    HW218072   2.928   3.728   0.259 -1.2638  0.2819 -0.1453
 2147SOL     OW18073   3.318   3.676   2.506  0.4626 -0.0326  0.2936
 2147SOL    HW118074   3.248   3.639   2.453 -0.7717  2.0194  0.4862
 2147SOL    HW218075   3.263   3.711   2.577  0.6277  2.3540 -0.7658
 2148SOL     OW18076   3.060   2.470   6.180 -0.0277 -0.2096 -0.5090
 2148SOL    HW118077   3.012   2.523   6.243  1.7604 -0.3267  0.9469
 2148SOL    HW218078   3.129   2.428   6.232 -0.1397  1.5196  1.0369
 2149SOL     OW18079   0.308   3.395   7.104 -0.2831 -0.1640 -0.3765
 2149SOL    HW118080   0.316   3.360   7.015 -1.1702  2.0721 -1.3278
 2149SOL    HW218081   0.380   3.361   7.157  0.8530  1.8399 -0.6608
 2150SOL     OW18082   2.408   1.023   4.881  0.3067  0.7809  0.1095
 2150SOL    HW118083   2.371   0.946   4.925  0.2963  0.9733  0.4442
 2150SOL    HW218084   2.443   0.986   4.800 -1.1171  0.5274 -0.3886
 2151SOL     OW18085   0.963   3.528   9.084 -0.4249  0.4178  0.1585
 2151SOL    HW118086   1.057   3.511   9.093  0.2499  2.4829 -2.8806
 2151SOL    HW218087   0.942   3.511   8.992 -0.4287  0.5656  0.1310
 2152SOL     OW18088   3.703   0.826  17.399  0.4201 -0.0349 -0.3572
 2152SOL    HW118089   3.644   0.759  17.366  2.5619  0.0698 -4.4136
 2152SOL    HW218090   3.717   0.874  17.317  2.8471 -2.6540 -1.4852
 2153SOL     OW18091   2.867   2.803   7.616 -0.4171  0.0616 -0.4207
 2153SOL    HW118092   2.796   2.852   7.575  1.7468  2.1422 -1.6492
 2153SOL    HW218093   2.943   2.848   7.580 -2.5584  2.7247 -1.5721
 2154SOL     OW18094   1.455   3.884   6.762 -0.0929  0.2223 -0.1724
 2154SOL    HW118095   1.450   3.790   6.780 -3.4428  0.4187 -0.1256
 2154SOL    HW218096   1.418   3.910   6.847  1.4770 -0.6208  0.7732
 2155SOL     OW18097   2.285   0.856  17.565  0.2392  0.7273 -0.3628
 2155SOL    HW118098   2.219   0.853  17.496  1.6580 -0.8505 -1.6511
 2155SOL    HW218099   2.334   0.776  17.546 -1.0092  0.6187 -3.1336
 2156SOL     OW18100   3.207   0.278  16.767  0.0484 -0.5449 -0.2615
 2156SOL    HW118101   3.154   0.358  16.775  1.2592  0.3870 -1.5956
 2156SOL    HW218102   3.270   0.287  16.838 -1.9370 -0.1311  1.4676
 2157SOL     OW18103   1.044   0.546  17.113  0.2160  0.3688 -0.3541
 2157SOL    HW118104   1.035   0.607  17.040  1.4987  0.3534 -0.5272
 2157SOL    HW218105   0.960   0.500  17.111 -0.9263  2.3602  2.4405
 2158SOL     OW18106   0.764   4.312   2.171 -0.7266 -0.0440  0.1716
 2158SOL    HW118107   0.760   4.400   2.210  2.1501  0.7598 -1.3441
 2158SOL    HW218108   0.740   4.325   2.080 -3.3017 -0.6184  0.7726
 2159SOL     OW18109   4.355   1.505  10.178 -0.5779 -0.0733  0.6227
 2159SOL    HW118110   4.440   1.533  10.144 -1.5141 -0.5920 -2.1073
 2159SOL    HW218111   4.291   1.523  10.110  0.1193 -2.8851 -0.7447
 2160SOL     OW18112   3.444   0.885   1.964 -0.0998  0.3160 -0.0705
 2160SOL    HW118113   3.407   0.967   1.998  0.7030  0.3628  0.6922
 2160SOL    HW218114   3.525   0.895   2.013 -0.4181 -2.7276  1.0784
 2161SOL     OW18115   1.514   3.661   1.855 -0.2938  0.0955 -0.1093
 2161SOL    HW118116   1.470   3.609   1.923 -0.6250 -0.1275 -0.4960
 2161SOL    HW218117   1.504   3.751   1.887  0.6476  0.6331 -1.3448
 2162SOL     OW18118   2.575   1.082  14.349 -0.4665 -0.5379  0.2700
 2162SOL    HW118119   2.554   1.174  14.333  1.4328 -0.5563 -2.2771
 2162SOL    HW218120   2.661   1.074  14.309  0.3137 -0.6318  1.9859
 2163SOL     OW18121   1.648   3.454   1.374 -0.1529 -0.4519 -0.4207
 2163SOL    HW118122   1.734   3.486   1.403  0.2845 -1.7626 -0.2893
 2163SOL    HW218123   1.649   3.359   1.366  1.6141 -0.5484  0.9536
 2164SOL     OW18124   2.977   0.114   0.545 -0.8446 -0.0835  0.1448
 2164SOL    HW118125   3.001   0.024   0.568 -0.8185  0.0454  0.6206
 2164SOL    HW218126   2.896   0.116   0.595 -1.3567 -0.9467 -0.6545
 2165SOL     OW18127   4.240   0.099   3.657  0.0167 -0.2891 -0.0655
 2165SOL    HW118128   4.284   0.155   3.593  2.2269 -0.9412  0.8728
 2165SOL    HW218129   4.288   0.017   3.647  0.7190  0.1290 -0.1553
 2166SOL     OW18130   0.727   1.644   8.755 -0.0882  0.4139 -0.5479
 2166SOL    HW118131   0.718   1.683   8.842 -2.6209 -0.3473 -0.4525
 2166SOL    HW218132   0.814   1.660   8.719  1.7830  1.5940  4.4353
 2167SOL     OW18133   3.566   2.732   7.438 -0.5720 -1.4541 -0.1055
 2167SOL    HW118134   3.523   2.648   7.457 -1.1057 -0.3938  3.2346
 2167SOL    HW218135   3.594   2.760   7.525  1.1014  0.9020 -1.4105
 2168SOL     OW18136   1.032   2.859   3.645  0.8156  0.1375  0.6096
 2168SOL    HW118137   1.053   2.772   3.679  1.6434  0.1396  0.1242
 2168SOL    HW218138   1.048   2.856   3.550 -1.8051  1.1068  0.1423
 2169SOL     OW18139   2.854   3.021   6.754  0.2645 -0.2045  0.2564
 2169SOL    HW118140   2.764   2.988   6.759  0.3543 -0.5771 -0.5476
 2169SOL    HW218141   2.912   2.946   6.760  0.1005 -0.4630 -1.3214
 2170SOL     OW18142   2.073   1.650  10.451  0.4883 -0.3120 -0.0660
 2170SOL    HW118143   2.025   1.649  10.367 -1.8041 -1.9411  1.2566
 2170SOL    HW218144   1.999   1.658  10.512 -0.3680  1.3311 -1.3100
 2171SOL     OW18145   2.374   1.417  14.952  0.0204  0.2850 -0.2935
 2171SOL    HW118146   2.316   1.485  14.984 -0.7855 -0.1853 -0.7722
 2171SOL    HW218147   2.311   1.398  14.883 -0.9711  1.4229  0.2930
 2172SOL     OW18148   1.718   3.303   6.204 -0.7743  0.1046 -0.9447
 2172SOL    HW118149   1.760   3.372   6.255 -0.8680  0.7791 -1.7793
 2172SOL    HW218150   1.647   3.359   6.172 -0.3565  0.8386 -0.5787
 2173SOL     OW18151   1.399   3.596   1.352  0.0739 -0.2660  0.1187
 2173SOL    HW118152   1.450   3.657   1.299 -1.1386 -0.0516 -0.8111
 2173SOL    HW218153   1.454   3.602   1.430  0.9290  0.3019 -0.5205
 2174SOL     OW18154   0.766   2.308   2.936  0.2898  0.3983 -0.0786
 2174SOL    HW118155   0.807   2.393   2.955  0.5345  0.2356  0.1182
 2174SOL    HW218156   0.699   2.304   3.004  2.2123 -2.1025  1.6674
 2175SOL     OW18157   2.923   4.288   6.777 -0.2782  0.6511  0.5342
 2175SOL    HW118158   2.931   4.197   6.749 -1.1236  0.3986  1.1051
 2175SOL    HW218159   2.958   4.337   6.703  1.4102 -1.4105 -0.0320
 2176SOL     OW18160   3.412   0.158   8.695 -0.4752  0.1384 -0.0691
 2176SOL    HW118161   3.422   0.063   8.694 -1.5089  0.0297  0.3942
 2176SOL    HW218162   3.391   0.172   8.788 -2.5320 -0.5600 -0.4297
 2177SOL     OW18163   3.008   0.201   0.130  0.1285 -0.6379 -0.0812
 2177SOL    HW118164   3.015   0.291   0.099 -0.7540 -0.3981  0.4408
 2177SOL    HW218165   2.987   0.217   0.222 -0.6318 -0.2185 -0.3300
 2178SOL     OW18166   4.210   3.499   5.982 -0.0417 -0.3533 -0.3345
 2178SOL    HW118167   4.135   3.552   6.011 -0.4581 -1.3380  0.3649
 2178SOL    HW218168   4.257   3.488   6.065  0.2944  0.6041 -0.3906
 2179SOL     OW18169   2.369   0.620   6.945 -0.5767 -0.3036  0.3389
 2179SOL    HW118170   2.376   0.700   6.997 -0.8291  1.5601 -2.4547
 2179SOL    HW218171   2.302   0.571   6.993 -0.3306 -1.5262 -0.5712
 2180SOL     OW18172   4.428   4.704   9.666  0.2553  0.5697 -0.6836
 2180SOL    HW118173   4.412   0.052   9.707  1.1772  1.0506 -1.3290
 2180SOL    HW218174   4.354   4.657   9.706  1.3666  1.6141  2.6216
 2181SOL     OW18175   2.800   3.633   7.428 -0.2042 -0.4965 -0.6096
 2181SOL    HW118176   2.804   3.724   7.400 -1.1795 -0.3427 -0.2356
 2181SOL    HW218177   2.821   3.581   7.351 -0.2863  0.0911 -1.0246
 2182SOL     OW18178   2.695   3.026   6.508 -0.2717  0.2464  0.1984
 2182SOL    HW118179   2.757   3.081   6.557 -0.3364  0.5975 -0.1111
 2182SOL    HW218180   2.722   2.936   6.524 -1.9094 -0.1776  0.5197
 2183SOL     OW18181   2.593   0.018   5.606 -0.2207  0.0759 -0.3086
 2183SOL    HW118182   2.523   0.010   5.670  0.9227 -0.7193  0.8583
 2183SOL    HW218183   2.655   4.692   5.644 -0.4982  0.5765  0.9578
 2184SOL     OW18184   0.970   1.057   6.494 -0.2828 -0.1959  0.2501
 2184SOL    HW118185   0.921   1.016   6.423 -1.1615 -0.4471  0.9979
 2184SOL    HW218186   0.905   1.123   6.520 -3.2087 -1.8978 -2.8266
 2185SOL     OW18187   4.484   4.485   7.598  0.7440  0.1595 -0.1905
 2185SOL    HW118188   4.571   4.508   7.567  1.4373 -0.9977  0.9287
 2185SOL    HW218189   4.509   4.439   7.678 -0.7916 -1.7582 -0.7970
 2186SOL     OW18190   4.497   3.895   7.658  0.2807  0.1285 -0.0118
 2186SOL    HW118191   4.580   3.932   7.688 -0.7348  1.3795  1.2578
 2186SOL    HW218192   4.503   3.898   7.562 -1.6312 -2.6725 -0.2129
 2187SOL     OW18193   3.191   1.633   1.326 -0.1273  0.4168  0.2163
 2187SOL    HW118194   3.171   1.584   1.405  1.8780 -2.2288 -0.9175
 2187SOL    HW218195   3.159   1.576   1.257 -1.5918 -2.1755  3.0813
 2188SOL     OW18196   3.946   2.155  14.112  0.0692  0.2210 -0.5827
 2188SOL    HW118197   3.969   2.132  14.202  0.8223  0.8827 -0.6055
 2188SOL    HW218198   3.854   2.130  14.117 -0.0981  0.8387 -0.5225
 2189SOL     OW18199   1.281   2.134   6.416 -0.4117  0.1770 -1.2126
 2189SOL    HW118200   1.245   2.053   6.451  0.1902  0.9753  1.2407
 2189SOL    HW218201   1.339   2.094   6.352  1.5843  1.1684 -0.0106
 2190SOL     OW18202   1.357   3.711   9.232 -0.0385  0.0547  0.0238
 2190SOL    HW118203   1.305   3.746   9.160 -1.4592 -0.1225  0.9606
 2190SOL    HW218204   1.405   3.790   9.254 -0.9127  0.5762  0.0779
 2191SOL     OW18205   0.157   3.746   7.672  0.3133 -0.0048  0.2212
 2191SOL    HW118206   0.182   3.730   7.763 -0.6139 -1.6779  0.1840
 2191SOL    HW218207   0.118   3.833   7.680  0.9726  0.0294  2.9971
 2192SOL     OW18208   2.278   2.750   3.688  0.2252  0.3459 -0.3665
 2192SOL    HW118209   2.214   2.679   3.684  2.0880 -1.2913 -1.0622
 2192SOL    HW218210   2.295   2.742   3.781  2.7642  0.6685 -0.8159
 2193SOL     OW18211   3.491   2.924   6.866 -1.0181 -0.6475 -0.0899
 2193SOL    HW118212   3.517   3.014   6.844 -2.1573 -0.2574  0.1226
 2193SOL    HW218213   3.405   2.939   6.906 -1.2172 -2.2917  0.1043
 2194SOL     OW18214   2.053   2.772  12.032  0.4555  0.0613  0.7735
 2194SOL    HW118215   2.009   2.816  12.105  1.3550  0.7486  0.8929
 2194SOL    HW218216   1.980   2.726  11.990 -0.7792  2.1913  0.5411
 2195SOL     OW18217   1.782   3.125   2.684 -0.8476  0.0096  0.5872
 2195SOL    HW118218   1.821   3.204   2.719 -0.6058 -0.1786  0.7412
 2195SOL    HW218219   1.862   3.073   2.688  0.2493  1.6358 -0.6439
 2196SOL     OW18220   4.646   1.336  16.389  0.8015 -0.2446 -0.5754
 2196SOL    HW118221   4.721   1.330  16.330 -1.0227 -1.0767 -2.8496
 2196SOL    HW218222   4.678   1.279  16.458  0.8503 -1.5861 -1.6958
 2197SOL     OW18223   3.593   1.389  14.693 -0.3996 -0.0993  0.2257
 2197SOL    HW118224   3.535   1.337  14.636 -1.4680  0.3095  0.9295
 2197SOL    HW218225   3.594   1.467  14.637  2.4492  0.6213  1.3344
 2198SOL     OW18226   4.671   1.925   9.059 -0.2204 -0.1979 -0.2915
 2198SOL    HW118227   4.651   1.920   8.966 -3.0945 -0.8829  0.3763
 2198SOL    HW218228   4.602   1.870   9.096 -0.6808  0.2326 -0.5080
 2199SOL     OW18229   3.764   4.358  15.828  0.4013  0.0409  0.2651
 2199SOL    HW118230   3.719   4.357  15.744  2.0891 -2.5126 -0.6004
 2199SOL    HW218231   3.828   4.429  15.817 -0.4094  0.8053  0.4842
 2200SOL     OW18232   3.644   2.982   7.107 -0.2106 -0.0424 -0.1579
 2200SOL    HW118233   3.666   2.897   7.147  0.2873 -0.0607 -0.4735
 2200SOL    HW218234   3.604   2.956   7.024  0.0816  0.5596 -0.4814
 2201SOL     OW18235   3.793   4.257   6.725  0.0679 -0.5853  0.0230
 2201SOL    HW118236   3.867   4.245   6.665 -0.8282 -1.2135 -0.9641
 2201SOL    HW218237   3.781   4.165   6.749 -1.0625 -0.3346  0.4584
 2202SOL     OW18238   0.289   4.531   5.648  0.4851  0.4589  0.0045
 2202SOL    HW118239   0.197   4.541   5.622  0.8583 -0.1544 -1.5716
 2202SOL    HW218240   0.323   4.619   5.659 -2.4994  1.5181  0.9112
 2203SOL     OW18241   0.580   1.460   8.946 -0.0281  0.4273 -0.5979
 2203SOL    HW118242   0.601   1.553   8.937  0.3187  0.4373  0.3508
 2203SOL    HW218243   0.487   1.454   8.966 -0.0677  1.9593 -0.3818
 2204SOL     OW18244   0.302   3.200   4.284  0.2004 -0.6695 -0.5072
 2204SOL    HW118245   0.375   3.187   4.224  0.5263 -1.4681  0.0645
 2204SOL    HW218246   0.287   3.113   4.321  0.4212 -1.6642 -2.7752
 2205SOL     OW18247   2.770   3.437  13.212 -0.1463  0.0487  0.3159
 2205SOL    HW118248   2.731   3.483  13.287 -2.1864 -1.3901  0.1397
 2205SOL    HW218249   2.774   3.351  13.254  0.9274  0.7563  1.6641
 2206SOL     OW18250   3.519   0.565   3.448  0.0707 -0.4202  0.2254
 2206SOL    HW118251   3.606   0.584   3.412 -0.3077 -0.4760 -0.7170
 2206SOL    HW218252   3.488   0.487   3.402 -1.3325  0.2041  0.1122
 2207SOL     OW18253   4.208   0.336   9.155 -0.1290 -0.1627  0.5258
 2207SOL    HW118254   4.170   0.250   9.137 -1.4831  0.8158 -1.4298
 2207SOL    HW218255   4.300   0.312   9.145 -0.1888 -0.8238  1.6795
 2208SOL     OW18256   1.348   3.167   8.030 -0.1048 -0.2985  0.1708
 2208SOL    HW118257   1.436   3.163   8.066 -0.1163  1.2066  0.3780
 2208SOL    HW218258   1.289   3.132   8.097  1.0103  0.9740  1.8105
 2209SOL     OW18259   4.275   1.532   7.614 -0.3285  0.0529 -0.3836
 2209SOL    HW118260   4.261   1.578   7.696 -0.0392 -1.9858  0.8117
 2209SOL    HW218261   4.370   1.544   7.603 -0.4619  0.6511 -0.8965
 2210SOL     OW18262   4.611   0.855   0.521 -0.4532 -0.3541 -0.4496
 2210SOL    HW118263   4.638   0.853   0.613 -2.4470  1.5182  0.1564
 2210SOL    HW218264   4.559   0.933   0.505 -0.2005 -0.1532 -0.2872
 2211SOL     OW18265   4.140   1.587   7.396 -0.0540 -0.3091 -0.5328
 2211SOL    HW118266   4.183   1.665   7.361  0.7080  0.3509  1.8967
 2211SOL    HW218267   4.185   1.567   7.478  0.3161  3.0816  0.0857
 2212SOL     OW18268   3.372   1.783   8.788  0.0365  0.3875  0.3925
 2212SOL    HW118269   3.427   1.816   8.717  2.4350 -0.8903  1.6626
 2212SOL    HW218270   3.295   1.837   8.773  2.0505  3.2653  0.4122
 2213SOL     OW18271   3.709   1.330   6.171  0.1653 -0.2633  0.5549
 2213SOL    HW118272   3.787   1.351   6.222  1.2838 -0.9638 -0.8851
 2213SOL    HW218273   3.683   1.249   6.215 -0.2147 -0.7131 -0.4944
 2214SOL     OW18274   0.781   3.394  14.341 -0.2638  0.0511 -0.3473
 2214SOL    HW118275   0.860   3.360  14.383 -0.4196 -0.4434 -0.4521
 2214SOL    HW218276   0.794   3.347  14.258 -0.4748 -0.6459  0.0113
 2215SOL     OW18277   3.071   2.552   4.584  0.3657  0.3104  0.1181
 2215SOL    HW118278   2.985   2.584   4.556  0.2293 -0.7252 -0.6647
 2215SOL    HW218279   3.083   2.505   4.501  1.2481 -1.4490  1.2408
 2216SOL     OW18280   0.015   0.557   9.162  0.0926  0.3218  0.1600
 2216SOL    HW118281   0.111   0.552   9.160  0.0658 -0.5415  2.0389
 2216SOL    HW218282   4.732   0.596   9.247 -1.3430 -1.7768  0.7755
 2217SOL     OW18283   3.057   0.241  10.221  0.2051  0.2165  0.0731
 2217SOL    HW118284   3.145   0.205  10.231  1.2429  2.8357  0.3960
 2217SOL    HW218285   3.012   0.158  10.207  1.6054 -0.5926  0.4122
 2218SOL     OW18286   0.853   2.925   5.247  0.1845  0.5513  0.0112
 2218SOL    HW118287   0.934   2.930   5.300  0.0220  2.0085  0.1297
 2218SOL    HW218288   0.808   2.862   5.303  0.9553  0.4607  0.5415
 2219SOL     OW18289   3.999   4.472   9.899 -1.2526 -0.2884 -0.0095
 2219SOL    HW118290   3.982   4.527   9.975 -0.3030 -3.3526  2.3891
 2219SOL    HW218291   3.950   4.391   9.914  1.2664 -1.9113 -0.5947
 2220SOL     OW18292   0.429   1.810   5.314 -0.5080  0.3232 -0.7364
 2220SOL    HW118293   0.513   1.848   5.292 -0.8874  1.4114 -0.2648
 2220SOL    HW218294   0.431   1.830   5.407 -0.5392  0.3045 -0.7313
 2221SOL     OW18295   4.245   0.506   5.483  0.4364 -0.0200 -0.0943
 2221SOL    HW118296   4.313   0.560   5.442  0.8267  0.6261  1.3954
 2221SOL    HW218297   4.222   0.553   5.563  0.8319  1.8559 -1.0748
 2222SOL     OW18298   2.306   0.531   1.155 -0.1535  0.5030 -0.0897
 2222SOL    HW118299   2.294   0.607   1.098 -0.8088 -0.2598 -0.9578
 2222SOL    HW218300   2.344   0.474   1.089  1.7985 -0.2284  1.6610
 2223SOL     OW18301   2.613   2.581   4.323  0.3093 -0.1062  0.3836
 2223SOL    HW118302   2.545   2.533   4.276 -0.1843 -0.6997  1.7135
 2223SOL    HW218303   2.559   2.648   4.365  0.1939  0.1201 -0.1285
 2224SOL     OW18304   0.983   2.921   4.506  0.0804 -0.2628  0.2702
 2224SOL    HW118305   1.049   2.896   4.571  1.0662 -3.0823 -1.7588
 2224SOL    HW218306   0.938   2.837   4.494 -0.3553 -0.1852  1.3713
 2225SOL     OW18307   4.200   2.973  11.657  0.6840 -0.2470 -0.2740
 2225SOL    HW118308   4.225   3.064  11.637  0.9226  0.0520  1.3839
 2225SOL    HW218309   4.228   2.975  11.748 -2.1397 -0.5096  0.6159
 2226SOL     OW18310   2.335   2.700  16.395  0.2164 -0.2689  0.2385
 2226SOL    HW118311   2.349   2.733  16.484  1.9387  2.7247 -1.1362
 2226SOL    HW218312   2.425   2.688  16.366  0.0028 -0.8042 -0.1999
 2227SOL     OW18313   3.234   4.234   6.136 -0.2682  0.3466 -0.3579
 2227SOL    HW118314   3.269   4.158   6.091  1.3016  1.0215 -0.2688
 2227SOL    HW218315   3.168   4.281   6.085 -0.5295 -0.1581 -0.4847
 2228SOL     OW18316   4.381   2.908   4.683 -0.1128 -0.2021  0.7984
 2228SOL    HW118317   4.470   2.876   4.668  0.8758  2.1626  1.7111
 2228SOL    HW218318   4.396   2.965   4.758 -0.8382 -1.3272  1.8050
 2229SOL     OW18319   3.879   2.892   9.021 -0.2231  0.7074  0.1327
 2229SOL    HW118320   3.890   2.901   9.116  1.1567  1.0578 -0.0502
 2229SOL    HW218321   3.957   2.935   8.986 -0.5757  0.2981 -1.1754
 2230SOL     OW18322   2.894   1.693   0.129  0.2384  0.1338 -0.0372
 2230SOL    HW118323   2.971   1.661   0.174 -0.1705  1.1426  1.3761
 2230SOL    HW218324   2.833   1.622   0.146  0.8692 -0.2994  0.3940
 2231SOL     OW18325   2.527   2.092   5.736 -0.4055  0.5400 -0.0737
 2231SOL    HW118326   2.531   2.008   5.692 -2.9251 -0.2252  1.1318
 2231SOL    HW218327   2.539   2.056   5.824  1.8687  0.5176 -0.3860
 2232SOL     OW18328   0.071   3.058   8.949  0.1827  0.7305 -0.4614
 2232SOL    HW118329   0.134   2.993   8.918 -0.2628 -0.0131  0.2002
 2232SOL    HW218330   0.065   3.132   8.888 -0.2256  0.2352 -1.0252
 2233SOL     OW18331   0.537   4.225   6.092 -0.3823  0.1806  0.3917
 2233SOL    HW118332   0.630   4.203   6.091 -0.2862  0.6118 -0.0714
 2233SOL    HW218333   0.538   4.317   6.066  2.1502  0.2880  0.8730
 2234SOL     OW18334   0.913   3.068   6.187  0.2532 -0.1639  0.3055
 2234SOL    HW118335   0.926   3.115   6.269  1.7784 -0.6783  0.3556
 2234SOL    HW218336   0.892   3.141   6.129 -1.0523 -0.8477 -0.0807
 2235SOL     OW18337   1.618   3.606   9.143  0.1234  0.1342  0.2331
 2235SOL    HW118338   1.563   3.656   9.082  1.5895  0.9554 -0.4111
 2235SOL    HW218339   1.565   3.621   9.221 -0.3310  2.3362 -0.4989
 2236SOL     OW18340   2.254   1.079   0.214 -0.2544  0.3870 -0.0728
 2236SOL    HW118341   2.285   1.156   0.167  2.8775 -1.0482 -0.3251
 2236SOL    HW218342   2.162   1.079   0.186 -0.7482 -0.5798  1.5379
 2237SOL     OW18343   1.221   1.406   5.689  0.0229 -0.0452 -0.4558
 2237SOL    HW118344   1.158   1.443   5.751  0.6396 -0.0585  0.1887
 2237SOL    HW218345   1.200   1.313   5.690 -0.0958 -0.0079  0.3474
 2238SOL     OW18346   3.217   2.688   9.119 -0.0194  0.6605 -0.0829
 2238SOL    HW118347   3.168   2.670   9.039  2.8659  0.4234 -1.8070
 2238SOL    HW218348   3.244   2.600   9.144 -0.5534  0.8454  1.1477
 2239SOL     OW18349   1.910   2.958   8.171 -0.2375  0.2088 -0.3997
 2239SOL    HW118350   1.891   2.938   8.263 -1.4356  1.4441 -0.3677
 2239SOL    HW218351   1.819   2.956   8.141  0.6538  4.3033 -3.4973
 2240SOL     OW18352   0.251   1.297   7.395 -0.0673  0.3819 -0.1719
 2240SOL    HW118353   0.303   1.306   7.475 -0.4391 -0.1904  0.1314
 2240SOL    HW218354   0.163   1.309   7.430 -0.1685 -0.8665  0.0114
 2241SOL     OW18355   3.235   2.896   2.679  0.6695  0.4492 -0.2392
 2241SOL    HW118356   3.292   2.965   2.713 -0.7487  1.2450  0.4714
 2241SOL    HW218357   3.155   2.928   2.719  0.6309  0.1487 -0.0779
 2242SOL     OW18358   4.212   4.052   2.432  0.5902  0.5598  0.0749
 2242SOL    HW118359   4.230   4.010   2.347  0.5698 -3.2582  1.9442
 2242SOL    HW218360   4.244   4.140   2.415  0.5381  1.0505  2.6113
 2243SOL     OW18361   0.801   1.646  14.732 -0.0069 -0.0177  0.8700
 2243SOL    HW118362   0.879   1.591  14.718 -0.7025 -1.0139  0.9322
 2243SOL    HW218363   0.837   1.692  14.808  1.8268  1.1205 -0.6656
 2244SOL     OW18364   0.906   1.765   4.935 -0.0231 -0.0026 -0.3134
 2244SOL    HW118365   0.834   1.708   4.909 -0.2516  0.8286 -1.5066
 2244SOL    HW218366   0.863   1.850   4.946 -1.7103 -0.7319 -1.2652
 2245SOL     OW18367   0.378   3.931  17.071 -0.0025  0.7330 -0.2658
 2245SOL    HW118368   0.292   3.966  17.051  0.2538  1.5307  0.0477
 2245SOL    HW218369   0.438   3.973  17.010  2.5354 -2.7448 -0.1908
 2246SOL     OW18370   0.750   0.382  10.294 -0.1945 -0.2013  0.2998
 2246SOL    HW118371   0.742   0.382  10.390  1.6798  1.5461  0.4457
 2246SOL    HW218372   0.797   0.463  10.275 -2.6575  1.0610 -0.3896
 2247SOL     OW18373   0.415   0.231   9.474  0.1843  0.4493  0.9643
 2247SOL    HW118374   0.413   0.314   9.523 -0.4946  0.2153  1.3364
 2247SOL    HW218375   0.511   0.223   9.481  0.2809  0.0463 -0.8578
 2248SOL     OW18376   1.563   1.273  17.259  0.5562  0.3631 -0.3087
 2248SOL    HW118377   1.622   1.218  17.208  1.9878 -0.2535  2.0028
 2248SOL    HW218378   1.498   1.303  17.196 -1.2417 -1.0718  0.8746
 2249SOL     OW18379   1.598   1.067   2.412 -0.4800  0.2897 -0.2074
 2249SOL    HW118380   1.596   0.973   2.433 -1.7245 -0.0861 -2.0216
 2249SOL    HW218381   1.632   1.108   2.492  1.0121  1.2182 -1.3362
 2250SOL     OW18382   3.641   1.986  12.946  0.1846  0.0950  0.4561
 2250SOL    HW118383   3.619   1.966  12.856 -0.2154 -0.8115  0.7540
 2250SOL    HW218384   3.651   1.898  12.983 -1.2011 -0.6779 -1.0288
 2251SOL     OW18385   1.617   2.954   2.953 -0.1187  0.0195  0.2902
 2251SOL    HW118386   1.632   3.035   3.001 -0.3397 -0.1327  0.6166
 2251SOL    HW218387   1.523   2.959   2.937  0.0177  0.7673 -0.2682
 2252SOL     OW18388   2.467   4.234   2.740 -0.1922  0.1354  0.2229
 2252SOL    HW118389   2.557   4.247   2.769 -0.6621 -2.3827  2.7879
 2252SOL    HW218390   2.447   4.320   2.703 -1.1850  0.1368  0.7761
 2253SOL     OW18391   2.302   1.374   8.797  0.5884  0.8937  0.0542
 2253SOL    HW118392   2.249   1.414   8.728  0.9732 -2.6971 -2.3519
 2253SOL    HW218393   2.350   1.453   8.821  1.4617 -0.0389  1.3193
 2254SOL     OW18394   4.063   0.119   5.438 -0.1030  0.0768 -0.4419
 2254SOL    HW118395   3.992   0.125   5.502 -1.2210  1.6685 -1.8442
 2254SOL    HW218396   4.017   0.156   5.363 -2.9929 -0.1822  1.2199
 2255SOL     OW18397   1.675   2.009   6.603  0.0782 -0.2581 -0.3756
 2255SOL    HW118398   1.672   2.047   6.690 -3.9128  1.7331 -1.3735
 2255SOL    HW218399   1.600   1.951   6.617  0.8280 -1.0010  0.5070
 2256SOL     OW18400   3.227   0.504   8.849  0.4497 -0.4229 -0.1017
 2256SOL    HW118401   3.295   0.465   8.904  1.7499  0.0266 -1.3953
 2256SOL    HW218402   3.144   0.483   8.892  0.5816  1.5306  1.1375
 2257SOL     OW18403   2.013   4.642   3.918  0.3497 -0.5344 -0.3936
 2257SOL    HW118404   2.060   4.725   3.924 -1.6441  0.5998 -0.5944
 2257SOL    HW218405   1.986   4.627   4.009 -3.5341  0.4130 -1.3888
 2258SOL     OW18406   2.067   3.667   6.937  0.1119  0.3111 -0.5654
 2258SOL    HW118407   2.019   3.649   7.019  1.9565  0.2267  0.4867
 2258SOL    HW218408   2.082   3.580   6.900  0.0162 -1.4834  3.5760
 2259SOL     OW18409   2.716   4.011   7.804  0.3171 -0.3575 -0.0460
 2259SOL    HW118410   2.741   4.070   7.733 -0.6729  0.1489  0.0229
 2259SOL    HW218411   2.800   3.970   7.822  0.2667 -0.6120 -0.3804
 2260SOL     OW18412   2.882   2.064   5.391  0.2364  0.3531 -0.4055
 2260SOL    HW118413   2.969   2.043   5.358 -0.9571 -0.7840 -2.8749
 2260SOL    HW218414   2.894   2.159   5.391  2.0224  0.1260  1.1317
 2261SOL     OW18415   3.965   2.285   2.959 -0.0711 -0.1552  0.1104
 2261SOL    HW118416   3.947   2.248   2.873  0.0741 -1.0217  0.4430
 2261SOL    HW218417   3.921   2.367   2.938  0.3801 -0.1270 -0.7010
 2262SOL     OW18418   0.600   1.623   3.144 -0.5344 -0.2866 -0.4483
 2262SOL    HW118419   0.643   1.681   3.207 -2.4212 -0.8554  1.3759
 2262SOL    HW218420   0.635   1.534   3.151  0.5305  0.1878  0.2596
 2263SOL     OW18421   0.442   3.779   4.148  0.1794 -0.1683 -0.4081
 2263SOL    HW118422   0.423   3.832   4.072  0.2829  0.8422  0.2737
 2263SOL    HW218423   0.493   3.703   4.120 -0.4791 -0.8953  0.3691
 2264SOL     OW18424   3.729   3.633   4.409  0.5448 -0.4665 -0.2308
 2264SOL    HW118425   3.664   3.694   4.445  0.8110 -0.4874  0.2908
 2264SOL    HW218426   3.770   3.598   4.488 -0.6416 -0.7993  0.2370
 2265SOL     OW18427   1.683   0.821  12.285  0.1554  0.2051 -0.1774
 2265SOL    HW118428   1.669   0.777  12.369 -1.1188  1.3451  0.2024
 2265SOL    HW218429   1.605   0.795  12.236 -1.1635 -0.3313  2.2336
 2266SOL     OW18430   2.720   0.804   1.963  0.2689  0.0049 -0.3896
 2266SOL    HW118431   2.725   0.718   2.005 -2.2308 -0.3930 -0.9288
 2266SOL    HW218432   2.656   0.843   2.022 -0.2488 -1.2216 -0.1462
 2267SOL     OW18433   4.281   1.753   5.677  0.4735  0.0127 -0.4347
 2267SOL    HW118434   4.350   1.728   5.615 -0.5427  0.3790 -1.7227
 2267SOL    HW218435   4.209   1.692   5.660  0.3494  0.5795 -1.9342
 2268SOL     OW18436   2.648   4.453   3.408 -0.8277 -0.5073  0.5423
 2268SOL    HW118437   2.597   4.456   3.489  0.0199 -0.9365  1.0983
 2268SOL    HW218438   2.673   4.544   3.392  1.8268 -1.4119 -0.4317
 2269SOL     OW18439   3.449   3.949  16.342  0.5366 -0.4078  0.4207
 2269SOL    HW118440   3.447   3.854  16.328  2.8291 -0.3603 -0.2824
 2269SOL    HW218441   3.537   3.951  16.380  1.2834  3.0894 -1.5259
 2270SOL     OW18442   4.511   1.706   8.823  0.0387  0.1473  0.1796
 2270SOL    HW118443   4.518   1.620   8.782 -1.6535 -1.3038  2.9225
 2270SOL    HW218444   4.588   1.756   8.797 -0.6154  0.5105 -1.0342
 2271SOL     OW18445   0.281   2.209   8.456 -0.4230  0.3164 -0.2417
 2271SOL    HW118446   0.372   2.204   8.427 -0.8055 -0.5094 -1.3019
 2271SOL    HW218447   0.296   2.286   8.511 -2.1564 -0.0728  0.7495
 2272SOL     OW18448   2.791   1.087   1.756 -0.1522 -0.5626  0.3749
 2272SOL    HW118449   2.761   1.141   1.829  0.8346  0.8363 -0.2586
 2272SOL    HW218450   2.799   1.155   1.690  1.1249 -0.7059  0.3872
 2273SOL     OW18451   1.405   3.915   8.096 -0.3456 -0.0946 -0.1306
 2273SOL    HW118452   1.381   4.006   8.112  1.3032  0.4878 -0.9710
 2273SOL    HW218453   1.320   3.881   8.070 -1.5724  2.9239  0.0187
 2274SOL     OW18454   2.258   4.482   2.752  0.3740  0.1505 -0.1557
 2274SOL    HW118455   2.166   4.476   2.724  1.1135  0.5224 -2.6399
 2274SOL    HW218456   2.255   4.469   2.847 -0.0362 -1.5992 -0.4075
 2275SOL     OW18457   4.199   3.065  16.125 -0.4136 -0.1905  0.0836
 2275SOL    HW118458   4.192   3.018  16.042  0.3820  0.6893 -0.4777
 2275SOL    HW218459   4.106   3.083  16.139 -1.1377 -2.3384 -1.9119
 2276SOL     OW18460   1.397   4.071  13.977 -0.3239  0.5375 -0.7742
 2276SOL    HW118461   1.432   4.005  13.917  1.1123  0.1355  0.4905
 2276SOL    HW218462   1.306   4.091  13.955 -0.9833 -1.0093  0.5147
 2277SOL     OW18463   4.124   1.449   4.205 -0.8557  0.2286 -0.1880
 2277SOL    HW118464   4.080   1.467   4.288  0.6396  1.5564  0.3148
 2277SOL    HW218465   4.053   1.408   4.155 -0.6436 -1.1452  0.6304
 2278SOL     OW18466   3.867   1.911   3.091 -0.4545  0.1552  0.3012
 2278SOL    HW118467   3.840   1.910   3.000  1.4395  0.2476 -0.2537
 2278SOL    HW218468   3.785   1.876   3.127 -1.0554  0.9125 -0.3213
 2279SOL     OW18469   3.490   3.951   0.952 -0.2656  0.0447  0.4288
 2279SOL    HW118470   3.502   3.883   0.886  0.2241  0.4759  0.0760
 2279SOL    HW218471   3.573   3.945   1.000 -1.2669 -0.0284  2.1605
 2280SOL     OW18472   1.643   4.074   8.248  0.7221  0.6216 -0.7045
 2280SOL    HW118473   1.729   4.103   8.277 -0.2320  0.6468  2.0402
 2280SOL    HW218474   1.619   4.006   8.311  0.9021  1.0582 -0.1623
 2281SOL     OW18475   4.492   2.777   8.694 -0.3419  0.5194  0.6486
 2281SOL    HW118476   4.474   2.693   8.736  0.1274  1.0148  1.8502
 2281SOL    HW218477   4.489   2.833   8.772  1.1553 -1.1096  1.8909
 2282SOL     OW18478   0.252   0.091  13.679  0.1595 -0.5043  0.3195
 2282SOL    HW118479   0.201   0.099  13.599  0.6206  2.2470  0.3067
 2282SOL    HW218480   0.211   0.141  13.749 -1.5692  0.0339 -1.0931
 2283SOL     OW18481   0.719   0.821   2.493  0.1179  0.6544 -0.4174
 2283SOL    HW118482   0.812   0.811   2.471 -0.1909 -2.2836 -0.4979
 2283SOL    HW218483   0.724   0.905   2.537 -2.2056  0.6393 -0.1215
 2284SOL     OW18484   1.648   3.084   4.645 -0.1613 -0.0169 -0.0121
 2284SOL    HW118485   1.689   3.153   4.594 -2.1476  0.2995 -1.1832
 2284SOL    HW218486   1.731   3.039   4.661 -0.7279 -1.5733 -1.4086
 2285SOL     OW18487   1.363   4.469   4.401  0.1813  0.3242  0.1410
 2285SOL    HW118488   1.364   4.549   4.454 -1.0573 -0.6066  1.5667
 2285SOL    HW218489   1.447   4.428   4.424  0.7586 -0.6619 -3.6191
 2286SOL     OW18490   2.145   2.306   7.608 -0.6725 -0.2400  0.2087
 2286SOL    HW118491   2.063   2.284   7.564 -1.6892  2.1827  0.8734
 2286SOL    HW218492   2.209   2.279   7.543  0.7630  0.8331  1.1591
 2287SOL     OW18493   3.537   3.999  11.120  0.5496 -0.4187 -0.4936
 2287SOL    HW118494   3.613   4.027  11.171 -1.9285  2.4393  1.6234
 2287SOL    HW218495   3.579   3.924  11.078 -0.0703 -1.0528  0.0297
 2288SOL     OW18496   2.932   1.663  10.584 -0.1859 -0.1743 -0.6173
 2288SOL    HW118497   2.924   1.623  10.670  0.9905 -1.0670 -0.9245
 2288SOL    HW218498   2.941   1.752  10.618 -0.0616 -0.3226 -0.2696
 2289SOL     OW18499   1.269   3.412   7.911 -0.1533 -0.1661  0.3467
 2289SOL    HW118500   1.348   3.462   7.926 -0.7457  1.1499 -0.9142
 2289SOL    HW218501   1.298   3.323   7.932  0.9711  0.1975  0.2966
 2290SOL     OW18502   3.319   1.840  17.317  0.6962 -0.1635  0.3878
 2290SOL    HW118503   3.290   1.831  17.408 -0.9104 -0.6454 -0.1810
 2290SOL    HW218504   3.263   1.769  17.287 -0.6833 -0.5090  3.7512
 2291SOL     OW18505   3.772   3.378   1.347 -0.4359 -0.6559  0.0953
 2291SOL    HW118506   3.830   3.302   1.342 -0.4635 -0.5490 -1.7217
 2291SOL    HW218507   3.740   3.366   1.437  1.3996 -1.8972  0.5773
 2292SOL     OW18508   3.700   3.123   6.211 -0.3330  0.5631 -0.3193
 2292SOL    HW118509   3.684   3.217   6.215  1.0878  0.8075 -0.3609
 2292SOL    HW218510   3.642   3.090   6.280  3.0352 -1.2526  1.6836
 2293SOL     OW18511   1.904   3.132  12.536 -0.5167 -0.2617 -0.2458
 2293SOL    HW118512   1.856   3.185  12.601 -2.3164  1.9861 -3.3786
 2293SOL    HW218513   1.980   3.189  12.522 -1.1375  0.8786  0.9141
 2294SOL     OW18514   1.866   3.429   4.447 -0.2026  0.0804  0.0370
 2294SOL    HW118515   1.784   3.449   4.492  0.8917  1.1554  1.5593
 2294SOL    HW218516   1.923   3.480   4.504 -0.0892 -1.9740  1.7702
 2295SOL     OW18517   3.598   4.371   2.017  0.1603  0.0281 -0.4881
 2295SOL    HW118518   3.668   4.315   1.983 -0.3622 -1.9911  1.7706
 2295SOL    HW218519   3.530   4.304   2.023 -0.2526  0.5092  0.2105
 2296SOL     OW18520   4.381   4.171   8.451 -0.1454 -0.0652  0.2697
 2296SOL    HW118521   4.339   4.087   8.436  0.7467 -0.0565 -2.2459
 2296SOL    HW218522   4.472   4.141   8.458 -0.3146 -0.6678 -0.1962
 2297SOL     OW18523   4.426   4.732   0.698 -0.1275  0.0589 -0.1502
 2297SOL    HW118524   4.398   4.663   0.637 -2.3396 -1.3135  2.4392
 2297SOL    HW218525   4.468   0.057   0.638 -0.9532  1.3819  0.6439
 2298SOL     OW18526   1.068   1.981   4.480 -0.3154 -0.4548  0.6593
 2298SOL    HW118527   1.121   1.961   4.558  0.7150 -0.0999  0.0610
 2298SOL    HW218528   1.064   1.895   4.437 -0.1904  1.2214 -2.6582
 2299SOL     OW18529   4.444   1.442  14.727 -0.5919  0.0198 -0.4164
 2299SOL    HW118530   4.497   1.407  14.656  0.4036 -0.6840  0.6671
 2299SOL    HW218531   4.374   1.376  14.730 -1.9323  1.4214 -0.7039
 2300SOL     OW18532   1.739   3.882   5.793 -0.1176  0.0974 -0.6901
 2300SOL    HW118533   1.683   3.811   5.763 -0.8414  1.1567 -1.8516
 2300SOL    HW218534   1.699   3.928   5.866 -0.3477 -0.1032 -0.6876
 2301SOL     OW18535   2.389   2.775   6.780  0.0446 -0.2371  0.0699
 2301SOL    HW118536   2.456   2.841   6.793 -0.6088  0.4727 -0.1320
 2301SOL    HW218537   2.417   2.720   6.706  0.4847 -0.4206  0.3729
 2302SOL     OW18538   2.504   1.810  11.872  0.8644  0.0623  0.1612
 2302SOL    HW118539   2.475   1.814  11.963 -0.1559 -2.4422 -0.0358
 2302SOL    HW218540   2.555   1.728  11.867  2.2912  0.9749 -0.2664
 2303SOL     OW18541   1.447   3.718   2.821  0.1874  0.4123 -0.1881
 2303SOL    HW118542   1.465   3.757   2.906  1.1351 -0.7974  0.1596
 2303SOL    HW218543   1.450   3.799   2.769  0.4237  1.5966  1.6767
 2304SOL     OW18544   3.941   2.562   6.471  0.6175 -0.1481  0.2414
 2304SOL    HW118545   4.003   2.505   6.425  0.7600  0.1407  0.0738
 2304SOL    HW218546   3.966   2.648   6.438  0.7118 -0.9527 -1.8132
 2305SOL     OW18547   0.289   0.086  15.209 -0.5615  0.0022  0.1541
 2305SOL    HW118548   0.382   0.065  15.202 -0.0059  2.0887  1.2427
 2305SOL    HW218549   0.241   0.044  15.138 -0.4991  2.8697 -1.6280
 2306SOL     OW18550   0.529   2.733   4.815 -0.1483  0.0808  0.1402
 2306SOL    HW118551   0.553   2.656   4.866  2.8779  1.1822  0.3831
 2306SOL    HW218552   0.608   2.741   4.761 -0.8980  0.4336 -0.8961
 2307SOL     OW18553   4.713   1.129   0.433  0.1566  0.0788 -0.2490
 2307SOL    HW118554   0.023   1.192   0.487  0.5767 -0.8038  0.4210
 2307SOL    HW218555   4.627   1.135   0.474  1.3037  1.7418  1.8766
 2308SOL     OW18556   1.321   1.243   8.822  0.0929  0.0781 -0.0023
 2308SOL    HW118557   1.280   1.172   8.872  2.1302 -0.7630  0.4779
 2308SOL    HW218558   1.399   1.270   8.871 -0.6193  3.1762 -0.5984
 2309SOL     OW18559   2.093   3.723  13.870 -0.8753  0.9868 -0.4426
 2309SOL    HW118560   2.075   3.708  13.963 -0.6934  3.7831  0.0394
 2309SOL    HW218561   2.027   3.670  13.825  0.1343 -1.2020  0.6494
 2310SOL     OW18562   1.674   4.721   4.424 -0.4822 -0.3871 -0.5268
 2310SOL    HW118563   1.737   0.054   4.444 -0.5031 -0.3431 -0.6115
 2310SOL    HW218564   1.605   0.017   4.482  0.6891  0.3722  0.4423
 2311SOL     OW18565   0.943   0.435   3.477 -0.0283  0.7989  0.3769
 2311SOL    HW118566   0.849   0.454   3.484  0.0129  1.0809  0.1452
 2311SOL    HW218567   0.980   0.483   3.551  1.6388  0.0390  0.0101
 2312SOL     OW18568   0.045   2.627   2.084  0.7682 -0.1743  0.1878
 2312SOL    HW118569   0.070   2.669   2.166 -1.0139  1.7271 -0.2325
 2312SOL    HW218570   4.694   2.661   2.068  0.6596 -0.7252 -0.3715
 2313SOL     OW18571   4.042   1.370  16.619  0.2910  0.2268 -0.2370
 2313SOL    HW118572   3.949   1.351  16.627 -0.4775  4.5678  0.9032
 2313SOL    HW218573   4.080   1.288  16.586  0.2453 -0.7196  2.0578
 2314SOL     OW18574   4.462   0.214   4.048 -0.0905  0.5724 -0.2457
 2314SOL    HW118575   4.384   0.161   4.060  2.3678 -2.6956  1.3583
 2314SOL    HW218576   4.514   0.180   4.121  0.6550 -0.9613 -1.4886
 2315SOL     OW18577   3.340   1.361   8.110 -0.3412  1.1331 -0.4871
 2315SOL    HW118578   3.274   1.390   8.171 -0.3689  0.7538 -0.3374
 2315SOL    HW218579   3.337   1.440   8.056  0.1740  1.3304 -0.2294
 2316SOL     OW18580   1.465   4.146   2.669  0.6393  0.0442 -0.1289
 2316SOL    HW118581   1.447   4.080   2.602  0.6753  0.1618 -0.2539
 2316SOL    HW218582   1.554   4.172   2.644  0.2683  2.5331  1.1646
 2317SOL     OW18583   1.429   3.921   5.779  0.6555 -0.3282  0.0029
 2317SOL    HW118584   1.480   3.925   5.860  0.3503 -0.4374  0.1994
 2317SOL    HW218585   1.341   3.924   5.816 -0.0135 -2.1777 -1.4470
 2318SOL     OW18586   0.408   1.084   4.723 -0.0061  0.3783  0.6972
 2318SOL    HW118587   0.421   1.075   4.629  0.5426  1.8040  0.6265
 2318SOL    HW218588   0.382   1.176   4.710 -1.6032 -0.2154 -0.2681
 2319SOL     OW18589   3.551   3.588   7.721  0.4177  0.7170 -0.0337
 2319SOL    HW118590   3.603   3.519   7.763 -3.1495 -1.4765  0.7991
 2319SOL    HW218591   3.522   3.647   7.789 -0.3697  0.8362 -0.4767
 2320SOL     OW18592   4.645   0.400   1.006 -0.2371 -0.1884  0.1762
 2320SOL    HW118593   4.619   0.319   0.962 -0.7819 -1.0183  2.0225
 2320SOL    HW218594   0.004   0.390   1.007 -0.0784  1.1825 -1.3751
 2321SOL     OW18595   0.500   3.246   4.088  0.2243  0.1926  0.8179
 2321SOL    HW118596   0.588   3.233   4.125  0.1792 -0.2747  0.7679
 2321SOL    HW218597   0.515   3.203   4.004 -0.4144  0.2792  0.6609
 2322SOL     OW18598   0.846   2.643  13.696  0.4199 -0.0235 -0.1773
 2322SOL    HW118599   0.856   2.723  13.748  0.6660 -0.4357  0.4150
 2322SOL    HW218600   0.795   2.669  13.619  1.1004 -0.1700 -0.6735
 2323SOL     OW18601   2.067   2.811   8.814  0.1852  0.5691  0.4927
 2323SOL    HW118602   2.038   2.750   8.746  2.4458 -1.1432  1.0785
 2323SOL    HW218603   2.055   2.760   8.894 -2.5417 -0.0601 -0.2980
 2324SOL     OW18604   4.260   4.186   7.137  0.4353  1.0583 -0.2414
 2324SOL    HW118605   4.235   4.250   7.204  0.2990 -0.2592  0.9433
 2324SOL    HW218606   4.185   4.190   7.078 -1.5834 -2.6769  2.1058
 2325SOL     OW18607   2.447   2.709   5.773  0.7509 -0.3701 -0.3581
 2325SOL    HW118608   2.494   2.776   5.724  1.5418 -1.7798 -1.5158
 2325SOL    HW218609   2.356   2.738   5.767  0.5978 -0.4506  1.7319
 2326SOL     OW18610   0.618   0.736   7.162  0.3664 -0.1628 -0.7889
 2326SOL    HW118611   0.536   0.782   7.150  0.1873 -0.7374 -1.8355
 2326SOL    HW218612   0.681   0.808   7.163 -1.6025  1.4910  2.6160
 2327SOL     OW18613   3.155   0.355  17.470 -0.7355  0.1856  0.2797
 2327SOL    HW118614   3.230   0.297  17.463  0.4302  1.6933  0.4125
 2327SOL    HW218615   3.077   0.307  17.499  0.6073 -1.2531  1.4961
 2328SOL     OW18616   4.482   2.759   3.472 -0.0883  0.4987  0.0534
 2328SOL    HW118617   4.393   2.744   3.505 -1.1426  0.9119 -2.5473
 2328SOL    HW218618   4.477   2.846   3.432 -2.4579  0.5583  0.4828
 2329SOL     OW18619   0.370   0.100  12.294  0.3426  0.3833  0.1195
 2329SOL    HW118620   0.321   0.042  12.351 -0.8434  2.8222  1.5773
 2329SOL    HW218621   0.392   0.159  12.366 -0.7457  2.5974 -1.3791
 2330SOL     OW18622   3.545   2.591   8.042 -0.5900 -0.0996 -0.0760
 2330SOL    HW118623   3.561   2.684   8.032  0.0316 -0.1458  0.4970
 2330SOL    HW218624   3.615   2.546   7.995  1.6464  1.0753  2.1693
 2331SOL     OW18625   1.250   2.193   5.464 -0.5178 -0.3501  0.0219
 2331SOL    HW118626   1.231   2.225   5.376  0.0378 -1.6482 -0.5709
 2331SOL    HW218627   1.234   2.098   5.457  0.5622 -0.7149  2.3503
 2332SOL     OW18628   4.081   4.274   5.410 -0.3876  0.1975 -0.0533
 2332SOL    HW118629   4.024   4.219   5.356 -0.1378  0.2193 -0.3384
 2332SOL    HW218630   4.005   4.325   5.440 -0.3523 -1.1149  2.3423
 2333SOL     OW18631   3.441   1.172   6.116  1.0778 -0.3610 -0.9012
 2333SOL    HW118632   3.398   1.216   6.043  3.3249 -2.3940 -3.4519
 2333SOL    HW218633   3.390   1.093   6.100  1.6737 -1.0031  0.3783
 2334SOL     OW18634   2.613   2.392  11.276 -0.1956  0.2507  0.3265
 2334SOL    HW118635   2.691   2.446  11.272 -0.0875 -0.0067 -1.0636
 2334SOL    HW218636   2.541   2.446  11.309 -1.1882 -1.3714  0.7891
 2335SOL     OW18637   3.160   2.052  17.711 -0.5969 -0.3109 -0.4463
 2335SOL    HW118638   3.104   1.998   0.022  0.4407 -2.0503 -1.0806
 2335SOL    HW218639   3.180   1.982  17.649 -0.0071 -0.6300  0.1016
 2336SOL     OW18640   4.357   1.855   6.519 -0.0098 -0.4567  0.5897
 2336SOL    HW118641   4.420   1.814   6.578 -0.7928 -1.1559  0.9346
 2336SOL    HW218642   4.286   1.873   6.581 -1.5187  0.0914 -1.3131
 2337SOL     OW18643   2.043   2.754  12.757  0.3119  0.3187  0.4658
 2337SOL    HW118644   2.109   2.820  12.737 -0.8421  0.8934 -1.4898
 2337SOL    HW218645   2.043   2.753  12.853  0.9188 -0.7510  0.4530
 2338SOL     OW18646   1.424   0.744   2.175 -0.0931 -0.3948 -0.1106
 2338SOL    HW118647   1.488   0.673   2.184 -0.7757 -0.4646  4.6473
 2338SOL    HW218648   1.371   0.728   2.254 -1.7574  1.4701 -0.8574
 2339SOL     OW18649   4.441   1.463   3.755  0.0857 -0.3346 -0.2716
 2339SOL    HW118650   4.443   1.481   3.849 -2.2357  2.2059 -0.7078
 2339SOL    HW218651   4.367   1.519   3.731  0.6288  0.4829 -0.0684
 2340SOL     OW18652   2.229   2.472   7.207  0.8405  0.2887  0.1446
 2340SOL    HW118653   2.298   2.498   7.145  1.0740 -1.3585 -0.2929
 2340SOL    HW218654   2.270   2.452   7.292  0.9138  3.1725  0.7996
 2341SOL     OW18655   4.306   2.864   9.240 -0.2882 -0.9015 -0.2650
 2341SOL    HW118656   4.268   2.947   9.270  0.5106 -0.2317 -1.1268
 2341SOL    HW218657   4.236   2.799   9.238  0.5943 -1.8623  0.6693
 2342SOL     OW18658   2.175   1.237  10.107  0.4320  0.0617 -0.0752
 2342SOL    HW118659   2.211   1.157  10.067  0.8128 -0.6609  1.7017
 2342SOL    HW218660   2.253   1.292  10.108  0.4868 -0.0164 -0.0179
 2343SOL     OW18661   0.740   1.314  17.067  0.0988  0.4060 -0.0450
 2343SOL    HW118662   0.737   1.296  17.161  4.2007  0.7657  0.1380
 2343SOL    HW218663   0.646   1.329  17.056  0.3358  2.8377  1.1868
 2344SOL     OW18664   2.897   1.590   1.771  0.2253  0.1216 -0.0156
 2344SOL    HW118665   2.965   1.600   1.837  2.2909 -0.4509 -2.0921
 2344SOL    HW218666   2.815   1.573   1.817 -0.8669  1.2277 -1.5304
 2345SOL     OW18667   0.939   3.325   2.528  0.4629  0.6962  0.4275
 2345SOL    HW118668   0.945   3.420   2.522 -0.5683  0.5451 -2.8998
 2345SOL    HW218669   0.897   3.318   2.614  0.5856  0.1876  0.4465
 2346SOL     OW18670   2.940   0.295   5.358 -0.4414  0.2386 -0.2693
 2346SOL    HW118671   2.862   0.261   5.402 -1.1160  1.6509 -0.3730
 2346SOL    HW218672   2.894   0.372   5.325 -1.7325 -1.1248 -1.6771
 2347SOL     OW18673   4.561   4.292   7.810  0.0542  0.8305  0.5330
 2347SOL    HW118674   4.645   4.251   7.789  0.5449  0.9423  2.2830
 2347SOL    HW218675   4.511   4.210   7.817 -0.6486  1.0060 -2.4538
 2348SOL     OW18676   2.824   3.674  12.060 -0.1251  0.2740  0.1962
 2348SOL    HW118677   2.731   3.650  12.061  0.2019 -1.0255 -0.3006
 2348SOL    HW218678   2.864   3.590  12.084 -0.4881  0.4897  1.5772
 2349SOL     OW18679   4.443   3.636   7.705  0.5194  0.0042  0.0531
 2349SOL    HW118680   4.450   3.730   7.687 -2.2876  0.3199  0.4792
 2349SOL    HW218681   4.523   3.603   7.665  2.0486  1.1490  2.1808
 2350SOL     OW18682   1.083   3.150   8.564  0.6494  0.1170  0.2570
 2350SOL    HW118683   1.168   3.190   8.545  0.7290 -0.2752 -0.2163
 2350SOL    HW218684   1.022   3.223   8.570 -0.6296 -0.8965 -0.4839
 2351SOL     OW18685   4.004   0.800   6.071  0.0592 -0.0005 -0.0951
 2351SOL    HW118686   3.987   0.711   6.041 -0.6490 -0.3773  1.3993
 2351SOL    HW218687   4.073   0.781   6.135 -0.7379 -0.1082  0.7351
 2352SOL     OW18688   1.998   4.146   6.711  0.3148 -0.5013  0.1149
 2352SOL    HW118689   2.053   4.137   6.789 -0.4606 -0.1443  0.7104
 2352SOL    HW218690   2.028   4.060   6.680  0.7524 -0.1027 -0.5383
 2353SOL     OW18691   0.980   0.947   4.154  0.3554  0.6555  0.2251
 2353SOL    HW118692   0.937   0.979   4.075 -3.0651 -2.2486  0.9350
 2353SOL    HW218693   1.044   1.018   4.162  0.5664  0.6634 -1.5634
 2354SOL     OW18694   4.566   1.294   2.716 -0.0381 -0.0776 -0.3866
 2354SOL    HW118695   4.594   1.351   2.644 -0.3313  1.2063  0.5170
 2354SOL    HW218696   4.655   1.287   2.751  0.8060 -1.9108 -2.8674
 2355SOL     OW18697   3.644   1.518   7.671  0.9147 -0.1484  0.0842
 2355SOL    HW118698   3.609   1.444   7.721  0.9485  0.1166  0.5086
 2355SOL    HW218699   3.607   1.598   7.708 -0.4674 -1.1904  0.9446
 2356SOL     OW18700   4.326   2.099   3.311  0.3203  0.2058 -0.9401
 2356SOL    HW118701   4.275   2.055   3.243  0.1568  0.7430 -1.1686
 2356SOL    HW218702   4.332   2.188   3.275  1.0499 -0.2143 -1.8535
 2357SOL     OW18703   2.486   0.747   1.815 -0.4782  0.2085 -0.0727
 2357SOL    HW118704   2.557   0.787   1.865 -1.2454  0.3130  0.9255
 2357SOL    HW218705   2.521   0.758   1.727  0.9627  1.6492  0.6962
 2358SOL     OW18706   4.626   0.753  10.961  0.6827 -0.2771 -0.1951
 2358SOL    HW118707   4.574   0.674  10.974  0.5497 -0.0814  0.4444
 2358SOL    HW218708   4.600   0.814  11.030 -2.0468 -0.7081 -0.8235
 2359SOL     OW18709   0.286   3.264   5.769  0.3797  0.1136  0.5986
 2359SOL    HW118710   0.312   3.224   5.852  2.2895  2.4534  1.1133
 2359SOL    HW218711   0.191   3.250   5.774  0.6335 -0.9750  2.6155
 2360SOL     OW18712   0.857   3.757  14.820  0.1042  0.2548  0.2538
 2360SOL    HW118713   0.923   3.752  14.751  0.7496  0.6190  0.8348
 2360SOL    HW218714   0.879   3.842  14.860  0.7778 -0.1392  0.7213
 2361SOL     OW18715   1.273   1.380   4.146 -0.0221  0.0224 -0.3635
 2361SOL    HW118716   1.339   1.335   4.200 -0.2945  0.5358  0.3971
 2361SOL    HW218717   1.303   1.470   4.153  2.6632 -1.0573  2.2007
 2362SOL     OW18718   1.953   3.164  12.243  0.5563  0.2669 -0.0614
 2362SOL    HW118719   1.899   3.231  12.286  0.8569  0.2500  0.3327
 2362SOL    HW218720   2.010   3.228  12.201 -0.0370  0.7317 -0.1557
 2363SOL     OW18721   1.926   3.838   4.353 -0.8783 -0.6587  0.0031
 2363SOL    HW118722   1.982   3.908   4.318 -0.6497 -0.8437  0.0014
 2363SOL    HW218723   1.842   3.884   4.358 -1.1547 -1.1331 -0.2917
 2364SOL     OW18724   4.515   0.520   8.080  0.5288  0.0066  0.2528
 2364SOL    HW118725   4.559   0.436   8.091 -0.3933 -0.4871  0.2063
 2364SOL    HW218726   4.422   0.498   8.069  0.8254 -0.1898 -1.8775
 2365SOL     OW18727   4.151   1.905   5.053 -0.6389 -0.0663  0.5252
 2365SOL    HW118728   4.151   1.858   5.136  0.6855 -1.0594 -0.0335
 2365SOL    HW218729   4.218   1.973   5.060 -0.4811 -0.0610 -0.8598
 2366SOL     OW18730   2.584   4.031   8.825 -0.0082 -0.2466 -0.1884
 2366SOL    HW118731   2.591   3.984   8.909  1.7718 -1.3729 -0.9666
 2366SOL    HW218732   2.580   3.953   8.770  1.2230  0.6369 -1.5089
 2367SOL     OW18733   0.825   3.743  11.953  0.4008 -0.1946  0.6669
 2367SOL    HW118734   0.763   3.685  11.910  0.7955 -0.0608 -0.0839
 2367SOL    HW218735   0.869   3.785  11.879 -0.2472 -0.6878  0.0006
 2368SOL     OW18736   3.942   0.658   7.665 -0.4502  0.0162  0.5083
 2368SOL    HW118737   3.871   0.699   7.618 -0.5702  0.7175  1.3023
 2368SOL    HW218738   3.915   0.689   7.752  1.5202 -1.2609  1.5817
 2369SOL     OW18739   3.940   2.070   8.731  1.0854 -0.1452  0.0437
 2369SOL    HW118740   3.888   2.147   8.709  1.3246  0.4520  1.5796
 2369SOL    HW218741   3.990   2.112   8.800  2.2874 -1.2462 -0.1498
 2370SOL     OW18742   2.344   0.891   6.097  0.6894  0.1658 -0.1155
 2370SOL    HW118743   2.342   0.945   6.018 -0.8585  1.8672  1.0906
 2370SOL    HW218744   2.285   0.823   6.066  0.8540 -0.1771  0.3303
 2371SOL     OW18745   2.526   2.984   4.337 -0.3769  0.0607 -0.2601
 2371SOL    HW118746   2.558   2.986   4.427  0.9867 -1.2197 -0.6949
 2371SOL    HW218747   2.464   3.056   4.325  1.2555  1.4223 -0.5567
 2372SOL     OW18748   2.986   2.681   8.498 -0.3201  0.5191  0.4738
 2372SOL    HW118749   2.928   2.619   8.453 -0.5388  1.8102 -0.9893
 2372SOL    HW218750   2.960   2.770   8.475 -0.8391  0.1721 -0.2763
 2373SOL     OW18751   1.657   4.088  10.333  0.0067  0.0442  0.3003
 2373SOL    HW118752   1.645   4.123  10.422 -2.1804  2.2066 -0.8749
 2373SOL    HW218753   1.713   4.154  10.293 -1.7568  0.3727 -1.6140
 2374SOL     OW18754   0.198   0.193   9.292 -0.4457  0.2407  0.4176
 2374SOL    HW118755   0.275   0.180   9.348  0.2078  0.6939 -0.3829
 2374SOL    HW218756   0.147   0.259   9.339 -1.3000  0.0675 -0.2628
 2375SOL     OW18757   1.675   1.906   6.127 -0.6281  0.0749 -0.1340
 2375SOL    HW118758   1.739   1.906   6.199 -0.3147  1.7391 -0.4047
 2375SOL    HW218759   1.726   1.897   6.046 -2.0925  0.3956 -1.0861
 2376SOL     OW18760   3.390   4.599   9.350 -0.1160  1.1062  0.2458
 2376SOL    HW118761   3.414   4.535   9.417  0.3644 -1.7372 -2.6402
 2376SOL    HW218762   3.294   4.606   9.354 -0.1581  1.9969 -2.4370
 2377SOL     OW18763   2.907   1.549  14.447 -0.0031 -0.0974 -0.2633
 2377SOL    HW118764   2.980   1.568  14.507  1.8127 -3.2360 -1.4926
 2377SOL    HW218765   2.905   1.454  14.459  3.5376 -0.3009 -1.3186
 2378SOL     OW18766   4.071   2.303  17.092  0.3478 -0.3889 -0.0374
 2378SOL    HW118767   4.119   2.243  17.035  0.9407  0.5337 -0.5043
 2378SOL    HW218768   4.133   2.322  17.163  1.9131 -1.4146 -1.1195
 2379SOL     OW18769   1.650   0.209   4.681 -0.1319  0.1442  0.2397
 2379SOL    HW118770   1.679   0.301   4.677  0.4987 -0.1207 -1.2453
 2379SOL    HW218771   1.734   0.163   4.689 -0.0441  0.5028  1.3062
 2380SOL     OW18772   4.519   1.879   5.363 -0.0916 -0.1395  0.1586
 2380SOL    HW118773   4.484   1.802   5.407  1.0116 -0.4948  0.4311
 2380SOL    HW218774   4.613   1.862   5.375 -0.3082 -0.6723  1.0627
 2381SOL     OW18775   3.868   1.085   2.522  0.0086  0.2882  0.0439
 2381SOL    HW118776   3.810   1.145   2.568  0.1941  0.0337  0.6168
 2381SOL    HW218777   3.887   1.134   2.442  0.9881  0.6960  0.5260
 2382SOL     OW18778   3.360   3.784   4.918 -0.0986 -0.3048 -0.1580
 2382SOL    HW118779   3.360   3.730   4.998  1.1973  0.2277  0.1978
 2382SOL    HW218780   3.335   3.724   4.847  0.1548 -0.0134 -0.4915
 2383SOL     OW18781   0.821   0.134  10.406  0.1843  0.4590  0.5961
 2383SOL    HW118782   0.836   0.040  10.391 -0.0828  0.1467  2.3011
 2383SOL    HW218783   0.754   0.146  10.339  0.9881 -2.3664 -0.7171
 2384SOL     OW18784   2.749   2.887   2.947  0.0960  0.0316  0.8373
 2384SOL    HW118785   2.660   2.922   2.956  0.0741  0.0638  0.5197
 2384SOL    HW218786   2.729   2.794   2.952 -0.5817  0.1296  0.1299
 2385SOL     OW18787   2.249   3.836   2.907  0.0832  0.1097 -0.5273
 2385SOL    HW118788   2.271   3.889   2.831  2.0453 -0.8209 -0.6178
 2385SOL    HW218789   2.157   3.859   2.923 -0.0499 -1.1361  0.5361
 2386SOL     OW18790   0.919   1.433   3.575 -0.0893  0.4883  0.0200
 2386SOL    HW118791   0.924   1.338   3.577 -1.3654  0.3665 -2.6898
 2386SOL    HW218792   0.866   1.446   3.653  1.1116 -1.2202  1.1207
 2387SOL     OW18793   1.259   1.668  12.984  0.1111  0.1707 -0.0031
 2387SOL    HW118794   1.277   1.641  13.074 -0.2791  1.1075  0.3546
 2387SOL    HW218795   1.180   1.619  12.959  0.6948  0.4404 -2.4067
 2388SOL     OW18796   1.694   0.660  11.871 -0.3491  0.0060  0.3416
 2388SOL    HW118797   1.720   0.590  11.931 -1.1827 -0.6722 -0.0766
 2388SOL    HW218798   1.753   0.651  11.796  0.6820 -2.0864  1.4005
 2389SOL     OW18799   4.237   4.208   5.835 -0.2962  0.4283 -0.2183
 2389SOL    HW118800   4.289   4.283   5.807  0.5417  0.3233  1.0498
 2389SOL    HW218801   4.150   4.248   5.839 -0.5321 -0.0831 -0.1858
 2390SOL     OW18802   1.276   0.900   8.581 -0.0311 -0.2493 -0.3246
 2390SOL    HW118803   1.265   0.985   8.623  2.7882  0.8142 -1.7616
 2390SOL    HW218804   1.187   0.866   8.590 -0.3928  0.6485 -0.5586
 2391SOL     OW18805   1.423   4.355  10.610  0.2964  0.0833 -0.1071
 2391SOL    HW118806   1.396   4.420  10.676  1.5241  1.6772 -1.1664
 2391SOL    HW218807   1.437   4.411  10.534 -0.0244  0.9410  0.4632
 2392SOL     OW18808   2.076   4.363   9.506 -0.3978 -0.0009  0.4612
 2392SOL    HW118809   2.134   4.380   9.580 -0.8023 -0.3926  0.8722
 2392SOL    HW218810   2.125   4.309   9.444  0.0943 -0.0294  0.8736
 2393SOL     OW18811   1.380   3.586  15.795  0.4185 -0.0349 -0.0291
 2393SOL    HW118812   1.299   3.630  15.821  0.1763 -1.6249  1.9524
 2393SOL    HW218813   1.429   3.653  15.747 -0.6899  1.8808  1.4910
 2394SOL     OW18814   1.330   1.328   5.163 -0.1295  0.2795 -0.0975
 2394SOL    HW118815   1.303   1.240   5.140  0.4841 -0.2545  1.2180
 2394SOL    HW218816   1.359   1.316   5.254  0.3609 -0.9732 -0.4271
 2395SOL     OW18817   2.644   1.095   8.356  0.0098 -0.3814  0.4950
 2395SOL    HW118818   2.657   1.133   8.270  1.8694 -1.5072  0.2680
 2395SOL    HW218819   2.553   1.063   8.354  0.1633 -0.6286 -2.6149
 2396SOL     OW18820   4.231   2.743   3.892 -0.0412 -0.2282  0.1268
 2396SOL    HW118821   4.228   2.768   3.800 -0.3619 -0.9006 -0.0441
 2396SOL    HW218822   4.140   2.722   3.912 -0.3045  1.4859  0.6824
 2397SOL     OW18823   2.961   0.956   9.641  0.1876 -0.5142 -0.0622
 2397SOL    HW118824   2.904   0.881   9.660 -0.6063  0.1059  0.0433
 2397SOL    HW218825   2.986   0.930   9.553 -1.8338 -1.2442 -0.4202
 2398SOL     OW18826   0.997   1.993   7.201 -0.2045  0.1527  0.4093
 2398SOL    HW118827   1.035   1.994   7.113 -0.7081 -1.8987  0.1755
 2398SOL    HW218828   0.925   2.054   7.185  0.4603  0.6004 -0.8804
 2399SOL     OW18829   1.034   3.479   6.271 -0.2953  0.1814  0.1311
 2399SOL    HW118830   1.068   3.404   6.222 -0.0198  1.3269 -1.4328
 2399SOL    HW218831   1.075   3.460   6.356 -0.1969 -1.3764 -0.2514
 2400SOL     OW18832   4.321   2.227   6.977 -0.7021  0.0420  0.4526
 2400SOL    HW118833   4.304   2.149   7.030 -1.8781  0.3497  0.5135
 2400SOL    HW218834   4.361   2.278   7.048  1.7195 -1.2677  0.0432
 2401SOL     OW18835   4.423   4.587   9.157 -0.0740  0.7079  0.3499
 2401SOL    HW118836   4.364   4.517   9.186 -0.0024  0.5476  0.1130
 2401SOL    HW218837   4.387   4.656   9.212  1.0938  1.0292  0.7130
 2402SOL     OW18838   0.305   3.935   5.502  0.1494 -0.3435 -0.1917
 2402SOL    HW118839   0.287   3.842   5.516 -0.7190 -0.1654 -0.1341
 2402SOL    HW218840   0.357   3.949   5.581 -2.3998  1.8230  1.0988
 2403SOL     OW18841   1.522   2.000   3.049 -0.2834  0.2170 -0.5466
 2403SOL    HW118842   1.484   1.979   2.963 -1.1813 -0.1672 -0.0539
 2403SOL    HW218843   1.550   2.090   3.035 -0.4805  0.1942 -1.0918
 2404SOL     OW18844   2.425   2.544   2.444 -0.0457 -0.2899 -0.0954
 2404SOL    HW118845   2.362   2.498   2.388 -1.9133  1.0242  0.9450
 2404SOL    HW218846   2.363   2.578   2.508  0.5794  0.4859  0.0978
 2405SOL     OW18847   3.320   1.171   5.150 -0.1256 -0.6870 -0.8362
 2405SOL    HW118848   3.299   1.199   5.239 -1.5648  0.6283 -1.5908
 2405SOL    HW218849   3.235   1.142   5.117  0.4740 -2.0174 -1.2139
 2406SOL     OW18850   0.157   1.229   5.248 -0.6257 -0.4850  0.2139
 2406SOL    HW118851   0.064   1.227   5.272 -0.9617  1.3131 -0.9891
 2406SOL    HW218852   0.193   1.217   5.336  1.4028 -0.6051 -0.6535
 2407SOL     OW18853   4.180   1.056   6.533 -0.0448 -0.0793 -0.2914
 2407SOL    HW118854   4.146   1.108   6.605  2.0519 -1.7771  1.9011
 2407SOL    HW218855   4.186   0.967   6.567  1.5234  0.0678 -0.1527
 2408SOL     OW18856   4.358   0.668  15.359  0.1357 -0.2247 -0.4048
 2408SOL    HW118857   4.267   0.641  15.352  0.2497  0.0963 -3.4819
 2408SOL    HW218858   4.368   0.654  15.453  1.2205  0.0515 -0.4741
 2409SOL     OW18859   0.924   2.284   9.622 -0.3214 -0.0841 -0.7902
 2409SOL    HW118860   0.904   2.372   9.651 -0.3618 -1.1548  2.4335
 2409SOL    HW218861   1.011   2.271   9.660 -0.4117  1.0393 -0.1981
 2410SOL     OW18862   1.412   1.828   4.425 -0.0372  0.6167 -0.2766
 2410SOL    HW118863   1.424   1.734   4.409 -4.9023 -0.1028  0.3806
 2410SOL    HW218864   1.419   1.864   4.337 -1.3857 -0.6270 -0.8888
 2411SOL     OW18865   3.276   0.038   7.107 -0.0086 -0.0145 -0.6114
 2411SOL    HW118866   3.195   0.023   7.057  1.1921 -2.4652 -1.8151
 2411SOL    HW218867   3.336   4.725   7.051  0.2299 -1.3949  0.8883
 2412SOL     OW18868   1.809   0.090   9.100 -0.3782  0.7836  0.8843
 2412SOL    HW118869   1.832   0.165   9.156 -1.6700  1.2760  0.7475
 2412SOL    HW218870   1.743   0.123   9.040 -1.2430 -0.8622  0.9270
 2413SOL     OW18871   2.678   0.737  14.218 -0.3034 -0.2091  0.5191
 2413SOL    HW118872   2.723   0.716  14.300 -0.8166 -0.5739  0.7012
 2413SOL    HW218873   2.753   0.762  14.163  0.5519 -3.4472  0.2055
 2414SOL     OW18874   0.869   4.496   3.800 -0.4023  0.0711 -0.4787
 2414SOL    HW118875   0.908   4.530   3.880 -0.0807  0.7336 -0.9150
 2414SOL    HW218876   0.813   4.428   3.837 -1.7321  1.4324 -0.0221
 2415SOL     OW18877   0.880   3.857  10.038  0.1740 -0.2392  0.2040
 2415SOL    HW118878   0.820   3.899  10.100  0.3194  0.2765 -0.0059
 2415SOL    HW218879   0.970   3.885  10.051  0.2077  0.7967 -2.2090
 2416SOL     OW18880   4.179   0.076   8.347  0.0166 -0.6813  0.4118
 2416SOL    HW118881   4.085   0.088   8.358  0.2111  2.1289 -0.9862
 2416SOL    HW218882   4.195   0.158   8.300 -0.4938 -0.3844  0.7549
 2417SOL     OW18883   2.484   2.138   3.694  0.1510  0.5187 -0.0222
 2417SOL    HW118884   2.438   2.053   3.696  1.4891 -0.2951 -3.4532
 2417SOL    HW218885   2.562   2.103   3.737  0.4673 -0.4654 -1.3484
 2418SOL     OW18886   3.985   0.664   3.459 -0.4953 -0.0226 -0.4460
 2418SOL    HW118887   4.037   0.742   3.479  1.3312 -1.6162  1.0399
 2418SOL    HW218888   4.042   0.591   3.483 -0.1094  0.9970  1.7683
 2419SOL     OW18889   0.438   0.287  16.411  1.2864  0.1264 -0.1516
 2419SOL    HW118890   0.519   0.294  16.361  0.3869 -0.9885 -1.7687
 2419SOL    HW218891   0.458   0.350  16.480 -2.3453  0.4729  0.5839
 2420SOL     OW18892   4.134   3.927   2.655  0.4951 -0.1040  0.1835
 2420SOL    HW118893   4.161   3.979   2.579 -0.5426  1.2689  0.7427
 2420SOL    HW218894   4.102   3.999   2.709  1.1336 -0.7503  1.4247
 2421SOL     OW18895   4.519   3.475   4.395  0.4027 -0.3568 -0.1902
 2421SOL    HW118896   4.438   3.448   4.353 -0.5881  0.9351  0.8794
 2421SOL    HW218897   4.561   3.393   4.421 -0.0907 -0.8680 -1.0243
 2422SOL     OW18898   1.990   2.761  10.245  0.1065  0.7935 -0.4473
 2422SOL    HW118899   2.016   2.843  10.287  1.1312  0.7189 -0.9230
 2422SOL    HW218900   2.056   2.699  10.276 -0.0732  0.2769 -1.0929
 2423SOL     OW18901   2.609   2.016  14.051 -0.2522 -0.0885  0.1288
 2423SOL    HW118902   2.691   1.968  14.061  1.0891  1.5580 -2.9336
 2423SOL    HW218903   2.575   1.980  13.968  1.0325  1.3981 -1.0409
 2424SOL     OW18904   2.065   0.280   9.625  0.0664 -0.1803 -0.0927
 2424SOL    HW118905   2.113   0.291   9.543  1.0368  2.4159  0.8300
 2424SOL    HW218906   2.044   0.370   9.651  1.1585  0.4531 -1.4494
 2425SOL     OW18907   4.218   1.025  10.696 -0.3244 -0.1712  0.7132
 2425SOL    HW118908   4.160   0.992  10.765 -0.3442  0.6073  1.0690
 2425SOL    HW218909   4.285   0.957  10.687  0.0408  0.2363  0.3953
 2426SOL     OW18910   1.208   4.445  11.062  0.4488  0.5907 -0.0854
 2426SOL    HW118911   1.172   4.508  11.124  1.0203  0.9402 -0.1107
 2426SOL    HW218912   1.179   4.367  11.109  2.1307  0.5941  0.9531
 2427SOL     OW18913   3.764   2.876   4.060  0.6594  0.3969  0.3714
 2427SOL    HW118914   3.691   2.907   4.113  1.8423  1.5041  1.3685
 2427SOL    HW218915   3.728   2.810   4.001  1.0753 -0.1451  0.7276
 2428SOL     OW18916   3.577   3.674   2.945 -0.5534  0.5789  0.3091
 2428SOL    HW118917   3.569   3.634   3.032 -3.6575  0.5940  0.0223
 2428SOL    HW218918   3.656   3.631   2.912 -0.5501  0.3328  0.6270
 2429SOL     OW18919   4.303   1.807   7.296  0.0209  0.1115 -0.3932
 2429SOL    HW118920   4.371   1.848   7.349 -1.9122  1.2946  1.1823
 2429SOL    HW218921   4.359   1.762   7.234  0.4360 -2.2760  1.7091
 2430SOL     OW18922   0.789   1.815   4.419  0.2816  0.0469  0.5681
 2430SOL    HW118923   0.769   1.889   4.476  1.0600  0.1248  0.7484
 2430SOL    HW218924   0.802   1.757   4.494  0.4147  0.3951  0.8197
 2431SOL     OW18925   1.624   0.582   5.654 -0.1045 -0.1258 -0.1023
 2431SOL    HW118926   1.601   0.501   5.700  1.5294  0.7030  2.1888
 2431SOL    HW218927   1.691   0.623   5.709 -1.6203  2.2018  0.0356
 2432SOL     OW18928   2.184   0.334   1.927 -0.3100 -0.0916  0.1932
 2432SOL    HW118929   2.108   0.386   1.952 -1.2003 -0.6484 -1.2902
 2432SOL    HW218930   2.251   0.393   1.891  0.7375 -1.6171 -0.3666
 2433SOL     OW18931   1.894   1.537   3.881  0.3003 -0.1795 -0.0592
 2433SOL    HW118932   1.918   1.479   3.952 -1.2291 -3.8796 -2.5839
 2433SOL    HW218933   1.860   1.475   3.817  2.3044 -0.7601 -0.5497
 2434SOL     OW18934   2.312   3.494   6.027 -0.2841 -0.5115  0.2691
 2434SOL    HW118935   2.394   3.477   5.980 -0.7003  1.3644 -1.1279
 2434SOL    HW218936   2.272   3.550   5.960  0.1268 -1.1247 -0.4922
 2435SOL     OW18937   0.480   4.253   7.660  0.3005  0.1020  0.2552
 2435SOL    HW118938   0.526   4.319   7.712 -0.6931  0.8082  0.2536
 2435SOL    HW218939   0.387   4.276   7.670  0.1809 -0.7812  1.2076
 2436SOL     OW18940   4.380   2.688   9.503 -0.2037 -0.5135  0.1248
 2436SOL    HW118941   4.350   2.662   9.590  1.6011 -0.5275  0.7432
 2436SOL    HW218942   4.317   2.642   9.447 -0.1839 -1.1449  0.6200
 2437SOL     OW18943   3.362   0.350   9.752  0.5287  0.0014 -0.0789
 2437SOL    HW118944   3.313   0.315   9.827 -2.2960  1.5896 -1.2266
 2437SOL    HW218945   3.389   0.267   9.712 -0.5964 -0.5434  0.3027
 2438SOL     OW18946   3.833   1.173   1.992  0.0283 -0.2873 -0.1690
 2438SOL    HW118947   3.833   1.226   1.912 -4.6362  0.5220  0.3764
 2438SOL    HW218948   3.887   1.104   1.954  0.4983  0.6604 -1.2134
 2439SOL     OW18949   2.825   0.470   7.229 -0.1485 -0.0959 -0.6979
 2439SOL    HW118950   2.856   0.391   7.184 -0.5365  0.9970 -2.8532
 2439SOL    HW218951   2.843   0.538   7.164  0.4924  0.4128  0.0233
 2440SOL     OW18952   2.188   0.444   5.761  0.4751  0.1569  0.2803
 2440SOL    HW118953   2.254   0.511   5.747  0.7315  0.0218  0.8163
 2440SOL    HW218954   2.212   0.397   5.841 -1.3460 -1.3699 -0.0581
 2441SOL     OW18955   3.704   3.374   7.808  0.7580  0.4841  0.2049
 2441SOL    HW118956   3.795   3.359   7.831 -0.0562 -0.1653  2.9843
 2441SOL    HW218957   3.691   3.336   7.721 -0.7970 -0.3108  0.7707
 2442SOL     OW18958   4.485   2.593   3.778  0.4718 -0.3562 -0.0910
 2442SOL    HW118959   4.403   2.609   3.824  0.3298 -0.3136 -0.3568
 2442SOL    HW218960   4.524   2.681   3.777 -0.2423 -0.0237  1.0632
 2443SOL     OW18961   1.699   3.501  14.628  0.0856 -0.4947  0.0715
 2443SOL    HW118962   1.656   3.462  14.552 -0.7015  0.5582 -0.0216
 2443SOL    HW218963   1.734   3.582  14.591 -0.3284  0.3392  1.4726
 2444SOL     OW18964   4.427   2.872   1.810 -0.0418  0.3411 -1.0446
 2444SOL    HW118965   4.462   2.809   1.747 -0.0393 -0.2068 -0.5006
 2444SOL    HW218966   4.439   2.822   1.891  0.7466  1.6516 -0.3513
 2445SOL     OW18967   4.395   2.114   5.046  0.2549 -0.2483  0.5669
 2445SOL    HW118968   4.401   2.209   5.040 -1.6321 -0.2053 -0.8200
 2445SOL    HW218969   4.469   2.094   5.103  1.2580 -0.2447 -0.7221
 2446SOL     OW18970   4.391   1.968   9.434 -0.4910  0.5902 -0.5287
 2446SOL    HW118971   4.346   1.952   9.516  1.8396  0.4747  0.7214
 2446SOL    HW218972   4.461   2.031   9.450 -0.7581  0.6842  0.2361
 2447SOL     OW18973   1.167   4.317   2.827 -0.0531  0.1252 -0.4771
 2447SOL    HW118974   1.160   4.406   2.860 -0.0798 -0.6081  1.4561
 2447SOL    HW218975   1.078   4.282   2.819  0.0687 -0.2426 -0.2114
 2448SOL     OW18976   2.366   1.236  11.624 -0.1819  0.4968 -0.5599
 2448SOL    HW118977   2.436   1.226  11.559 -1.4130 -1.4501 -1.5842
 2448SOL    HW218978   2.398   1.304  11.683  1.5235  0.3448 -1.3027
 2449SOL     OW18979   0.716   2.253   8.367  0.3372 -0.0460 -0.5102
 2449SOL    HW118980   0.717   2.349   8.361 -2.7329  0.0471  0.0466
 2449SOL    HW218981   0.642   2.226   8.311  1.3294  0.3377 -2.0118
 2450SOL     OW18982   3.051   2.149   7.327  0.3128 -0.0111  0.3168
 2450SOL    HW118983   3.050   2.197   7.410 -0.1382  0.5902 -0.0339
 2450SOL    HW218984   3.071   2.224   7.271  3.8021  0.3965  2.0983
 2451SOL     OW18985   1.836   3.770   7.539  0.0572  0.1345 -0.2795
 2451SOL    HW118986   1.824   3.847   7.485 -0.7586  0.9331  1.0349
 2451SOL    HW218987   1.743   3.760   7.560  0.6808 -2.1214  1.4762
 2452SOL     OW18988   2.203   2.950   8.067 -0.1721 -0.4888 -0.2761
 2452SOL    HW118989   2.153   2.918   7.991  2.3186 -0.0147 -2.1091
 2452SOL    HW218990   2.146   2.930   8.141  0.4692 -0.3005  0.2606
 2453SOL     OW18991   3.487   1.213   1.806  0.3697  0.1043  0.4289
 2453SOL    HW118992   3.576   1.209   1.840  0.9953 -1.9837 -1.4584
 2453SOL    HW218993   3.485   1.303   1.838  1.8862  0.4116 -0.3496
 2454SOL     OW18994   4.261   4.309   2.331 -0.6464 -0.3729  0.2392
 2454SOL    HW118995   4.220   4.285   2.248  1.1861  0.0634 -0.7963
 2454SOL    HW218996   4.319   4.377   2.297 -1.1851 -0.5575 -1.0316
 2455SOL     OW18997   3.179   1.886   3.867  0.5879 -0.3519  0.5025
 2455SOL    HW118998   3.099   1.833   3.875 -0.1841  0.7224 -0.2211
 2455SOL    HW218999   3.202   1.886   3.960  2.0120  1.6178  0.1343
 2456SOL     OW19000   3.779   0.142   3.435 -0.2311 -0.0900  0.2273
 2456SOL    HW119001   3.782   0.233   3.465 -0.5319  0.0064 -0.0353
 2456SOL    HW219002   3.709   0.095   3.480  0.3248 -1.7078 -0.5915
 2457SOL     OW19003   3.637   0.862   4.971 -0.0875  0.7395 -0.2117
 2457SOL    HW119004   3.545   0.843   4.988  0.2340  0.6419  1.3994
 2457SOL    HW219005   3.630   0.898   4.883  1.2886  0.4570 -0.4443
 2458SOL     OW19006   2.083   3.862   1.165 -0.2539 -0.2318  1.0155
 2458SOL    HW119007   2.110   3.775   1.196  2.1180  0.3797  0.6642
 2458SOL    HW219008   1.989   3.851   1.179 -0.2337 -1.1951  0.4025
 2459SOL     OW19009   1.108   3.567   3.217  0.1680 -0.5254 -0.0753
 2459SOL    HW119010   1.112   3.583   3.123  0.4820 -0.5146 -0.0604
 2459SOL    HW219011   1.057   3.487   3.226 -2.2334  1.0217  0.0515
 2460SOL     OW19012   1.836   1.033   4.187 -0.0023 -0.3428  0.0986
 2460SOL    HW119013   1.800   1.030   4.276 -1.9066  2.7128 -0.5918
 2460SOL    HW219014   1.924   1.067   4.205 -1.1401  3.2335 -1.2366
 2461SOL     OW19015   3.094   1.830   2.361  0.0115  0.4243 -0.1043
 2461SOL    HW119016   3.032   1.900   2.339 -0.7105 -0.0318  0.4630
 2461SOL    HW219017   3.052   1.754   2.320 -0.1851  0.1524  0.6013
 2462SOL     OW19018   2.271   1.504  12.746  0.4317 -0.1503  0.5693
 2462SOL    HW119019   2.180   1.486  12.772  0.5442 -0.1301  0.9817
 2462SOL    HW219020   2.273   1.599  12.759 -1.6474  0.1497 -1.3381
 2463SOL     OW19021   1.455   3.163   5.281 -0.3396 -0.1636 -0.2255
 2463SOL    HW119022   1.467   3.171   5.376  3.3302  0.0658 -0.7232
 2463SOL    HW219023   1.360   3.155   5.287 -0.0137 -1.2134  3.2019
 2464SOL     OW19024   3.896   4.132   2.231 -0.3450 -0.6423 -0.0033
 2464SOL    HW119025   3.961   4.112   2.164  0.4792 -1.4263  1.0432
 2464SOL    HW219026   3.897   4.052   2.282 -1.8378 -0.3291  0.5076
 2465SOL     OW19027   1.221   1.483   4.454  0.8995  0.1015 -0.3362
 2465SOL    HW119028   1.175   1.527   4.383  0.5505 -0.7711 -0.6450
 2465SOL    HW219029   1.285   1.425   4.413  0.9189  2.1978 -3.2550
 2466SOL     OW19030   1.234   3.116   6.017  0.0930  0.0164  0.0333
 2466SOL    HW119031   1.247   3.181   6.086 -0.6842  0.8745 -0.6297
 2466SOL    HW219032   1.215   3.034   6.062 -0.0406 -1.7170 -3.2025
 2467SOL     OW19033   2.563   3.302   6.599 -0.1747 -0.3941 -0.1119
 2467SOL    HW119034   2.495   3.236   6.596  0.5620 -1.1221 -0.7259
 2467SOL    HW219035   2.518   3.372   6.647  1.3981 -0.6364  1.7333
 2468SOL     OW19036   0.180   2.142   1.264 -0.4059  0.0362 -0.3542
 2468SOL    HW119037   0.167   2.047   1.258  1.3129 -0.1647 -0.8583
 2468SOL    HW219038   0.255   2.147   1.323  0.4320  0.3130 -1.4457
 2469SOL     OW19039   4.461   3.187   5.781 -0.0831  0.4631 -0.7093
 2469SOL    HW119040   4.367   3.173   5.799  0.0552 -0.7659 -0.9543
 2469SOL    HW219041   4.472   3.282   5.792  2.3985 -0.0718  1.3548
 2470SOL     OW19042   0.116   4.209   7.069  0.3713  0.1889  0.0128
 2470SOL    HW119043   0.089   4.120   7.091 -1.8326  0.0806 -3.0899
 2470SOL    HW219044   0.153   4.221   7.156  0.9205 -1.7374  0.0566
 2471SOL     OW19045   4.583   0.915   7.945  0.0653 -0.3971 -0.1312
 2471SOL    HW119046   4.635   0.984   7.904  0.0357  0.9096  1.9835
 2471SOL    HW219047   4.494   0.948   7.950  0.1816 -0.4604  2.6308
 2472SOL     OW19048   3.090   2.965   3.501  0.0055 -0.1085  0.0150
 2472SOL    HW119049   3.027   2.930   3.438  1.0977 -0.5912 -0.8237
 2472SOL    HW219050   3.024   3.013   3.549 -0.8772 -2.1457  0.8418
 2473SOL     OW19051   2.954   0.834   3.707  0.2267 -0.4359  0.2651
 2473SOL    HW119052   3.004   0.887   3.770 -0.6718 -0.1628  0.7548
 2473SOL    HW219053   3.006   0.754   3.700  0.0936 -0.4398 -0.6015
 2474SOL     OW19054   2.998   2.708   5.195  0.1116 -0.7320 -0.5440
 2474SOL    HW119055   3.049   2.682   5.118 -1.0989 -0.5447 -1.3933
 2474SOL    HW219056   2.908   2.692   5.167  0.6062 -2.5714 -1.0802
 2475SOL     OW19057   4.450   0.861   4.525  0.4120  0.2822 -0.4730
 2475SOL    HW119058   4.500   0.889   4.602  2.4583 -2.1510 -0.9442
 2475SOL    HW219059   4.437   0.768   4.543  0.3240  0.1687 -1.1305
 2476SOL     OW19060   0.702   1.100   6.042 -0.3768 -0.5071  0.7602
 2476SOL    HW119061   0.781   1.148   6.067 -2.3574  1.3296  3.6060
 2476SOL    HW219062   0.639   1.153   6.091  0.8185  0.3101  1.4245
 2477SOL     OW19063   0.407   2.095   7.749  0.5511 -0.6487 -0.0567
 2477SOL    HW119064   0.421   2.019   7.691  1.1542 -0.4014 -0.2314
 2477SOL    HW219065   0.475   2.152   7.713  0.6895 -0.3809  0.6406
 2478SOL     OW19066   3.470   1.529   5.855  0.3641  0.3308 -0.1673
 2478SOL    HW119067   3.556   1.563   5.829  0.3881 -0.7681 -1.5775
 2478SOL    HW219068   3.433   1.519   5.767 -0.2396  0.2186  0.1041
 2479SOL     OW19069   4.358   3.235   2.580 -0.5437 -0.2590 -0.0643
 2479SOL    HW119070   4.278   3.213   2.629 -1.4224  3.0136 -0.0038
 2479SOL    HW219071   4.419   3.217   2.651  0.2797  0.2776 -0.6378
 2480SOL     OW19072   4.529   4.180   7.022  0.2502 -0.7069  0.4685
 2480SOL    HW119073   4.440   4.167   7.055 -1.0003 -1.1313 -3.0243
 2480SOL    HW219074   4.562   4.090   7.028  0.5349 -0.8557 -3.1605
 2481SOL     OW19075   4.169   1.754   3.175 -0.6194  0.7469  0.2305
 2481SOL    HW119076   4.094   1.788   3.126 -0.0294  0.0619 -1.1406
 2481SOL    HW219077   4.238   1.753   3.109  0.7646 -0.0531  1.7120
 2482SOL     OW19078   1.327   1.850   7.064  0.5266  0.3995 -0.2506
 2482SOL    HW119079   1.354   1.787   6.998  0.2749  0.8457 -0.7737
 2482SOL    HW219080   1.329   1.791   7.139 -1.1087  2.1790  1.2192
 2483SOL     OW19081   1.082   4.058   8.012 -0.0851  0.2076 -0.4861
 2483SOL    HW119082   1.173   4.088   8.002 -0.9127  3.1123  0.5360
 2483SOL    HW219083   1.061   4.123   8.080 -1.1562  0.5386 -1.1448
 2484SOL     OW19084   3.860   2.103  12.283  0.3614  0.0939 -0.2051
 2484SOL    HW119085   3.866   2.186  12.235 -0.2214 -0.5488 -1.3963
 2484SOL    HW219086   3.943   2.090  12.328 -0.3523 -0.6810  0.8629
 2485SOL     OW19087   0.162   1.862   2.617  0.2797  0.2395  0.5206
 2485SOL    HW119088   0.254   1.838   2.600  0.1934  1.9808 -2.3329
 2485SOL    HW219089   0.149   1.834   2.708  1.4200  0.0143  0.6165
 2486SOL     OW19090   2.912   0.759   1.390  0.1758 -0.1514 -0.6092
 2486SOL    HW119091   2.997   0.716   1.380 -0.6288 -2.1931  1.3728
 2486SOL    HW219092   2.861   0.703   1.448 -1.9876  1.6001 -0.8042
 2487SOL     OW19093   3.245   1.272  15.074 -0.3713 -0.0447  0.4865
 2487SOL    HW119094   3.212   1.189  15.108  0.3568 -1.3483 -1.9873
 2487SOL    HW219095   3.311   1.290  15.141  1.1253 -0.8651 -0.7737
 2488SOL     OW19096   3.850   1.484   6.912  0.1416  0.1044 -0.0764
 2488SOL    HW119097   3.812   1.539   6.843  0.4794 -0.0072 -0.3524
 2488SOL    HW219098   3.877   1.410   6.857 -0.9701  0.4106 -1.0427
 2489SOL     OW19099   4.289   0.253   9.446 -0.3202  0.0583 -0.8082
 2489SOL    HW119100   4.226   0.315   9.410 -0.5224 -1.0411 -2.3184
 2489SOL    HW219101   4.252   0.242   9.534 -1.8375  1.2142 -1.3066
 2490SOL     OW19102   4.324   0.588   6.463 -0.0202 -0.0121  0.3546
 2490SOL    HW119103   4.306   0.634   6.545  3.6170 -1.5064  1.9935
 2490SOL    HW219104   4.289   0.501   6.479  0.0769 -0.3537 -1.2329
 2491SOL     OW19105   4.034   3.485   5.172  0.1483  0.0871  0.2055
 2491SOL    HW119106   3.994   3.572   5.171 -1.1332 -0.5060 -0.1784
 2491SOL    HW219107   3.985   3.440   5.104 -0.4974 -0.0724  0.7733
 2492SOL     OW19108   1.593   4.637   8.022 -0.4073  0.2725  0.2129
 2492SOL    HW119109   1.590   4.604   8.111 -1.1567  0.3044  0.2054
 2492SOL    HW219110   1.585   4.732   8.033  2.0845  0.6324 -1.0369
 2493SOL     OW19111   2.211   3.025   8.870  0.6075 -0.3017 -0.0828
 2493SOL    HW119112   2.163   2.947   8.846 -0.1055  0.2102 -0.3154
 2493SOL    HW219113   2.285   3.018   8.810  0.3179  1.7671 -0.6803
 2494SOL     OW19114   3.545   3.180  14.210  0.2515  0.6865  0.8681
 2494SOL    HW119115   3.579   3.125  14.280  0.1809 -0.4510  0.0085
 2494SOL    HW219116   3.629   3.220  14.187  1.4019 -2.4803 -0.4095
 2495SOL     OW19117   1.385   1.931   2.070  0.7295  0.5155  0.1744
 2495SOL    HW119118   1.292   1.946   2.051  0.2919 -0.5655  1.5331
 2495SOL    HW219119   1.417   1.941   1.980  1.4192  0.5404  0.4272
 2496SOL     OW19120   4.698   1.134   4.488  0.1343 -0.6115 -0.0593
 2496SOL    HW119121   4.707   1.221   4.527 -2.9348  0.5139 -1.7807
 2496SOL    HW219122   4.604   1.127   4.505 -0.2409 -2.3008 -2.8426
 2497SOL     OW19123   2.559   4.044  15.949 -0.0705 -0.3916  0.3979
 2497SOL    HW119124   2.600   4.126  15.922 -3.5756  1.1160 -0.2266
 2497SOL    HW219125   2.620   4.015  16.017 -0.2246  0.3548  0.8522
 2498SOL     OW19126   3.131   0.830  16.033 -0.3912 -0.4791 -0.2474
 2498SOL    HW119127   3.217   0.871  16.038 -1.1417  0.9679  0.4895
 2498SOL    HW219128   3.157   0.739  16.049 -1.5743 -1.0227 -1.3968
 2499SOL     OW19129   3.270   3.825   8.012 -0.1347  0.1139  0.1206
 2499SOL    HW119130   3.280   3.842   8.106  0.2706 -1.2871  0.3309
 2499SOL    HW219131   3.248   3.732   8.013  1.6212 -0.2987  0.7139
 2500SOL     OW19132   3.469   0.014   1.047  0.2652  0.2839  0.3035
 2500SOL    HW119133   3.565   0.009   1.045  0.2363 -0.6086  1.2528
 2500SOL    HW219134   3.457   0.003   0.952 -0.6401  0.2410  0.4225
 2501SOL     OW19135   0.310   2.387   7.809 -0.0510  0.2008  0.2390
 2501SOL    HW119136   0.257   2.346   7.740  0.6362  0.9571 -0.7368
 2501SOL    HW219137   0.382   2.326   7.822  0.0246 -0.0931 -1.4919
 2502SOL     OW19138   0.058   3.083   9.249  0.1041 -0.2093 -0.2919
 2502SOL    HW119139   0.059   3.139   9.171  0.3121  3.0367  2.0570
 2502SOL    HW219140   0.122   3.016   9.223 -1.8473 -1.7078 -1.1734
 2503SOL     OW19141   0.894   0.106   6.858 -0.3065  0.5594  0.0110
 2503SOL    HW119142   0.907   0.174   6.792  0.4462 -1.6576 -2.1152
 2503SOL    HW219143   0.937   0.035   6.810 -0.5221  2.4995 -3.0341
 2504SOL     OW19144   4.673   3.746   1.124  0.7584 -0.5643 -0.5657
 2504SOL    HW119145   4.687   3.728   1.217 -3.8255  1.4190  0.4867
 2504SOL    HW219146   4.578   3.755   1.114  0.6265 -1.8064 -0.5300
 2505SOL     OW19147   4.071   4.507  12.068 -0.4183 -0.3737 -0.5399
 2505SOL    HW119148   4.143   4.513  12.130  0.2610  1.8021 -1.5204
 2505SOL    HW219149   4.049   4.595  12.038 -1.9278 -0.8955 -0.9292
 2506SOL     OW19150   1.009   3.145   7.907  0.7893 -0.1840 -0.1218
 2506SOL    HW119151   1.018   3.168   7.999  1.0661  2.0333 -0.7145
 2506SOL    HW219152   0.994   3.051   7.914  2.8050 -0.5440 -0.4293
 2507SOL     OW19153   3.010   2.491   4.829 -0.1113 -0.0185 -0.0333
 2507SOL    HW119154   3.017   2.396   4.820  0.0905 -0.0805  0.7358
 2507SOL    HW219155   3.027   2.519   4.739  1.4606  2.4446  1.0287
 2508SOL     OW19156   1.147   1.006   9.780  0.2978 -0.8841 -0.1944
 2508SOL    HW119157   1.210   1.024   9.710 -0.8479  2.1367 -0.4608
 2508SOL    HW219158   1.191   0.930   9.819 -0.9741 -0.9936  1.0342
 2509SOL     OW19159   1.187   0.726   9.842 -0.2923 -0.0955 -0.3575
 2509SOL    HW119160   1.136   0.652   9.809 -0.7678  0.1561 -0.1860
 2509SOL    HW219161   1.245   0.744   9.768 -0.1178 -3.4182 -1.0179
 2510SOL     OW19162   1.016   2.178   0.569 -0.2348 -0.3749  0.0533
 2510SOL    HW119163   1.072   2.230   0.627 -0.9660  0.1306  0.3056
 2510SOL    HW219164   0.967   2.134   0.639 -1.4646  1.3984  0.3068
 2511SOL     OW19165   1.774   3.717   9.865 -0.0528 -0.0805 -0.2536
 2511SOL    HW119166   1.717   3.655   9.911 -0.1356 -1.0735 -1.7260
 2511SOL    HW219167   1.720   3.796   9.864 -0.4807 -0.3501  1.1597
 2512SOL     OW19168   2.405   1.009   3.237  0.2200 -0.4742  0.4657
 2512SOL    HW119169   2.397   0.914   3.237  1.9608 -0.6204  1.5423
 2512SOL    HW219170   2.468   1.023   3.307 -1.1615  1.3299  1.3511
 2513SOL     OW19171   2.844   3.885   7.328 -0.5219  0.0392 -0.2950
 2513SOL    HW119172   2.772   3.943   7.304 -1.3533 -1.2047 -0.7609
 2513SOL    HW219173   2.871   3.929   7.409 -0.7320  0.6019 -0.5325
 2514SOL     OW19174   0.231   4.660  12.452  0.6561 -0.2798  0.0558
 2514SOL    HW119175   0.155   4.650  12.395  2.1847  1.4022 -2.3015
 2514SOL    HW219176   0.238   4.572  12.488  3.0371 -0.3758 -0.6614
 2515SOL     OW19177   0.611   0.180  12.137 -0.2190 -0.4306  0.3116
 2515SOL    HW119178   0.560   0.157  12.060 -0.2458  0.5449  0.0433
 2515SOL    HW219179   0.549   0.164  12.208 -0.9430 -2.6903 -0.8316
 2516SOL     OW19180   1.256   3.746  12.031 -0.5773 -0.5406  0.1667
 2516SOL    HW119181   1.279   3.816  12.091  1.2643  2.3059 -3.8710
 2516SOL    HW219182   1.173   3.713  12.065 -2.7780  1.2892 -3.3588
 2517SOL     OW19183   1.293   0.917   9.557  0.1478 -0.2945 -0.0819
 2517SOL    HW119184   1.366   0.904   9.496 -1.1503  0.2620 -1.7752
 2517SOL    HW219185   1.348   0.923   9.634  1.3355 -2.3063 -0.7890
 2518SOL     OW19186   3.962   3.125   9.156 -0.4482 -0.2622 -0.1552
 2518SOL    HW119187   4.025   3.103   9.087 -0.3639 -1.3277  0.2667
 2518SOL    HW219188   3.899   3.174   9.103 -1.3831  0.8727  2.0369
 2519SOL     OW19189   1.085   2.822   0.784  0.4379  0.1598 -0.0553
 2519SOL    HW119190   1.162   2.872   0.811  0.9711 -1.0765  0.7341
 2519SOL    HW219191   1.119   2.736   0.761 -1.4151 -0.6152  0.1126
 2520SOL     OW19192   0.195   2.466   7.434 -0.0406  0.3294 -0.3512
 2520SOL    HW119193   0.277   2.516   7.432  0.7270 -0.9509 -0.6113
 2520SOL    HW219194   0.136   2.537   7.458  0.1160  0.5273 -0.5518
 2521SOL     OW19195   1.673   1.552  15.320 -0.4275  0.2064  0.0258
 2521SOL    HW119196   1.621   1.496  15.377  1.1052  0.2919  1.5321
 2521SOL    HW219197   1.748   1.571  15.377  1.4953  0.8398 -2.6877
 2522SOL     OW19198   3.148   3.552  10.289 -0.2951  0.3206 -0.1094
 2522SOL    HW119199   3.195   3.481  10.246 -1.3156 -0.2623 -0.2611
 2522SOL    HW219200   3.216   3.619  10.293 -0.0524  0.1234 -0.8506
 2523SOL     OW19201   0.542   4.703   4.510  0.4611 -0.1604  0.2166
 2523SOL    HW119202   0.619   4.700   4.452  0.7812 -0.4618  0.6535
 2523SOL    HW219203   0.580   0.016   4.582 -1.0613  0.9923  0.1951
 2524SOL     OW19204   0.689   4.403   7.825  0.2736 -0.0792 -0.5288
 2524SOL    HW119205   0.728   4.475   7.874 -0.7715 -0.0552  0.2634
 2524SOL    HW219206   0.760   4.355   7.783 -0.7601 -1.1488 -1.0468
 2525SOL     OW19207   3.475   1.902   2.935  0.3415  0.1596  0.0046
 2525SOL    HW119208   3.477   1.806   2.941 -0.0053  0.1722  0.2915
 2525SOL    HW219209   3.514   1.915   2.849  0.3985 -3.0823 -0.4681
 2526SOL     OW19210   3.536   4.166   5.168  0.4259  0.2576  0.2109
 2526SOL    HW119211   3.528   4.222   5.091 -0.9968  0.2158  0.3341
 2526SOL    HW219212   3.445   4.137   5.173  0.3514  0.4425 -0.0658
 2527SOL     OW19213   1.149   2.626   4.317 -0.1764  0.0466  0.0614
 2527SOL    HW119214   1.159   2.530   4.316  1.0952  0.1987 -2.6682
 2527SOL    HW219215   1.056   2.648   4.315  0.5274  2.9087 -0.1960
 2528SOL     OW19216   2.921   0.669   8.859  0.0088 -0.1122  0.2701
 2528SOL    HW119217   2.982   0.596   8.866 -2.8286 -2.6637 -1.3999
 2528SOL    HW219218   2.947   0.714   8.939  0.1871 -0.5777  0.4740
 2529SOL     OW19219   1.498   3.157   9.003 -0.2810  0.2124 -0.1655
 2529SOL    HW119220   1.511   3.194   9.091 -0.6165  0.9155 -0.4175
 2529SOL    HW219221   1.495   3.063   9.023 -0.3739  0.3832  0.6283
 2530SOL     OW19222   1.156   2.543   0.659 -0.7674 -0.2257  0.4222
 2530SOL    HW119223   1.232   2.599   0.678 -0.0451 -0.9885 -0.2078
 2530SOL    HW219224   1.189   2.453   0.661  0.0340  0.1251  3.2437
 2531SOL     OW19225   1.109   0.872  15.858  0.3004 -0.5290  0.3799
 2531SOL    HW119226   1.016   0.858  15.840  0.9819 -2.2579 -1.7875
 2531SOL    HW219227   1.139   0.810  15.791 -0.7311  1.6387 -2.1214
 2532SOL     OW19228   0.427   1.996   4.336  0.1092  0.2601  0.0145
 2532SOL    HW119229   0.445   2.053   4.261 -1.2886  0.4308 -0.1917
 2532SOL    HW219230   0.500   1.934   4.339  0.2134  0.3792 -0.0262
 2533SOL     OW19231   3.972   0.642   1.478 -0.0759 -0.3802 -0.5665
 2533SOL    HW119232   3.965   0.667   1.570 -0.6140  0.5161 -0.8469
 2533SOL    HW219233   3.884   0.665   1.450  0.6220  1.8091 -0.9751
 2534SOL     OW19234   0.495   0.078  16.569 -0.0198 -0.1239 -0.1057
 2534SOL    HW119235   0.586   0.110  16.571  0.6642 -2.0146 -0.7375
 2534SOL    HW219236   0.455   0.148  16.517 -0.8099  0.5032  1.3677
 2535SOL     OW19237   4.046   0.847   1.152 -0.1249 -0.1424  0.1029
 2535SOL    HW119238   4.067   0.868   1.061 -0.7704 -0.2365 -0.0683
 2535SOL    HW219239   3.958   0.885   1.160 -0.4167 -0.5903 -0.9392
 2536SOL     OW19240   2.961   1.376   4.964  0.3983 -0.2616  0.3623
 2536SOL    HW119241   2.876   1.420   4.966  0.3169 -0.5068  2.0325
 2536SOL    HW219242   2.981   1.391   5.056  1.2867  0.8908 -0.0268
 2537SOL     OW19243   3.050   4.283   0.447 -0.0814  0.3570  0.0964
 2537SOL    HW119244   3.071   4.201   0.492 -1.9205 -0.6360 -0.8694
 2537SOL    HW219245   3.091   4.270   0.362 -0.7236  2.8350 -0.6173
 2538SOL     OW19246   4.077   2.050  12.431 -0.1039  0.2997 -0.0602
 2538SOL    HW119247   4.131   1.975  12.456  0.2130  1.2568  2.0737
 2538SOL    HW219248   4.139   2.117  12.458  2.1297 -2.0105  0.5677
 2539SOL     OW19249   4.676   0.491   9.926  0.0343 -0.0670  0.3323
 2539SOL    HW119250   4.714   0.574   9.953 -0.4659  0.0606  0.6538
 2539SOL    HW219251   4.689   0.492   9.831 -0.1072  0.2800  0.3179
 2540SOL     OW19252   3.998   0.180   5.164  0.5968  0.2709 -0.0593
 2540SOL    HW119253   4.013   0.111   5.100  0.7055  1.6438 -1.5154
 2540SOL    HW219254   3.998   0.258   5.108 -1.7262  0.3832  0.1051
 2541SOL     OW19255   0.678   1.553  13.711  0.0251 -0.3864  0.2059
 2541SOL    HW119256   0.611   1.562  13.779 -1.2455  2.9036 -1.5325
 2541SOL    HW219257   0.746   1.579  13.774 -0.6835  0.5255  0.5887
 2542SOL     OW19258   1.273   1.189   7.500  0.3106  0.1671 -0.5462
 2542SOL    HW119259   1.201   1.126   7.505 -3.3687  4.5163  1.1191
 2542SOL    HW219260   1.263   1.224   7.588 -1.0649 -2.3776  0.3021
 2543SOL     OW19261   0.380   3.701   2.282  0.4795  0.4216  0.2668
 2543SOL    HW119262   0.301   3.748   2.256  1.3266  0.8535 -1.5535
 2543SOL    HW219263   0.375   3.626   2.223 -0.7172 -0.6709  1.7698
 2544SOL     OW19264   1.840   3.460   6.597 -0.2846 -0.6168  0.3785
 2544SOL    HW119265   1.907   3.410   6.644 -0.0929  0.0919  0.8671
 2544SOL    HW219266   1.793   3.499   6.670 -2.2243 -1.0097 -0.6751
 2545SOL     OW19267   3.808   4.562   8.838 -0.3775  0.4606  0.4849
 2545SOL    HW119268   3.903   4.554   8.841 -0.4817  0.4895  3.6675
 2545SOL    HW219269   3.777   4.501   8.905 -0.0754  0.7603  0.8913
 2546SOL     OW19270   0.430   3.067  12.973  0.0790 -0.4871 -0.1134
 2546SOL    HW119271   0.359   3.031  12.920  0.8146  0.6195 -1.8492
 2546SOL    HW219272   0.469   3.137  12.920  0.4029 -1.4045 -1.0743
 2547SOL     OW19273   0.586   2.211   6.262  0.4004  0.9109 -0.0571
 2547SOL    HW119274   0.630   2.292   6.234 -0.4471  1.7827  1.1183
 2547SOL    HW219275   0.498   2.225   6.228  0.3172 -2.1483 -1.1092
 2548SOL     OW19276   0.713   2.971  10.163 -0.6034  0.4197 -0.8079
 2548SOL    HW119277   0.759   3.055  10.163 -1.3853  0.8641  2.2273
 2548SOL    HW219278   0.632   3.012  10.131 -1.0177 -1.5800 -2.2887
 2549SOL     OW19279   3.939   1.009   7.589 -0.2382  0.3068  0.0614
 2549SOL    HW119280   3.887   0.992   7.511 -0.5676  0.7845  0.1759
 2549SOL    HW219281   3.940   1.105   7.595 -0.8292  0.3212 -0.0353
 2550SOL     OW19282   3.912   1.504   7.510  0.1289 -0.1038  0.0711
 2550SOL    HW119283   3.984   1.535   7.455 -1.8155  0.6501 -2.0421
 2550SOL    HW219284   3.851   1.476   7.442 -0.0406  1.7095 -0.5435
 2551SOL     OW19285   0.491   0.059   2.385 -0.1823  0.0705 -0.0900
 2551SOL    HW119286   0.426   4.736   2.348  2.9074 -2.4738 -1.3401
 2551SOL    HW219287   0.471   0.048   2.478 -1.7348  0.5328 -0.3609
 2552SOL     OW19288   2.511   0.834   6.772  0.1585 -0.1552  0.3183
 2552SOL    HW119289   2.439   0.823   6.710  1.3924 -0.0104 -1.1300
 2552SOL    HW219290   2.478   0.770   6.835  0.0014 -0.9318 -0.5578
 2553SOL     OW19291   1.352   1.895   5.116 -0.8304  0.3333  0.3202
 2553SOL    HW119292   1.362   1.967   5.053 -2.0350  0.0336 -0.2152
 2553SOL    HW219293   1.262   1.862   5.107 -0.5448 -0.9566  2.1767
 2554SOL     OW19294   1.797   2.822   5.949  0.1894 -0.6375 -0.1475
 2554SOL    HW119295   1.849   2.786   6.021 -2.3911 -0.8024  1.6424
 2554SOL    HW219296   1.861   2.831   5.878  1.2387 -0.3246  0.8384
 2555SOL     OW19297   4.471   2.214   7.618  0.2201  0.0004 -0.3415
 2555SOL    HW119298   4.555   2.191   7.578  0.0328 -1.1219 -0.0886
 2555SOL    HW219299   4.413   2.239   7.546  0.3381  1.9597  0.2332
 2556SOL     OW19300   0.454   3.858   2.501 -0.2020 -0.1272 -0.4354
 2556SOL    HW119301   0.450   3.809   2.584 -1.6103  1.0986  0.2233
 2556SOL    HW219302   0.413   3.798   2.438 -1.1891  1.6731 -1.4948
 2557SOL     OW19303   2.849   1.749   4.322 -0.2050 -0.8276  0.3734
 2557SOL    HW119304   2.777   1.716   4.375  0.0701 -1.3336  0.4281
 2557SOL    HW219305   2.919   1.774   4.381 -1.0782  1.3223  0.5034
 2558SOL     OW19306   0.208   3.174  13.984  0.2378 -0.2600 -0.1929
 2558SOL    HW119307   0.210   3.079  13.986  0.1135 -0.2220  1.7371
 2558SOL    HW219308   0.114   3.189  13.978  0.2888  1.0850  2.0692
 2559SOL     OW19309   0.341   2.652   5.800  0.2503 -0.3578  0.0261
 2559SOL    HW119310   0.254   2.691   5.804  0.3620 -0.2087  1.0239
 2559SOL    HW219311   0.395   2.718   5.755 -0.8973  0.7958  0.3650
 2560SOL     OW19312   0.150   0.848   8.364 -0.1564  0.0206 -0.6608
 2560SOL    HW119313   0.067   0.869   8.321 -1.1035  0.0392  1.1628
 2560SOL    HW219314   0.197   0.931   8.364 -0.6806  0.3327  1.2819
 2561SOL     OW19315   1.236   2.292   7.658 -0.0350  0.0570 -0.7968
 2561SOL    HW119316   1.274   2.338   7.583  2.6475  1.4582  1.4220
 2561SOL    HW219317   1.173   2.353   7.697  0.6693  1.0277 -1.1776
 2562SOL     OW19318   1.176   2.332   1.607  0.2604  0.9964  0.3947
 2562SOL    HW119319   1.133   2.372   1.532  0.0639 -3.0909 -1.6818
 2562SOL    HW219320   1.244   2.286   1.558 -0.4926 -1.0438  1.2721
 2563SOL     OW19321   3.917   3.840  12.601  0.2232 -0.4146  0.5828
 2563SOL    HW119322   3.925   3.813  12.510 -1.9543 -0.2979  0.3393
 2563SOL    HW219323   3.928   3.934  12.594 -0.8654 -0.4226 -1.2437
 2564SOL     OW19324   1.851   2.352  11.854 -0.1116  0.2198 -0.2956
 2564SOL    HW119325   1.929   2.407  11.853  0.2165 -0.2363  0.6491
 2564SOL    HW219326   1.834   2.352  11.948  1.3156 -0.6903 -0.0405
 2565SOL     OW19327   0.787   4.328   8.105 -0.7864  0.4093 -0.0816
 2565SOL    HW119328   0.721   4.259   8.097  0.3020 -0.5882 -0.3157
 2565SOL    HW219329   0.735   4.409   8.111 -0.3007  0.8539 -2.1590
 2566SOL     OW19330   3.910   0.409   9.973  0.4466  0.2753  0.0174
 2566SOL    HW119331   3.815   0.415   9.987  0.2329 -0.8084 -0.9421
 2566SOL    HW219332   3.926   0.501   9.990  2.2016 -0.0244 -0.0904
 2567SOL     OW19333   0.960   2.139   1.908 -0.1591  0.0434  0.2411
 2567SOL    HW119334   0.870   2.158   1.933  0.6218  2.4984  1.1617
 2567SOL    HW219335   0.993   2.224   1.880  0.3941 -0.0303  0.6546
 2568SOL     OW19336   1.210   2.489  11.283  0.5005 -0.6651  0.5094
 2568SOL    HW119337   1.276   2.473  11.215 -0.8741 -3.0524 -0.2792
 2568SOL    HW219338   1.263   2.512  11.359 -2.2580  0.3421  2.0914
 2569SOL     OW19339   3.909   0.574   4.017  0.0299  0.1249  0.4892
 2569SOL    HW119340   3.919   0.605   4.107 -2.8061 -1.7765  1.4286
 2569SOL    HW219341   3.962   0.495   4.029  0.2467  0.0321 -1.0464
 2570SOL     OW19342   2.301   2.012  10.218 -0.3169  0.0802 -0.2142
 2570SOL    HW119343   2.318   2.048  10.130  0.7912  0.3853  0.1227
 2570SOL    HW219344   2.391   2.013  10.251 -1.0011  1.5713  1.5705
 2571SOL     OW19345   0.387   4.011   3.229  0.0114  0.4741  0.3247
 2571SOL    HW119346   0.427   4.081   3.281  0.1619  0.0852  0.7355
 2571SOL    HW219347   0.448   3.940   3.250 -0.9752 -0.8779 -1.3883
 2572SOL     OW19348   1.933   2.705  17.186 -0.1367  0.0764  0.2328
 2572SOL    HW119349   1.864   2.675  17.245 -0.1440  0.9910  0.6892
 2572SOL    HW219350   1.885   2.731  17.107  0.3528  1.2511  0.3227
 2573SOL     OW19351   3.197   0.277   3.912 -0.1051  0.4746 -0.3361
 2573SOL    HW119352   3.152   0.275   3.997  0.6102 -0.2381  0.0346
 2573SOL    HW219353   3.163   0.358   3.875 -1.1542  0.4372  0.5641
 2574SOL     OW19354   1.077   0.488   4.755 -0.2915  0.5479 -0.0045
 2574SOL    HW119355   1.172   0.495   4.762  0.0085  0.0376 -3.2580
 2574SOL    HW219356   1.039   0.569   4.787 -1.1313  0.4601 -0.7758
 2575SOL     OW19357   0.225   0.318   3.531 -1.0052 -0.2247 -0.0398
 2575SOL    HW119358   0.135   0.331   3.502 -0.9430  0.0298 -0.1190
 2575SOL    HW219359   0.226   0.372   3.610 -0.4327 -1.4143  0.7788
 2576SOL     OW19360   4.339   0.479   2.944  0.5415 -0.2446 -0.2368
 2576SOL    HW119361   4.383   0.524   2.871 -1.6185 -0.4162 -1.6318
 2576SOL    HW219362   4.276   0.546   2.970  1.5808  0.4914  0.4190
 2577SOL     OW19363   2.709   3.378   3.939 -0.4662 -0.8698  0.2299
 2577SOL    HW119364   2.792   3.420   3.915 -0.6505 -0.2679  0.6389
 2577SOL    HW219365   2.649   3.443   3.901  0.1868  0.4153  1.3858
 2578SOL     OW19366   0.350   1.510   9.159 -0.4588  0.1058 -0.3516
 2578SOL    HW119367   0.259   1.525   9.134 -0.7579  1.0643  1.3013
 2578SOL    HW219368   0.363   1.416   9.145 -0.6023 -0.1439  1.1672
 2579SOL     OW19369   0.359   2.083   1.492  0.2289 -0.1413  0.1677
 2579SOL    HW119370   0.333   2.062   1.582  0.6821  0.1005  0.3606
 2579SOL    HW219371   0.386   2.174   1.505  0.8243 -0.1737 -0.8386
 2580SOL     OW19372   3.800   2.590   5.471  0.2673  0.0957 -0.6012
 2580SOL    HW119373   3.782   2.614   5.561  2.5159  0.6495 -0.3041
 2580SOL    HW219374   3.733   2.635   5.420 -0.1513 -1.2299 -1.2375
 2581SOL     OW19375   1.794   0.910   8.013  0.7316  0.2627  0.3981
 2581SOL    HW119376   1.741   0.944   7.941  0.2524 -2.2667 -0.4666
 2581SOL    HW219377   1.839   0.842   7.961  0.1238  0.5805 -0.5513
 2582SOL     OW19378   0.549   4.693  17.239  0.0039 -0.4315  0.0408
 2582SOL    HW119379   0.604   4.617  17.259 -1.4358 -1.6605 -0.7716
 2582SOL    HW219380   0.610   0.022  17.205 -0.4519  0.1651  0.3755
 2583SOL     OW19381   4.555   1.168   2.428  0.7662  0.4322  0.4729
 2583SOL    HW119382   4.546   1.077   2.401 -1.0158  0.0743  2.3243
 2583SOL    HW219383   4.466   1.195   2.407  1.1081  2.2801  1.3965
 2584SOL     OW19384   2.358   1.775   7.475  0.3356  0.2200 -0.3631
 2584SOL    HW119385   2.320   1.760   7.561 -1.9671  2.7506 -0.9538
 2584SOL    HW219386   2.352   1.687   7.436 -1.0577 -0.6283  1.7558
 2585SOL     OW19387   2.294   1.683   7.881 -0.3411 -0.0316  0.8467
 2585SOL    HW119388   2.345   1.625   7.825  1.4067  1.1839  1.1928
 2585SOL    HW219389   2.278   1.626   7.956  0.1606 -2.9514 -1.2270
 2586SOL     OW19390   4.466   2.495   8.337  0.2801  0.1010 -0.1382
 2586SOL    HW119391   4.427   2.581   8.320  0.3104  0.5416  2.0531
 2586SOL    HW219392   4.535   2.523   8.397  1.0006  0.7540 -1.2643
 2587SOL     OW19393   2.327   1.326   0.145  0.0381 -0.5037 -0.0257
 2587SOL    HW119394   2.366   1.375   0.073  0.2685 -0.1539  0.3319
 2587SOL    HW219395   2.357   1.376   0.221  0.0343 -1.4598  0.6005
 2588SOL     OW19396   3.592   2.330   8.264  0.4292 -0.5126  0.0829
 2588SOL    HW119397   3.658   2.382   8.309 -0.1800  0.2691  0.0707
 2588SOL    HW219398   3.551   2.397   8.210 -0.9025 -0.8275  0.6927
 2589SOL     OW19399   3.536   4.065   6.179  0.2122  0.2357 -0.0594
 2589SOL    HW119400   3.513   4.069   6.087  1.7918 -0.1058 -0.4700
 2589SOL    HW219401   3.605   4.131   6.172  0.7857 -0.2024  1.3677
 2590SOL     OW19402   2.105   4.528   8.391  0.1871  0.1741 -0.2079
 2590SOL    HW119403   2.136   4.471   8.462 -1.0442  1.1019  1.0686
 2590SOL    HW219404   2.159   4.606   8.400 -1.3557  1.3477 -1.2327
 2591SOL     OW19405   0.234   3.294   9.579  0.1432  0.3793  0.4400
 2591SOL    HW119406   0.155   3.256   9.616 -0.2030 -1.8886 -2.6110
 2591SOL    HW219407   0.228   3.386   9.607  2.5825  1.1587 -1.5922
 2592SOL     OW19408   1.213   0.198   7.117 -0.3247  1.0560 -0.1756
 2592SOL    HW119409   1.260   0.240   7.045 -0.9609 -0.8739 -1.7315
 2592SOL    HW219410   1.272   0.203   7.192  0.0480 -0.2128 -0.3793
 2593SOL     OW19411   3.688   4.434  16.985 -0.2229 -0.6469 -0.1396
 2593SOL    HW119412   3.642   4.359  17.024  0.3483 -0.1958  1.3886
 2593SOL    HW219413   3.732   4.475  17.059 -0.2695  1.4457 -1.2877
 2594SOL     OW19414   1.018   2.830   3.037 -0.7998  0.4745  0.0837
 2594SOL    HW119415   1.072   2.843   3.114  1.5401  0.6636 -1.5798
 2594SOL    HW219416   1.078   2.769   2.993 -0.0899  1.7262 -0.7093
 2595SOL     OW19417   3.119   2.260  17.363  0.2499  0.2472  0.7096
 2595SOL    HW119418   3.123   2.214  17.446  0.4382 -2.0152 -0.5518
 2595SOL    HW219419   3.110   2.191  17.297  1.6957 -0.2692  1.0547
 2596SOL     OW19420   4.661   3.171  10.358 -0.4380 -0.5992 -0.1380
 2596SOL    HW119421   4.607   3.097  10.384 -2.9057  1.0633 -0.5284
 2596SOL    HW219422   4.655   3.228  10.435  0.6616 -0.5154 -0.1057
 2597SOL     OW19423   2.579   2.444   5.377  0.0229 -0.3469  0.4158
 2597SOL    HW119424   2.501   2.416   5.329  0.4983  1.6507 -1.4974
 2597SOL    HW219425   2.549   2.503   5.446  0.1454  1.3017 -0.9467
 2598SOL     OW19426   4.684   2.379  17.329  0.2161  0.2817 -0.3573
 2598SOL    HW119427   4.705   2.362  17.237 -0.9199  2.7733 -1.0778
 2598SOL    HW219428   4.669   2.474  17.330 -1.5555  0.0255 -2.0723
 2599SOL     OW19429   2.175   4.427   3.022  0.3126 -0.3130  0.6858
 2599SOL    HW119430   2.259   4.395   3.054  0.7433  1.7365  1.5850
 2599SOL    HW219431   2.174   4.515   3.059 -1.6588  0.5471 -1.3645
 2600SOL     OW19432   2.492   3.024   6.089  0.6424 -0.8027 -0.3647
 2600SOL    HW119433   2.536   3.093   6.138  1.6031 -1.6742 -0.0038
 2600SOL    HW219434   2.449   2.978   6.161 -0.0203 -0.4319 -0.5210
 2601SOL     OW19435   2.338   2.427   2.867  0.3239  0.6486 -0.0508
 2601SOL    HW119436   2.352   2.508   2.917  0.8995 -0.0619  0.9505
 2601SOL    HW219437   2.277   2.458   2.801  1.6506  5.2268  0.8978
 2602SOL     OW19438   0.816   2.021   4.959  0.0123 -0.2799 -0.1299
 2602SOL    HW119439   0.886   2.079   4.930 -1.0231  2.1759  2.2582
 2602SOL    HW219440   0.740   2.080   4.955  0.7332  0.6171 -0.4938
 2603SOL     OW19441   3.375   1.775   3.706 -0.1560  0.1761 -0.5346
 2603SOL    HW119442   3.297   1.789   3.759  0.1851 -1.1151  0.3118
 2603SOL    HW219443   3.431   1.731   3.770  0.2655  0.4389 -0.7242
 2604SOL     OW19444   3.313   0.173   4.717 -0.4685  0.3872  0.2852
 2604SOL    HW119445   3.398   0.216   4.722 -1.7386  3.1344 -1.6886
 2604SOL    HW219446   3.332   0.135   4.631 -0.0047 -0.4698  0.7678
 2605SOL     OW19447   0.879   3.384   7.480 -0.5507 -0.2698  0.2289
 2605SOL    HW119448   0.935   3.341   7.544 -0.2455 -0.6144 -0.2648
 2605SOL    HW219449   0.835   3.444   7.541  2.4302 -0.8281  2.8822
 2606SOL     OW19450   3.757   4.316  17.292  0.6317  0.1657  0.0233
 2606SOL    HW119451   3.698   4.284  17.223 -1.5613  0.4933  1.7191
 2606SOL    HW219452   3.829   4.255  17.278  1.4245  1.5524 -1.8887
 2607SOL     OW19453   3.634   0.659  10.104  0.1869  0.5978  0.4322
 2607SOL    HW119454   3.556   0.651  10.158 -0.2874 -0.3692 -0.3942
 2607SOL    HW219455   3.604   0.645  10.014 -0.7684  2.4507  0.4500
 2608SOL     OW19456   2.473   1.813   2.028  0.1945 -0.6027 -0.0022
 2608SOL    HW119457   2.463   1.738   1.970 -0.8695 -0.6704  0.2714
 2608SOL    HW219458   2.402   1.864   1.991  0.3450 -0.9860 -0.8164
 2609SOL     OW19459   1.375   2.275   8.118  0.1310 -0.2317 -0.3844
 2609SOL    HW119460   1.422   2.194   8.101 -0.1297 -0.6497  0.8542
 2609SOL    HW219461   1.291   2.234   8.140  0.8906 -1.0164  1.0367
 2610SOL     OW19462   3.652   2.437  15.035  0.9094 -0.1358  0.3645
 2610SOL    HW119463   3.731   2.489  15.028 -0.5976  1.9811 -0.8248
 2610SOL    HW219464   3.635   2.454  15.127 -0.5848  0.0442  0.0538
 2611SOL     OW19465   1.322   2.992   5.043 -0.0963  0.6213  0.1937
 2611SOL    HW119466   1.330   3.051   4.969  0.1832 -0.9888 -1.0468
 2611SOL    HW219467   1.233   3.000   5.079 -0.9286  1.0059 -1.9579
 2612SOL     OW19468   1.949   3.167  16.243  0.4206 -0.6896  0.0892
 2612SOL    HW119469   1.904   3.211  16.315 -2.4185 -0.6087 -1.7535
 2612SOL    HW219470   1.976   3.238  16.184  0.2191  0.5762  1.5048
 2613SOL     OW19471   0.732   4.548   2.480 -0.5024 -0.8851 -0.0258
 2613SOL    HW119472   0.760   4.635   2.450  0.6234 -0.1272  3.1733
 2613SOL    HW219473   0.672   4.537   2.407  0.7091 -2.7651 -0.7377
 2614SOL     OW19474   0.864   1.382   4.455  0.1400 -0.5642 -0.4430
 2614SOL    HW119475   0.934   1.412   4.398  0.7941 -3.8351 -1.3951
 2614SOL    HW219476   0.909   1.326   4.519  1.4387 -1.2023 -1.9141
 2615SOL     OW19477   4.197   1.601   6.498  0.6175 -0.4901 -0.1181
 2615SOL    HW119478   4.191   1.647   6.415  1.1981  2.5800  1.5092
 2615SOL    HW219479   4.161   1.660   6.564  1.1352  0.6742 -0.8797
 2616SOL     OW19480   2.338   4.617   5.381  0.1731  0.2140  0.5917
 2616SOL    HW119481   2.388   4.696   5.359  1.2697 -1.1309 -1.7877
 2616SOL    HW219482   2.255   4.639   5.338 -0.9537 -3.0464  1.1382
 2617SOL     OW19483   0.410   3.099   9.545  0.2058  0.3861  0.5009
 2617SOL    HW119484   0.363   3.040   9.603 -1.4364  1.3205  0.1238
 2617SOL    HW219485   0.349   3.173   9.545 -0.2665 -0.0174 -1.6869
 2618SOL     OW19486   4.479   3.163   9.425  0.5061 -0.0148  0.6362
 2618SOL    HW119487   4.408   3.130   9.369  1.0250  0.1541 -0.1192
 2618SOL    HW219488   4.526   3.224   9.367 -0.3022  1.3309  1.3813
 2619SOL     OW19489   1.055   3.079  13.293  0.5803 -0.5330 -0.3693
 2619SOL    HW119490   1.024   3.067  13.203 -2.0830  0.1966  0.4364
 2619SOL    HW219491   1.091   3.167  13.284 -0.4944 -0.1548 -1.0280
 2620SOL     OW19492   0.966   2.145   8.999 -0.2472 -0.3324 -0.1442
 2620SOL    HW119493   0.924   2.077   8.946  3.2028 -0.4774 -2.7362
 2620SOL    HW219494   1.042   2.169   8.946  0.7103  0.8298  1.7447
 2621SOL     OW19495   2.210   2.620   8.274 -0.0270 -0.0951  0.3768
 2621SOL    HW119496   2.116   2.619   8.292 -0.6437 -0.0558 -2.8540
 2621SOL    HW219497   2.239   2.678   8.344  1.1155  0.2255 -0.3624
 2622SOL     OW19498   3.134   1.443   5.639  0.5212 -0.0878  0.0796
 2622SOL    HW119499   3.129   1.422   5.732 -2.6116 -3.0783 -0.7480
 2622SOL    HW219500   3.066   1.384   5.607  1.1521 -0.7883  0.0370
 2623SOL     OW19501   2.943   2.240   4.161 -0.4787  0.1395 -0.3572
 2623SOL    HW119502   2.882   2.191   4.216 -1.2487  0.6063 -0.7940
 2623SOL    HW219503   3.006   2.171   4.144 -0.2661  0.1959  0.1901
 2624SOL     OW19504   3.177   2.108   0.304 -0.1284 -0.2705  0.0447
 2624SOL    HW119505   3.156   2.059   0.225  2.4499  1.9908 -2.0464
 2624SOL    HW219506   3.245   2.161   0.263  0.7616 -0.4377  1.2882
 2625SOL     OW19507   1.718   4.706   9.310  0.2005 -0.5290 -0.2419
 2625SOL    HW119508   1.752   0.018   9.234  1.9501 -3.6727 -1.4522
 2625SOL    HW219509   1.721   4.615   9.281  0.7291 -1.2022  1.9391
 2626SOL     OW19510   1.661   1.129   7.055  0.0709 -0.1977  0.3954
 2626SOL    HW119511   1.624   1.117   7.142 -1.7297 -3.8574 -0.8699
 2626SOL    HW219512   1.659   1.225   7.057  0.3881 -0.2124  1.4731
 2627SOL     OW19513   1.711   0.962   0.329 -0.5937 -0.1339  0.7342
 2627SOL    HW119514   1.782   1.022   0.306 -2.2519  0.6979 -2.1854
 2627SOL    HW219515   1.755   0.892   0.377 -1.0252  0.8949  2.6090
 2628SOL     OW19516   0.248   1.193   5.495  0.2097  0.4871  0.2554
 2628SOL    HW119517   0.173   1.182   5.554 -0.7848  2.2964 -0.6881
 2628SOL    HW219518   0.304   1.233   5.561  0.8568 -0.6681  0.4119
 2629SOL     OW19519   4.238   3.700   6.515 -0.2503  0.1135  0.3655
 2629SOL    HW119520   4.217   3.793   6.522  1.1162  0.5420 -1.1901
 2629SOL    HW219521   4.291   3.683   6.593 -2.1205 -2.2982  1.0972
 2630SOL     OW19522   2.251   0.313   4.709 -0.0550  0.5435 -0.3502
 2630SOL    HW119523   2.181   0.377   4.724 -0.1614  0.1292  0.9305
 2630SOL    HW219524   2.272   0.286   4.798  4.2240  0.3838 -1.4193
 2631SOL     OW19525   0.639   3.433  15.406 -0.2935  0.4208  0.5991
 2631SOL    HW119526   0.712   3.474  15.358 -0.6367  0.7921  0.3979
 2631SOL    HW219527   0.677   3.420  15.493 -3.5032  0.7000  2.0447
 2632SOL     OW19528   3.218   3.670   6.785 -0.6074  0.1919 -0.7354
 2632SOL    HW119529   3.197   3.580   6.809 -0.3455  0.7021  1.3646
 2632SOL    HW219530   3.195   3.668   6.692 -0.0252 -1.9138 -0.8423
 2633SOL     OW19531   3.085   4.730   4.476  0.3030  0.3605  0.1064
 2633SOL    HW119532   3.041   0.069   4.515  1.7489  0.6788  1.1018
 2633SOL    HW219533   3.102   4.675   4.552 -1.8347  0.8046  0.9111
 2634SOL     OW19534   2.324   0.718   4.634 -0.3238 -0.5536  0.0275
 2634SOL    HW119535   2.386   0.685   4.699  1.5923  0.6953 -1.1736
 2634SOL    HW219536   2.364   0.804   4.621  1.6114 -1.7366 -1.7600
 2635SOL     OW19537   1.346   2.894  12.661 -0.4506 -0.1390  0.4269
 2635SOL    HW119538   1.314   2.821  12.714 -1.8195 -1.3106 -2.0392
 2635SOL    HW219539   1.266   2.927  12.620 -1.0179 -2.2631 -0.1412
 2636SOL     OW19540   1.668   0.284  11.215  0.6934  0.1760 -0.7345
 2636SOL    HW119541   1.762   0.274  11.224  0.5183 -1.0843 -0.3301
 2636SOL    HW219542   1.667   0.300  11.121  1.2170  2.3130 -0.3825
 2637SOL     OW19543   1.716   2.515   9.205  0.2086 -0.4371  0.9520
 2637SOL    HW119544   1.790   2.481   9.256  2.2094  0.9330 -1.0593
 2637SOL    HW219545   1.688   2.436   9.160 -0.0796  0.0211  0.3341
 2638SOL     OW19546   3.191   2.017   3.276  0.0884 -0.0456  0.1920
 2638SOL    HW119547   3.222   2.074   3.205  0.6944 -0.0433  0.4627
 2638SOL    HW219548   3.256   2.017   3.346 -0.6145  0.9780  0.8311
 2639SOL     OW19549   1.815   3.524   6.352  0.5807 -0.0284  0.3261
 2639SOL    HW119550   1.841   3.616   6.357 -2.8766  0.9271  0.7382
 2639SOL    HW219551   1.820   3.492   6.441  0.6263 -1.9796 -0.3924
 2640SOL     OW19552   0.705   2.171   2.025  0.0209  0.2652 -0.1967
 2640SOL    HW119553   0.637   2.176   1.959  0.9813  0.4570 -1.1772
 2640SOL    HW219554   0.715   2.077   2.039 -0.9638  0.1012 -0.5943
 2641SOL     OW19555   2.903   0.561  17.222  0.3111  0.2740  0.4836
 2641SOL    HW119556   2.844   0.488  17.239 -0.0649  0.5647  0.4130
 2641SOL    HW219557   2.918   0.547  17.129  2.4544 -1.4508  1.0667
 2642SOL     OW19558   0.569   4.398   1.964 -0.6427  0.3655 -0.3112
 2642SOL    HW119559   0.595   4.333   1.898  0.5756 -0.7811  1.2865
 2642SOL    HW219560   0.528   4.462   1.906 -1.3314 -0.1410 -0.3846
 2643SOL     OW19561   1.869   2.870   8.455 -0.3110 -0.7767 -0.0738
 2643SOL    HW119562   1.956   2.894   8.486  0.9563 -1.7967 -2.8522
 2643SOL    HW219563   1.823   2.938   8.504 -0.3555  0.4853 -1.8716
 2644SOL     OW19564   0.776   2.156   1.647  0.0993  0.3052  0.2239
 2644SOL    HW119565   0.810   2.144   1.558  1.5850  0.8105  0.7274
 2644SOL    HW219566   0.860   2.161   1.693  0.6140 -0.6798 -0.5948
 2645SOL     OW19567   0.397   0.926   5.699  0.1283  0.7494  0.3348
 2645SOL    HW119568   0.438   1.008   5.728  1.2746  0.0544  0.6656
 2645SOL    HW219569   0.478   0.876   5.694  0.6831  1.6796 -0.1439
 2646SOL     OW19570   0.941   2.524   6.070  0.1865  0.4603  0.1840
 2646SOL    HW119571   0.975   2.573   5.996 -1.3857 -0.0448 -0.8826
 2646SOL    HW219572   0.994   2.445   6.057  1.2254  1.2806 -0.5494
 2647SOL     OW19573   1.794   4.702   2.894  0.0083 -0.3177 -0.0963
 2647SOL    HW119574   1.734   4.629   2.899 -1.1184  0.7044  1.4184
 2647SOL    HW219575   1.851   4.690   2.818  0.5488  1.0188  0.0849
 2648SOL     OW19576   1.476   2.169   1.176  0.3293  0.1628  1.0733
 2648SOL    HW119577   1.432   2.179   1.261 -0.9497 -1.3975  0.5923
 2648SOL    HW219578   1.536   2.103   1.211  1.3294 -0.0914 -1.1324
 2649SOL     OW19579   4.275   3.147   8.011 -0.2783  0.0668 -0.1013
 2649SOL    HW119580   4.248   3.237   8.030  0.2393 -0.2257  1.9803
 2649SOL    HW219581   4.238   3.100   8.086 -1.4028  2.0223  0.5851
 2650SOL     OW19582   4.466   1.012   1.748 -0.4930  0.0461 -0.0153
 2650SOL    HW119583   4.391   0.969   1.707  0.8328  0.4671 -2.8606
 2650SOL    HW219584   4.437   1.098   1.779  0.2055 -0.0957  1.0501
 2651SOL     OW19585   0.582   3.609   3.227  0.4337 -0.3470  0.1960
 2651SOL    HW119586   0.618   3.539   3.173 -0.6563  1.3312 -2.6768
 2651SOL    HW219587   0.498   3.566   3.241 -0.3805  1.7343  1.5731
 2652SOL     OW19588   4.479   0.263   9.072  0.6874  0.0181 -0.0305
 2652SOL    HW119589   4.544   0.246   9.140  1.1574 -0.2040 -0.5351
 2652SOL    HW219590   4.479   0.359   9.080 -0.6929  0.1407 -1.6386
 2653SOL     OW19591   1.694   0.395  17.693  0.2507 -0.1334 -0.5371
 2653SOL    HW119592   1.732   0.333  17.630  0.0638  1.4939 -2.2413
 2653SOL    HW219593   1.673   0.467  17.634  2.2359  0.9353  0.0800
 2654SOL     OW19594   1.423   2.686   9.441 -0.2681  0.8508  0.1350
 2654SOL    HW119595   1.340   2.731   9.421 -0.9174  0.1548  1.2589
 2654SOL    HW219596   1.474   2.747   9.494  0.2690 -0.1470  0.7665
 2655SOL     OW19597   3.868   3.698   5.620 -0.1989 -0.1691  0.4790
 2655SOL    HW119598   3.904   3.762   5.559  1.6824 -0.3467  1.3801
 2655SOL    HW219599   3.947   3.668   5.665 -0.3556  2.3267  2.4176
 2656SOL     OW19600   1.661   3.974   5.361 -0.8636 -0.7409 -0.1361
 2656SOL    HW119601   1.637   4.009   5.446 -0.5505  0.0466 -0.3724
 2656SOL    HW219602   1.584   3.929   5.324  0.7829 -1.7299 -2.3794
 2657SOL     OW19603   1.318   0.963   6.081  0.2340  0.1589  0.0761
 2657SOL    HW119604   1.328   1.056   6.100  0.6789  0.4829 -1.7036
 2657SOL    HW219605   1.228   0.952   6.111  1.4776 -1.0498  3.3965
 2658SOL     OW19606   0.166   0.909   3.081  0.3390 -0.4810 -0.0081
 2658SOL    HW119607   0.076   0.895   3.052  0.5440  0.3422 -1.0340
 2658SOL    HW219608   0.167   0.872   3.169  1.4842  2.4402  1.1991
 2659SOL     OW19609   3.101   2.690  14.928  0.1294 -0.6056  0.5009
 2659SOL    HW119610   3.173   2.750  14.909 -1.5606  0.9854 -0.9416
 2659SOL    HW219611   3.060   2.685  14.841 -0.6371  2.3048  0.7026
 2660SOL     OW19612   4.641   1.741   2.211  0.1237  0.2660  0.6592
 2660SOL    HW119613   4.563   1.794   2.193 -0.7305 -1.0569  0.4461
 2660SOL    HW219614   4.679   1.803   2.273  2.3773 -1.2405  0.7641
 2661SOL     OW19615   1.185   3.069  11.708  0.7982  0.6423  0.2746
 2661SOL    HW119616   1.107   3.123  11.726  0.3869  0.2029 -0.1858
 2661SOL    HW219617   1.150   2.983  11.730  2.3547  0.0015  0.2342
 2662SOL     OW19618   3.343   1.609   3.193  0.1836  0.9990 -0.0196
 2662SOL    HW119619   3.330   1.650   3.278 -0.1960 -1.3706  1.0677
 2662SOL    HW219620   3.312   1.676   3.132  1.5060 -0.4762 -2.3437
 2663SOL     OW19621   2.411   2.152  15.187  0.5256  0.0468  0.3484
 2663SOL    HW119622   2.364   2.104  15.255  2.0351  1.1518  2.1350
 2663SOL    HW219623   2.354   2.137  15.111  0.6268 -1.1843  0.5113
 2664SOL     OW19624   1.307   4.654   5.682 -0.2101  0.0715  0.4835
 2664SOL    HW119625   1.262   4.662   5.598  0.4225 -2.5406 -0.1225
 2664SOL    HW219626   1.288   4.561   5.696  0.1549  0.0722  0.9678
 2665SOL     OW19627   3.981   1.994   6.562 -0.3957 -0.3037  0.2240
 2665SOL    HW119628   3.913   1.948   6.512  0.7916 -1.9330  0.1136
 2665SOL    HW219629   4.036   1.927   6.602 -0.3425  0.7131  1.8467
 2666SOL     OW19630   1.393   1.029   4.712  0.0124  0.3033  0.1407
 2666SOL    HW119631   1.369   1.119   4.732  0.8108  0.5347  0.0495
 2666SOL    HW219632   1.307   0.986   4.711 -0.6439  1.5347  3.1228
 2667SOL     OW19633   2.431   2.852  12.950  0.6622  0.1590 -0.1950
 2667SOL    HW119634   2.516   2.809  12.939  1.3639  1.3293  0.6184
 2667SOL    HW219635   2.391   2.787  13.008  0.2100  0.9777  0.4146
 2668SOL     OW19636   0.136   3.918  12.271 -0.4185 -0.2927 -0.1458
 2668SOL    HW119637   0.048   3.935  12.238 -0.8448 -1.5474  0.3599
 2668SOL    HW219638   0.170   3.874  12.193  1.2494  1.0299 -0.1762
 2669SOL     OW19639   3.846   4.425  12.407  0.6507  0.2634 -0.0646
 2669SOL    HW119640   3.840   4.505  12.460 -4.2049 -0.4013  0.3943
 2669SOL    HW219641   3.755   4.400  12.424 -0.2877  2.7352 -1.3805
 2670SOL     OW19642   1.511   1.658   3.737  0.4546 -0.3760 -0.2401
 2670SOL    HW119643   1.528   1.686   3.647 -0.0834 -1.2296 -0.6010
 2670SOL    HW219644   1.596   1.680   3.774  0.2466  0.2294 -0.1117
 2671SOL     OW19645   3.598   2.274   1.069 -0.2871 -0.5513  0.4305
 2671SOL    HW119646   3.580   2.186   1.101  1.5402 -1.0793 -0.0043
 2671SOL    HW219647   3.692   2.283   1.051 -0.2295 -2.6056 -0.3650
 2672SOL     OW19648   0.984   3.067  13.658 -0.2849 -0.6279  0.5796
 2672SOL    HW119649   0.954   2.986  13.617 -2.6352  1.3381 -1.6161
 2672SOL    HW219650   0.917   3.130  13.631  0.9147  1.3644  2.2630
 2673SOL     OW19651   0.371   0.420  10.791 -0.4236 -0.0960 -0.0471
 2673SOL    HW119652   0.299   0.480  10.768 -0.5590  0.5827  2.1745
 2673SOL    HW219653   0.339   0.368  10.864  1.8951  1.5774  2.1538
 2674SOL     OW19654   2.063   2.450  11.646  0.1651  0.3162 -0.6374
 2674SOL    HW119655   2.157   2.439  11.638  0.2526 -0.5457  1.5050
 2674SOL    HW219656   2.058   2.463  11.741  0.1406  2.0638 -0.8790
 2675SOL     OW19657   2.656   0.643   4.813  0.4261  0.1798 -0.2715
 2675SOL    HW119658   2.605   0.567   4.784  1.0726 -0.3483 -0.0420
 2675SOL    HW219659   2.738   0.593   4.810  1.2661  1.4309  1.6551
 2676SOL     OW19660   2.447   3.508   3.196  0.2109  0.0223  0.0176
 2676SOL    HW119661   2.539   3.487   3.185 -0.3972 -0.8355 -3.3580
 2676SOL    HW219662   2.447   3.597   3.160 -1.6991  0.1990  0.4258
 2677SOL     OW19663   0.377   0.362  11.865  0.4243  0.2885  0.4693
 2677SOL    HW119664   0.447   0.407  11.818  0.8378 -0.5949  0.2266
 2677SOL    HW219665   0.384   0.403  11.951  0.1673 -1.7090  1.4608
 2678SOL     OW19666   1.502   1.851   2.777  0.1902  0.9563 -0.1189
 2678SOL    HW119667   1.424   1.798   2.761  0.4460  0.3555  0.6485
 2678SOL    HW219668   1.465   1.938   2.762  0.6823  1.0297 -0.9082
 2679SOL     OW19669   0.424   3.274  12.085  0.1644  0.2811 -0.1175
 2679SOL    HW119670   0.406   3.243  12.174 -0.6121  1.6043  0.1783
 2679SOL    HW219671   0.449   3.191  12.044 -1.9448  0.4361 -1.7348
 2680SOL     OW19672   1.409   0.234   0.887  0.0881 -0.0215  0.0246
 2680SOL    HW119673   1.384   0.147   0.918  0.6326  0.3423  1.4467
 2680SOL    HW219674   1.332   0.275   0.846  0.0685 -1.2086 -1.1204
 2681SOL     OW19675   3.305   3.919   3.547  0.7253 -0.1652  0.1652
 2681SOL    HW119676   3.336   3.902   3.458 -0.5281 -2.1391  0.0924
 2681SOL    HW219677   3.339   3.842   3.592  0.4043 -1.0358 -1.0793
 2682SOL     OW19678   3.994   2.011   6.976  0.3876 -0.0421 -0.7756
 2682SOL    HW119679   4.036   2.018   7.062  0.5808  1.7797 -1.0224
 2682SOL    HW219680   3.968   2.103   6.970 -3.6703 -0.8875  3.2883
 2683SOL     OW19681   1.250   2.616  12.798 -0.1398  0.5587 -0.0408
 2683SOL    HW119682   1.315   2.545  12.793  2.6079  3.0093  1.1758
 2683SOL    HW219683   1.235   2.617  12.892 -1.8481  3.1885 -0.3491
 2684SOL     OW19684   2.879   0.249   9.598 -0.2976 -0.1495 -0.1947
 2684SOL    HW119685   2.823   0.202   9.535 -1.1941  1.6068 -0.7108
 2684SOL    HW219686   2.961   0.242   9.550  0.6906  0.3286  1.4435
 2685SOL     OW19687   1.144   0.188   3.633 -0.0947 -0.6829 -0.0344
 2685SOL    HW119688   1.059   0.143   3.635  0.3532 -1.4089  1.9524
 2685SOL    HW219689   1.111   0.277   3.623 -0.2655 -0.7531 -0.1026
 2686SOL     OW19690   0.020   0.352  11.006 -0.1585  0.1524  0.3070
 2686SOL    HW119691   0.113   0.331  11.005 -0.3349 -0.6737  0.7559
 2686SOL    HW219692   4.735   0.339  10.914 -2.6062 -0.5461  0.9676
 2687SOL     OW19693   0.759   1.417  13.981  0.4195  0.1051  0.1220
 2687SOL    HW119694   0.799   1.484  14.037  1.2135  0.4030 -0.7934
 2687SOL    HW219695   0.832   1.359  13.959  0.9953  1.6236 -1.9327
 2688SOL     OW19696   4.230   1.814  15.324  0.1153  0.3758 -0.3873
 2688SOL    HW119697   4.300   1.763  15.363  0.5260  1.0786 -0.2125
 2688SOL    HW219698   4.224   1.779  15.235 -0.7762  0.4004 -0.3353
 2689SOL     OW19699   3.481   4.212   8.439 -0.3493 -0.6339  0.3088
 2689SOL    HW119700   3.526   4.295   8.452 -1.1878  0.2671 -2.8116
 2689SOL    HW219701   3.400   4.244   8.400 -0.0070 -0.5661 -0.3318
 2690SOL     OW19702   0.260   0.977  17.500  0.2185 -0.1397 -0.4480
 2690SOL    HW119703   0.318   0.928  17.441  1.3270  0.7131 -0.0540
 2690SOL    HW219704   0.176   0.969  17.454  0.6862  0.3034 -1.3789
 2691SOL     OW19705   4.236   4.404   2.977  0.1756 -0.1228 -0.1137
 2691SOL    HW119706   4.176   4.432   2.909  1.4605  1.4609 -0.5733
 2691SOL    HW219707   4.167   4.368   3.034  0.5345 -1.4851 -0.5386
 2692SOL     OW19708   2.688   3.295   4.483  0.4856  0.0295  0.2715
 2692SOL    HW119709   2.672   3.240   4.559  0.8489 -0.0118  0.3191
 2692SOL    HW219710   2.603   3.339   4.478  0.7807  0.4747 -0.8331
 2693SOL     OW19711   0.979   1.518  13.639 -0.3182  0.1127  0.3286
 2693SOL    HW119712   0.969   1.571  13.718 -0.0418  0.6352  0.0128
 2693SOL    HW219713   0.929   1.572  13.578 -1.9209  0.2208  1.7423
 2694SOL     OW19714   2.665   2.606  15.162  0.0055 -0.0319 -0.6852
 2694SOL    HW119715   2.755   2.582  15.139  0.3831  1.4792 -0.7414
 2694SOL    HW219716   2.646   2.531  15.218  0.8751 -1.0010 -1.6912
 2695SOL     OW19717   4.236   1.559   2.173 -0.4564 -0.0957 -0.3036
 2695SOL    HW119718   4.273   1.491   2.230  1.9707  0.0399 -1.7230
 2695SOL    HW219719   4.313   1.589   2.125  0.8857 -0.8514  1.3676
 2696SOL     OW19720   0.753   0.648   7.401 -0.0462  0.4169 -0.7480
 2696SOL    HW119721   0.692   0.690   7.341 -0.8212  2.6772  1.6200
 2696SOL    HW219722   0.826   0.710   7.394  0.4768 -0.0445  0.5701
 2697SOL     OW19723   1.824   4.061   7.784  0.7154  0.5328  0.0305
 2697SOL    HW119724   1.842   3.969   7.804  0.2273  0.8961  2.1091
 2697SOL    HW219725   1.766   4.090   7.854  0.6801  1.4820 -0.3924
 2698SOL     OW19726   1.360   0.975   4.073 -0.2389  0.2344 -0.5847
 2698SOL    HW119727   1.423   1.047   4.076  0.1492 -0.1467  0.3944
 2698SOL    HW219728   1.280   1.022   4.049 -0.0782  0.4113 -0.7720
 2699SOL     OW19729   1.114   4.122  13.145  0.5970  0.2057 -0.2649
 2699SOL    HW119730   1.127   4.033  13.112 -0.3922  1.1823 -3.3612
 2699SOL    HW219731   1.204   4.147  13.165  0.9775  0.2269 -1.9969
 2700SOL     OW19732   0.544   2.974   8.896  0.0382  0.4574  0.4927
 2700SOL    HW119733   0.543   2.884   8.863  0.5460  0.1646  1.2574
 2700SOL    HW219734   0.548   2.958   8.990  0.8435  0.9608  0.5534
 2701SOL     OW19735   4.106   2.695   6.037  0.2485  0.3527  0.0312
 2701SOL    HW119736   4.189   2.694   6.084  0.8761 -0.4649 -1.0740
 2701SOL    HW219737   4.044   2.704   6.109 -0.5158  0.0618 -0.5869
 2702SOL     OW19738   4.366   1.735   2.932 -0.0898  0.2988  0.2527
 2702SOL    HW119739   4.445   1.706   2.979 -0.7098 -0.3502  0.8846
 2702SOL    HW219740   4.342   1.653   2.889 -0.7670  1.0120 -0.7268
 2703SOL     OW19741   2.168   1.674   0.105  0.0607  0.2416 -0.4684
 2703SOL    HW119742   2.196   1.641   0.020 -2.2812  0.5998 -1.3725
 2703SOL    HW219743   2.233   1.744   0.111  0.0691 -0.0777  3.3180
 2704SOL     OW19744   3.500   1.887   6.790  0.3713  0.2390 -0.3097
 2704SOL    HW119745   3.587   1.917   6.818  0.1213  1.3376 -0.6803
 2704SOL    HW219746   3.465   1.885   6.878  0.4405 -1.2809 -0.3311
 2705SOL     OW19747   4.266   3.957   5.233  0.2665 -0.5410  0.4984
 2705SOL    HW119748   4.219   3.949   5.150 -1.3054  0.6441  1.2767
 2705SOL    HW219749   4.345   4.000   5.200 -0.7553  3.0335  2.6569
 2706SOL     OW19750   1.276   4.150  10.699  0.0539 -0.6721 -0.4061
 2706SOL    HW119751   1.192   4.183  10.730  0.6093  1.3285 -1.0148
 2706SOL    HW219752   1.319   4.229  10.666 -0.2954 -0.0759  0.5689
 2707SOL     OW19753   1.006   2.120   9.284  0.1116  0.2578  0.4525
 2707SOL    HW119754   0.989   2.119   9.190  1.1177 -0.8255  0.2893
 2707SOL    HW219755   1.101   2.124   9.287  0.1339  0.4060 -0.6896
 2708SOL     OW19756   1.226   0.358  11.858  0.3507  0.2982  0.1448
 2708SOL    HW119757   1.200   0.403  11.778 -1.5930  0.8250  1.0906
 2708SOL    HW219758   1.245   0.430  11.918 -3.3114 -1.3625  3.2831
 2709SOL     OW19759   4.235   2.663   6.275 -0.0610  0.2475  0.5121
 2709SOL    HW119760   4.217   2.730   6.341  1.8185 -1.6525  2.9705
 2709SOL    HW219761   4.209   2.589   6.330  1.2949 -0.4525  0.2186
 2710SOL     OW19762   4.044   1.683  16.163 -0.1774  0.0771  0.6554
 2710SOL    HW119763   4.121   1.734  16.138 -0.9559 -0.0864 -2.0299
 2710SOL    HW219764   4.090   1.626  16.225  1.2559 -0.3045 -0.7663
 2711SOL     OW19765   3.464   1.797   6.084  0.6767  0.1110  0.3981
 2711SOL    HW119766   3.426   1.710   6.095  0.5986  0.0190 -0.5844
 2711SOL    HW219767   3.407   1.817   6.010  1.1159 -0.4378 -0.0859
 2712SOL     OW19768   4.441   1.185   2.967  0.2515 -0.5457 -0.1680
 2712SOL    HW119769   4.450   1.099   2.927  1.7445 -0.4040 -0.1434
 2712SOL    HW219770   4.462   1.243   2.894 -0.3587  0.6367  0.5972
 2713SOL     OW19771   1.371   2.167  16.628 -0.1532 -0.0259 -0.0702
 2713SOL    HW119772   1.294   2.198  16.676 -1.3790 -3.1136 -0.0657
 2713SOL    HW219773   1.434   2.236  16.647  0.6807 -1.3264  1.8472
 2714SOL     OW19774   4.234   2.665  17.390  0.1342 -0.0031 -0.2607
 2714SOL    HW119775   4.191   2.654  17.475  1.3459 -0.5458  0.2734
 2714SOL    HW219776   4.320   2.624  17.402  0.0648  0.0199  0.2957
 2715SOL     OW19777   4.136   1.550   9.337  0.1902 -0.1548 -0.1486
 2715SOL    HW119778   4.053   1.577   9.375 -1.2841 -0.4714 -3.1228
 2715SOL    HW219779   4.199   1.587   9.399 -0.3381 -1.2043  1.0022
 2716SOL     OW19780   0.095   3.771  10.280 -0.3808  0.2348 -0.2768
 2716SOL    HW119781   0.106   3.819  10.362  0.2927 -0.6828  0.1784
 2716SOL    HW219782   0.105   3.840  10.215 -3.0504 -1.0824 -2.0986
 2717SOL     OW19783   1.536   0.782   3.437 -0.5534  0.2726 -0.0983
 2717SOL    HW119784   1.554   0.868   3.401  1.8306 -0.7716 -1.3966
 2717SOL    HW219785   1.614   0.736   3.406 -1.1145  0.0098 -1.0889
 2718SOL     OW19786   1.289   1.374   0.827 -0.1176 -0.1909 -0.0434
 2718SOL    HW119787   1.253   1.352   0.913  0.3252  1.6744  0.6411
 2718SOL    HW219788   1.365   1.315   0.827 -1.6215 -2.1001  0.8243
 2719SOL     OW19789   0.986   3.839   9.324  0.4621  0.7598 -0.2081
 2719SOL    HW119790   1.030   3.913   9.281 -2.2542  1.8462 -1.0778
 2719SOL    HW219791   0.936   3.800   9.252  0.2912 -2.7775  1.8626
 2720SOL     OW19792   0.552   2.392  15.656 -0.2162  0.0157 -0.0448
 2720SOL    HW119793   0.632   2.360  15.698  0.2259  1.5571  0.2950
 2720SOL    HW219794   0.497   2.406  15.733 -0.3747  0.7029 -0.2835
 2721SOL     OW19795   4.569   1.102   2.041 -0.5669  0.0537 -0.6269
 2721SOL    HW119796   4.613   1.018   2.058 -0.9496 -0.0847 -0.3311
 2721SOL    HW219797   4.637   1.169   2.047 -0.6277  0.0687 -0.1453
 2722SOL     OW19798   0.469   2.228   7.095 -0.1611  0.3958 -0.1712
 2722SOL    HW119799   0.419   2.276   7.160 -0.8814 -1.1053  0.3769
 2722SOL    HW219800   0.420   2.258   7.018 -0.0926  1.4504  0.1961
 2723SOL     OW19801   1.073   2.867   2.300 -0.3921 -0.2984  0.3250
 2723SOL    HW119802   1.045   2.958   2.292  0.9551  0.2553  1.8560
 2723SOL    HW219803   1.150   2.888   2.248  0.0538 -0.7645  0.7953
 2724SOL     OW19804   0.009   0.295  16.148  0.5442  0.1856 -0.6785
 2724SOL    HW119805   4.704   0.210  16.156  1.6958 -0.0829  2.2733
 2724SOL    HW219806   0.082   0.272  16.090 -0.3895 -1.5239 -1.1483
 2725SOL     OW19807   0.467   3.643   8.306  0.0680 -0.1853 -0.1361
 2725SOL    HW119808   0.431   3.558   8.328 -3.5883  0.4658 -3.4064
 2725SOL    HW219809   0.507   3.666   8.389 -1.5062 -0.8476  0.7966
 2726SOL     OW19810   1.716   3.036   6.205 -0.1422 -0.4943  0.5184
 2726SOL    HW119811   1.732   3.049   6.299  2.2315  0.4826 -0.0420
 2726SOL    HW219812   1.720   3.129   6.184 -2.7918 -0.4433  0.2038
 2727SOL     OW19813   2.950   2.981   5.391 -0.1364  0.6777  0.4796
 2727SOL    HW119814   3.034   3.025   5.378  1.0309 -1.5203  0.6452
 2727SOL    HW219815   2.885   3.050   5.380  0.4279  1.1570  0.1753
 2728SOL     OW19816   2.655   0.042   6.366 -0.0468 -0.1350 -0.0340
 2728SOL    HW119817   2.712   4.729   6.424 -0.0596 -0.5643 -0.3873
 2728SOL    HW219818   2.681   0.127   6.400 -0.4920  0.0925 -0.2543
 2729SOL     OW19819   1.462   3.629   3.094 -0.2962  0.2664  0.3282
 2729SOL    HW119820   1.429   3.569   3.027 -1.0361  3.0532 -1.8103
 2729SOL    HW219821   1.554   3.633   3.067 -1.4629  1.0515 -3.4149
 2730SOL     OW19822   1.131   1.936   3.932 -0.1768 -0.2346 -0.1113
 2730SOL    HW119823   1.118   1.924   3.838 -1.5991 -1.7486  0.2919
 2730SOL    HW219824   1.225   1.954   3.940 -0.5507  2.6563 -2.4306
 2731SOL     OW19825   1.896   0.273   5.000 -0.3759  0.2138 -0.3024
 2731SOL    HW119826   1.801   0.285   4.997 -0.5523 -0.5534  2.1405
 2731SOL    HW219827   1.914   0.245   5.090  0.4386  0.5546 -0.3655
 2732SOL     OW19828   0.807   0.101   1.596 -0.0684 -0.1885  0.2830
 2732SOL    HW119829   0.891   0.147   1.591 -0.2048  0.0149 -0.0954
 2732SOL    HW219830   0.748   0.165   1.636 -1.2800 -1.4945  0.5935
 2733SOL     OW19831   3.559   4.621   4.333  0.1068  0.1250  0.2933
 2733SOL    HW119832   3.541   4.532   4.362  0.4804  0.2214  0.8195
 2733SOL    HW219833   3.571   4.609   4.239 -0.0785  2.4091 -0.0391
 2734SOL     OW19834   2.883   3.497  14.512  0.1000  0.8750  0.7146
 2734SOL    HW119835   2.840   3.582  14.513 -0.8797  0.3576  2.4152
 2734SOL    HW219836   2.823   3.441  14.463  2.3298 -1.7343  0.9390
 2735SOL     OW19837   2.035   3.208   4.849  0.4246  0.2409 -0.3436
 2735SOL    HW119838   1.956   3.260   4.841 -0.1705 -1.1779 -3.6192
 2735SOL    HW219839   2.022   3.148   4.923 -3.4735 -0.9290 -2.0133
 2736SOL     OW19840   3.829   4.221  10.959 -0.6431  0.6583 -0.3795
 2736SOL    HW119841   3.879   4.184  10.886  0.3967 -1.9745  1.6269
 2736SOL    HW219842   3.864   4.172  11.033 -1.6938  0.6626  0.1124
 2737SOL     OW19843   0.778   0.972   3.031  0.4927  0.0316 -0.4808
 2737SOL    HW119844   0.825   1.000   3.109 -2.0397 -0.3824  1.2073
 2737SOL    HW219845   0.703   1.031   3.042  0.8158  0.3528  0.0243
 2738SOL     OW19846   4.572   3.800   5.774  0.5948 -0.5780 -0.2696
 2738SOL    HW119847   4.546   3.881   5.729 -0.7897 -0.8455  0.0574
 2738SOL    HW219848   4.518   3.806   5.853 -0.2424 -1.9571 -0.7454
 2739SOL     OW19849   4.514   0.807   4.255  0.2071  0.3042 -0.3912
 2739SOL    HW119850   4.422   0.785   4.242  0.9887 -1.6083 -2.7439
 2739SOL    HW219851   4.509   0.855   4.338  1.4568  0.4167 -0.3794
 2740SOL     OW19852   4.293   0.168  17.261 -0.0892 -0.2420  0.0083
 2740SOL    HW119853   4.229   0.190  17.328  0.6358  2.9010 -0.3112
 2740SOL    HW219854   4.345   0.249  17.263  0.2556 -0.4541 -0.3771
 2741SOL     OW19855   4.403   2.824   8.150  0.1346  0.4647 -0.2823
 2741SOL    HW119856   4.494   2.817   8.181 -0.6478 -2.9307  1.3259
 2741SOL    HW219857   4.361   2.874   8.220 -0.0620  2.1701 -1.6327
 2742SOL     OW19858   1.475   0.958   5.672  0.1051  0.0111  0.2256
 2742SOL    HW119859   1.448   1.032   5.617  1.6370  0.3343 -0.1006
 2742SOL    HW219860   1.526   0.904   5.612  0.7350  0.7745  0.0712
 2743SOL     OW19861   0.479   4.642   9.214  0.7382 -0.2598 -0.1331
 2743SOL    HW119862   0.539   4.603   9.277 -1.2209 -0.2846  1.7132
 2743SOL    HW219863   0.413   4.573   9.216  1.7383 -1.2000  0.6230
 2744SOL     OW19864   4.059   4.263  13.452 -0.1005  0.5212 -0.3141
 2744SOL    HW119865   4.117   4.274  13.377  1.2707 -1.4257  0.4728
 2744SOL    HW219866   4.124   4.240  13.517  0.1355  0.1069 -0.6964
 2745SOL     OW19867   1.291   2.851  13.238 -0.3161  0.4552  0.1256
 2745SOL    HW119868   1.243   2.892  13.310  0.1745  0.1997  0.5961
 2745SOL    HW219869   1.360   2.802  13.282 -1.2703 -1.3162 -0.3055
 2746SOL     OW19870   0.879   4.123   4.514  0.0149 -0.3755 -0.3761
 2746SOL    HW119871   0.964   4.087   4.540  0.2939  2.0620  2.1653
 2746SOL    HW219872   0.826   4.096   4.589 -1.7455  1.5708 -0.9219
 2747SOL     OW19873   0.137   4.492  17.257 -0.2492  0.3915 -0.0487
 2747SOL    HW119874   0.188   4.543  17.320  0.4433  0.7845 -0.9312
 2747SOL    HW219875   0.177   4.524  17.177 -0.7873  0.6003 -0.2364
 2748SOL     OW19876   0.879   2.396  13.783 -0.2577 -0.1463  0.2143
 2748SOL    HW119877   0.865   2.343  13.705 -1.6922  1.0094 -0.2868
 2748SOL    HW219878   0.865   2.484  13.749  0.9252 -0.2312 -0.5270
 2749SOL     OW19879   4.044   2.418   6.249 -0.0801 -0.2786 -0.0541
 2749SOL    HW119880   4.080   2.342   6.294 -0.7421 -0.2602  0.4981
 2749SOL    HW219881   4.090   2.426   6.165  0.6543 -0.8365  0.2982
 2750SOL     OW19882   2.462   0.736   8.067 -0.2610  0.1613  0.6407
 2750SOL    HW119883   2.484   0.786   7.989  0.5502 -1.2041 -0.0148
 2750SOL    HW219884   2.513   0.788   8.130 -1.0754  0.5437  0.9774
 2751SOL     OW19885   4.104   3.718   5.785  0.0374  0.6939 -0.3961
 2751SOL    HW119886   4.150   3.672   5.715  2.0543  1.3502  0.4947
 2751SOL    HW219887   4.119   3.811   5.766 -0.3309  0.9157  0.4067
 2752SOL     OW19888   1.825   1.728   1.907 -0.0252 -0.0379  0.4241
 2752SOL    HW119889   1.819   1.704   2.000  0.0880 -1.3896  0.0795
 2752SOL    HW219890   1.857   1.643   1.878  1.3630  0.3193  0.9007
 2753SOL     OW19891   1.080   1.939   2.576  0.0894  0.5710  0.4449
 2753SOL    HW119892   1.123   1.882   2.512 -0.9951  0.9472 -0.6176
 2753SOL    HW219893   1.062   2.018   2.526  0.1412  0.6026  0.4769
 2754SOL     OW19894   0.182   0.079   6.924 -0.6443 -0.0616 -0.0893
 2754SOL    HW119895   0.128   0.127   6.861  0.6470 -0.1939 -1.2984
 2754SOL    HW219896   0.224   0.009   6.874 -1.6576 -0.5584 -0.2470
 2755SOL     OW19897   4.202   1.374   7.203  0.1881  1.0640 -0.8855
 2755SOL    HW119898   4.261   1.332   7.266 -1.5833  2.4048  1.7096
 2755SOL    HW219899   4.152   1.436   7.257 -0.6712 -0.6701  0.3296
 2756SOL     OW19900   0.921   3.903   6.148  0.7028 -0.0254  0.2417
 2756SOL    HW119901   0.967   3.823   6.123  0.9446  0.1154  0.2312
 2756SOL    HW219902   0.831   3.882   6.123  0.7462  0.4284 -0.2877
 2757SOL     OW19903   0.696   0.300  10.586  0.2035 -0.2921  0.4556
 2757SOL    HW119904   0.759   0.241  10.546 -0.2710  0.5725 -1.5413
 2757SOL    HW219905   0.624   0.286  10.525  2.3863 -1.8604 -1.7360
 2758SOL     OW19906   3.832   3.634   1.913  0.0173  0.2086  0.7071
 2758SOL    HW119907   3.788   3.717   1.928 -1.6671 -0.4963 -0.3020
 2758SOL    HW219908   3.915   3.671   1.884  0.1702  0.0097  0.8889
 2759SOL     OW19909   1.605   1.542   3.173  0.0519  0.0504  0.1825
 2759SOL    HW119910   1.674   1.569   3.233 -0.8096 -1.0548  1.6825
 2759SOL    HW219911   1.635   1.595   3.100 -0.1529  2.1325  1.6084
 2760SOL     OW19912   2.927   0.243   9.859  0.2560  0.4362 -0.2350
 2760SOL    HW119913   2.925   0.242   9.763  2.1513  0.9545 -0.2819
 2760SOL    HW219914   3.004   0.188   9.874  0.5156  1.0724  0.7895
 2761SOL     OW19915   2.939   1.466   7.828 -0.0373  0.3415  0.1373
 2761SOL    HW119916   2.889   1.406   7.774  0.2665  1.3060 -1.2302
 2761SOL    HW219917   2.989   1.529   7.775  3.5944 -1.6680  1.1911
 2762SOL     OW19918   4.003   0.352   4.923 -0.0602  0.0039  1.0958
 2762SOL    HW119919   4.088   0.334   4.883 -0.5221 -1.2472  0.6765
 2762SOL    HW219920   3.951   0.279   4.891  1.6894 -0.8144  0.0990
 2763SOL     OW19921   1.710   3.196  15.179  0.0022 -0.1701  0.1060
 2763SOL    HW119922   1.741   3.130  15.241  2.4195  0.1766 -0.7132
 2763SOL    HW219923   1.731   3.159  15.094 -2.0774 -1.7098  0.2686
 2764SOL     OW19924   1.886   3.692   1.931  0.0864 -0.1337  0.6557
 2764SOL    HW119925   1.924   3.608   1.908  0.6072  0.4626 -0.6676
 2764SOL    HW219926   1.798   3.661   1.955  0.1503  0.8029  2.1264
 2765SOL     OW19927   0.202   1.238   9.791  0.5417  0.0230 -0.0615
 2765SOL    HW119928   0.113   1.274   9.791  0.6887  0.4325 -1.8415
 2765SOL    HW219929   0.213   1.237   9.695 -1.7662  1.2865 -0.3306
 2766SOL     OW19930   2.779   1.872   8.345  0.3924  0.0811 -0.2639
 2766SOL    HW119931   2.838   1.846   8.275 -0.2991  1.3094 -1.2872
 2766SOL    HW219932   2.814   1.823   8.420 -0.2321 -1.3724 -0.9152
 2767SOL     OW19933   0.812   3.458   4.750 -0.3588  0.6462 -0.0955
 2767SOL    HW119934   0.758   3.536   4.754  0.8420  1.4270  1.0441
 2767SOL    HW219935   0.875   3.470   4.679 -0.8513 -1.7112 -0.9517
 2768SOL     OW19936   1.882   1.516   3.585 -0.3410  0.6043 -0.0806
 2768SOL    HW119937   1.921   1.578   3.523  1.2462  0.8900  1.2109
 2768SOL    HW219938   1.814   1.466   3.540 -0.5495  0.5753  0.2634
 2769SOL     OW19939   1.852   0.383   8.165 -0.4410 -0.2899  0.1040
 2769SOL    HW119940   1.940   0.348   8.159 -1.5242 -3.2753  1.3425
 2769SOL    HW219941   1.876   0.460   8.217 -0.5435 -1.7993  2.3988
 2770SOL     OW19942   2.851   1.185   3.534  0.5403 -0.3646 -0.5828
 2770SOL    HW119943   2.888   1.221   3.615  0.0401 -1.3046  0.0712
 2770SOL    HW219944   2.913   1.229   3.476  2.4992  1.7706  3.1447
 2771SOL     OW19945   1.901   1.320   6.031  0.7601  0.5966 -0.9543
 2771SOL    HW119946   1.826   1.302   6.087  0.7900 -0.0890 -1.1401
 2771SOL    HW219947   1.920   1.407   6.068  1.2509  0.0736  0.0233
 2772SOL     OW19948   3.992   0.309   4.055 -0.0509 -0.1107 -0.0637
 2772SOL    HW119949   3.936   0.256   4.111 -0.4171  0.7954  0.4257
 2772SOL    HW219950   4.069   0.254   4.039  0.0064  0.5278 -2.0156
 2773SOL     OW19951   0.096   3.093   2.775 -0.3266 -0.3585  0.0398
 2773SOL    HW119952   0.172   3.126   2.823 -1.3648 -0.7849  1.9648
 2773SOL    HW219953   0.049   3.039   2.839 -1.2777  0.0276 -0.3230
 2774SOL     OW19954   1.695   1.095  15.458 -0.4633 -0.2641 -0.4791
 2774SOL    HW119955   1.769   1.141  15.497  0.0199 -1.1911 -0.3112
 2774SOL    HW219956   1.720   1.003  15.468 -3.2773 -1.2661 -2.6707
 2775SOL     OW19957   2.438   2.290   7.171 -0.3174 -0.4979  0.1037
 2775SOL    HW119958   2.455   2.249   7.086 -1.4439  0.4979 -0.6088
 2775SOL    HW219959   2.515   2.343   7.190 -0.2115 -0.4917 -0.3445
 2776SOL     OW19960   1.502   0.716   1.840  0.1915  0.0922  0.5443
 2776SOL    HW119961   1.551   0.780   1.892  2.0371 -0.2890 -0.7049
 2776SOL    HW219962   1.586   0.682   1.808 -1.2551 -2.1457 -0.9155
 2777SOL     OW19963   0.553   1.606   4.164  0.5387  0.2428  0.4269
 2777SOL    HW119964   0.492   1.660   4.114 -1.1802 -1.0414  1.1311
 2777SOL    HW219965   0.583   1.537   4.105  0.3901  0.3458  0.2320
 2778SOL     OW19966   0.822   1.951   8.828 -0.4752 -0.2113  0.1274
 2778SOL    HW119967   0.791   1.971   8.739 -1.1859  0.6643  0.5690
 2778SOL    HW219968   0.910   1.920   8.809  0.4356  1.7262  1.2904
 2779SOL     OW19969   3.548   0.438   9.565 -0.3892 -0.4709  0.8264
 2779SOL    HW119970   3.573   0.347   9.550  1.3117 -0.0104  0.8481
 2779SOL    HW219971   3.499   0.435   9.646  0.9476  1.9349  1.7500
 2780SOL     OW19972   4.298   0.230   4.356 -0.5192  0.0667 -0.1585
 2780SOL    HW119973   4.358   0.168   4.397 -0.3241  0.4593  0.1571
 2780SOL    HW219974   4.220   0.216   4.408  0.4808  0.9759  1.5941
 2781SOL     OW19975   1.703   1.645   6.879  0.3117 -0.0345  0.2265
 2781SOL    HW119976   1.754   1.627   6.800 -1.4010  0.2820 -0.9540
 2781SOL    HW219977   1.761   1.709   6.921  1.5359 -1.6979  1.0551
 2782SOL     OW19978   1.055   4.675  13.349 -0.3729  0.0707  0.4610
 2782SOL    HW119979   0.984   4.614  13.369 -2.1097  1.6631 -0.8778
 2782SOL    HW219980   1.102   4.620  13.286  0.9071  0.6007  0.9707
 2783SOL     OW19981   0.709   1.544  16.011 -0.3963  0.3344  0.0516
 2783SOL    HW119982   0.654   1.622  16.011 -0.5066  0.2517  1.3617
 2783SOL    HW219983   0.648   1.488  15.962 -2.1811  1.6867  0.7247
 2784SOL     OW19984   0.033   1.213  10.292 -0.4563 -0.5739 -0.4385
 2784SOL    HW119985   0.123   1.191  10.269 -0.3477 -1.8590  1.1576
 2784SOL    HW219986   0.062   1.272  10.362  1.6774  0.5528 -2.2718
 2785SOL     OW19987   2.603   1.215   7.019 -0.1718  0.2901 -0.4095
 2785SOL    HW119988   2.511   1.196   7.000 -0.5402  2.1883 -0.6106
 2785SOL    HW219989   2.634   1.265   6.944 -0.1180  1.2701  0.2621
 2786SOL     OW19990   4.087   3.128   0.744 -0.2626  0.2368  0.5481
 2786SOL    HW119991   4.048   3.138   0.657  0.8066 -0.6381 -0.0285
 2786SOL    HW219992   4.010   3.128   0.802 -0.5534 -0.6621  0.1566
 2787SOL     OW19993   2.892   2.468   7.870  0.1633 -0.4892  0.0740
 2787SOL    HW119994   2.902   2.445   7.962  0.5034 -1.3162 -0.1718
 2787SOL    HW219995   2.946   2.548   7.872  0.4878 -0.7002 -0.1988
 2788SOL     OW19996   2.294   4.396   9.096  0.5989  0.0873 -0.3655
 2788SOL    HW119997   2.350   4.373   9.021 -0.0829  1.3421 -1.2539
 2788SOL    HW219998   2.324   4.485   9.116 -1.4278  0.8443 -0.7028
 2789SOL     OW19999   1.229   4.120   8.836  0.0577 -0.8224  0.5345
 2789SOL    HW120000   1.254   4.126   8.744 -1.7915 -0.1475  0.0691
 2789SOL    HW220001   1.151   4.176   8.839  0.1409 -0.6288 -1.0861
 2790SOL     OW20002   1.195   3.979  17.614 -0.2387  0.5699  0.1568
 2790SOL    HW120003   1.249   4.057  17.600 -1.8538  1.4273 -1.2434
 2790SOL    HW220004   1.163   3.968  17.525  1.9896 -0.2710 -0.5602
 2791SOL     OW20005   4.479   3.387   9.965  0.4730 -0.2966  0.2427
 2791SOL    HW120006   4.501   3.452  10.032  0.5698  1.9193 -1.9341
 2791SOL    HW220007   4.469   3.439   9.886 -1.3835 -1.1355 -0.0536
 2792SOL     OW20008   4.113   0.093   9.174 -0.0803 -0.2739 -0.0803
 2792SOL    HW120009   4.100   0.095   9.079 -0.4857 -2.7491 -0.0880
 2792SOL    HW220010   4.026   0.074   9.209  0.4442 -0.4443  1.1518
 2793SOL     OW20011   2.705   3.169   7.944  0.2633  0.5836  0.2181
 2793SOL    HW120012   2.610   3.160   7.941  0.2578 -0.1665  2.1845
 2793SOL    HW220013   2.734   3.078   7.947  0.4693  0.7275  3.0465
 2794SOL     OW20014   4.309   1.141   5.770 -0.4539  0.6895 -0.3810
 2794SOL    HW120015   4.258   1.061   5.779 -0.1789  0.5309 -0.2591
 2794SOL    HW220016   4.245   1.213   5.775 -1.3717 -0.1899  0.4849
 2795SOL     OW20017   1.244   0.914   2.040  0.2790  0.2537  0.1258
 2795SOL    HW120018   1.301   0.850   2.082 -0.2454 -0.2343  0.0953
 2795SOL    HW220019   1.251   0.879   1.951 -3.0716 -1.3071  0.4628
 2796SOL     OW20020   0.881   4.267  13.180 -0.1555 -0.8722 -0.0479
 2796SOL    HW120021   0.958   4.211  13.186  1.4805  1.1591 -1.7327
 2796SOL    HW220022   0.834   4.237  13.102 -0.6191 -1.4463  0.4562
 2797SOL     OW20023   3.432   1.988   7.350 -0.0347 -1.1505  0.3460
 2797SOL    HW120024   3.406   2.020   7.437 -0.8212  0.6923 -0.5698
 2797SOL    HW220025   3.350   1.947   7.323 -1.1549  1.1873  0.1658
 2798SOL     OW20026   0.147   1.663  10.549  0.2638 -0.2497 -0.7668
 2798SOL    HW120027   0.143   1.745  10.499  0.2426 -0.0480 -0.4337
 2798SOL    HW220028   0.202   1.684  10.625 -0.1996  0.4569 -0.6296
 2799SOL     OW20029   0.721   1.794   2.612 -0.1943  0.0089 -0.0109
 2799SOL    HW120030   0.704   1.753   2.697 -1.9802 -1.6601 -1.1769
 2799SOL    HW220031   0.808   1.756   2.597 -1.3390 -1.0117 -4.2073
 2800SOL     OW20032   0.498   0.939   8.255  0.0616 -0.2002  0.1134
 2800SOL    HW120033   0.534   0.993   8.185 -0.9283 -0.2857 -0.4628
 2800SOL    HW220034   0.440   1.004   8.296  0.0587  0.4772 -0.9585
 2801SOL     OW20035   0.086   0.515   0.187  0.4289 -0.1984  0.5956
 2801SOL    HW120036   0.052   0.604   0.189  1.9363  0.4170 -0.5014
 2801SOL    HW220037   0.054   0.483   0.102 -0.8592  2.5002  0.0594
 2802SOL     OW20038   3.127   3.820   0.467  0.3040  0.0184 -0.0549
 2802SOL    HW120039   3.070   3.839   0.392 -1.8683 -1.3690  1.2152
 2802SOL    HW220040   3.127   3.903   0.515  1.5052  0.0683 -0.1383
 2803SOL     OW20041   3.988   4.187   4.486  0.1502  0.4619  0.5685
 2803SOL    HW120042   3.901   4.225   4.489 -0.1148 -0.0143 -1.2519
 2803SOL    HW220043   4.046   4.247   4.438  0.1306  0.9499  1.1557
 2804SOL     OW20044   1.171   1.778   8.353  0.5198  0.4085  0.6746
 2804SOL    HW120045   1.198   1.733   8.273  1.0801  4.0009 -1.1742
 2804SOL    HW220046   1.227   1.856   8.350 -1.8573  2.1427  1.7051
 2805SOL     OW20047   1.236   4.103  14.685 -0.4832 -0.1484 -0.0264
 2805SOL    HW120048   1.233   4.113  14.590 -1.3843  1.9529  0.2095
 2805SOL    HW220049   1.320   4.063  14.705  0.9913  2.6145 -0.6025
 2806SOL     OW20050   3.099   3.413  11.149  0.2264 -0.0442  0.2378
 2806SOL    HW120051   3.009   3.388  11.169  0.3328 -1.4547 -1.0346
 2806SOL    HW220052   3.116   3.450  11.236 -1.5571  1.2485  0.0434
 2807SOL     OW20053   2.272   4.656  11.186  0.1412  0.3856  0.2229
 2807SOL    HW120054   2.368   4.664  11.189  0.2676 -0.5382 -1.2793
 2807SOL    HW220055   2.245   0.001  11.227 -1.5303 -0.1305  0.1271
 2808SOL     OW20056   0.338   0.830  13.224 -0.6364 -0.7929 -0.3106
 2808SOL    HW120057   0.357   0.921  13.200 -0.9573 -0.6143  0.1121
 2808SOL    HW220058   0.292   0.852  13.305 -0.6471 -2.1736  0.0427
 2809SOL     OW20059   0.486   2.879   5.787  0.5852  0.0593  0.4309
 2809SOL    HW120060   0.566   2.833   5.762 -0.2223 -1.0822 -0.0618
 2809SOL    HW220061   0.525   2.944   5.845  4.3034 -0.8561 -1.0313
 2810SOL     OW20062   3.951   3.341  14.501 -0.3214  0.0226  0.5380
 2810SOL    HW120063   3.898   3.419  14.480 -0.7133  0.3842  2.8470
 2810SOL    HW220064   3.889   3.269  14.497 -0.7302  0.3869  0.2295
 2811SOL     OW20065   3.555   1.724  17.250  0.4251 -0.1725 -0.1597
 2811SOL    HW120066   3.578   1.764  17.167  1.1480  1.1571  0.6715
 2811SOL    HW220067   3.469   1.763  17.267  0.1285 -0.4703 -1.0059
 2812SOL     OW20068   0.389   1.246   9.113  0.2465 -0.1468 -0.2385
 2812SOL    HW120069   0.376   1.189   9.037 -0.4428 -2.0910  1.3121
 2812SOL    HW220070   0.412   1.180   9.179  0.4384  0.7847  0.6175
 2813SOL     OW20071   4.680   2.062  17.006 -0.2526 -0.1643  0.1069
 2813SOL    HW120072   4.695   2.020  17.090 -1.4215 -1.8051 -0.5048
 2813SOL    HW220073   0.010   2.026  16.947 -1.3419 -1.5466 -0.2875
 2814SOL     OW20074   2.310   1.311  11.034 -0.0244  0.3309  0.0943
 2814SOL    HW120075   2.370   1.237  11.022  1.9887  1.7935  1.2287
 2814SOL    HW220076   2.238   1.279  10.980 -0.6635  0.3773  0.9055
 2815SOL     OW20077   2.437   3.699   2.228 -0.1432  0.1538  0.2959
 2815SOL    HW120078   2.501   3.666   2.291 -0.2275 -0.5746  0.0024
 2815SOL    HW220079   2.458   3.785   2.193  1.6685 -0.7504 -0.8685
 2816SOL     OW20080   2.658   1.927   2.950 -0.4389 -0.1294 -0.3505
 2816SOL    HW120081   2.624   1.984   3.018  2.2125  0.4588  0.4722
 2816SOL    HW220082   2.666   1.845   2.998  0.8743 -1.0015 -2.0280
 2817SOL     OW20083   2.806   2.460   0.219 -0.3524 -0.0253  0.2672
 2817SOL    HW120084   2.783   2.545   0.182 -2.4676 -0.9272 -0.4323
 2817SOL    HW220085   2.754   2.441   0.297 -1.3671  0.2478 -0.3410
 2818SOL     OW20086   0.262   1.947   9.213  0.8166 -0.1170  0.1806
 2818SOL    HW120087   0.260   1.888   9.138 -1.8791  1.6233 -1.1143
 2818SOL    HW220088   0.347   1.990   9.211  0.5134  0.4641 -0.1598
 2819SOL     OW20089   0.968   3.514   1.735 -0.0953  0.1472  0.5014
 2819SOL    HW120090   1.005   3.567   1.665  0.8776  0.1744  1.0299
 2819SOL    HW220091   0.989   3.561   1.815 -1.0679  0.4445  0.5816
 2820SOL     OW20092   3.126   1.865   8.657  0.2079  0.4264  0.1863
 2820SOL    HW120093   3.110   1.772   8.668  0.3134  0.2361 -1.2751
 2820SOL    HW220094   3.056   1.905   8.708  0.3900  0.9927 -0.0065
 2821SOL     OW20095   4.052   0.559   6.661 -0.5346  0.6041 -0.0325
 2821SOL    HW120096   3.966   0.580   6.698 -1.4916  1.0661 -2.4966
 2821SOL    HW220097   4.031   0.478   6.615  0.2162  0.6596 -0.4779
 2822SOL     OW20098   3.875   2.287   5.488  0.0553 -0.0198  0.0480
 2822SOL    HW120099   3.801   2.234   5.518 -0.3858 -0.3795 -1.6563
 2822SOL    HW220100   3.876   2.367   5.541 -1.2841  0.4145 -0.5589
 2823SOL     OW20101   4.416   3.220  10.569  0.3050 -0.5281 -0.2157
 2823SOL    HW120102   4.360   3.248  10.497  0.3507 -2.2700 -0.9267
 2823SOL    HW220103   4.479   3.293  10.573 -0.6118  0.1651  1.3782
 2824SOL     OW20104   0.031   2.303   2.908 -0.2211  0.5812  0.3220
 2824SOL    HW120105   0.072   2.240   2.849 -0.5985  0.8130 -0.1956
 2824SOL    HW220106   0.069   2.386   2.880  0.0482  0.0753 -0.8192
 2825SOL     OW20107   1.625   4.354   3.582 -0.1623 -0.3029 -0.1354
 2825SOL    HW120108   1.696   4.408   3.547  0.3390 -0.1656  1.0797
 2825SOL    HW220109   1.641   4.282   3.520  2.2773 -1.0771  1.3642
 2826SOL     OW20110   1.400   2.635   8.396  0.1561 -0.0819  0.2700
 2826SOL    HW120111   1.461   2.605   8.464 -0.3257 -0.4160  0.5546
 2826SOL    HW220112   1.448   2.654   8.315  0.6204 -1.6376  0.1794
 2827SOL     OW20113   0.719   0.514   5.599 -0.5342 -0.4999 -0.0999
 2827SOL    HW120114   0.780   0.440   5.602  0.3669  0.2806  0.4513
 2827SOL    HW220115   0.647   0.470   5.644 -1.7220 -0.1976 -1.7310
 2828SOL     OW20116   1.287   1.556   7.647  0.0445 -0.0391 -0.0088
 2828SOL    HW120117   1.382   1.568   7.654  0.1731 -0.8938 -0.2213
 2828SOL    HW220118   1.266   1.646   7.669 -0.6857  0.2351 -1.8709
 2829SOL     OW20119   3.024   0.566   2.218 -0.0311  0.3143 -0.0410
 2829SOL    HW120120   3.093   0.588   2.155 -0.5692 -1.1044 -1.1128
 2829SOL    HW220121   3.066   0.551   2.303  0.5749  0.0755 -0.3805
 2830SOL     OW20122   2.712   3.193  14.233 -0.5314 -0.3928 -0.3016
 2830SOL    HW120123   2.748   3.272  14.195  0.5419 -0.8830 -0.2888
 2830SOL    HW220124   2.707   3.206  14.328 -0.9716  1.3499 -0.5715
 2831SOL     OW20125   1.394   3.271   6.596  0.6436 -0.0278 -0.9625
 2831SOL    HW120126   1.387   3.197   6.536 -1.2019 -0.9241  0.3419
 2831SOL    HW220127   1.489   3.285   6.596  0.3553  1.9511  1.9438
 2832SOL     OW20128   0.428   2.530  16.650 -0.2860 -0.2117 -0.3400
 2832SOL    HW120129   0.365   2.597  16.623  0.4311  0.6587  0.1718
 2832SOL    HW220130   0.376   2.459  16.688 -3.8488  2.5656 -0.0390
 2833SOL     OW20131   3.681   2.615   8.651  0.8091  0.7390 -0.1758
 2833SOL    HW120132   3.710   2.698   8.688  0.2373  0.3426  1.1647
 2833SOL    HW220133   3.765   2.575   8.630 -0.5376 -1.9982 -0.3905
 2834SOL     OW20134   0.117   1.111   0.840 -0.1388 -0.1273 -0.7965
 2834SOL    HW120135   0.094   1.153   0.758 -0.2358  0.2392 -0.5795
 2834SOL    HW220136   0.085   1.172   0.907  0.4677 -1.2965  0.5640
 2835SOL     OW20137   1.621   4.409   7.630  0.6688  0.2830 -0.0175
 2835SOL    HW120138   1.533   4.411   7.668  1.4504 -1.4676  1.9128
 2835SOL    HW220139   1.660   4.460   7.701 -1.7376  2.8115 -0.5219
 2836SOL     OW20140   1.541   1.788   4.834  0.2607  0.1315 -0.3661
 2836SOL    HW120141   1.576   1.868   4.872 -1.9696  1.3122 -0.8046
 2836SOL    HW220142   1.485   1.831   4.770 -0.7537 -1.2092 -0.3867
 2837SOL     OW20143   1.933   0.850   7.286  0.2574 -0.2246  0.1431
 2837SOL    HW120144   1.846   0.868   7.321 -0.2534  1.2613 -1.8567
 2837SOL    HW220145   1.940   0.912   7.213 -3.4351 -1.5129 -1.2754
 2838SOL     OW20146   3.426   2.672   1.387  0.0744  0.3510  0.2266
 2838SOL    HW120147   3.493   2.732   1.352 -0.1301  0.0925 -0.6041
 2838SOL    HW220148   3.439   2.593   1.335 -2.2737  0.0717  0.0726
 2839SOL     OW20149   2.810   1.138   2.616  0.2833  0.4985  0.6938
 2839SOL    HW120150   2.774   1.180   2.694 -1.4181 -0.3633  0.3805
 2839SOL    HW220151   2.796   1.046   2.638  4.0214 -0.7660 -2.1518
 2840SOL     OW20152   1.502   2.733   2.177  0.4514  0.1836  0.5598
 2840SOL    HW120153   1.426   2.788   2.160 -0.3896 -1.4699 -0.9717
 2840SOL    HW220154   1.572   2.793   2.201 -0.2117  0.7159  1.1790
 2841SOL     OW20155   1.826   3.446   3.198 -0.1640  1.0477 -0.9074
 2841SOL    HW120156   1.760   3.410   3.139  0.2976  1.7272 -1.8419
 2841SOL    HW220157   1.778   3.462   3.278 -0.5081  1.7894 -1.2628
 2842SOL     OW20158   1.105   4.104   7.458 -0.1637 -0.2615  0.4307
 2842SOL    HW120159   1.127   4.093   7.365 -2.6282  0.3333 -0.2185
 2842SOL    HW220160   1.068   4.018   7.478 -1.0273  0.3539  1.4458
 2843SOL     OW20161   3.316   3.048   7.332 -0.0784 -0.2811  0.0028
 2843SOL    HW120162   3.231   3.067   7.293  0.0147  0.8833  0.3566
 2843SOL    HW220163   3.299   3.093   7.415 -0.9397  0.1860 -0.4223
 2844SOL     OW20164   2.055   0.472  14.707  0.2670 -0.3175 -0.0074
 2844SOL    HW120165   1.972   0.502  14.746  0.0161 -1.5646  0.3991
 2844SOL    HW220166   2.120   0.456  14.775 -0.8520  0.5911  1.2972
 2845SOL     OW20167   0.942   3.199   6.433 -0.0706  0.7040 -0.0519
 2845SOL    HW120168   0.866   3.251   6.460  0.1017  2.1328 -2.2989
 2845SOL    HW220169   1.001   3.274   6.443 -1.9524  1.9512  1.5891
 2846SOL     OW20170   3.272   1.099  12.664 -0.0670  0.7290 -0.1985
 2846SOL    HW120171   3.187   1.071  12.631  0.9388 -0.9973 -1.2922
 2846SOL    HW220172   3.326   1.110  12.586  0.3663 -0.7417 -0.0984
 2847SOL     OW20173   3.511   4.096   3.881  0.5169 -0.1400 -0.5603
 2847SOL    HW120174   3.432   4.117   3.830  0.0938  0.3790  0.3177
 2847SOL    HW220175   3.573   4.085   3.809 -0.0084 -1.7453 -0.7579
 2848SOL     OW20176   2.782   2.669   2.687  0.6149 -0.0776 -0.9096
 2848SOL    HW120177   2.762   2.763   2.689  1.5479  0.1278 -1.1364
 2848SOL    HW220178   2.719   2.636   2.622  1.2543 -2.9842 -0.0556
 2849SOL     OW20179   4.331   4.651   8.045 -0.3326  0.0016  0.5227
 2849SOL    HW120180   4.383   4.716   8.092  1.8504 -0.2327 -1.5905
 2849SOL    HW220181   4.400   4.600   8.003 -1.2281 -0.6278 -0.1914
 2850SOL     OW20182   3.659   1.946   5.396 -0.0047  0.1275 -0.0950
 2850SOL    HW120183   3.675   2.037   5.421 -1.4092 -0.0290  1.3848
 2850SOL    HW220184   3.596   1.958   5.325 -1.0558 -0.2046  0.7680
 2851SOL     OW20185   0.681   4.041   4.048  0.3721 -0.2712 -0.0638
 2851SOL    HW120186   0.594   4.081   4.052 -0.9099 -3.0848  0.0914
 2851SOL    HW220187   0.666   3.960   4.000 -0.7632 -0.5443  0.7680
 2852SOL     OW20188   4.421   1.419   6.572  0.2137  0.2568 -0.2560
 2852SOL    HW120189   4.422   1.324   6.585  0.6851 -0.0557 -2.5937
 2852SOL    HW220190   4.328   1.441   6.564 -0.0468 -2.2264 -3.9887
 2853SOL     OW20191   1.007   4.032  15.525  0.0150  0.0702  0.2255
 2853SOL    HW120192   0.970   4.111  15.485 -3.6979 -0.9393  1.6719
 2853SOL    HW220193   1.092   4.022  15.483 -0.5532 -1.0699 -0.6592
 2854SOL     OW20194   4.091   0.539  13.645  0.4246  0.7280  0.5951
 2854SOL    HW120195   4.161   0.582  13.694  1.0291 -0.1027  0.4715
 2854SOL    HW220196   4.017   0.579  13.691  0.2225  0.0648  0.8515
 2855SOL     OW20197   3.203   4.028   8.253  0.2747  0.1078  0.7611
 2855SOL    HW120198   3.168   4.062   8.336  1.6870  3.0636  0.1298
 2855SOL    HW220199   3.261   4.101   8.230 -2.5051  1.2797 -2.5586
 2856SOL     OW20200   0.669   0.114   7.022  0.1270 -0.5975  0.0509
 2856SOL    HW120201   0.751   0.131   6.975 -0.6220  0.2545 -0.9528
 2856SOL    HW220202   0.639   0.028   6.994 -3.6838 -0.2203  2.9568
 2857SOL     OW20203   1.823   4.587  10.544 -0.3242  0.1348 -0.2754
 2857SOL    HW120204   1.872   4.505  10.541 -0.6992 -0.1767  1.6972
 2857SOL    HW220205   1.779   4.580  10.460 -2.2662  0.7647  0.6813
 2858SOL     OW20206   1.893   2.265  10.011 -0.5202 -0.2633 -0.2586
 2858SOL    HW120207   1.846   2.348  10.021 -1.6455 -1.0862  1.3344
 2858SOL    HW220208   1.830   2.209  10.057 -1.1039  2.1991  1.9371
 2859SOL     OW20209   4.705   3.678   0.509 -0.2314  0.4468 -0.3739
 2859SOL    HW120210   0.019   3.734   0.450  0.5832 -1.7173 -1.6961
 2859SOL    HW220211   4.707   3.719   0.596 -0.2958 -0.0377 -0.1416
 2860SOL     OW20212   4.705   0.572  11.837  0.6413 -0.1175  0.3751
 2860SOL    HW120213   4.649   0.626  11.894  0.1037  0.3106 -0.5654
 2860SOL    HW220214   4.660   0.487  11.843  2.6939 -1.1755  0.7766
 2861SOL     OW20215   1.367   4.003  10.050  0.5254  0.3257  0.8113
 2861SOL    HW120216   1.282   3.966  10.031  0.5801  0.8645 -0.4928
 2861SOL    HW220217   1.393   3.938  10.115  1.1498 -0.4949 -0.2576
 2862SOL     OW20218   4.430   0.011   8.905 -0.2590  0.0961 -0.0904
 2862SOL    HW120219   4.453   0.098   8.938 -1.6869  0.0163  1.1299
 2862SOL    HW220220   4.410   4.703   8.987 -0.1811  1.7557  0.8274
 2863SOL     OW20221   2.065   0.535   1.631 -0.0303 -0.1115 -0.1392
 2863SOL    HW120222   2.117   0.534   1.551  0.1326 -0.7221 -0.0191
 2863SOL    HW220223   1.991   0.487   1.595  1.1153 -2.6178  0.9117
 2864SOL     OW20224   4.492   0.426   0.196 -0.3197  0.2305 -0.3360
 2864SOL    HW120225   4.476   0.482   0.272  0.4143 -1.7285  1.2588
 2864SOL    HW220226   4.543   0.479   0.134  0.8454  0.1893  0.5852
 2865SOL     OW20227   1.206   4.380   2.040 -0.2226  0.3378  0.7618
 2865SOL    HW120228   1.139   4.356   1.976 -1.0459  2.2860  0.9089
 2865SOL    HW220229   1.185   4.310   2.103 -0.7623  0.7420  1.0274
 2866SOL     OW20230   4.480   3.398  16.310  0.6541 -0.6916 -0.3732
 2866SOL    HW120231   4.521   3.317  16.340 -2.0793 -1.7009  0.6030
 2866SOL    HW220232   4.554   3.454  16.284  0.5834 -1.1256 -1.5320
 2867SOL     OW20233   2.831   3.592   8.244 -0.1506  0.4582 -0.0834
 2867SOL    HW120234   2.923   3.593   8.269  0.1261 -1.2571 -1.0179
 2867SOL    HW220235   2.812   3.501   8.223 -0.2096  0.7981 -1.4963
 2868SOL     OW20236   0.472   0.312   1.550 -0.4852  0.6193  0.1370
 2868SOL    HW120237   0.478   0.281   1.460 -0.7750 -1.4537  0.8376
 2868SOL    HW220238   0.436   0.400   1.537 -2.4771 -0.0427  1.1302
 2869SOL     OW20239   0.758   3.878   2.612 -0.2461  0.1965 -0.5807
 2869SOL    HW120240   0.844   3.913   2.589  0.3596 -0.0927  1.2848
 2869SOL    HW220241   0.701   3.903   2.539  0.6592  0.7250 -1.1085
 2870SOL     OW20242   0.277   1.845   3.049 -0.8775  0.1269  0.6768
 2870SOL    HW120243   0.327   1.858   2.969  0.4602  1.7660  1.7740
 2870SOL    HW220244   0.344   1.836   3.116  0.3803 -0.0264 -0.6057
 2871SOL     OW20245   1.747   1.551   5.892  0.2691  0.0260  0.7258
 2871SOL    HW120246   1.701   1.602   5.825 -0.8077  1.0186  2.1911
 2871SOL    HW220247   1.836   1.581   5.876  0.1525  0.7044  1.3318
 2872SOL     OW20248   4.069   0.247   7.735 -0.8764  0.4861  0.8994
 2872SOL    HW120249   4.067   0.264   7.829 -3.4212  2.7528  0.4479
 2872SOL    HW220250   4.123   0.168   7.735  0.7893  1.6007 -1.0420
 2873SOL     OW20251   2.408   0.174  14.535  0.3246  0.0211  0.3204
 2873SOL    HW120252   2.333   0.146  14.588  0.5460 -0.4835  0.3651
 2873SOL    HW220253   2.379   0.263  14.513  0.7507  0.4510  1.5217
 2874SOL     OW20254   4.711   0.397  15.367 -0.4191  0.1119 -0.6280
 2874SOL    HW120255   4.691   0.491  15.357  0.7092  0.1915 -2.2041
 2874SOL    HW220256   4.621   0.366  15.380 -0.1676 -1.2296 -2.1119
 2875SOL     OW20257   3.396   3.026  11.983 -0.2608  0.5469 -0.0197
 2875SOL    HW120258   3.348   2.943  11.993  1.2946 -0.4575 -0.7696
 2875SOL    HW220259   3.388   3.053  12.074  2.4020  2.0584 -0.2339
 2876SOL     OW20260   1.190   4.526  13.178 -0.0854  0.1106  0.1259
 2876SOL    HW120261   1.281   4.550  13.163  0.1503 -1.1471 -0.3847
 2876SOL    HW220262   1.155   4.490  13.097 -1.5137 -1.9102  1.6300
 2877SOL     OW20263   0.304   4.458   2.579 -0.0873  0.2613 -0.3535
 2877SOL    HW120264   0.259   4.541   2.598 -0.8087  0.4258 -2.7720
 2877SOL    HW220265   0.392   4.456   2.615  0.3895  0.8761 -1.5046
 2878SOL     OW20266   1.723   1.929   8.029 -0.2915 -0.0974  0.5884
 2878SOL    HW120267   1.756   2.003   7.978 -0.5581 -0.3478  0.0619
 2878SOL    HW220268   1.793   1.920   8.094  0.9343  2.3145 -0.3828
 2879SOL     OW20269   1.971   0.845  10.183 -0.1880 -0.1760 -0.0637
 2879SOL    HW120270   2.041   0.896  10.224 -1.0388  0.0512  1.0870
 2879SOL    HW220271   1.962   0.766  10.235 -0.1836  1.6263  2.6480
 2880SOL     OW20272   2.672   1.485   8.813  0.3448 -0.0003 -0.5206
 2880SOL    HW120273   2.642   1.415   8.756 -2.0456  0.6894 -0.1077
 2880SOL    HW220274   2.600   1.500   8.875 -0.1254  0.4557 -1.1832
 2881SOL     OW20275   4.402   0.311   7.803  0.6568  0.0886  0.2961
 2881SOL    HW120276   4.354   0.351   7.875  1.3982  0.8488  0.3723
 2881SOL    HW220277   4.364   0.224   7.815  1.3899 -0.3741 -0.6321
 2882SOL     OW20278   4.251   4.732   6.952 -0.1372 -0.2022  0.7038
 2882SOL    HW120279   4.165   0.026   6.982 -0.1829  2.2480 -1.8825
 2882SOL    HW220280   4.292   4.710   7.035 -2.5153 -1.0653  1.6613
 2883SOL     OW20281   1.709   2.949   7.239  0.0715  0.3278  0.0152
 2883SOL    HW120282   1.736   2.954   7.330  0.2220 -0.0777 -0.0085
 2883SOL    HW220283   1.787   2.902   7.208 -1.2575 -1.1855 -1.0536
 2884SOL     OW20284   3.675   0.892   2.117  0.9074 -0.0598  0.5820
 2884SOL    HW120285   3.728   0.852   2.048  2.0164  1.5450  0.5047
 2884SOL    HW220286   3.742   0.891   2.185 -0.3027  1.6875  1.8014
 2885SOL     OW20287   4.626   1.340   6.245  0.1130 -0.3874  0.1461
 2885SOL    HW120288   4.622   1.302   6.157 -0.4410 -0.2201  0.1005
 2885SOL    HW220289   4.654   1.268   6.302 -0.8029 -2.2350 -1.7358
 2886SOL     OW20290   4.425   3.592  17.627  0.0033 -0.2626 -0.3445
 2886SOL    HW120291   4.404   3.623  17.716 -2.9576 -2.3726 -0.2999
 2886SOL    HW220292   4.339   3.600  17.586 -0.4036  0.5707  0.6654
 2887SOL     OW20293   1.561   4.732   7.368 -0.1360 -0.4157 -1.0097
 2887SOL    HW120294   1.583   0.059   7.436 -2.0842 -0.8933  0.0452
 2887SOL    HW220295   1.469   4.714   7.386 -0.3784  2.1484  0.4074
 2888SOL     OW20296   2.851   3.031   9.642  0.0387  0.2402  0.2051
 2888SOL    HW120297   2.796   2.998   9.571  0.2642  0.8156 -0.2426
 2888SOL    HW220298   2.935   3.042   9.596 -0.3363  0.3379 -0.4680
 2889SOL     OW20299   1.610   0.281   7.055 -0.1531 -0.2057  0.3475
 2889SOL    HW120300   1.552   0.352   7.029  1.0796  0.9443  0.7633
 2889SOL    HW220301   1.574   0.205   7.008 -0.8140 -0.3760  1.1213
 2890SOL     OW20302   4.043   4.702   5.006 -0.5184 -0.7594  0.0562
 2890SOL    HW120303   4.137   4.715   4.996 -0.4117 -0.0020  1.9812
 2890SOL    HW220304   4.047   4.615   5.045  0.9705  0.9379  3.7541
 2891SOL     OW20305   2.952   0.983  12.758  0.0825  0.0772  0.0003
 2891SOL    HW120306   2.976   0.913  12.698  1.2705 -0.4404  1.0973
 2891SOL    HW220307   2.952   1.056  12.696 -0.4855 -0.8152 -1.0559
 2892SOL     OW20308   3.734   4.066   5.979 -0.2905  0.1752  0.3797
 2892SOL    HW120309   3.677   4.128   5.933 -1.4298 -1.0723  0.1367
 2892SOL    HW220310   3.759   4.018   5.900  0.8459 -0.3901  1.0849
 2893SOL     OW20311   2.270   0.018  15.908  1.6233  0.2560 -0.0710
 2893SOL    HW120312   2.200   4.726  15.966  1.7791 -0.0292 -0.0242
 2893SOL    HW220313   2.221   0.027  15.826  0.5732 -2.0815  0.3063
 2894SOL     OW20314   2.283   4.290   8.302 -0.2861  0.5656  0.0800
 2894SOL    HW120315   2.308   4.380   8.318 -0.3283  0.6810 -0.4991
 2894SOL    HW220316   2.315   4.246   8.381  0.5190  1.0988  0.0400
 2895SOL     OW20317   4.078   0.575  15.459 -0.5463  0.6251  0.1999
 2895SOL    HW120318   3.984   0.560  15.470 -0.7887  1.4514 -0.7233
 2895SOL    HW220319   4.110   0.527  15.535 -1.5369 -2.4441 -1.2891
 2896SOL     OW20320   3.217   4.401   8.054 -0.5497  0.5075  0.6899
 2896SOL    HW120321   3.211   4.496   8.050 -3.7053  0.3326  1.0262
 2896SOL    HW220322   3.248   4.376   8.141  1.0690 -0.8303 -0.2622
 2897SOL     OW20323   2.768   0.045   6.755 -0.4481  0.3734  0.3027
 2897SOL    HW120324   2.735   0.130   6.782 -2.4498 -0.4126  0.3385
 2897SOL    HW220325   2.732   4.729   6.826  0.2851 -1.2100 -0.4836
 2898SOL     OW20326   1.163   2.520   5.894 -0.2945  0.1478  0.0353
 2898SOL    HW120327   1.134   2.465   5.820 -1.2900 -0.1004  0.6071
 2898SOL    HW220328   1.254   2.494   5.908  0.0319  0.8328 -0.8404
 2899SOL     OW20329   2.054   1.379   8.492  0.3635  0.1807 -0.1170
 2899SOL    HW120330   2.000   1.444   8.536 -1.8553 -2.0258  0.4147
 2899SOL    HW220331   2.057   1.324   8.570  0.7794 -0.0327 -0.2798
 2900SOL     OW20332   4.567   2.679   4.925 -0.3242  0.9274  0.6864
 2900SOL    HW120333   4.511   2.654   4.998 -1.6495 -0.0119 -0.6370
 2900SOL    HW220334   4.572   2.775   4.922 -2.5362  1.0336  0.3875
 2901SOL     OW20335   4.487   4.101   2.621 -0.7889  0.3948  0.1194
 2901SOL    HW120336   4.477   4.012   2.654  1.5427  1.0113  2.5114
 2901SOL    HW220337   4.481   4.147   2.705  1.5086  0.7649  0.0839
 2902SOL     OW20338   1.960   4.203   5.852 -0.0675 -0.0363  0.0243
 2902SOL    HW120339   2.028   4.222   5.917 -1.8825  0.2643  1.8330
 2902SOL    HW220340   2.023   4.184   5.782 -1.2277 -2.6277 -0.2832
 2903SOL     OW20341   3.654   3.612  13.543 -0.4829  0.0344  0.1572
 2903SOL    HW120342   3.576   3.580  13.498 -0.4732  1.8473 -1.1167
 2903SOL    HW220343   3.684   3.689  13.495 -0.1217 -0.4234 -0.3518
 2904SOL     OW20344   3.491   1.923  16.553  0.5841  0.2420  0.6023
 2904SOL    HW120345   3.568   1.873  16.577 -0.0663 -0.9585  0.1817
 2904SOL    HW220346   3.514   1.950  16.464 -0.9190 -0.9885 -0.1580
 2905SOL     OW20347   1.772   3.683  11.271  0.2384  0.0447  0.3444
 2905SOL    HW120348   1.846   3.654  11.324 -1.2012 -0.2658  2.1729
 2905SOL    HW220349   1.821   3.755  11.230 -0.6213 -1.0226 -2.5604
 2906SOL     OW20350   0.771   0.111   2.910  0.3647  0.3193 -0.2697
 2906SOL    HW120351   0.853   0.142   2.949 -0.6844  1.9881  0.5972
 2906SOL    HW220352   0.780   0.138   2.819  1.4214  0.6412 -0.0777
 2907SOL     OW20353   2.949   1.023   1.356 -0.1961 -0.3510 -0.6372
 2907SOL    HW120354   2.958   0.929   1.371 -0.1322 -0.3718 -0.8071
 2907SOL    HW220355   2.859   1.043   1.382  0.8256  1.9266  1.1512
 2908SOL     OW20356   0.681   4.619   9.496 -0.4898  0.3493  0.0190
 2908SOL    HW120357   0.629   4.699   9.488  0.0082  0.7578  0.8359
 2908SOL    HW220358   0.746   4.625   9.426 -0.1204  0.8856  0.3997
 2909SOL     OW20359   2.169   2.772   5.761  0.0288 -0.0790 -0.1112
 2909SOL    HW120360   2.130   2.688   5.734  1.3808 -2.1640  4.3992
 2909SOL    HW220361   2.130   2.784   5.847  1.4447  1.4779  0.3029
 2910SOL     OW20362   1.567   3.864   2.265  0.2392 -0.1344  0.0958
 2910SOL    HW120363   1.585   3.777   2.299  0.2253 -0.8724 -1.8050
 2910SOL    HW220364   1.633   3.877   2.198 -1.0871  1.4464 -0.9201
 2911SOL     OW20365   4.549   4.104   2.200 -0.0950 -0.0367  0.0068
 2911SOL    HW120366   4.640   4.116   2.227  0.1373 -1.0588 -0.3487
 2911SOL    HW220367   4.531   4.174   2.137  2.5001  0.2918 -0.3878
 2912SOL     OW20368   4.497   0.536   9.109  0.0102  0.0579 -0.1439
 2912SOL    HW120369   4.588   0.564   9.096 -0.4078  1.2600 -0.4342
 2912SOL    HW220370   4.457   0.598   9.170 -2.1410 -1.6077  0.1403
 2913SOL     OW20371   2.946   2.746   3.681 -0.2192  0.1183  0.5560
 2913SOL    HW120372   2.858   2.776   3.705 -0.8095 -2.0876  1.1648
 2913SOL    HW220373   2.997   2.748   3.762  0.4844  1.3666  0.0730
 2914SOL     OW20374   2.806   3.548   9.073  0.0369 -0.3793 -0.1825
 2914SOL    HW120375   2.848   3.471   9.034  0.4486  0.4534 -1.3717
 2914SOL    HW220376   2.715   3.518   9.074 -0.4437  1.0357 -1.8092
 2915SOL     OW20377   4.256   1.179   8.403 -1.3234  0.7163 -0.2199
 2915SOL    HW120378   4.223   1.209   8.319  0.6436  1.4294 -0.7459
 2915SOL    HW220379   4.249   1.084   8.396  0.5349  0.3502  2.5621
 2916SOL     OW20380   3.827   4.717   2.839  0.1864  0.0617  0.3477
 2916SOL    HW120381   3.823   0.074   2.859 -2.4655  0.0159  0.0324
 2916SOL    HW220382   3.829   4.717   2.744 -1.6610 -0.8375  0.3150
 2917SOL     OW20383   3.834   2.978   2.479  0.0416 -0.5117  0.0938
 2917SOL    HW120384   3.884   2.930   2.545  0.3241  0.8779  0.8931
 2917SOL    HW220385   3.896   2.969   2.408  0.4551  1.6203  0.1846
 2918SOL     OW20386   4.396   0.159  10.317 -0.1110 -0.1652  0.5208
 2918SOL    HW120387   4.478   0.111  10.309  0.1942  0.3235  0.7545
 2918SOL    HW220388   4.410   0.237  10.263 -2.0262  0.0064  0.2437
 2919SOL     OW20389   2.037   2.950   1.601  0.7059  0.0805 -0.7055
 2919SOL    HW120390   2.021   2.967   1.694 -0.0369 -2.2934 -0.4114
 2919SOL    HW220391   1.994   3.020   1.552  4.2418  0.2771 -3.5378
 2920SOL     OW20392   3.974   3.091   5.267 -0.8477 -0.5827  0.1950
 2920SOL    HW120393   4.062   3.128   5.269 -0.9936 -0.1914 -0.6687
 2920SOL    HW220394   3.931   3.135   5.339  0.3531  1.6030 -0.4316
 2921SOL     OW20395   3.729   0.234   8.722 -0.0416 -0.0027  0.2576
 2921SOL    HW120396   3.686   0.320   8.728 -0.9820 -0.4380 -0.3203
 2921SOL    HW220397   3.764   0.211   8.808 -1.2457  0.5398  0.8939
 2922SOL     OW20398   3.191   2.448   5.223  0.0096 -0.4935 -0.1550
 2922SOL    HW120399   3.177   2.480   5.312  3.2471 -1.4679  0.6782
 2922SOL    HW220400   3.189   2.531   5.174 -1.5333 -0.8682 -0.7311
 2923SOL     OW20401   1.789   0.130   6.826  0.3951  0.5304  0.3197
 2923SOL    HW120402   1.746   0.060   6.875 -0.7518  0.0881 -1.3460
 2923SOL    HW220403   1.756   0.115   6.738  3.6399  1.2967 -1.0296
 2924SOL     OW20404   2.449   1.489   3.248 -0.5471  0.0376  0.4331
 2924SOL    HW120405   2.479   1.485   3.339 -0.7202  1.1898  0.5419
 2924SOL    HW220406   2.488   1.574   3.228  0.3627  0.0489  2.2878
 2925SOL     OW20407   3.923   2.269   8.388  0.2517  0.0752  0.3081
 2925SOL    HW120408   3.977   2.190   8.392  0.9137  0.5335  0.5884
 2925SOL    HW220409   3.978   2.331   8.437  0.4925 -0.6368  0.9376
 2926SOL     OW20410   2.846   0.244   9.183  0.0600 -0.0569  0.2974
 2926SOL    HW120411   2.885   0.316   9.232 -1.1433 -0.1690  1.4334
 2926SOL    HW220412   2.771   0.227   9.240 -0.6078  0.4075 -0.4552
 2927SOL     OW20413   1.451   4.068   3.524 -0.3567 -0.1499 -0.3148
 2927SOL    HW120414   1.402   4.147   3.546  0.4957  1.1430 -3.0925
 2927SOL    HW220415   1.393   4.008   3.571  1.2419 -2.9745 -1.9061
 2928SOL     OW20416   2.292   1.292   7.168 -0.6047 -0.0330 -0.3553
 2928SOL    HW120417   2.315   1.240   7.091 -0.6839 -1.0931  0.3414
 2928SOL    HW220418   2.334   1.240   7.237  0.0198 -0.8565 -1.3419
 2929SOL     OW20419   3.064   3.864  15.192 -0.4696  0.2831  0.6745
 2929SOL    HW120420   3.021   3.941  15.229  0.2056  1.4379 -0.9499
 2929SOL    HW220421   3.094   3.897  15.107  1.2520 -2.7805  0.1091
 2930SOL     OW20422   2.851   0.236   7.818  0.7023 -0.0554  0.4402
 2930SOL    HW120423   2.769   0.233   7.768 -0.3088 -1.5523  2.1883
 2930SOL    HW220424   2.851   0.158   7.873  2.0959  0.1318  0.7025
 2931SOL     OW20425   1.958   2.253   9.728  0.5977  0.2014  0.0578
 2931SOL    HW120426   1.945   2.296   9.812 -0.0254 -0.6741  0.4160
 2931SOL    HW220427   2.023   2.191   9.761 -0.9703 -0.5536  1.7420
 2932SOL     OW20428   0.186   0.454   0.993 -0.0612  0.1086 -0.4654
 2932SOL    HW120429   0.217   0.387   0.932  2.1134  0.4948  0.2258
 2932SOL    HW220430   0.183   0.528   0.932  1.8219  0.3435 -0.2978
 2933SOL     OW20431   4.164   0.324  16.436  0.2029 -0.0474  0.5105
 2933SOL    HW120432   4.227   0.253  16.434  2.8365  2.3308  0.0726
 2933SOL    HW220433   4.181   0.362  16.350 -1.4641  0.3725  0.3626
 2934SOL     OW20434   3.898   3.476   8.128 -1.3330 -0.1794  0.1603
 2934SOL    HW120435   3.946   3.417   8.186 -0.2236 -0.7367 -1.3282
 2934SOL    HW220436   3.930   3.562   8.156 -1.8781  0.1612 -0.2602
 2935SOL     OW20437   0.342   2.114   7.412  0.3547 -0.1247 -0.4458
 2935SOL    HW120438   0.373   2.186   7.468 -2.0006  0.4684  0.1120
 2935SOL    HW220439   0.426   2.073   7.393  1.4277  0.7575  2.2861
 2936SOL     OW20440   0.269   0.711   7.539 -0.8301  0.6570  0.4290
 2936SOL    HW120441   0.186   0.683   7.576 -0.3489 -0.7211  0.4780
 2936SOL    HW220442   0.309   0.766   7.606 -2.2224  1.4021  0.6400
 2937SOL     OW20443   1.684   3.537   6.832  0.2986 -0.1274 -0.4658
 2937SOL    HW120444   1.599   3.558   6.870  0.2530  0.1901 -0.7379
 2937SOL    HW220445   1.695   3.451   6.872  3.3120  0.1799 -0.6067
 2938SOL     OW20446   4.051   1.788   8.210 -0.1015  0.3639  0.2542
 2938SOL    HW120447   3.964   1.811   8.177  0.6688  3.2407  0.2885
 2938SOL    HW220448   4.096   1.872   8.218  0.4461  0.2278 -1.3655
 2939SOL     OW20449   0.515   0.746   5.349  0.4065  0.1181  0.4530
 2939SOL    HW120450   0.559   0.665   5.328  0.5325 -0.0004  1.1695
 2939SOL    HW220451   0.434   0.722   5.303  0.4999 -1.5158  1.1539
 2940SOL     OW20452   3.666   0.511   6.116 -0.4130  0.4351 -0.7427
 2940SOL    HW120453   3.588   0.547   6.074 -0.3974  0.5392 -0.6824
 2940SOL    HW220454   3.645   0.418   6.104  1.4761 -0.0210 -0.5105
 2941SOL     OW20455   2.504   0.078   6.107 -0.5136 -0.5589 -0.1676
 2941SOL    HW120456   2.586   0.072   6.156 -1.4999 -1.4475  1.3696
 2941SOL    HW220457   2.464   0.137   6.171  1.6997 -0.7486  1.3966
 2942SOL     OW20458   4.169   1.709   5.289  0.3765 -0.3375 -0.3593
 2942SOL    HW120459   4.197   1.648   5.221  1.4518  1.2741 -1.3586
 2942SOL    HW220460   4.078   1.680   5.297  0.2186  0.6280  1.2966
 2943SOL     OW20461   1.277   0.801   3.618 -1.2292 -0.3163  0.0552
 2943SOL    HW120462   1.358   0.813   3.567 -0.3742 -0.3165  1.4214
 2943SOL    HW220463   1.231   0.882   3.596  0.6097  0.2573 -1.7124
 2944SOL     OW20464   0.820   3.028  12.444  0.2258  0.2149 -0.1855
 2944SOL    HW120465   0.801   3.068  12.359  0.6281 -1.2777 -0.9766
 2944SOL    HW220466   0.906   2.987  12.436  0.0143 -0.3855  0.6084
 2945SOL     OW20467   4.118   2.019  13.509  0.4677  0.4425  0.1317
 2945SOL    HW120468   4.145   2.073  13.435  2.3478 -1.5517 -0.6737
 2945SOL    HW220469   4.102   2.091  13.570 -0.1584 -0.1993  0.7257
 2946SOL     OW20470   4.314   1.208   7.392  0.5854 -0.3401  0.2994
 2946SOL    HW120471   4.303   1.226   7.486 -2.4038  1.2596 -0.3480
 2946SOL    HW220472   4.300   1.113   7.395 -2.1670  0.0037 -1.8483
 2947SOL     OW20473   3.239   3.353  13.575 -0.6915  0.0381 -0.5845
 2947SOL    HW120474   3.229   3.296  13.652  0.0944  1.4547  0.5574
 2947SOL    HW220475   3.180   3.323  13.505  1.8086  1.2959 -3.2388
 2948SOL     OW20476   2.958   3.813   2.940  0.2151  0.3008 -0.0573
 2948SOL    HW120477   2.930   3.724   2.918  1.9725 -0.0538 -0.8461
 2948SOL    HW220478   3.008   3.788   3.017 -0.2648  0.8635  0.4344
 2949SOL     OW20479   2.197   4.479   6.376  0.3147 -0.1416  0.0545
 2949SOL    HW120480   2.269   4.530   6.414  2.0602 -2.5942  0.0288
 2949SOL    HW220481   2.131   4.487   6.445  0.5839  1.7365  0.0927
 2950SOL     OW20482   1.594   1.065   3.078 -0.6807  0.4187  0.3221
 2950SOL    HW120483   1.545   1.070   2.996 -0.1182 -0.4570 -0.0590
 2950SOL    HW220484   1.648   1.144   3.083  1.5037 -0.9175 -2.2931
 2951SOL     OW20485   4.305   1.792  11.084  0.2032  0.1880 -0.2228
 2951SOL    HW120486   4.299   1.888  11.079  0.3545  0.0793 -2.6723
 2951SOL    HW220487   4.271   1.776  10.996  0.4872 -2.0671  0.0783
 2952SOL     OW20488   0.026   0.135   7.393 -0.1902  0.3722  0.3180
 2952SOL    HW120489   4.684   0.115   7.443 -0.2625 -0.9833 -0.3545
 2952SOL    HW220490   0.006   0.221   7.354 -1.9642 -0.6771 -1.0983
 2953SOL     OW20491   3.165   0.147   5.717  0.0360  0.1045  0.2171
 2953SOL    HW120492   3.093   0.197   5.755 -0.6053  1.7610 -3.2304
 2953SOL    HW220493   3.221   0.214   5.678 -1.4315  0.6132 -1.0154
 2954SOL     OW20494   2.958   0.629  17.505 -0.5907  0.3760  0.1177
 2954SOL    HW120495   3.041   0.677  17.511  0.2872 -0.9022 -1.9615
 2954SOL    HW220496   2.957   0.589  17.418  2.3556  1.4900 -0.4303
 2955SOL     OW20497   3.974   4.221   5.797 -0.2320 -0.2427  0.3797
 2955SOL    HW120498   3.932   4.213   5.712 -0.2958 -2.0231  0.5862
 2955SOL    HW220499   3.921   4.287   5.841  0.3287  1.1847 -1.0762
 2956SOL     OW20500   3.153   4.670   0.232  0.2149 -0.4925 -0.4888
 2956SOL    HW120501   3.127   4.604   0.169 -1.6079  0.7090 -0.9795
 2956SOL    HW220502   3.082   4.731   0.216 -1.4643 -1.9487  1.4428
 2957SOL     OW20503   3.421   1.577   6.754  0.5327 -0.2089  0.0738
 2957SOL    HW120504   3.505   1.623   6.753  0.7137 -0.5512 -0.4230
 2957SOL    HW220505   3.397   1.593   6.846 -0.6269 -0.5813 -0.1581
 2958SOL     OW20506   3.136   1.373  17.137 -0.2926  0.0812 -0.8411
 2958SOL    HW120507   3.091   1.398  17.057 -1.5306 -0.7117 -0.3873
 2958SOL    HW220508   3.224   1.390  17.102 -0.1209  0.9317  0.0219
 2959SOL     OW20509   4.549   3.223   2.768 -0.1085 -0.3140  0.0707
 2959SOL    HW120510   4.641   3.211   2.742 -0.1153 -2.1251  0.9092
 2959SOL    HW220511   4.546   3.319   2.777  5.5653  0.0097 -1.3776
 2960SOL     OW20512   2.127   1.931   6.034 -0.2368  0.6215 -0.0308
 2960SOL    HW120513   2.120   1.975   5.950 -1.3755 -0.5080 -0.5203
 2960SOL    HW220514   2.127   1.838   6.011  0.2054  0.4857  0.5057
 2961SOL     OW20515   2.138   2.624  11.408  0.3324  0.3040  0.5983
 2961SOL    HW120516   2.126   2.709  11.365 -0.3931 -1.2765 -2.2842
 2961SOL    HW220517   2.052   2.582  11.408 -0.3423  1.6714 -1.6033
 2962SOL     OW20518   4.408   0.370   2.537  0.1783 -0.2140 -0.0937
 2962SOL    HW120519   4.433   0.461   2.550  0.8501 -0.1582 -1.8233
 2962SOL    HW220520   4.322   0.358   2.498  0.7426 -0.9916 -1.0825
 2963SOL     OW20521   1.533   1.175   4.130  0.3165  0.0183  0.2500
 2963SOL    HW120522   1.588   1.247   4.161 -0.2223 -0.3712  2.1134
 2963SOL    HW220523   1.591   1.129   4.070 -1.0924 -1.9386  0.3913
 2964SOL     OW20524   2.141   1.783   4.459 -0.7705  0.0301 -0.4881
 2964SOL    HW120525   2.073   1.848   4.445  0.5411  1.1138 -1.7138
 2964SOL    HW220526   2.081   1.708   4.457 -1.1113  0.2680  0.5030
 2965SOL     OW20527   4.500   1.968   2.173 -0.4744 -0.1977 -0.4826
 2965SOL    HW120528   4.543   2.053   2.161 -0.1936 -0.4373 -1.1714
 2965SOL    HW220529   4.424   1.989   2.228  0.3892  0.0791  0.6129
 2966SOL     OW20530   2.113   4.157  10.627 -0.5905  0.2732  0.1320
 2966SOL    HW120531   2.193   4.203  10.654 -0.6188  1.1090 -1.2217
 2966SOL    HW220532   2.051   4.223  10.657 -0.3298 -0.6685  2.7696
 2967SOL     OW20533   0.004   3.279  16.762  0.1402 -0.3716 -0.2098
 2967SOL    HW120534   4.726   3.184  16.756  1.7141 -0.5932 -0.5856
 2967SOL    HW220535   4.666   3.306  16.709  0.1691  0.5479  0.2143
 2968SOL     OW20536   4.343   4.299  12.899  0.1352  0.4300 -0.0152
 2968SOL    HW120537   4.319   4.357  12.826  0.4658  0.2866 -0.2365
 2968SOL    HW220538   4.259   4.303  12.946  0.1864  1.4860 -0.0020
 2969SOL     OW20539   1.821   1.227   5.662 -0.1938 -0.2174  0.1524
 2969SOL    HW120540   1.899   1.275   5.691  0.9085 -2.7396  1.3623
 2969SOL    HW220541   1.828   1.163   5.732 -0.4803 -0.9760 -0.5177
 2970SOL     OW20542   0.748   0.994   3.717  0.8680 -0.1106 -0.0219
 2970SOL    HW120543   0.671   1.018   3.768  0.9013  0.2688 -0.1515
 2970SOL    HW220544   0.808   0.964   3.786  1.9994  0.0840 -0.9242
 2971SOL     OW20545   2.049   2.737   9.082  0.3515 -0.1097  0.9701
 2971SOL    HW120546   1.991   2.789   9.137 -0.9798  0.9073 -1.3912
 2971SOL    HW220547   2.132   2.751   9.128 -0.4527 -0.5612  2.5410
 2972SOL     OW20548   4.570   0.159   3.614  0.0328 -0.0455 -0.4822
 2972SOL    HW120549   4.594   0.252   3.603  0.3367 -0.2981 -2.0261
 2972SOL    HW220550   4.645   0.116   3.573 -0.8193 -2.5112  0.6053
 2973SOL     OW20551   3.205   1.609   4.281  0.1969  0.0848 -0.4863
 2973SOL    HW120552   3.164   1.544   4.338 -1.2166  1.4878  0.1190
 2973SOL    HW220553   3.252   1.658   4.348  0.1331 -0.5726  0.0415
 2974SOL     OW20554   4.164   2.055   7.179 -0.7196 -0.3856 -0.0259
 2974SOL    HW120555   4.098   2.067   7.248  0.4581 -0.7930  1.1767
 2974SOL    HW220556   4.206   1.978   7.217  0.0951  0.0443 -0.0566
 2975SOL     OW20557   1.258   2.718   9.050  0.4487 -0.4332  0.5803
 2975SOL    HW120558   1.178   2.695   9.097 -0.3770  0.0668 -0.5748
 2975SOL    HW220559   1.317   2.645   9.070  1.2096 -0.0368 -0.2442
 2976SOL     OW20560   0.329   0.771   8.094 -0.6525  0.6818 -0.2747
 2976SOL    HW120561   0.268   0.790   8.164  0.8982  1.3977  0.8838
 2976SOL    HW220562   0.385   0.847   8.107  0.5588 -0.2943  0.1996
 2977SOL     OW20563   1.513   0.662   5.255  0.6488 -0.3528 -0.2542
 2977SOL    HW120564   1.565   0.606   5.197  1.7219  2.0714 -1.6211
 2977SOL    HW220565   1.491   0.600   5.325  0.7993  0.6626  0.6939
 2978SOL     OW20566   3.168   0.801  17.673 -0.5051 -0.3186 -0.2388
 2978SOL    HW120567   3.231   0.729  17.673 -0.0411  0.0774 -1.4440
 2978SOL    HW220568   3.211   0.871  17.624  3.7290 -0.9133  2.6915
 2979SOL     OW20569   0.755   3.753   7.725  0.0901  0.4578  0.0879
 2979SOL    HW120570   0.709   3.722   7.647 -0.9737 -2.4632  1.8526
 2979SOL    HW220571   0.687   3.730   7.788  0.7622 -0.9458  0.3252
 2980SOL     OW20572   2.109   4.011   4.310  0.2661 -0.0358  0.7933
 2980SOL    HW120573   2.107   4.104   4.332  0.9222  0.7784 -2.5984
 2980SOL    HW220574   2.201   3.999   4.337  0.5459  1.3052  0.4226
 2981SOL     OW20575   3.274   0.943   1.594  0.3092 -0.0463  0.2557
 2981SOL    HW120576   3.327   1.021   1.581  3.0558 -1.7279  1.5985
 2981SOL    HW220577   3.195   0.974   1.639 -0.8175 -1.8341 -0.4640
 2982SOL     OW20578   2.210   2.245   5.056  0.0147  0.2232  0.5013
 2982SOL    HW120579   2.151   2.224   4.983  0.9791  0.3244 -0.3035
 2982SOL    HW220580   2.266   2.169   5.071  1.0480  0.4818 -2.0046
 2983SOL     OW20581   4.385   3.930   3.408  0.3957 -0.0428  0.0784
 2983SOL    HW120582   4.392   3.907   3.315  2.8752  2.7009 -0.3958
 2983SOL    HW220583   4.346   3.844   3.428  0.2465 -0.3905 -1.6273
 2984SOL     OW20584   3.365   0.684   1.532 -0.1216  0.6380  0.7915
 2984SOL    HW120585   3.345   0.777   1.523  0.1755  0.6596  0.3769
 2984SOL    HW220586   3.371   0.667   1.626  2.0157 -0.3296  0.4848
 2985SOL     OW20587   3.518   0.836   1.261 -0.1907 -0.3469 -0.0638
 2985SOL    HW120588   3.508   0.931   1.265 -0.7857 -0.4770  1.7107
 2985SOL    HW220589   3.431   0.804   1.284 -1.7370  1.5480 -3.1835
 2986SOL     OW20590   2.997   2.177   2.339  0.0928  0.3709  0.3047
 2986SOL    HW120591   2.929   2.244   2.341 -1.1933 -0.9039 -0.6393
 2986SOL    HW220592   2.970   2.125   2.263 -1.0803  0.6994  0.5011
 2987SOL     OW20593   0.271   3.910  12.660  0.2447 -0.2294 -0.4622
 2987SOL    HW120594   0.331   3.879  12.728 -0.3114 -1.7912 -0.6924
 2987SOL    HW220595   0.292   3.869  12.577 -0.9021  0.1676 -0.9398
 2988SOL     OW20596   1.739   2.464   7.164  0.0547  0.2067  0.4327
 2988SOL    HW120597   1.735   2.372   7.187  0.1993  0.2290  0.5449
 2988SOL    HW220598   1.831   2.493   7.165  1.1474 -3.3306  0.7860
 2989SOL     OW20599   3.620   1.855   4.595 -0.2363 -0.2406  0.0849
 2989SOL    HW120600   3.704   1.818   4.567 -0.1763 -0.4352  0.5231
 2989SOL    HW220601   3.610   1.805   4.675  1.4474 -0.2771  0.2737
 2990SOL     OW20602   4.106   4.580  13.790 -0.3264  0.6352 -0.1651
 2990SOL    HW120603   4.152   4.566  13.708 -0.8641  0.2446 -0.4011
 2990SOL    HW220604   4.041   4.643  13.759 -0.2065  0.7749 -0.1337
 2991SOL     OW20605   4.303   0.803   1.296  0.6686 -0.0248  0.4648
 2991SOL    HW120606   4.369   0.740   1.266 -0.6067 -0.6373 -1.0662
 2991SOL    HW220607   4.219   0.770   1.263  0.9710  0.2193 -0.5643
 2992SOL     OW20608   3.822   1.430   5.958  0.2356 -0.4308 -0.1187
 2992SOL    HW120609   3.758   1.389   6.016  2.6763 -0.1654  2.7745
 2992SOL    HW220610   3.813   1.521   5.987 -0.5438 -1.6628  3.5386
 2993SOL     OW20611   2.501   3.224   7.646  0.3397  0.3736  0.1076
 2993SOL    HW120612   2.428   3.264   7.598  0.9139  1.3071  0.0152
 2993SOL    HW220613   2.571   3.289   7.641  1.1317 -0.3197  2.3510
 2994SOL     OW20614   4.349   1.718   4.342 -0.1114 -0.5384 -0.4814
 2994SOL    HW120615   4.370   1.811   4.339 -0.3853 -0.5256 -2.6750
 2994SOL    HW220616   4.299   1.701   4.261 -0.5782  1.6903 -0.6598
 2995SOL     OW20617   3.270   3.224   3.920  0.3125  0.6748  0.3803
 2995SOL    HW120618   3.192   3.241   3.867 -0.4708 -0.2300  1.2344
 2995SOL    HW220619   3.323   3.210   3.842 -1.4251 -2.1295 -0.2964
 2996SOL     OW20620   3.410   3.672  16.755 -0.3299  0.1763  0.3207
 2996SOL    HW120621   3.357   3.747  16.782  2.8998  2.6442 -0.2044
 2996SOL    HW220622   3.411   3.622  16.837 -0.5425  0.8806  0.7445
 2997SOL     OW20623   3.854   3.347   3.951 -0.1310 -0.3083 -0.3214
 2997SOL    HW120624   3.786   3.303   3.901  0.9643 -0.4505 -1.7158
 2997SOL    HW220625   3.816   3.336   4.038 -1.3252 -0.2212 -0.8441
 2998SOL     OW20626   0.015   0.354   9.490  0.2431 -0.7601 -0.4013
 2998SOL    HW120627   4.677   0.415   9.485  1.5262  0.8687  0.4447
 2998SOL    HW220628   4.706   0.283   9.445 -1.9263  1.0240 -1.0682
 2999SOL     OW20629   3.411   1.307  10.847  0.1594 -0.3232  0.3213
 2999SOL    HW120630   3.376   1.380  10.797  0.7331 -2.2458 -2.8921
 2999SOL    HW220631   3.502   1.324  10.871  0.5503 -1.5786 -0.2814
 3000SOL     OW20632   2.575   3.635  13.713 -0.1589 -0.0719  0.0680
 3000SOL    HW120633   2.606   3.691  13.785 -0.1953 -0.1298  0.1278
 3000SOL    HW220634   2.592   3.544  13.737 -0.3570 -0.1163  0.0354
 3001SOL     OW20635   1.008   2.915   1.518 -0.3479 -0.5093  0.3985
 3001SOL    HW120636   1.096   2.953   1.519 -1.1585  1.3747  0.5321
 3001SOL    HW220637   0.978   2.945   1.604 -0.2740  3.1947 -0.8537
 3002SOL     OW20638   1.441   3.683   4.912 -0.2357  0.0433  0.2925
 3002SOL    HW120639   1.500   3.737   4.966  1.7591 -0.5442 -1.2948
 3002SOL    HW220640   1.451   3.598   4.955 -0.9856 -0.1610  0.0483
 3003SOL     OW20641   0.241   2.618   7.135 -0.3465  0.5174  0.7091
 3003SOL    HW120642   0.153   2.654   7.119  0.3055  2.0205  0.5006
 3003SOL    HW220643   0.292   2.691   7.100  0.5342  0.3068  1.5531
 3004SOL     OW20644   0.958   4.070   8.532  0.4325  0.5049 -0.0418
 3004SOL    HW120645   0.942   4.105   8.444 -0.6970  0.4856  0.1597
 3004SOL    HW220646   0.872   4.101   8.560  0.6085 -0.6486  1.7910
 3005SOL     OW20647   2.191   0.832   7.334 -0.2618 -0.6074  0.8312
 3005SOL    HW120648   2.095   0.836   7.332 -0.3126 -1.8442 -0.1860
 3005SOL    HW220649   2.202   0.893   7.406  1.3261  1.1866 -0.9536
 3006SOL     OW20650   3.272   1.607   4.772  0.2470 -0.5339  0.0169
 3006SOL    HW120651   3.334   1.676   4.751  1.1125 -0.9255  1.3062
 3006SOL    HW220652   3.193   1.660   4.784  1.0880  0.8150 -0.5049
 3007SOL     OW20653   2.706   0.754   7.574 -0.2407 -0.2662 -0.8292
 3007SOL    HW120654   2.676   0.845   7.562  0.3858 -0.0917 -1.1035
 3007SOL    HW220655   2.800   0.763   7.558 -0.4516 -0.9668 -2.4797
 3008SOL     OW20656   1.293   0.114   6.111  0.0716  0.4817  0.8518
 3008SOL    HW120657   1.348   0.183   6.074  0.5089  0.9558  2.3894
 3008SOL    HW220658   1.343   0.034   6.095  1.0983  1.1931  0.5095
 3009SOL     OW20659   3.146   1.170   6.556  0.0529 -0.1386  0.6850
 3009SOL    HW120660   3.069   1.177   6.612  1.2143 -2.1377  2.5156
 3009SOL    HW220661   3.213   1.137   6.615  0.9296 -0.3473 -0.4209
 3010SOL     OW20662   1.842   1.642   5.172  0.0768 -0.0701  0.3120
 3010SOL    HW120663   1.752   1.655   5.141 -0.6463  0.0755  2.5191
 3010SOL    HW220664   1.821   1.578   5.240 -1.4769 -1.3756 -1.3906
 3011SOL     OW20665   4.427   0.953  15.532  0.4542  0.2047 -0.0746
 3011SOL    HW120666   4.390   1.027  15.581 -0.0308 -1.5848  2.2335
 3011SOL    HW220667   4.394   0.876  15.577 -0.5711  0.1274 -0.9659
 3012SOL     OW20668   0.602   2.298   3.138  0.3091  0.1912  0.2400
 3012SOL    HW120669   0.679   2.288   3.194  1.7447 -2.0479 -2.1750
 3012SOL    HW220670   0.568   2.382   3.170 -0.9153 -0.3035  0.2289
 3013SOL     OW20671   1.350   4.255   7.384  0.0001  0.3998 -0.3272
 3013SOL    HW120672   1.294   4.196   7.434  0.5205  2.5189  2.8265
 3013SOL    HW220673   1.404   4.280   7.460  1.6575  1.7150 -1.9471
 3014SOL     OW20674   0.236   1.569   7.238  0.0752  0.4573 -0.3533
 3014SOL    HW120675   0.189   1.503   7.188  0.1099  0.8600 -0.9210
 3014SOL    HW220676   0.294   1.511   7.287 -1.1905 -1.4085 -1.0894
 3015SOL     OW20677   1.174   1.897  11.132  0.2505 -0.4075 -0.0942
 3015SOL    HW120678   1.252   1.848  11.106  0.1987 -0.0123 -0.9700
 3015SOL    HW220679   1.173   1.875  11.226  1.0341 -1.9743 -0.4396
 3016SOL     OW20680   2.146   2.073  13.029 -0.2161  0.0624 -0.1122
 3016SOL    HW120681   2.075   2.137  13.027 -0.3527 -0.1043 -0.5568
 3016SOL    HW220682   2.157   2.069  12.934 -2.6631 -0.8528 -0.3537
 3017SOL     OW20683   1.434   4.572  14.186 -0.0822 -0.3857 -0.1714
 3017SOL    HW120684   1.493   4.628  14.137 -0.7484 -0.8284 -1.4815
 3017SOL    HW220685   1.492   4.499  14.209  1.3372  0.8861  0.2653
 3018SOL     OW20686   3.872   3.341  12.602 -0.6912  0.2197 -0.3109
 3018SOL    HW120687   3.955   3.300  12.628  0.3117 -0.1774 -4.1599
 3018SOL    HW220688   3.888   3.431  12.630 -0.2272  0.4373 -1.2718
 3019SOL     OW20689   3.374   0.165  17.461 -0.2745  0.1916 -0.1312
 3019SOL    HW120690   3.418   0.110  17.526  0.6584 -0.5763 -1.4273
 3019SOL    HW220691   3.451   0.180  17.408 -2.0774  0.9293 -2.5315
 3020SOL     OW20692   0.523   4.117   7.194  0.1299  0.7264  0.1154
 3020SOL    HW120693   0.445   4.169   7.175  0.0941  0.8383  0.5721
 3020SOL    HW220694   0.518   4.114   7.290  0.0311  0.5298  0.1038
 3021SOL     OW20695   0.159   1.832   4.360  0.4696  0.3211 -0.1123
 3021SOL    HW120696   0.161   1.928   4.361  1.2016  0.2903  1.5676
 3021SOL    HW220697   0.215   1.806   4.433 -0.2092 -1.9276 -0.4099
 3022SOL     OW20698   2.648   1.298   0.364 -0.0453  0.5140  0.1483
 3022SOL    HW120699   2.591   1.236   0.319 -0.0436 -1.4255  2.8443
 3022SOL    HW220700   2.687   1.228   0.416 -0.9607  0.4344  0.7205
 3023SOL     OW20701   3.760   3.177   0.563  0.0460  0.6387 -0.1524
 3023SOL    HW120702   3.750   3.098   0.509 -0.0808 -0.3604  1.3255
 3023SOL    HW220703   3.672   3.188   0.599  0.8378  1.4043  1.5409
 3024SOL     OW20704   3.874   4.407   5.547  0.3712 -0.0590 -0.4247
 3024SOL    HW120705   3.792   4.358   5.549  0.5567 -0.4143 -1.4899
 3024SOL    HW220706   3.845   4.484   5.498  1.5875 -0.3189 -1.5715
 3025SOL     OW20707   3.887   0.904   1.766 -0.4238  0.9563  0.3726
 3025SOL    HW120708   3.812   0.930   1.714 -2.0534 -0.9546  1.7622
 3025SOL    HW220709   3.948   0.977   1.754 -0.3169  0.7389 -0.4128
 3026SOL     OW20710   3.970   4.521  15.641 -0.5763  0.1058  0.1920
 3026SOL    HW120711   3.889   4.537  15.593 -0.4658  0.8863  0.2661
 3026SOL    HW220712   4.001   4.435  15.613  0.8118  0.6947 -0.0821
 3027SOL     OW20713   2.392   1.320  16.408  0.4702 -0.4435  0.0490
 3027SOL    HW120714   2.405   1.414  16.423 -0.7968 -0.0132 -1.4962
 3027SOL    HW220715   2.431   1.289  16.490 -0.7665 -1.1198  0.3911
 3028SOL     OW20716   0.625   4.300  13.838  0.2982 -0.1775  0.2418
 3028SOL    HW120717   0.602   4.321  13.747 -0.0332  0.6860  0.5219
 3028SOL    HW220718   0.606   4.384  13.879 -1.4203 -1.7890  2.6674
 3029SOL     OW20719   2.379   0.266   3.077  0.0615 -0.9890  0.2803
 3029SOL    HW120720   2.443   0.279   3.006 -1.1034  0.9607 -0.4037
 3029SOL    HW220721   2.417   0.311   3.152  0.2786 -3.7380  1.8210
 3030SOL     OW20722   2.806   1.160  15.208  0.4338  0.5900 -0.4115
 3030SOL    HW120723   2.755   1.098  15.156 -0.9846  1.3365  0.0686
 3030SOL    HW220724   2.782   1.244  15.169 -2.5949 -1.0199 -2.0037
 3031SOL     OW20725   0.574   1.100   7.378 -0.2452  0.1679  0.0141
 3031SOL    HW120726   0.480   1.097   7.362 -0.1354  0.3446 -0.6303
 3031SOL    HW220727   0.601   1.165   7.314 -0.1629  1.9158  1.8050
 3032SOL     OW20728   1.801   2.107   7.818  0.3438 -0.0367 -0.2966
 3032SOL    HW120729   1.745   2.053   7.763 -0.2277 -3.1446  3.3319
 3032SOL    HW220730   1.757   2.191   7.827  0.3255 -0.0501 -0.2593
 3033SOL     OW20731   0.253   3.767   5.968  0.3082  0.1768  0.4928
 3033SOL    HW120732   0.239   3.685   5.921 -2.4818  0.2643  1.1993
 3033SOL    HW220733   0.164   3.801   5.962  0.3130  0.3463  1.4473
 3034SOL     OW20734   2.568   0.438   5.676 -0.1723 -0.1160  0.5521
 3034SOL    HW120735   2.518   0.504   5.724 -0.6567  1.2221 -1.8347
 3034SOL    HW220736   2.493   0.384   5.648 -0.4643  0.2824  0.5651
 3035SOL     OW20737   3.887   1.633   7.785 -0.1691  0.1733  0.1415
 3035SOL    HW120738   3.969   1.676   7.763 -1.1094  1.4407 -0.9259
 3035SOL    HW220739   3.863   1.596   7.700 -1.6777 -0.9411  1.0491
 3036SOL     OW20740   3.276   2.848   5.910 -0.2626  0.0842 -0.4469
 3036SOL    HW120741   3.307   2.914   5.847  1.9016 -0.3276  0.1860
 3036SOL    HW220742   3.360   2.808   5.929 -0.1013 -0.0341 -1.3807
 3037SOL     OW20743   4.390   1.967  17.353  0.0969 -0.8602  0.5084
 3037SOL    HW120744   4.464   2.024  17.371 -0.6759  0.2689  0.0950
 3037SOL    HW220745   4.401   1.896  17.417 -1.5060 -2.0085 -0.4863
 3038SOL     OW20746   3.257   3.647   4.699 -0.7420  0.4740 -0.1985
 3038SOL    HW120747   3.185   3.702   4.669  0.3080  1.4203 -0.9647
 3038SOL    HW220748   3.222   3.559   4.710  0.1696  0.1666  0.2486
 3039SOL     OW20749   2.447   2.456   6.648  0.4788  0.0441  0.3483
 3039SOL    HW120750   2.377   2.455   6.712  0.0463 -3.5875 -0.1909
 3039SOL    HW220751   2.501   2.381   6.673  1.5318  0.1825 -1.4272
 3040SOL     OW20752   3.332   2.991   9.121 -0.0834 -0.7769  0.4185
 3040SOL    HW120753   3.277   2.913   9.120  1.0406 -1.6027  2.3349
 3040SOL    HW220754   3.419   2.968   9.089 -0.5796 -0.7488 -0.9433
 3041SOL     OW20755   0.911   1.330   7.400  0.4615 -0.1364 -0.0626
 3041SOL    HW120756   0.953   1.354   7.482 -1.6240 -2.2838  1.6345
 3041SOL    HW220757   0.866   1.251   7.429  0.0494 -0.4829 -1.6135
 3042SOL     OW20758   0.494   1.570  17.678  0.6094  0.4865 -0.2046
 3042SOL    HW120759   0.432   1.595   0.002  0.0134 -1.0143 -0.2104
 3042SOL    HW220760   0.478   1.476  17.684  0.3269  0.7174  2.6240
 3043SOL     OW20761   1.539   3.542   0.653  0.2447  0.7017 -0.0138
 3043SOL    HW120762   1.483   3.604   0.606  1.5217  0.8335 -1.3848
 3043SOL    HW220763   1.503   3.560   0.739 -1.3775  1.3093 -0.8154
 3044SOL     OW20764   2.232   4.682   6.096 -0.4488  0.0791  0.2046
 3044SOL    HW120765   2.317   4.725   6.098 -0.8540  0.8518  0.8026
 3044SOL    HW220766   2.255   4.590   6.108 -0.7577  0.2946  2.3683
 3045SOL     OW20767   3.318   4.140   3.683  0.2583 -0.3231  0.2736
 3045SOL    HW120768   3.256   4.132   3.756  2.1714 -2.4100  1.6693
 3045SOL    HW220769   3.307   4.061   3.631  2.0009 -1.7792  2.1557
 3046SOL     OW20770   0.550   3.947  12.387  0.2660 -0.0257  0.0716
 3046SOL    HW120771   0.601   3.889  12.331  0.0679 -0.5732  0.4606
 3046SOL    HW220772   0.469   3.897  12.398  2.0120 -2.5449  1.3945
 3047SOL     OW20773   0.657   2.608   7.627 -1.0582  0.5829  0.2355
 3047SOL    HW120774   0.701   2.590   7.544  2.4031  1.6501  1.8120
 3047SOL    HW220775   0.716   2.678   7.652  2.0585 -1.7936 -0.3992
 3048SOL     OW20776   3.984   4.464   1.134 -0.2285  0.0790 -0.3881
 3048SOL    HW120777   3.938   4.482   1.052 -1.4743  0.1512  0.3318
 3048SOL    HW220778   3.941   4.520   1.199  2.3454  1.8592 -0.1910
 3049SOL     OW20779   3.310   1.459   7.644  0.2787 -0.6222 -0.0467
 3049SOL    HW120780   3.258   1.385   7.611 -0.2696  0.8737 -2.5266
 3049SOL    HW220781   3.314   1.508   7.562  0.2284  1.9512  1.4983
 3050SOL     OW20782   4.472   0.578   0.802 -0.2512 -0.5613  0.2140
 3050SOL    HW120783   4.412   0.521   0.850 -0.9625  0.7251  0.8386
 3050SOL    HW220784   4.544   0.598   0.861  1.3601 -1.1679 -1.5246
 3051SOL     OW20785   0.112   2.220   7.567  0.4216  0.3123 -0.2429
 3051SOL    HW120786   0.146   2.299   7.525 -2.2305  1.9485  0.7087
 3051SOL    HW220787   0.078   2.172   7.492 -2.0146  2.2650 -0.3916
 3052SOL     OW20788   3.861   0.436   8.341 -0.1546  0.3016  0.1665
 3052SOL    HW120789   3.813   0.463   8.262  1.0653  0.8489 -0.3962
 3052SOL    HW220790   3.856   0.509   8.402  1.4875 -0.6401  1.4006
 3053SOL     OW20791   0.074   1.468   6.418  0.1301 -0.1630  0.2956
 3053SOL    HW120792   0.140   1.418   6.370  1.0435  0.1197  1.2354
 3053SOL    HW220793   4.731   1.432   6.380 -0.4183  3.0418 -1.5828
 3054SOL     OW20794   3.995   1.365   9.757  0.6128 -0.5118  0.4151
 3054SOL    HW120795   3.968   1.357   9.665 -1.6619  0.1003  1.0251
 3054SOL    HW220796   3.946   1.295   9.799 -1.5603  0.7548 -0.0086
 3055SOL     OW20797   0.818   0.867  15.705 -0.0692 -0.2736 -0.8603
 3055SOL    HW120798   0.845   0.954  15.675  0.3118 -0.2029 -0.3017
 3055SOL    HW220799   0.763   0.822  15.641  0.7657  0.8965 -2.3926
 3056SOL     OW20800   1.848   3.285  16.920  0.0950 -0.1253 -0.1707
 3056SOL    HW120801   1.858   3.207  16.975  0.0219  0.4488  0.6461
 3056SOL    HW220802   1.785   3.330  16.976  0.0082 -0.4535 -0.0031
 3057SOL     OW20803   3.062   2.624   2.413 -0.5354  0.1541  0.4882
 3057SOL    HW120804   3.127   2.593   2.350 -1.0185 -1.2592  0.6882
 3057SOL    HW220805   2.986   2.620   2.355 -0.3403 -0.1619  0.2554
 3058SOL     OW20806   3.007   2.196   9.839 -0.2228 -0.0097 -0.8033
 3058SOL    HW120807   3.040   2.270   9.788 -0.9961 -0.2070 -1.5948
 3058SOL    HW220808   3.067   2.129   9.809 -0.2666 -0.8069  0.8721
 3059SOL     OW20809   3.782   0.343  14.936  0.3358 -0.1039  0.4146
 3059SOL    HW120810   3.815   0.431  14.916  3.7657 -1.1124  1.6840
 3059SOL    HW220811   3.713   0.338  14.871 -1.3721 -0.1188  2.2319
 3060SOL     OW20812   2.422   4.101   6.751 -0.4548 -0.5011  0.7509
 3060SOL    HW120813   2.490   4.040   6.779 -0.2260 -1.7423 -2.4568
 3060SOL    HW220814   2.352   4.084   6.813 -1.8441 -1.7503 -1.1291
 3061SOL     OW20815   3.023   1.759   5.550  0.1447 -0.2363 -0.0230
 3061SOL    HW120816   3.104   1.785   5.508  0.1151 -1.5977 -0.9215
 3061SOL    HW220817   3.047   1.745   5.642  1.5651  1.2048 -0.1853
 3062SOL     OW20818   3.486   3.914   8.782  0.0696  0.0447 -0.3165
 3062SOL    HW120819   3.427   3.911   8.857 -0.0169  1.2753 -0.3310
 3062SOL    HW220820   3.570   3.880   8.811 -1.4190 -2.6222  0.7760
 3063SOL     OW20821   2.463   4.559  16.001  0.4830  0.2764 -1.1250
 3063SOL    HW120822   2.551   4.592  15.981  0.7907  0.8183  1.0915
 3063SOL    HW220823   2.406   4.632  15.977 -0.2880  0.1206  0.2463
 3064SOL     OW20824   0.496   4.581   1.768 -0.2031  0.0303 -0.5138
 3064SOL    HW120825   0.582   4.613   1.741 -0.5855  1.6910  0.1853
 3064SOL    HW220826   0.443   4.649   1.726 -0.9888 -1.8009 -2.4357
 3065SOL     OW20827   3.501   2.051   2.339 -0.2334 -0.1776  0.3880
 3065SOL    HW120828   3.560   2.096   2.400 -1.5543  0.4811  1.1911
 3065SOL    HW220829   3.440   2.122   2.318  3.2366  2.0431 -2.0599
 3066SOL     OW20830   4.730   3.019   4.332 -1.3153  0.5476  0.3697
 3066SOL    HW120831   0.001   2.974   4.249  2.0337  1.1546  0.3432
 3066SOL    HW220832   0.083   2.998   4.357 -1.3182  0.4102  0.2592
 3067SOL     OW20833   1.158   0.542   3.639  0.3643  0.1209  0.3284
 3067SOL    HW120834   1.183   0.626   3.600 -2.3274  0.6380 -0.2608
 3067SOL    HW220835   1.235   0.485   3.627 -0.4365 -0.9264  0.2102
 3068SOL     OW20836   3.894   2.692   5.147  0.0312  0.2129 -0.3282
 3068SOL    HW120837   3.938   2.626   5.200 -0.0605  0.2103 -0.2544
 3068SOL    HW220838   3.888   2.639   5.067  2.3129 -1.3555  0.5372
 3069SOL     OW20839   0.304   3.777   6.473  0.3237 -0.4408 -0.6078
 3069SOL    HW120840   0.328   3.765   6.381  1.2139  1.6001 -0.6375
 3069SOL    HW220841   0.357   3.707   6.509 -0.5046 -0.1410  1.2007
 3070SOL     OW20842   1.060   1.353  16.641 -0.1930 -0.2868  0.0399
 3070SOL    HW120843   1.042   1.263  16.667  0.9387 -1.1062 -1.9614
 3070SOL    HW220844   0.974   1.383  16.613  0.1987 -0.3202 -1.2049
 3071SOL     OW20845   1.738   0.604   9.549 -0.4403 -0.0230 -0.3223
 3071SOL    HW120846   1.794   0.545   9.600 -0.8090 -0.9928 -1.0453
 3071SOL    HW220847   1.649   0.572   9.562 -1.0098  0.6373 -2.5996
 3072SOL     OW20848   1.938   4.025   3.593  0.0781  0.4812  0.0145
 3072SOL    HW120849   2.005   3.983   3.647  1.4872 -0.6230 -2.5794
 3072SOL    HW220850   1.857   3.986   3.628  1.2785  0.9097  3.3127
 3073SOL     OW20851   4.584   0.757   1.333 -0.4354 -0.1387 -0.0714
 3073SOL    HW120852   4.673   0.772   1.365 -0.6588  1.5723 -0.2803
 3073SOL    HW220853   4.545   0.842   1.352 -1.7045 -0.8140  0.3170
 3074SOL     OW20854   1.652   2.802  12.948  0.2221 -0.4434 -0.2641
 3074SOL    HW120855   1.649   2.897  12.933  0.6720 -0.2307  1.0063
 3074SOL    HW220856   1.645   2.788  13.042 -0.8647 -0.1693 -0.3032
 3075SOL     OW20857   1.002   1.443   4.788  0.0252 -0.3676 -0.6448
 3075SOL    HW120858   1.018   1.370   4.728 -4.9455 -2.1448  0.2076
 3075SOL    HW220859   0.974   1.392   4.864  1.1826 -3.4116 -2.2419
 3076SOL     OW20860   0.669   0.944  16.770  0.0145 -1.0267 -0.3452
 3076SOL    HW120861   0.607   0.876  16.743 -1.1760 -0.3479  0.7215
 3076SOL    HW220862   0.726   0.947  16.694  1.1950 -1.0170  0.5379
 3077SOL     OW20863   4.169   3.648  17.524 -0.2451  0.4382  0.4443
 3077SOL    HW120864   4.137   3.728  17.564 -0.6329  0.2585  0.4914
 3077SOL    HW220865   4.138   3.661  17.435  2.7352  1.9746 -0.3826
 3078SOL     OW20866   1.431   3.543   2.184  0.3179 -0.1325  1.0143
 3078SOL    HW120867   1.401   3.629   2.215 -2.8755 -1.1580  0.7194
 3078SOL    HW220868   1.384   3.522   2.104  2.7161 -0.8329 -0.2071
 3079SOL     OW20869   3.481   4.722  17.655  0.3265  0.1161  0.2608
 3079SOL    HW120870   3.417   4.732  17.726  1.4605  2.7270  0.8945
 3079SOL    HW220871   3.534   4.646  17.680  1.1264  0.4722 -0.3480
 3080SOL     OW20872   3.390   0.026   5.126  0.0650 -0.2767 -0.0496
 3080SOL    HW120873   3.303   4.725   5.119 -0.4867  1.3128 -1.8712
 3080SOL    HW220874   3.369   0.118   5.144  2.0172  0.0056  0.8414
 3081SOL     OW20875   1.671   2.692   4.124  0.4424 -0.4593 -0.6435
 3081SOL    HW120876   1.666   2.769   4.067  0.7503  0.1073  0.0958
 3081SOL    HW220877   1.587   2.688   4.170  0.6508  0.9906 -0.1313
 3082SOL     OW20878   3.332   4.660  13.369 -0.5359 -0.4003 -0.3975
 3082SOL    HW120879   3.350   4.719  13.442 -3.7111  1.2490 -0.9324
 3082SOL    HW220880   3.281   4.721  13.316  0.1847  0.0807 -0.5412
 3083SOL     OW20881   2.185   2.782   2.819 -0.4420 -0.1691  0.6324
 3083SOL    HW120882   2.269   2.784   2.773 -1.2657  1.3405 -0.8156
 3083SOL    HW220883   2.202   2.820   2.905 -0.5152 -2.5460  1.6755
 3084SOL     OW20884   4.526   4.555   6.805  0.1856 -0.3034 -0.3606
 3084SOL    HW120885   4.568   4.478   6.844 -0.0371  0.3251  1.1261
 3084SOL    HW220886   4.596   4.617   6.786 -0.7028  0.9248  0.3388
 3085SOL     OW20887   1.892   1.180   4.820  0.1656  0.3246  0.1457
 3085SOL    HW120888   1.876   1.237   4.895 -0.1903 -0.7703  0.8987
 3085SOL    HW220889   1.975   1.140   4.845  1.8126  4.3098  1.0148
 3086SOL     OW20890   0.261   0.378   4.170 -0.3837  0.1180 -0.2590
 3086SOL    HW120891   0.312   0.311   4.124 -0.2117 -1.1241  1.7249
 3086SOL    HW220892   0.298   0.458   4.133  0.5614 -0.6416 -0.9347
 3087SOL     OW20893   3.690   2.310   3.215  0.0287 -0.4472  0.0159
 3087SOL    HW120894   3.772   2.264   3.231  0.8017  0.1684 -2.1097
 3087SOL    HW220895   3.624   2.275   3.275 -0.4364 -1.7642 -1.2426
 3088SOL     OW20896   3.322   4.110   0.024  0.7212 -0.0430  0.4291
 3088SOL    HW120897   3.350   4.025   0.057 -0.1752 -0.6655 -0.4177
 3088SOL    HW220898   3.245   4.088  17.717  1.3079 -1.8264  0.3175
 3089SOL     OW20899   4.091   1.116  11.543  0.1856 -0.3551 -0.0035
 3089SOL    HW120900   4.146   1.073  11.478  1.3395 -0.0194  0.7538
 3089SOL    HW220901   4.104   1.208  11.520 -1.2125 -0.4924 -1.3921
 3090SOL     OW20902   3.565   0.576   8.555  0.0609  0.1604 -0.0777
 3090SOL    HW120903   3.512   0.646   8.516 -1.2335 -0.0206  1.3641
 3090SOL    HW220904   3.627   0.627   8.606 -1.5695 -0.1876  2.2614
 3091SOL     OW20905   0.775   1.490  16.292  0.3975  0.6829  0.2321
 3091SOL    HW120906   0.708   1.485  16.224 -1.1448  1.6598  1.6719
 3091SOL    HW220907   0.845   1.537  16.246  1.5655 -0.0395  1.3010
 3092SOL     OW20908   2.095   1.353   4.272 -0.4469 -0.1486  0.3902
 3092SOL    HW120909   2.174   1.309   4.242  0.9329  1.9773  0.8337
 3092SOL    HW220910   2.127   1.389   4.355  1.3883 -1.2262  0.1508
 3093SOL     OW20911   2.359   1.565   0.389 -0.0929 -0.3393 -0.0098
 3093SOL    HW120912   2.405   1.513   0.455  0.7564  1.2685  0.6811
 3093SOL    HW220913   2.434   1.592   0.335  0.8107 -0.9457  0.9273
 3094SOL     OW20914   2.632   4.001   8.195  0.2600 -0.5188  0.1525
 3094SOL    HW120915   2.689   3.945   8.142  0.7089  0.7372 -0.7032
 3094SOL    HW220916   2.696   4.027   8.261 -0.7199 -1.8501  1.6270
 3095SOL     OW20917   0.469   0.758   4.783 -0.2124 -0.3259  0.2043
 3095SOL    HW120918   0.542   0.819   4.777 -1.1356  0.6045 -1.8165
 3095SOL    HW220919   0.403   0.799   4.726 -0.8536  0.3139  1.4233
 3096SOL     OW20920   4.375   3.055   6.533 -0.1513  0.2179  0.0902
 3096SOL    HW120921   4.377   3.064   6.629 -0.9640  0.9405  0.0443
 3096SOL    HW220922   4.385   3.147   6.510 -1.0027  0.2576 -0.1435
 3097SOL     OW20923   1.407   2.862  16.282  0.1035 -0.6024 -0.0842
 3097SOL    HW120924   1.386   2.889  16.193  1.1938 -0.4414 -0.2917
 3097SOL    HW220925   1.371   2.931  16.338 -0.1979 -2.0376  1.4956
 3098SOL     OW20926   3.172   3.571   8.254 -0.4313  0.4302  0.2853
 3098SOL    HW120927   3.144   3.619   8.331  1.4694 -0.6483  1.6713
 3098SOL    HW220928   3.267   3.581   8.244  0.0814 -2.5838  2.1071
 3099SOL     OW20929   3.985   4.590   9.413 -0.4179 -0.0522 -0.0018
 3099SOL    HW120930   3.986   4.496   9.399 -0.0271  0.0035 -0.3363
 3099SOL    HW220931   4.059   4.596   9.473 -0.3053 -0.6046 -0.0928
 3100SOL     OW20932   0.579   2.483  14.916  0.0933 -0.5062  0.2404
 3100SOL    HW120933   0.671   2.488  14.889 -0.4035  1.2697 -1.1248
 3100SOL    HW220934   0.535   2.470  14.832  1.0094 -0.5802 -0.2291
 3101SOL     OW20935   1.522   1.328   5.699 -0.0878 -0.3949  0.1882
 3101SOL    HW120936   1.544   1.418   5.724 -1.2243  0.2958 -1.2836
 3101SOL    HW220937   1.606   1.301   5.663  0.1242  0.4682  0.0244
 3102SOL     OW20938   4.005   4.494  10.192 -0.4453 -0.3552 -0.2254
 3102SOL    HW120939   3.988   4.578  10.235  1.9821  0.2632 -0.4541
 3102SOL    HW220940   4.092   4.467  10.221 -0.4627  1.0495  1.1437
 3103SOL     OW20941   3.459   4.100   2.186  0.1385  0.2473 -0.9702
 3103SOL    HW120942   3.489   4.077   2.275  0.9718  0.4788 -1.1851
 3103SOL    HW220943   3.419   4.186   2.194  2.5409  1.1973  0.7475
 3104SOL     OW20944   0.299   1.653   6.802 -0.3506 -0.0670 -0.2883
 3104SOL    HW120945   0.313   1.740   6.766  0.9351  0.3277  1.1680
 3104SOL    HW220946   0.355   1.655   6.879 -0.1150 -0.5198 -0.4476
 3105SOL     OW20947   4.086   0.729   8.143 -0.3146  0.2846  0.3426
 3105SOL    HW120948   4.151   0.687   8.199  0.4940  3.0136  1.4423
 3105SOL    HW220949   4.101   0.823   8.141 -0.9031  0.3455 -1.1062
 3106SOL     OW20950   1.671   1.663   2.951 -0.1103  0.0015 -0.1896
 3106SOL    HW120951   1.744   1.716   2.984 -0.6110 -0.5045  1.7348
 3106SOL    HW220952   1.620   1.716   2.890 -0.3245 -1.9775 -1.7127
 3107SOL     OW20953   0.573   2.634   7.099 -0.0586  0.5885 -0.7323
 3107SOL    HW120954   0.493   2.680   7.074 -1.3499 -0.8690  0.7127
 3107SOL    HW220955   0.587   2.573   7.026  0.2978 -0.9137  0.5965
 3108SOL     OW20956   4.450   1.957   6.291 -0.0924  0.1336 -0.0468
 3108SOL    HW120957   4.402   1.916   6.363 -1.9151  0.2340 -1.2062
 3108SOL    HW220958   4.385   1.942   6.222 -0.6550 -4.5114  1.5561
 3109SOL     OW20959   3.922   0.401  13.488  1.0471  0.2187  0.3633
 3109SOL    HW120960   3.943   0.315  13.525  1.6484 -0.6237 -1.9274
 3109SOL    HW220961   3.965   0.457  13.552  0.4900  0.9855  0.0623
 3110SOL     OW20962   0.883   2.746   7.670  0.1365  0.3858  0.2161
 3110SOL    HW120963   0.901   2.734   7.576  0.1469  0.6802  0.1806
 3110SOL    HW220964   0.932   2.673   7.708  1.1244  0.6675 -0.5148
 3111SOL     OW20965   4.175   0.454   8.647 -0.4539 -0.1235 -0.5676
 3111SOL    HW120966   4.230   0.503   8.708  0.7751 -1.3081 -0.7426
 3111SOL    HW220967   4.235   0.451   8.573  0.2320  1.0259 -0.0619
 3112SOL     OW20968   3.561   0.895   4.345  0.3202  0.3779  0.1336
 3112SOL    HW120969   3.594   0.974   4.388  0.5169  1.1502 -1.4470
 3112SOL    HW220970   3.629   0.882   4.279 -1.3100 -1.6249 -1.1330
 3113SOL     OW20971   1.994   0.521  14.389  0.3034 -0.5186  0.4296
 3113SOL    HW120972   2.043   0.567  14.457  0.6103  0.1000 -0.2079
 3113SOL    HW220973   1.922   0.491  14.444  1.0072 -2.5721  0.2265
 3114SOL     OW20974   3.141   1.575   0.200  0.9462 -0.6541 -0.2303
 3114SOL    HW120975   3.154   1.521   0.122  1.3595 -0.6813 -0.1415
 3114SOL    HW220976   3.219   1.630   0.197  1.8535 -1.8766  1.3271
 3115SOL     OW20977   0.952   2.165  11.557  0.6263 -0.1254  0.3700
 3115SOL    HW120978   0.978   2.256  11.544  0.5300 -0.3489 -1.3718
 3115SOL    HW220979   1.031   2.113  11.545 -0.2258 -1.0330 -1.3208
 3116SOL     OW20980   1.719   2.133   9.349 -0.3272  0.2574 -0.0869
 3116SOL    HW120981   1.664   2.065   9.311 -1.5118  2.2372 -1.8834
 3116SOL    HW220982   1.730   2.194   9.276  0.7458  1.0138  0.7055
 3117SOL     OW20983   4.564   2.170  17.469 -0.4147 -0.2096 -0.4540
 3117SOL    HW120984   4.490   2.231  17.462  0.5648  0.8810 -1.3102
 3117SOL    HW220985   4.638   2.230  17.458 -1.6490  1.7741  1.8811
 3118SOL     OW20986   0.712   1.200   9.899  0.5265  0.5617 -0.2544
 3118SOL    HW120987   0.722   1.287   9.861  2.5572  0.2378 -0.4746
 3118SOL    HW220988   0.696   1.157   9.815  2.8399 -2.0659  0.6404
 3119SOL     OW20989   2.934   2.250  15.166  0.2929  0.2819  0.1566
 3119SOL    HW120990   3.029   2.245  15.180 -0.0531  0.5891  2.5246
 3119SOL    HW220991   2.916   2.343  15.180 -0.9968 -0.0753  0.8601
 3120SOL     OW20992   0.186   2.327   0.905 -0.2517 -0.1681 -0.2456
 3120SOL    HW120993   0.141   2.352   0.824  0.3378  0.7728 -0.2909
 3120SOL    HW220994   0.271   2.367   0.888 -0.7831  0.8485 -0.5636
 3121SOL     OW20995   0.762   4.385   5.694  0.1409  0.1185 -0.1165
 3121SOL    HW120996   0.743   4.473   5.725  2.4880  1.0373 -1.3040
 3121SOL    HW220997   0.697   4.385   5.624  0.5385  0.4249 -0.4782
 3122SOL     OW20998   0.747   3.045   4.498 -0.7107  0.8791  0.2343
 3122SOL    HW120999   0.784   3.087   4.421 -1.3406 -1.3213 -1.2744
 3122SOL    HW221000   0.826   3.007   4.537  0.1005  0.2997 -1.9982
 3123SOL     OW21001   2.099   2.469   1.480 -0.3227 -0.8737  0.3301
 3123SOL    HW121002   2.100   2.427   1.566  1.6235  0.5532  1.0264
 3123SOL    HW221003   2.057   2.554   1.489 -1.5637 -1.7224  2.5694
 3124SOL     OW21004   1.692   2.618   6.946 -0.7271 -0.2162  0.1770
 3124SOL    HW121005   1.714   2.560   6.873  0.5104  0.4565  0.0300
 3124SOL    HW221006   1.726   2.567   7.020 -0.6967  0.4217  0.6039
 3125SOL     OW21007   0.549   3.054   0.199 -0.5779  0.1665  0.0993
 3125SOL    HW121008   0.537   3.047   0.294 -2.5646  1.4316 -0.0499
 3125SOL    HW221009   0.470   3.014   0.164  0.0888 -0.0179 -1.2099
 3126SOL     OW21010   4.426   2.065   3.562  0.3594 -0.1906 -0.9077
 3126SOL    HW121011   4.506   2.092   3.517  1.1989 -0.4958  0.3999
 3126SOL    HW221012   4.364   2.060   3.489 -1.0307  0.4026  0.2317
 3127SOL     OW21013   3.329   1.100  16.931 -0.0883 -0.5349  1.0246
 3127SOL    HW121014   3.306   1.186  16.966  2.4650  0.5312  0.0884
 3127SOL    HW221015   3.288   1.107  16.845  0.7785  0.4771  0.6982
 3128SOL     OW21016   4.003   0.200   1.230 -0.2517 -0.1203 -0.5127
 3128SOL    HW121017   3.997   0.124   1.289 -0.8740 -1.9393 -2.8878
 3128SOL    HW221018   3.909   0.218   1.229 -0.1386  0.3647 -1.8374
 3129SOL     OW21019   2.989   2.800  11.824  0.0233  0.0863 -0.5961
 3129SOL    HW121020   3.076   2.812  11.863  0.8785  0.1100 -2.5057
 3129SOL    HW221021   2.958   2.725  11.874  2.5778  0.5800  1.7074
 3130SOL     OW21022   0.172   3.257   4.947  0.1574 -0.1491 -0.2863
 3130SOL    HW121023   0.159   3.210   4.865 -1.3881  0.6057 -0.4650
 3130SOL    HW221024   0.252   3.209   4.972 -1.0674 -2.5845 -1.0298
 3131SOL     OW21025   0.800   2.988   2.962  0.3902 -0.2027 -0.5740
 3131SOL    HW121026   0.755   2.988   3.047  2.4935  1.6353  0.5329
 3131SOL    HW221027   0.875   2.935   2.987  1.1694  0.2250 -1.9650
 3132SOL     OW21028   0.862   1.239   8.215 -0.0491  0.4344  0.0216
 3132SOL    HW121029   0.881   1.159   8.264 -4.1969  0.6848  2.0164
 3132SOL    HW221030   0.861   1.309   8.281  2.2654 -0.4151  0.9722
 3133SOL     OW21031   1.712   1.951   3.642 -0.0226 -0.2319 -0.1158
 3133SOL    HW121032   1.672   1.878   3.595  0.2163  0.5034 -1.4750
 3133SOL    HW221033   1.751   1.901   3.713  0.6214  1.9372  1.0764
 3134SOL     OW21034   3.673   2.179   6.679  0.1540 -0.2631 -0.1752
 3134SOL    HW121035   3.653   2.232   6.756 -0.0815  1.7822 -1.6400
 3134SOL    HW221036   3.718   2.250   6.633 -0.8891 -0.9179 -2.2301
 3135SOL     OW21037   0.988   0.094  15.325 -0.0634  0.4703  0.0588
 3135SOL    HW121038   1.019   0.158  15.389  1.7741  0.6415 -1.0038
 3135SOL    HW221039   1.004   0.148  15.248  0.4516  1.4061  0.8326
 3136SOL     OW21040   0.019   1.246   8.626 -0.6212  0.0550  0.6829
 3136SOL    HW121041   0.035   1.309   8.555 -0.0056  0.2363  0.9781
 3136SOL    HW221042   4.687   1.194   8.584 -1.0315  0.4152  0.9095
 3137SOL     OW21043   2.713   2.403   4.681 -0.4252 -0.3056  0.0597
 3137SOL    HW121044   2.727   2.497   4.693  0.2640 -0.1128 -2.1892
 3137SOL    HW221045   2.673   2.389   4.767 -1.1376  0.6480 -0.1147
 3138SOL     OW21046   0.668   0.994  16.167 -0.0954 -0.2776 -0.0406
 3138SOL    HW121047   0.684   0.948  16.084 -0.8065  1.0652 -0.9103
 3138SOL    HW221048   0.661   0.922  16.231 -0.9235 -0.6147 -0.5167
 3139SOL     OW21049   0.066   1.784   3.944  0.1899 -0.3463 -0.4225
 3139SOL    HW121050   0.061   1.855   3.880  2.9027 -2.0155 -2.4656
 3139SOL    HW221051   4.728   1.728   3.921  1.6971 -1.0420 -3.5411
 3140SOL     OW21052   3.236   0.617   8.353 -0.1520 -0.2084 -0.1172
 3140SOL    HW121053   3.239   0.568   8.436 -1.9541 -0.0634  0.0186
 3140SOL    HW221054   3.150   0.655   8.365  0.9478  2.0914  0.4892
 3141SOL     OW21055   3.683   0.293   0.195 -0.8373 -0.2662 -0.2163
 3141SOL    HW121056   3.594   0.288   0.230 -0.4790  1.3988  0.9479
 3141SOL    HW221057   3.700   0.201   0.175  2.3823  0.2808  0.1528
 3142SOL     OW21058   1.247   0.871   5.364  1.1002 -0.6322 -0.8628
 3142SOL    HW121059   1.259   0.805   5.432  0.3002  2.0816  1.9079
 3142SOL    HW221060   1.154   0.890   5.379  1.1553  0.6358 -2.0977
 3143SOL     OW21061   0.372   1.848  13.893 -0.3657 -0.3481 -0.7293
 3143SOL    HW121062   0.410   1.935  13.904  2.6447 -1.6281 -0.9356
 3143SOL    HW221063   0.292   1.877  13.849 -0.3096  1.6615  0.4694
 3144SOL     OW21064   3.128   4.089   8.492 -0.5040 -0.3800 -0.9495
 3144SOL    HW121065   3.050   4.114   8.542 -0.8771 -2.1774 -0.6043
 3144SOL    HW221066   3.178   4.050   8.565  0.3433  1.1905 -0.6844
 3145SOL     OW21067   2.099   2.425   8.986  0.1368 -0.0701 -0.3967
 3145SOL    HW121068   2.155   2.490   8.944 -0.8702  1.2129  0.2386
 3145SOL    HW221069   2.031   2.477   9.028  0.0778  0.0754 -0.6694
 3146SOL     OW21070   2.457   1.213   5.653 -0.3858  0.2037 -0.1755
 3146SOL    HW121071   2.466   1.308   5.654  0.3795  0.1252  0.8758
 3146SOL    HW221072   2.365   1.212   5.680  0.7489 -4.5040  3.5127
 3147SOL     OW21073   1.213   1.874   3.087 -0.3963 -0.6656  0.1666
 3147SOL    HW121074   1.167   1.827   3.156  1.1452  0.7246  2.1461
 3147SOL    HW221075   1.270   1.812   3.042 -1.0316 -0.6079 -0.7283
 3148SOL     OW21076   1.786   3.223   9.661  0.0709  0.4670 -0.3397
 3148SOL    HW121077   1.792   3.294   9.597  0.3961  1.1218  0.4279
 3148SOL    HW221078   1.838   3.266   9.729 -0.8734 -2.2278  2.0797
 3149SOL     OW21079   4.191   0.011  13.997 -0.8229  0.2163  0.5505
 3149SOL    HW121080   4.106   4.712  14.024 -0.9558 -1.8334 -2.5583
 3149SOL    HW221081   4.196   4.692  13.920 -1.5791  0.6446  0.1892
 3150SOL     OW21082   1.317   3.062   6.423 -0.1021  0.1738  0.4612
 3150SOL    HW121083   1.246   3.022   6.373 -1.5327  1.3495  1.5274
 3150SOL    HW221084   1.294   3.019   6.506 -0.8975  1.8426  1.1222
 3151SOL     OW21085   2.586   2.207   2.190  0.2400 -0.6500  0.2351
 3151SOL    HW121086   2.498   2.170   2.185  0.0004 -0.1969  1.0715
 3151SOL    HW221087   2.618   2.168   2.109 -0.7972 -2.4294  0.7004
 3152SOL     OW21088   3.977   0.868   7.167  0.3268 -0.5292  0.3739
 3152SOL    HW121089   3.970   0.943   7.108  0.1797 -0.5569  0.3558
 3152SOL    HW221090   3.948   0.797   7.109 -0.3243 -0.9277  1.1855
 3153SOL     OW21091   1.248   3.391   4.373 -0.5305 -0.6683  0.1529
 3153SOL    HW121092   1.297   3.421   4.297  0.2880 -0.6795  0.6820
 3153SOL    HW221093   1.261   3.296   4.369 -1.0752 -0.7005 -0.8770
 3154SOL     OW21094   1.327   4.188   5.136  0.1957  0.0660 -0.4416
 3154SOL    HW121095   1.379   4.115   5.101  1.4690  0.4674  0.6208
 3154SOL    HW221096   1.239   4.152   5.146 -0.2642  1.0041 -1.0970
 3155SOL     OW21097   3.987   4.358   2.582  0.5341  0.1825  0.7937
 3155SOL    HW121098   3.972   4.404   2.665 -2.2674  2.3519 -0.9083
 3155SOL    HW221099   4.081   4.338   2.583  0.8852  1.6079 -2.3415
 3156SOL     OW21100   1.666   1.743   4.120  0.0581  0.2759  0.3585
 3156SOL    HW121101   1.674   1.792   4.202 -1.2128  0.3196  0.4546
 3156SOL    HW221102   1.740   1.780   4.072  1.0878  0.6345  2.2079
 3157SOL     OW21103   2.214   1.474   6.320  0.1076  0.9153  0.9271
 3157SOL    HW121104   2.209   1.401   6.382  3.0429 -0.5820 -0.5636
 3157SOL    HW221105   2.171   1.540   6.373 -1.4666 -1.4830  2.6211
 3158SOL     OW21106   1.369   4.602   7.865  0.3011 -0.3372  0.0531
 3158SOL    HW121107   1.330   4.687   7.886 -1.2427 -0.2656 -2.9697
 3158SOL    HW221108   1.453   4.613   7.909 -0.3381 -0.8926  1.3837
 3159SOL     OW21109   2.262   3.469  11.899 -0.6176  0.5384  0.2799
 3159SOL    HW121110   2.266   3.376  11.875  1.8509  0.3285  1.4850
 3159SOL    HW221111   2.317   3.500  11.827 -1.0429  3.0901  1.0533
 3160SOL     OW21112   1.340   0.107   4.290  0.5754 -0.4341 -0.3511
 3160SOL    HW121113   1.423   0.135   4.250  2.5929 -0.3025  3.8858
 3160SOL    HW221114   1.278   0.136   4.223  1.1758 -0.1227 -0.7783
 3161SOL     OW21115   3.391   1.657   8.281 -0.2195  0.0137  0.3278
 3161SOL    HW121116   3.420   1.606   8.357  1.2249 -1.2328 -1.0565
 3161SOL    HW221117   3.433   1.622   8.203 -0.7047 -0.3951  0.2466
 3162SOL     OW21118   1.711   4.067   4.635 -0.0546  0.4447 -0.1898
 3162SOL    HW121119   1.710   4.160   4.660  0.7988  0.3214  0.2669
 3162SOL    HW221120   1.632   4.074   4.581 -0.5559 -0.5372  0.4329
 3163SOL     OW21121   2.079   4.221   7.323  0.1157 -0.8858 -0.0023
 3163SOL    HW121122   2.076   4.312   7.350  3.1773 -0.7580 -0.1545
 3163SOL    HW221123   2.142   4.222   7.251  0.1756  1.5609  0.1042
 3164SOL     OW21124   1.579   0.805  10.557 -0.1973 -0.6292 -0.1035
 3164SOL    HW121125   1.619   0.838  10.477  0.7010 -1.4957 -0.0118
 3164SOL    HW221126   1.559   0.715  10.534 -0.4433 -0.3246 -1.0626
 3165SOL     OW21127   1.598   3.229   3.436 -0.4053 -0.1829 -0.3194
 3165SOL    HW121128   1.630   3.319   3.430 -0.8482  0.2941  4.2899
 3165SOL    HW221129   1.611   3.222   3.531  0.7263  1.4696 -0.3386
 3166SOL     OW21130   4.339   1.827   1.898 -0.6721 -0.1953 -0.1328
 3166SOL    HW121131   4.385   1.756   1.944 -0.9102 -0.6214 -0.5547
 3166SOL    HW221132   4.273   1.857   1.960 -0.0878  0.9092 -0.0317
 3167SOL     OW21133   3.963   3.423   7.156 -0.2836 -0.5577  0.4861
 3167SOL    HW121134   4.044   3.375   7.139 -0.0135 -0.2913  1.0189
 3167SOL    HW221135   3.895   3.357   7.146  1.5185 -1.9900 -2.6031
 3168SOL     OW21136   1.124   0.350   2.443  0.2276  0.2166 -0.6616
 3168SOL    HW121137   1.217   0.361   2.465  0.0342 -3.9164  2.0829
 3168SOL    HW221138   1.089   0.392   2.522  2.8239  0.3532  0.4143
 3169SOL     OW21139   1.347   1.603   2.831 -0.1522  0.2232  0.2766
 3169SOL    HW121140   1.318   1.579   2.919  2.4015 -0.5290  0.9329
 3169SOL    HW221141   1.434   1.563   2.826  0.3368  1.0724  1.9263
 3170SOL     OW21142   4.558   4.328   6.071  0.3165 -0.4086 -0.8320
 3170SOL    HW121143   4.505   4.396   6.030 -1.1415 -0.0400  1.6708
 3170SOL    HW221144   4.512   4.337   6.155  1.0545 -0.8381 -0.3816
 3171SOL     OW21145   4.183   2.604   3.511  0.3936 -0.1697  0.1651
 3171SOL    HW121146   4.222   2.520   3.534  1.0577  0.1351  0.1352
 3171SOL    HW221147   4.088   2.595   3.503  0.1172  1.2097  1.7964
 3172SOL     OW21148   0.450   0.231   3.717 -0.3168 -0.1997 -0.0399
 3172SOL    HW121149   0.356   0.245   3.703 -0.3170  0.8575  1.0917
 3172SOL    HW221150   0.465   0.138   3.697  0.9854  0.1819 -0.7841
 3173SOL     OW21151   0.758   3.919   8.332 -0.1367  0.2198  0.6308
 3173SOL    HW121152   0.731   3.991   8.275  0.3264 -1.0819 -1.2166
 3173SOL    HW221153   0.844   3.897   8.297 -0.2945  1.6740 -0.6989
 3174SOL     OW21154   1.059   2.433   8.996  0.1190  0.8579  0.3198
 3174SOL    HW121155   1.125   2.476   8.943  0.2123  0.4572  0.1129
 3174SOL    HW221156   1.119   2.395   9.060  0.9055  0.8436 -0.4316
 3175SOL     OW21157   4.581   0.503   6.114  0.1616 -0.1516 -0.4350
 3175SOL    HW121158   4.676   0.507   6.121  0.0691  2.8118 -0.9218
 3175SOL    HW221159   4.566   0.429   6.173 -1.3458 -0.8699 -1.7319
 3176SOL     OW21160   4.415   1.167  17.606 -0.0929 -0.7886  0.2669
 3176SOL    HW121161   4.395   1.091  17.662  2.8464 -1.4328  0.4413
 3176SOL    HW221162   4.328   1.176  17.566 -0.9148  2.1377  2.7726
 3177SOL     OW21163   2.368   0.776   0.335  0.2835 -0.2792 -0.0284
 3177SOL    HW121164   2.355   0.826   0.254 -1.2980 -0.8366 -0.1278
 3177SOL    HW221165   2.339   0.692   0.301  0.3695  0.0049 -0.8114
 3178SOL     OW21166   3.873   2.217   2.726  0.2318 -0.4835  0.5400
 3178SOL    HW121167   3.779   2.213   2.745  0.0897 -0.4511 -0.1323
 3178SOL    HW221168   3.865   2.281   2.655 -0.5497 -0.6983  0.4288
 3179SOL     OW21169   2.823   2.469  14.154 -0.6069  0.3191 -0.2023
 3179SOL    HW121170   2.755   2.501  14.213 -0.7264  1.2674 -0.8438
 3179SOL    HW221171   2.801   2.376  14.164 -0.7858  0.4184  0.3391
 3180SOL     OW21172   4.384   2.365   2.371  0.0149  0.2348 -0.0141
 3180SOL    HW121173   4.380   2.288   2.428 -2.0467  1.1991  1.1362
 3180SOL    HW221174   4.329   2.428   2.418  0.0921  0.9978 -0.9478
 3181SOL     OW21175   1.950   4.263   9.249 -0.3018  0.2544  0.2573
 3181SOL    HW121176   1.890   4.329   9.284  0.0464 -0.7426  2.6932
 3181SOL    HW221177   1.993   4.227   9.326 -0.7373 -1.5371 -0.3572
 3182SOL     OW21178   2.554   3.123  13.619  0.5914  1.3194 -0.1217
 3182SOL    HW121179   2.547   3.082  13.706 -0.2534  1.2397 -0.2250
 3182SOL    HW221180   2.571   3.051  13.558 -1.6090  0.6709  0.0005
 3183SOL     OW21181   1.567   2.874   5.149 -0.1512  0.1787 -0.4138
 3183SOL    HW121182   1.572   2.924   5.230  3.4050  0.3007 -0.7192
 3183SOL    HW221183   1.493   2.921   5.110 -0.5211  0.2265  0.3569
 3184SOL     OW21184   0.491   3.372   5.410  0.1794 -0.3425 -0.0699
 3184SOL    HW121185   0.575   3.338   5.440  0.5133  0.9047  0.4061
 3184SOL    HW221186   0.501   3.361   5.315 -1.4145  0.5490 -0.3495
 3185SOL     OW21187   3.780   1.325   4.937  0.0362  0.5688  0.1699
 3185SOL    HW121188   3.851   1.268   4.967 -0.9070  1.6522  4.4285
 3185SOL    HW221189   3.705   1.271   4.960 -0.0900  0.9180  0.5853
 3186SOL     OW21190   2.498   3.972   9.572  0.1016  0.0717  0.6321
 3186SOL    HW121191   2.468   3.928   9.493 -1.4411 -0.5969  1.5813
 3186SOL    HW221192   2.438   3.940   9.640  1.3377 -0.1340  1.6490
 3187SOL     OW21193   0.249   1.581   4.021  0.1885  0.3359 -0.5246
 3187SOL    HW121194   0.218   1.492   4.038 -2.2285  1.1425 -0.8017
 3187SOL    HW221195   0.166   1.627   4.013 -0.3634 -0.4541  0.5949
 3188SOL     OW21196   0.385   0.801  17.274 -0.0884 -0.3237 -0.0436
 3188SOL    HW121197   0.381   0.705  17.266 -1.0484 -0.2315 -0.5619
 3188SOL    HW221198   0.320   0.817  17.207 -0.2182 -2.0298 -0.3412
 3189SOL     OW21199   3.293   3.297   6.226 -0.7435  0.1236 -0.3984
 3189SOL    HW121200   3.286   3.209   6.188 -1.5609 -0.8131  1.9305
 3189SOL    HW221201   3.265   3.354   6.155 -1.7550  0.9276  0.6439
 3190SOL     OW21202   0.005   2.080   6.485 -0.4207 -0.1606 -0.7120
 3190SOL    HW121203   4.724   2.079   6.391 -0.3329 -0.7896 -0.7194
 3190SOL    HW221204   0.092   2.117   6.503 -0.3484 -1.1360  0.9507
 3191SOL     OW21205   0.322   2.044   0.736 -0.4234 -0.8009 -0.5526
 3191SOL    HW121206   0.298   2.116   0.678 -2.0392 -1.3759 -0.5916
 3191SOL    HW221207   0.400   2.084   0.776  0.0593 -1.6012 -0.7083
 3192SOL     OW21208   1.696   3.508   5.237  0.8100  0.3024 -0.0351
 3192SOL    HW121209   1.611   3.517   5.280  0.4357  0.2013 -0.7554
 3192SOL    HW221210   1.738   3.442   5.292 -0.5002 -1.3413 -1.0049
 3193SOL     OW21211   0.416   4.576   8.691 -0.2745  0.0361 -0.2738
 3193SOL    HW121212   0.337   4.628   8.699 -0.3137  0.1753 -1.5755
 3193SOL    HW221213   0.432   4.533   8.775 -1.0877 -1.5141 -0.9115
 3194SOL     OW21214   1.939   2.582   3.640 -0.6715  0.1095  0.1480
 3194SOL    HW121215   1.864   2.589   3.699 -1.9050  1.8660 -1.5966
 3194SOL    HW221216   1.993   2.522   3.691 -2.1168  0.9397  2.6364
 3195SOL     OW21217   1.371   3.025  16.073  0.4510  0.2161 -0.5113
 3195SOL    HW121218   1.341   3.037  15.983  0.1210  1.1905 -0.2725
 3195SOL    HW221219   1.463   3.010  16.048  0.7337  2.0342 -0.5501
 3196SOL     OW21220   3.561   3.276  14.555 -0.3152  0.4970 -0.3524
 3196SOL    HW121221   3.505   3.336  14.506 -0.9311  0.4799  0.3214
 3196SOL    HW221222   3.504   3.204  14.582 -1.2082  1.9021  1.5553
 3197SOL     OW21223   1.754   2.910  12.605 -0.2099 -0.0468  0.4583
 3197SOL    HW121224   1.723   2.966  12.677 -1.4388 -1.6849  1.1947
 3197SOL    HW221225   1.820   2.969  12.568 -0.7394  0.8240  0.8993
 3198SOL     OW21226   4.536   3.524  10.176 -0.3339 -0.3384  0.2082
 3198SOL    HW121227   4.519   3.509  10.269 -1.1150  1.1013  0.2948
 3198SOL    HW221228   4.605   3.590  10.185 -0.1482 -0.5568  0.3832
 3199SOL     OW21229   4.095   4.724  17.698 -0.0943  0.6183 -0.2313
 3199SOL    HW121230   4.076   4.712   0.046  1.2397 -0.5729 -0.1046
 3199SOL    HW221231   4.007   4.720  17.661 -0.1117  0.1503 -0.1482
 3200SOL     OW21232   0.856   3.603  15.411  0.2951  0.3627  0.1002
 3200SOL    HW121233   0.906   3.654  15.347  0.3296  0.6419  0.3494
 3200SOL    HW221234   0.926   3.564  15.463  0.7508  1.7545  0.5334
 3201SOL     OW21235   1.175   0.620  11.956  0.5388 -0.3669 -0.3595
 3201SOL    HW121236   1.152   0.710  11.976 -0.0738 -1.0665  2.0780
 3201SOL    HW221237   1.191   0.617  11.861 -0.4672 -2.0303 -0.4824
 3202SOL     OW21238   2.709   2.023   9.012 -0.2080  0.0589 -0.1418
 3202SOL    HW121239   2.671   1.954   9.066 -1.3737  2.6088  2.3003
 3202SOL    HW221240   2.676   2.102   9.054 -2.9243 -1.6956  0.9465
 3203SOL     OW21241   1.514   4.063   8.707  0.0084 -0.4358 -0.6475
 3203SOL    HW121242   1.423   4.034   8.715 -0.4938  1.3858  0.1423
 3203SOL    HW221243   1.567   3.986   8.726  2.2600  1.2652 -0.0749
 3204SOL     OW21244   2.354   4.206   8.829  0.0208  0.2655 -0.4256
 3204SOL    HW121245   2.447   4.183   8.830  0.0279  0.3519  3.1628
 3204SOL    HW221246   2.369   4.298   8.811  0.7649  0.0595 -0.8401
 3205SOL     OW21247   0.530   0.421   6.770 -0.4475 -0.1887 -0.1899
 3205SOL    HW121248   0.592   0.451   6.836 -0.4719 -1.4791  0.4160
 3205SOL    HW221249   0.479   0.358   6.821 -1.6348  1.7511  1.0174
 3206SOL     OW21250   3.947   0.846   8.353  0.0466 -0.2827 -0.6649
 3206SOL    HW121251   3.854   0.832   8.338  0.0789 -1.0158 -0.1777
 3206SOL    HW221252   3.976   0.804   8.272  3.4946  1.1432 -0.1804
 3207SOL     OW21253   4.419   3.471   5.787 -0.1141  0.4867 -0.1211
 3207SOL    HW121254   4.375   3.506   5.709 -0.6272 -0.3466 -0.2021
 3207SOL    HW221255   4.354   3.497   5.852 -0.6011  1.3313 -0.9287
 3208SOL     OW21256   1.810   0.651  16.814 -0.1873 -0.3709  0.0587
 3208SOL    HW121257   1.853   0.625  16.732 -0.2567 -0.3605  0.0189
 3208SOL    HW221258   1.719   0.659  16.786  0.1662  0.8721 -0.7312
 3209SOL     OW21259   2.368   2.054   2.474 -0.2758  0.1696 -0.0737
 3209SOL    HW121260   2.381   1.996   2.549 -1.3081  1.2653  0.9523
 3209SOL    HW221261   2.463   2.064   2.464 -0.1784 -0.3478  0.3173
 3210SOL     OW21262   2.775   1.526  17.287 -0.1563  0.5491  0.2655
 3210SOL    HW121263   2.831   1.532  17.210 -3.0279  2.5677 -1.6708
 3210SOL    HW221264   2.781   1.615  17.323  0.1271 -0.6113  3.0332
 3211SOL     OW21265   3.727   4.237   4.616 -0.0091 -0.7520  0.0254
 3211SOL    HW121266   3.674   4.281   4.549 -0.6324 -3.4991 -1.2648
 3211SOL    HW221267   3.681   4.153   4.624  0.5167 -0.9190  1.3595
 3212SOL     OW21268   3.688   0.942  13.401 -0.1721 -0.1708 -0.0491
 3212SOL    HW121269   3.703   1.034  13.423 -3.3401 -0.3575  2.8908
 3212SOL    HW221270   3.618   0.927  13.464 -1.6902  1.6256 -1.2799
 3213SOL     OW21271   0.630   0.785   9.526 -0.0535  0.3337 -0.9236
 3213SOL    HW121272   0.635   0.799   9.621 -1.7500  0.3093 -0.8285
 3213SOL    HW221273   0.537   0.791   9.503 -0.2367 -0.7218 -0.4553
 3214SOL     OW21274   3.369   0.810   4.975  0.3022  0.4688 -0.0141
 3214SOL    HW121275   3.349   0.717   4.987 -1.7677  1.0493  1.0944
 3214SOL    HW221276   3.324   0.863   5.041 -0.2676  0.5853 -0.4977
 3215SOL     OW21277   2.097   0.558  10.130 -0.0187  0.7159 -0.2813
 3215SOL    HW121278   2.010   0.575  10.167 -1.1363 -1.5576 -1.8440
 3215SOL    HW221279   2.095   0.464  10.109  2.2300  0.6410 -0.1153
 3216SOL     OW21280   0.787   2.532  15.539  0.1292  0.7131 -0.1150
 3216SOL    HW121281   0.858   2.480  15.577 -1.0254 -0.4671  0.4214
 3216SOL    HW221282   0.715   2.484  15.579 -0.4733 -0.2256 -2.2934
 3217SOL     OW21283   4.415   0.966   6.874 -0.5889 -0.1145  0.1761
 3217SOL    HW121284   4.452   0.988   6.960 -0.3816 -0.6478  0.2229
 3217SOL    HW221285   4.368   1.048   6.857 -2.0226 -0.7610  1.0343
 3218SOL     OW21286   2.868   1.676   7.083  0.8263 -0.0734 -0.0609
 3218SOL    HW121287   2.938   1.694   7.020  0.5171  0.2242 -0.3162
 3218SOL    HW221288   2.910   1.608   7.135 -1.2266  0.0194  1.6983
 3219SOL     OW21289   3.521   1.269   2.822 -0.3600  0.2459  0.0190
 3219SOL    HW121290   3.451   1.317   2.777  0.5434  1.5631 -0.0055
 3219SOL    HW221291   3.523   1.313   2.907 -0.6620 -0.3603  0.3403
 3220SOL     OW21292   1.142   1.501   5.072 -0.4943  0.2102 -0.2046
 3220SOL    HW121293   1.171   1.418   5.111  0.1816  0.1413 -0.8493
 3220SOL    HW221294   1.141   1.482   4.978 -2.4961 -1.7920  0.2299
 3221SOL     OW21295   3.191   1.746  16.260 -0.2453  0.5976 -0.2416
 3221SOL    HW121296   3.244   1.714  16.188  1.5497  2.2845  0.3355
 3221SOL    HW221297   3.099   1.741  16.233 -0.5165  1.8806  0.4276
 3222SOL     OW21298   3.366   3.688   9.211  0.7187 -0.0023  0.2098
 3222SOL    HW121299   3.386   3.712   9.302 -0.6964 -1.0494  0.7987
 3222SOL    HW221300   3.281   3.652   9.236  1.7350 -0.3066  3.2096
 3223SOL     OW21301   1.090   4.321   6.439  1.1963 -0.4961 -1.0169
 3223SOL    HW121302   1.172   4.295   6.480  0.5955 -0.8992 -0.0829
 3223SOL    HW221303   1.045   4.241   6.413  0.2436 -0.5806  0.8423
 3224SOL     OW21304   2.482   1.545   7.754 -0.3980 -0.3232  0.2771
 3224SOL    HW121305   2.524   1.460   7.765 -0.1932 -0.0035  2.0233
 3224SOL    HW221306   2.531   1.581   7.680 -0.2925 -0.4720  0.2746
 3225SOL     OW21307   0.530   2.266   9.556 -0.0364  0.2984 -0.3017
 3225SOL    HW121308   0.559   2.241   9.644 -2.6009  0.9002  0.7219
 3225SOL    HW221309   0.612   2.246   9.511  0.8233 -2.3179  2.4012
 3226SOL     OW21310   2.581   2.222   9.616  0.2717  0.3893 -0.5342
 3226SOL    HW121311   2.640   2.285   9.575 -0.6109  1.9483  0.6354
 3226SOL    HW221312   2.650   2.166   9.652  0.1101 -0.4497 -1.5163
 3227SOL     OW21313   3.172   1.161   2.365  0.0354  0.4751  0.1898
 3227SOL    HW121314   3.224   1.240   2.350  0.1156  0.4113  0.1349
 3227SOL    HW221315   3.239   1.104   2.329 -0.1148  1.1111 -1.0903
 3228SOL     OW21316   2.295   1.898   3.700 -0.4407 -0.4262  0.0191
 3228SOL    HW121317   2.238   1.824   3.720  0.1094 -1.1171 -0.9650
 3228SOL    HW221318   2.235   1.971   3.684  1.6460  1.4778  0.7559
 3229SOL     OW21319   1.258   4.374   2.548  0.3633  0.1808 -0.2624
 3229SOL    HW121320   1.253   4.321   2.627  0.8973  0.6314  0.0815
 3229SOL    HW221321   1.167   4.379   2.522 -0.7023  0.5673  3.4760
 3230SOL     OW21322   4.261   2.817   7.438 -0.7654  0.4409  0.2317
 3230SOL    HW121323   4.170   2.844   7.450 -1.1909 -1.0354  0.3774
 3230SOL    HW221324   4.262   2.724   7.462 -0.7857  0.4147  0.1289
 3231SOL     OW21325   2.237   1.528   5.256  0.2440  0.2671 -0.1483
 3231SOL    HW121326   2.211   1.446   5.298  2.7041 -0.5677 -0.2185
 3231SOL    HW221327   2.212   1.507   5.166 -0.8731  0.3435  0.1463
 3232SOL     OW21328   2.306   2.990   0.928 -0.0487 -0.5026 -0.0004
 3232SOL    HW121329   2.241   3.057   0.907  0.1661  0.3204  2.0568
 3232SOL    HW221330   2.363   3.051   0.973  0.8744 -1.3380 -0.0328
 3233SOL     OW21331   0.461   4.571   4.737  0.0487 -0.1159  0.1517
 3233SOL    HW121332   0.493   4.619   4.661 -1.0555 -1.8531 -1.4200
 3233SOL    HW221333   0.538   4.576   4.794  0.1673 -1.4037  0.1185
 3234SOL     OW21334   1.899   1.611   4.694 -0.2134  0.8626  0.3101
 3234SOL    HW121335   1.912   1.607   4.599  0.1821 -0.3763  0.4110
 3234SOL    HW221336   1.825   1.556   4.717  1.1740 -0.3802  1.8184
 3235SOL     OW21337   2.884   0.196   8.150  0.5559 -0.1924 -0.1153
 3235SOL    HW121338   2.925   0.132   8.209  4.0661 -0.2725 -2.6555
 3235SOL    HW221339   2.913   0.144   8.075 -0.9731 -1.4418  0.1340
 3236SOL     OW21340   1.594   2.387   3.638  0.4511 -0.0208 -0.5051
 3236SOL    HW121341   1.664   2.322   3.633 -0.3864 -0.9013 -0.7294
 3236SOL    HW221342   1.589   2.415   3.547  1.6383  1.7397 -0.0414
 3237SOL     OW21343   2.174   2.882   6.621 -0.1220 -1.1291 -0.3665
 3237SOL    HW121344   2.260   2.862   6.656 -0.2831 -0.2393  0.5639
 3237SOL    HW221345   2.120   2.913   6.694  2.3466  0.7655  0.6606
 3238SOL     OW21346   2.451   1.308   4.956  0.1268  0.2901 -0.1118
 3238SOL    HW121347   2.466   1.358   4.876 -0.8529  1.0697  0.1843
 3238SOL    HW221348   2.487   1.221   4.941 -2.0506 -1.2363  3.5003
 3239SOL     OW21349   0.930   2.725   1.848 -0.0456 -0.0943  0.1037
 3239SOL    HW121350   0.923   2.817   1.822  0.1137 -0.0906  0.0746
 3239SOL    HW221351   0.896   2.720   1.937  1.5594  0.8377  0.7601
 3240SOL     OW21352   4.208   2.442   4.654  0.3386  0.7685  0.0695
 3240SOL    HW121353   4.149   2.425   4.580  0.4887  0.8484 -0.0673
 3240SOL    HW221354   4.238   2.530   4.631 -0.3377  0.7196 -1.0090
 3241SOL     OW21355   0.175   4.219  13.071  0.0927  0.0139  0.3033
 3241SOL    HW121356   0.212   4.134  13.047  2.9304  1.7685 -1.5960
 3241SOL    HW221357   0.128   4.196  13.151  2.1904  0.8608  1.7925
 3242SOL     OW21358   4.094   1.272   8.211 -0.2943  0.1588 -0.2310
 3242SOL    HW121359   4.045   1.347   8.178  0.4684  0.7807  0.0448
 3242SOL    HW221360   4.029   1.221   8.259 -0.0735 -0.9072 -1.0521
 3243SOL     OW21361   1.999   2.264   8.384  0.0630  0.1461  0.3195
 3243SOL    HW121362   2.076   2.208   8.374 -0.2084 -0.0857 -0.4342
 3243SOL    HW221363   2.029   2.312   8.461 -0.0353 -1.5633  1.4216
 3244SOL     OW21364   3.634   4.170   8.079  0.2844 -0.4527 -0.2814
 3244SOL    HW121365   3.626   4.265   8.080 -4.6422 -0.8630 -0.2363
 3244SOL    HW221366   3.546   4.143   8.054 -0.3422  0.1187  1.2683
 3245SOL     OW21367   1.626   1.951  11.780  0.3901 -0.0619  0.4733
 3245SOL    HW121368   1.659   1.866  11.750 -1.7326 -0.8965  0.4916
 3245SOL    HW221369   1.707   2.001  11.777  0.5349 -0.2026  2.0515
 3246SOL     OW21370   0.287   0.494   9.185  0.7586  0.2520 -0.2545
 3246SOL    HW121371   0.275   0.508   9.279 -0.6678  1.9851 -0.7056
 3246SOL    HW221372   0.376   0.457   9.186  0.6553 -0.0239 -1.2834
 3247SOL     OW21373   3.442   3.945   3.237  0.6907  0.0323  0.1153
 3247SOL    HW121374   3.493   3.886   3.292 -1.2155 -1.6672  0.0786
 3247SOL    HW221375   3.506   4.016   3.229  0.4342  0.2743  0.1833
 3248SOL     OW21376   0.687   3.702  10.322 -0.5871  0.0554 -0.0125
 3248SOL    HW121377   0.650   3.689  10.409 -1.9796  0.6691 -0.5151
 3248SOL    HW221378   0.667   3.794  10.306 -1.2613 -0.1917 -0.6157
 3249SOL     OW21379   2.372   2.615  15.086 -0.0753 -0.7252  0.2731
 3249SOL    HW121380   2.451   2.636  15.136 -0.9553  2.0645  0.4500
 3249SOL    HW221381   2.336   2.700  15.063 -1.0278 -1.5560 -1.2550
 3250SOL     OW21382   2.289   4.330  10.078 -0.1421  0.1734 -0.3378
 3250SOL    HW121383   2.335   4.275  10.141 -0.5844 -1.2536 -1.2465
 3250SOL    HW221384   2.244   4.391  10.136  0.1093 -1.7684  1.9170
 3251SOL     OW21385   2.110   4.532  14.385  0.7715  0.4728  0.5606
 3251SOL    HW121386   2.201   4.555  14.369  1.3892 -1.8281  0.8215
 3251SOL    HW221387   2.069   4.608  14.427  0.6488 -0.0116  1.3155
 3252SOL     OW21388   4.563   0.086  13.644  0.5289  0.1107  0.1892
 3252SOL    HW121389   4.628   0.081  13.575  0.1524  0.5799 -0.2021
 3252SOL    HW221390   4.529   0.174  13.627 -0.6622 -0.3402  0.2255
 3253SOL     OW21391   3.613   1.276   2.089 -0.4056 -0.3146 -0.2625
 3253SOL    HW121392   3.698   1.232   2.079  0.7952  1.8426  0.4609
 3253SOL    HW221393   3.643   1.360   2.055 -3.1402  0.9758  0.5448
 3254SOL     OW21394   3.041   4.043   2.567 -0.1889 -0.5043 -0.0162
 3254SOL    HW121395   3.136   4.057   2.572 -0.4065  1.0377 -0.2786
 3254SOL    HW221396   3.044   3.978   2.496  0.2311 -0.8242  0.2885
 3255SOL     OW21397   3.930   2.596   2.785 -0.1391  0.1257  0.6559
 3255SOL    HW121398   4.020   2.566   2.770 -0.4069 -0.1151 -0.5119
 3255SOL    HW221399   3.881   2.549   2.717 -1.8113  0.5874  1.5516
 3256SOL     OW21400   1.428   4.542   3.569  0.0885  0.2408 -0.3775
 3256SOL    HW121401   1.488   4.468   3.584 -1.3496 -1.0272 -0.9900
 3256SOL    HW221402   1.429   4.578   3.658  1.1354 -2.0073  0.5214
 3257SOL     OW21403   3.927   3.596  11.472  0.0536  0.2014  0.0633
 3257SOL    HW121404   3.996   3.537  11.501  0.0120 -0.1933 -0.6219
 3257SOL    HW221405   3.868   3.599  11.547  0.5685  1.4855  0.4058
 3258SOL     OW21406   2.175   2.341   8.629  0.1800 -0.4799 -0.0146
 3258SOL    HW121407   2.224   2.275   8.677  1.0343  0.3881  0.2897
 3258SOL    HW221408   2.183   2.420   8.682 -3.3325  0.2801 -0.6191
 3259SOL     OW21409   0.630   2.172   3.758  0.0415 -0.3446 -0.5499
 3259SOL    HW121410   0.721   2.144   3.751  0.8771  1.8670  1.5063
 3259SOL    HW221411   0.625   2.243   3.693  1.3387 -1.0664 -1.4405
 3260SOL     OW21412   0.522   4.142   2.972  0.1746 -0.5859  0.5762
 3260SOL    HW121413   0.435   4.127   3.009 -0.3645 -0.4455 -0.6482
 3260SOL    HW221414   0.495   4.159   2.882  0.5843  0.7274  0.6989
 3261SOL     OW21415   3.586   2.312   6.898 -0.2435 -0.2154 -0.4964
 3261SOL    HW121416   3.627   2.280   6.978  0.3144  0.6280 -0.4511
 3261SOL    HW221417   3.605   2.406   6.896 -2.9512  0.3739  1.0073
 3262SOL     OW21418   0.407   1.225   4.260 -0.3881 -0.0483 -0.0242
 3262SOL    HW121419   0.342   1.185   4.318 -0.9201  0.0736 -0.5389
 3262SOL    HW221420   0.468   1.259   4.325  1.0624 -1.3136 -0.7219
 3263SOL     OW21421   0.023   2.043   7.772  0.3871 -0.2372 -0.1585
 3263SOL    HW121422   0.077   1.994   7.710  0.2453 -0.5064 -0.0699
 3263SOL    HW221423   0.035   2.132   7.738 -1.6958  1.5942  3.9620
 3264SOL     OW21424   2.065   2.880   7.809  0.1313  0.5956 -0.1765
 3264SOL    HW121425   2.129   2.923   7.752  0.1997 -2.0224 -2.0953
 3264SOL    HW221426   2.011   2.845   7.738  0.7341 -1.0633  0.1811
 3265SOL     OW21427   4.050   1.670  11.157  0.6954  0.0007 -0.0643
 3265SOL    HW121428   4.080   1.652  11.247  0.6075  0.8961  0.1434
 3265SOL    HW221429   4.134   1.692  11.118  0.5562 -2.7350 -1.8952
 3266SOL     OW21430   0.867   1.547   3.346  0.3401 -0.3005  0.5096
 3266SOL    HW121431   0.911   1.502   3.417  1.3763  0.0837  0.1134
 3266SOL    HW221432   0.787   1.495   3.337 -0.5721  1.3432 -0.9580
 3267SOL     OW21433   0.731   1.142   6.355  0.0451 -0.1800 -0.0487
 3267SOL    HW121434   0.717   1.186   6.439  2.7666 -0.8788  0.7898
 3267SOL    HW221435   0.773   1.218   6.312  0.4921 -0.9798 -1.0268
 3268SOL     OW21436   0.659   4.356   8.411 -0.0860  0.2014  0.4035
 3268SOL    HW121437   0.628   4.408   8.337  0.1698  0.5844  0.5672
 3268SOL    HW221438   0.581   4.316   8.449 -0.2129 -0.0699 -0.1416
 3269SOL     OW21439   1.455   2.656   4.680 -0.6612 -0.3179 -0.3081
 3269SOL    HW121440   1.371   2.611   4.685 -1.3403  0.9751 -0.1651
 3269SOL    HW221441   1.440   2.734   4.626  0.8215  0.5805  0.5877
 3270SOL     OW21442   0.653   1.578   6.132  0.1539  0.9072  0.3722
 3270SOL    HW121443   0.629   1.629   6.210 -1.6790  2.9207 -1.5138
 3270SOL    HW221444   0.586   1.518   6.099  0.1510  0.2742  1.5100
 3271SOL     OW21445   2.006   4.246   3.413  0.0868 -0.2517 -0.4174
 3271SOL    HW121446   1.937   4.303   3.447  0.3689  0.1569 -0.5383
 3271SOL    HW221447   1.963   4.162   3.431 -0.1288 -0.2566 -0.9415
 3272SOL     OW21448   1.188   1.749   2.406  0.4680 -0.1031  0.0882
 3272SOL    HW121449   1.278   1.781   2.397  0.6447  0.1016  2.6083
 3272SOL    HW221450   1.158   1.743   2.315  3.1600 -0.6319 -0.7633
 3273SOL     OW21451   0.723   4.568   7.290 -0.1559 -0.3908 -0.0607
 3273SOL    HW121452   0.786   4.504   7.258 -0.3777 -0.8140  0.3510
 3273SOL    HW221453   0.782   4.632   7.330 -2.7216  2.2772 -0.4775
 3274SOL     OW21454   0.546   0.268   6.516 -0.3320 -0.0028  0.1384
 3274SOL    HW121455   0.571   0.203   6.581  0.9798 -1.2715 -1.6360
 3274SOL    HW221456   0.549   0.350   6.566 -3.9594  0.2144 -0.0170
 3275SOL     OW21457   1.481   1.082  10.635 -0.3136  0.3810 -0.0126
 3275SOL    HW121458   1.400   1.129  10.651 -1.0579 -0.8471 -0.1699
 3275SOL    HW221459   1.449   1.032  10.560 -0.1556  0.7275 -0.3098
 3276SOL     OW21460   0.183   2.984   8.649 -0.4410 -0.2186 -0.1607
 3276SOL    HW121461   0.191   2.933   8.729 -1.0465 -0.0649 -0.0009
 3276SOL    HW221462   0.171   2.918   8.580 -0.4113  0.2253 -0.5906
 3277SOL     OW21463   2.290   3.802   5.086 -0.3128  0.2670 -0.1314
 3277SOL    HW121464   2.381   3.814   5.115 -0.1922 -1.9256  0.3798
 3277SOL    HW221465   2.258   3.796   5.176 -0.2124  0.6029 -0.0728
 3278SOL     OW21466   1.450   0.293  13.409 -0.3037 -0.0977  0.1654
 3278SOL    HW121467   1.484   0.306  13.320 -1.7596  1.0630 -0.2235
 3278SOL    HW221468   1.411   0.207  13.396  1.9081 -1.8427  5.0458
 3279SOL     OW21469   0.051   3.497   5.219  0.3671  0.0852 -0.5748
 3279SOL    HW121470   4.715   3.560   5.225 -0.6700 -1.0159 -1.5603
 3279SOL    HW221471   0.103   3.528   5.145 -0.2483 -1.9180 -1.8300
 3280SOL     OW21472   2.767   1.585   3.780  0.1790 -1.1852 -0.9184
 3280SOL    HW121473   2.679   1.623   3.777  1.3038  1.4702 -0.2418
 3280SOL    HW221474   2.756   1.544   3.866 -1.0824  1.8929  0.3880
 3281SOL     OW21475   3.595   2.448   5.158  0.0027  0.1891  0.1366
 3281SOL    HW121476   3.597   2.486   5.070 -0.0960  0.5052  0.2732
 3281SOL    HW221477   3.665   2.382   5.152  1.2385  1.6257 -1.4076
 3282SOL     OW21478   2.045   1.721  15.289 -0.0516  0.6083  0.0719
 3282SOL    HW121479   2.048   1.625  15.283 -1.9842  0.6427 -1.3970
 3282SOL    HW221480   1.952   1.732  15.307  0.1190  1.6905  0.2602
 3283SOL     OW21481   0.120   1.395  13.200  0.2348  0.5143  0.0726
 3283SOL    HW121482   0.050   1.348  13.243  0.6580  0.7315  0.9894
 3283SOL    HW221483   0.145   1.461  13.265  0.9215 -1.8576  2.1933
 3284SOL     OW21484   2.744   1.296   6.795 -0.0709  0.0759 -0.6966
 3284SOL    HW121485   2.783   1.209   6.803 -0.2536  0.0303 -0.2927
 3284SOL    HW221486   2.789   1.325   6.716  2.6167  1.2115  1.2730
 3285SOL     OW21487   1.249   2.136   3.008 -0.1828  0.5616 -0.5810
 3285SOL    HW121488   1.235   2.044   3.028 -0.0314  0.6358 -0.1330
 3285SOL    HW221489   1.290   2.138   2.921 -0.3292  2.3618 -0.6248
 3286SOL     OW21490   4.057   2.528   5.322  0.1440  0.2907  0.0922
 3286SOL    HW121491   3.990   2.513   5.389  1.9089 -0.4447  1.6900
 3286SOL    HW221492   4.075   2.435   5.310 -0.4204  0.3255 -1.0039
 3287SOL     OW21493   4.237   0.268  10.503 -0.3161 -0.2922 -0.1711
 3287SOL    HW121494   4.154   0.264  10.456 -0.6646 -1.2019  0.5366
 3287SOL    HW221495   4.304   0.218  10.456 -0.8978 -1.4406  0.2199
 3288SOL     OW21496   3.890   3.076   8.066 -0.5825 -0.4769  0.6545
 3288SOL    HW121497   3.914   3.146   8.006  0.4808 -1.6083 -0.2333
 3288SOL    HW221498   3.979   3.057   8.093 -0.7775 -0.1244  1.5279
 3289SOL     OW21499   2.000   2.769   9.652 -0.2010  0.8547  0.0833
 3289SOL    HW121500   1.985   2.695   9.711  2.7509 -0.4276 -0.7297
 3289SOL    HW221501   1.936   2.759   9.581  0.0578 -0.4793  0.0292
 3290SOL     OW21502   2.913   1.887   7.481 -0.3249 -0.4002 -0.0631
 3290SOL    HW121503   2.850   1.853   7.544  1.3714 -0.1967  1.7423
 3290SOL    HW221504   2.850   1.940   7.434 -1.5654  0.1423  2.2262
 3291SOL     OW21505   1.993   1.962   6.473 -0.4465  0.0074 -0.5551
 3291SOL    HW121506   1.994   1.963   6.378  3.3699 -2.9861 -0.5623
 3291SOL    HW221507   1.977   2.055   6.487  0.1807 -0.2313  1.8286
 3292SOL     OW21508   1.643   1.975   8.399  0.4783 -0.5955 -0.3195
 3292SOL    HW121509   1.658   1.957   8.492 -1.8515  0.4337  0.2448
 3292SOL    HW221510   1.734   1.963   8.372  0.9705 -0.1096  1.1008
 3293SOL     OW21511   0.340   0.006  16.818 -0.0629 -0.3076  0.7132
 3293SOL    HW121512   0.346   0.038  16.728 -2.1091 -1.4687  0.1862
 3293SOL    HW221513   0.419   4.689  16.820  1.0118  1.2008 -0.5718
 3294SOL     OW21514   2.066   1.611   2.962 -0.1497  0.6591  0.1908
 3294SOL    HW121515   2.126   1.683   2.982 -0.7391  1.1859  0.0714
 3294SOL    HW221516   2.094   1.544   3.023  1.3971  1.3940  0.2859
 3295SOL     OW21517   2.951   0.867   1.832  0.5129 -0.8523  0.1594
 3295SOL    HW121518   2.906   0.941   1.791  0.6001 -0.0248  1.5767
 3295SOL    HW221519   2.886   0.829   1.890 -1.2646  3.0482  0.7091
 3296SOL     OW21520   2.444   2.669   6.479  0.3118 -0.3149 -0.1964
 3296SOL    HW121521   2.426   2.587   6.526  0.4176 -1.4578 -2.1484
 3296SOL    HW221522   2.425   2.650   6.387 -0.1387 -3.2386  0.5046
 3297SOL     OW21523   4.465   0.990   5.524 -0.2239 -0.0305 -0.3951
 3297SOL    HW121524   4.382   1.037   5.525 -0.4269 -0.4461  2.6782
 3297SOL    HW221525   4.482   0.977   5.617 -0.6640 -1.1886 -0.4663
 3298SOL     OW21526   4.706   0.830   7.090 -0.0428 -0.4435 -0.2994
 3298SOL    HW121527   0.045   0.807   7.144  1.4834 -1.5325 -2.9002
 3298SOL    HW221528   4.642   0.768   7.123 -0.0635  0.2808  0.9837
 3299SOL     OW21529   3.972   3.572  12.685  0.0402 -0.1291 -0.5113
 3299SOL    HW121530   4.059   3.540  12.661  1.1349  2.3974  0.1194
 3299SOL    HW221531   3.959   3.660  12.650  2.2566  0.0926 -0.7423
 3300SOL     OW21532   1.060   2.324  11.795  0.0938 -0.6879  0.0112
 3300SOL    HW121533   1.091   2.286  11.713  4.2702 -0.0600  1.3220
 3300SOL    HW221534   0.997   2.380  11.749 -0.0007 -0.6094  0.2362
 3301SOL     OW21535   4.336   2.826  11.447  0.4204  0.2688 -0.3154
 3301SOL    HW121536   4.246   2.831  11.414  0.1700  0.2051  0.3601
 3301SOL    HW221537   4.330   2.885  11.522 -0.2574 -1.8001  1.2590
 3302SOL     OW21538   1.991   2.178   4.894 -0.3235 -0.1331  0.4728
 3302SOL    HW121539   1.904   2.198   4.858  1.6893  1.6672 -3.2740
 3302SOL    HW221540   1.981   2.083   4.904  1.7382 -0.3130  0.8049
 3303SOL     OW21541   4.499   1.536   7.893 -0.0791  0.7414  0.1012
 3303SOL    HW121542   4.565   1.468   7.903  0.0536  0.6097 -1.6760
 3303SOL    HW221543   4.431   1.485   7.938  0.7252  0.6639  1.2297
 3304SOL     OW21544   0.982   3.885  12.171  0.3180 -0.3529 -0.8661
 3304SOL    HW121545   0.946   3.969  12.143 -0.0033 -0.7480 -1.6638
 3304SOL    HW221546   1.072   3.907  12.192  0.2396 -0.2079 -0.6907
 3305SOL     OW21547   2.165   3.808   7.850  0.0725 -0.6108  0.1033
 3305SOL    HW121548   2.185   3.798   7.756 -0.9096  0.6584 -0.2362
 3305SOL    HW221549   2.231   3.873   7.875 -1.3390  1.1619 -0.7474
 3306SOL     OW21550   0.539   1.222   8.448 -0.1547  0.2581  0.7182
 3306SOL    HW121551   0.554   1.229   8.542  0.5758 -1.5405  0.7459
 3306SOL    HW221552   0.591   1.145   8.424 -2.5242 -0.9825 -0.5911
 3307SOL     OW21553   3.852   0.138   3.174  0.7081 -0.3514 -0.1589
 3307SOL    HW121554   3.810   0.140   3.260  0.1325 -0.2665 -0.4400
 3307SOL    HW221555   3.914   0.068   3.195  0.9968 -0.7147 -2.1571
 3308SOL     OW21556   3.299   3.909   5.752 -0.2464 -0.3050  0.1281
 3308SOL    HW121557   3.238   3.982   5.761 -1.4558 -1.5975  2.3498
 3308SOL    HW221558   3.335   3.921   5.664  2.1177 -0.4023  1.0664
 3309SOL     OW21559   4.063   2.092  10.250  0.5664 -0.1578  0.2626
 3309SOL    HW121560   4.043   2.106  10.157 -1.4367 -2.2152  0.3664
 3309SOL    HW221561   4.053   2.178  10.289 -1.2046  0.6001 -1.8184
 3310SOL     OW21562   3.639   4.577   2.184  0.2265 -0.2120  0.5289
 3310SOL    HW121563   3.549   4.603   2.162  0.1803 -2.0823 -1.6144
 3310SOL    HW221564   3.636   4.490   2.145  0.0453 -0.6099  1.4316
 3311SOL     OW21565   1.439   3.291   0.805  1.2755 -0.7478 -0.1011
 3311SOL    HW121566   1.450   3.384   0.827 -0.1960 -1.1086  2.2805
 3311SOL    HW221567   1.360   3.304   0.752  0.0882 -1.0776  1.5737
 3312SOL     OW21568   3.443   4.696   0.203  0.2804  0.0459 -0.2992
 3312SOL    HW121569   3.356   4.695   0.244 -0.6434 -0.9953 -2.2776
 3312SOL    HW221570   3.482   4.621   0.248  1.1324  1.0567  0.6492
 3313SOL     OW21571   4.001   4.717   3.607 -0.6300 -0.2875  0.1142
 3313SOL    HW121572   4.081   0.028   3.628 -0.3850 -0.8067  0.3742
 3313SOL    HW221573   3.949   0.061   3.604  0.3130  0.4051  2.8307
 3314SOL     OW21574   0.989   1.508  15.972 -0.1228  0.0747 -0.0136
 3314SOL    HW121575   0.911   1.536  16.020 -1.0519  0.5786 -1.8316
 3314SOL    HW221576   0.958   1.522  15.883 -0.1448  0.3871  0.0451
 3315SOL     OW21577   1.375   2.082   2.747  0.4705 -0.1652  0.2054
 3315SOL    HW121578   1.430   2.161   2.745  1.7215 -1.0288  0.4898
 3315SOL    HW221579   1.302   2.095   2.687  0.3687  0.4488  0.4647
 3316SOL     OW21580   4.139   3.712   2.319 -0.0439  0.4664 -0.3083
 3316SOL    HW121581   4.159   3.686   2.230 -0.4109  1.4155 -0.6686
 3316SOL    HW221582   4.215   3.676   2.365 -0.2713  0.9267  0.4391
 3317SOL     OW21583   4.532   2.882   3.085 -0.4236  0.4992 -0.3183
 3317SOL    HW121584   4.498   2.934   3.012 -0.8877  0.1382 -0.3550
 3317SOL    HW221585   4.472   2.808   3.078 -2.3389  2.1025 -0.7801
 3318SOL     OW21586   3.995   3.056   4.611 -0.2306 -0.2945  0.1433
 3318SOL    HW121587   3.993   3.094   4.699 -1.0553  0.7360 -0.3192
 3318SOL    HW221588   4.047   2.981   4.639 -0.6570 -0.2552  1.0524
 3319SOL     OW21589   2.647   4.312  16.178  0.0185 -0.2435  0.1308
 3319SOL    HW121590   2.727   4.332  16.228 -0.2447 -0.3736  0.6024
 3319SOL    HW221591   2.655   4.217  16.180 -1.1322 -0.3403 -0.5363
 3320SOL     OW21592   2.099   0.661   3.537 -0.1235 -0.0609 -0.3324
 3320SOL    HW121593   2.074   0.740   3.488  0.1513  0.2404  0.0084
 3320SOL    HW221594   2.065   0.593   3.479 -1.5720  0.9051 -0.5986
 3321SOL     OW21595   2.641   0.912  11.701 -0.9425 -0.7965 -0.1900
 3321SOL    HW121596   2.651   0.818  11.686  0.6890 -0.5762 -0.4541
 3321SOL    HW221597   2.612   0.926  11.611 -0.8993 -0.7602 -0.1983
 3322SOL     OW21598   4.399   3.758   0.101 -0.4926  0.0281  0.7413
 3322SOL    HW121599   4.316   3.790   0.137 -0.2290  1.2191  0.2725
 3322SOL    HW221600   4.440   3.728   0.183 -0.6687  1.3704  1.3149
 3323SOL     OW21601   2.417   4.664   9.188 -0.2732  0.4883 -0.1607
 3323SOL    HW121602   2.372   4.736   9.231  1.2150  0.9469  0.6305
 3323SOL    HW221603   2.480   4.712   9.133 -0.7889  1.4305  0.0742
 3324SOL     OW21604   4.126   2.459   8.490 -0.4073  0.3441  0.1891
 3324SOL    HW121605   4.186   2.395   8.452 -0.4533  0.9810 -0.9507
 3324SOL    HW221606   4.117   2.522   8.419  1.3830 -0.7346 -0.9748
 3325SOL     OW21607   0.389   2.172  15.565 -0.0727 -0.2685  0.0958
 3325SOL    HW121608   0.381   2.160  15.660 -0.6737  2.3320  0.3901
 3325SOL    HW221609   0.436   2.256  15.561 -0.3446 -0.1370 -0.2596
 3326SOL     OW21610   3.725   1.898   8.791 -0.1390 -0.1215 -0.1085
 3326SOL    HW121611   3.803   1.941   8.755 -0.2674  0.3353  0.1577
 3326SOL    HW221612   3.765   1.818   8.825  0.6273  0.1463 -0.3684
 3327SOL     OW21613   2.429   3.100  15.078 -0.2458 -0.4022 -0.1872
 3327SOL    HW121614   2.342   3.061  15.065  0.7293 -2.3723 -0.9160
 3327SOL    HW221615   2.475   3.017  15.062  0.7441  0.3342 -1.1101
 3328SOL     OW21616   2.745   0.217   4.976  0.1139  0.1084  0.0670
 3328SOL    HW121617   2.755   0.125   4.997 -3.1091 -0.5643 -1.2495
 3328SOL    HW221618   2.706   0.248   5.058  1.3203  2.2874 -0.1942
 3329SOL     OW21619   4.371   1.619   7.049  0.3647 -0.1365  0.1246
 3329SOL    HW121620   4.300   1.560   7.077 -1.1107  1.3761 -0.4557
 3329SOL    HW221621   4.438   1.557   7.022 -1.4927 -0.3112 -3.9696
 3330SOL     OW21622   1.860   1.964   9.874 -0.0466 -0.2560 -0.5933
 3330SOL    HW121623   1.946   1.986   9.910 -0.0719 -0.7295 -0.2522
 3330SOL    HW221624   1.831   2.055   9.864  1.8509  0.4954  0.6456
 3331SOL     OW21625   2.375   1.046   8.387 -0.1195  0.1627 -0.4298
 3331SOL    HW121626   2.360   0.964   8.435  2.6102  0.7490  1.3701
 3331SOL    HW221627   2.285   1.080   8.390 -0.2180 -0.0688 -0.7098
 3332SOL     OW21628   1.066   0.386   5.451  0.2730  0.3083  0.2562
 3332SOL    HW121629   1.089   0.410   5.361 -1.0501  0.5708 -0.0181
 3332SOL    HW221630   0.993   0.330   5.424  1.3716 -1.7032  1.4765
 3333SOL     OW21631   4.538   2.783  11.259 -0.1626 -0.1193 -0.1161
 3333SOL    HW121632   4.524   2.689  11.257 -1.7029  0.1160 -0.3172
 3333SOL    HW221633   4.475   2.808  11.327  1.9023  1.8180  1.0927
 3334SOL     OW21634   1.116   1.943   1.979  0.5091 -0.1113  0.2508
 3334SOL    HW121635   1.062   2.011   1.940  2.9782  1.8545  0.3012
 3334SOL    HW221636   1.132   1.899   1.896 -0.3160 -0.2558  0.1665
 3335SOL     OW21637   3.492   1.451   9.198  0.0319  0.3309 -0.1090
 3335SOL    HW121638   3.414   1.445   9.253  2.0573  0.9293  2.7758
 3335SOL    HW221639   3.479   1.537   9.158  1.3147  0.4037 -0.3749
 3336SOL     OW21640   1.270   0.515   3.160  0.4640 -0.5004 -0.1033
 3336SOL    HW121641   1.217   0.557   3.228 -2.5381 -1.3150 -1.9609
 3336SOL    HW221642   1.264   0.581   3.091  0.5447 -1.2327 -0.8063
 3337SOL     OW21643   3.971   2.625   7.713 -0.3647  0.3139  0.0554
 3337SOL    HW121644   4.004   2.698   7.662 -0.1881 -0.3742 -0.8192
 3337SOL    HW221645   3.902   2.598   7.652  1.3588 -0.1765 -1.6708
 3338SOL     OW21646   4.215   4.702  14.912 -0.3663 -0.0722 -0.0303
 3338SOL    HW121647   4.245   4.696  14.822  1.2602 -2.7194  0.7103
 3338SOL    HW221648   4.282   0.022  14.949 -0.7090  1.5150 -1.8468
 3339SOL     OW21649   2.017   0.137   8.816  0.0419 -0.5697  0.2190
 3339SOL    HW121650   1.984   0.048   8.799 -0.4186 -0.4751  0.6034
 3339SOL    HW221651   2.043   0.139   8.908 -2.4497  1.1535  0.9014
 3340SOL     OW21652   3.583   1.749   2.391  0.1610 -0.0268  0.2168
 3340SOL    HW121653   3.541   1.835   2.394  0.7556  0.1759  2.6739
 3340SOL    HW221654   3.664   1.777   2.434  0.1770  0.4207 -0.1053
 3341SOL     OW21655   3.396   1.246   4.522 -0.0490 -0.2290 -0.3037
 3341SOL    HW121656   3.423   1.331   4.557 -1.3130  0.6159 -1.3861
 3341SOL    HW221657   3.370   1.197   4.600  0.9211 -0.6535 -0.2572
 3342SOL     OW21658   4.222   0.793   5.227 -0.0795 -0.3454 -0.0128
 3342SOL    HW121659   4.275   0.786   5.306 -0.2027 -0.5929  0.0491
 3342SOL    HW221660   4.249   0.724   5.167 -0.6564  1.3959 -2.3122
 3343SOL     OW21661   2.750   2.907  17.680 -0.4482  0.3626  0.4381
 3343SOL    HW121662   2.707   2.897  17.595  0.7504 -0.6444 -0.0447
 3343SOL    HW221663   2.774   3.000  17.682  1.4616 -0.1941  2.8349
 3344SOL     OW21664   3.198   2.633   2.920  0.1253 -0.1581 -0.3100
 3344SOL    HW121665   3.221   2.723   2.897  0.9115 -0.0213  0.9862
 3344SOL    HW221666   3.159   2.610   2.836 -1.1258 -0.2529  0.2945
 3345SOL     OW21667   1.924   1.665  13.191 -0.0771 -0.8069 -0.1638
 3345SOL    HW121668   1.993   1.653  13.127 -1.3242 -0.8407 -1.5099
 3345SOL    HW221669   1.970   1.655  13.274  0.3752  2.7213  0.0183
 3346SOL     OW21670   0.730   2.090   4.045  0.0871 -0.0410  0.6434
 3346SOL    HW121671   0.757   2.079   3.954  3.0449  0.5289  1.4396
 3346SOL    HW221672   0.730   1.998   4.074 -1.3882 -0.7427 -1.5873
 3347SOL     OW21673   2.576   2.026   4.517 -0.0164 -0.0057  0.1473
 3347SOL    HW121674   2.502   1.999   4.572  0.3896 -0.3026  0.5372
 3347SOL    HW221675   2.570   2.121   4.525 -0.9686 -0.1587  1.2524
 3348SOL     OW21676   4.111   2.419   3.829  0.4969 -0.1981  0.5685
 3348SOL    HW121677   4.048   2.456   3.891  1.4507  0.6907  1.0057
 3348SOL    HW221678   4.055   2.416   3.752  0.3808  0.4088  0.6350
 3349SOL     OW21679   1.027   0.269   9.165 -0.8051  0.5805  0.6695
 3349SOL    HW121680   1.071   0.323   9.100  0.1069 -0.9370  0.0353
 3349SOL    HW221681   1.084   0.278   9.242  0.9096  2.2433 -0.7827
 3350SOL     OW21682   4.425   0.899  14.005  0.2931  0.2402  0.3567
 3350SOL    HW121683   4.520   0.907  14.003  0.1539  1.9401  0.7332
 3350SOL    HW221684   4.407   0.885  14.098 -0.0612 -0.5170  0.1774
 3351SOL     OW21685   2.772   1.038   9.024  0.4999 -0.1793  0.1592
 3351SOL    HW121686   2.771   0.969   8.958  1.0454 -0.9046  0.9061
 3351SOL    HW221687   2.704   1.013   9.087 -0.7738 -0.1369 -1.2202
 3352SOL     OW21688   1.020   1.089  10.010 -0.1984 -0.1793 -0.4914
 3352SOL    HW121689   1.068   1.051   9.935  3.6405  1.8215  0.9542
 3352SOL    HW221690   1.007   1.178   9.977 -0.4570 -1.5216 -3.9949
 3353SOL     OW21691   2.774   2.221   5.756  0.4475  0.1580  0.0672
 3353SOL    HW121692   2.802   2.162   5.826 -1.3993 -0.5163  0.2330
 3353SOL    HW221693   2.679   2.212   5.756  0.5635 -0.9502 -1.5452
 3354SOL     OW21694   4.024   1.698   2.866 -0.3372  0.5280 -0.2720
 3354SOL    HW121695   4.075   1.634   2.915  2.2701  0.2422 -3.3663
 3354SOL    HW221696   3.937   1.669   2.895 -0.4062  0.5854 -0.4241
 3355SOL     OW21697   2.181   3.625   2.665 -0.7801 -0.0008 -0.2230
 3355SOL    HW121698   2.269   3.658   2.651 -0.0030 -2.0195 -0.1190
 3355SOL    HW221699   2.130   3.704   2.685  1.8708  1.4349  0.7974
 3356SOL     OW21700   2.847   4.390   7.005  0.2934  0.2440 -0.4136
 3356SOL    HW121701   2.869   4.356   6.919  0.9101  1.7947 -0.8636
 3356SOL    HW221702   2.763   4.347   7.023  0.3630 -0.2959 -1.4230
 3357SOL     OW21703   0.340   3.174   6.000  0.3471 -0.0936  0.0704
 3357SOL    HW121704   0.411   3.162   6.063 -0.3366  2.0964  1.2821
 3357SOL    HW221705   0.307   3.085   5.995  1.4113 -0.3738 -2.0301
 3358SOL     OW21706   2.930   2.592   9.081  0.1773  0.4348 -0.1150
 3358SOL    HW121707   2.937   2.591   8.986  0.9935  0.5914 -0.0607
 3358SOL    HW221708   2.933   2.685   9.105 -3.2632  0.1733  1.3704
 3359SOL     OW21709   4.365   2.146   3.925 -0.2195 -0.1849 -0.2948
 3359SOL    HW121710   4.271   2.130   3.913 -0.1758 -0.8930  0.3240
 3359SOL    HW221711   4.360   2.227   3.872  1.5728 -1.4060 -2.3202
 3360SOL     OW21712   0.141   2.435   6.693  0.1928  0.8222  0.5796
 3360SOL    HW121713   0.072   2.456   6.757 -1.5070 -1.3198 -0.5627
 3360SOL    HW221714   0.119   2.499   6.625 -2.1216  1.3106  1.7886
 3361SOL     OW21715   3.528   3.888  10.295  0.6655 -0.1233  0.2843
 3361SOL    HW121716   3.592   3.820  10.318  2.0415  1.2576  0.5695
 3361SOL    HW221717   3.589   3.960  10.279  0.7080  0.0586  1.2862
 3362SOL     OW21718   1.891   3.654  16.625 -0.4263 -0.4282 -0.3455
 3362SOL    HW121719   1.950   3.621  16.694 -0.7018  2.0847  1.0989
 3362SOL    HW221720   1.947   3.729  16.602  0.8978 -1.8510 -1.7885
 3363SOL     OW21721   0.701   2.761   5.430 -0.0052 -0.0349 -0.0829
 3363SOL    HW121722   0.779   2.717   5.464  1.1636  1.9228 -0.2370
 3363SOL    HW221723   0.667   2.819   5.499  0.6461 -1.8972  1.8101
 3364SOL     OW21724   4.174   0.074   0.764  0.2359 -0.7185 -0.0364
 3364SOL    HW121725   4.263   0.047   0.740 -0.4207 -1.4647 -1.6431
 3364SOL    HW221726   4.181   0.060   0.858 -1.1876  0.4454  0.2404
 3365SOL     OW21727   0.268   4.294   0.115  0.0785 -0.4336 -0.0728
 3365SOL    HW121728   0.243   4.289   0.022 -0.1992 -1.6710  0.0702
 3365SOL    HW221729   0.361   4.270   0.117 -0.1113 -1.0486  1.2765
 3366SOL     OW21730   0.611   2.827   1.603  0.1759  0.3020  0.1145
 3366SOL    HW121731   0.617   2.738   1.637 -0.4457  0.0061 -0.5503
 3366SOL    HW221732   0.628   2.875   1.683 -0.6459 -0.8444  0.9709
 3367SOL     OW21733   2.487   2.245  12.332  0.4863  0.2917  0.3945
 3367SOL    HW121734   2.465   2.325  12.381 -0.5304 -0.4515  1.1541
 3367SOL    HW221735   2.433   2.261  12.254 -2.1744 -4.1075  1.3568
 3368SOL     OW21736   1.747   0.813  15.466  0.0183 -0.0445 -0.4578
 3368SOL    HW121737   1.738   0.784  15.375  0.1775  3.6853 -1.6472
 3368SOL    HW221738   1.674   0.770  15.510  1.0242  0.1776  1.4062
 3369SOL     OW21739   3.634   3.401   5.299 -0.1529 -0.1489 -0.6019
 3369SOL    HW121740   3.707   3.383   5.359 -0.6535  0.4430  0.1914
 3369SOL    HW221741   3.614   3.493   5.318 -0.7310 -0.3921 -0.0131
 3370SOL     OW21742   1.780   4.047   6.488 -0.8141  0.2177 -0.0567
 3370SOL    HW121743   1.790   4.007   6.574 -1.3286  1.2406  0.4760
 3370SOL    HW221744   1.873   4.056   6.467 -0.9338  1.2834 -0.1024
 3371SOL     OW21745   4.260   0.278   3.371 -0.1021 -0.5886 -0.1688
 3371SOL    HW121746   4.328   0.213   3.358 -1.1583 -1.8138  0.4870
 3371SOL    HW221747   4.194   0.237   3.315 -0.0039 -3.1069  1.5976
 3372SOL     OW21748   3.540   4.308   6.644 -0.0389  0.7048 -0.2829
 3372SOL    HW121749   3.570   4.281   6.558  2.7816 -1.5690  1.4076
 3372SOL    HW221750   3.619   4.286   6.694 -0.3168 -0.7066 -0.4716
 3373SOL     OW21751   3.102   3.439  14.681 -0.7993  0.0538 -0.3712
 3373SOL    HW121752   3.043   3.373  14.717 -0.4867 -0.5163 -0.9026
 3373SOL    HW221753   3.051   3.463  14.604 -3.0688 -2.8865  0.2058
 3374SOL     OW21754   1.818   3.363   7.188  0.8859  0.5029  0.3167
 3374SOL    HW121755   1.776   3.325   7.266 -1.2893  1.1897 -0.5063
 3374SOL    HW221756   1.747   3.422   7.162  0.6970  0.5011  0.8103
 3375SOL     OW21757   3.737   3.443  17.656 -0.5709  0.6729 -0.0064
 3375SOL    HW121758   3.759   3.368  17.712 -2.2432  1.7575  2.0763
 3375SOL    HW221759   3.787   3.416  17.579 -1.2033  0.8982 -0.4953
 3376SOL     OW21760   2.357   1.225   4.281  0.2440 -0.3475 -1.0022
 3376SOL    HW121761   2.321   1.141   4.252 -0.5555 -0.4871  0.3872
 3376SOL    HW221762   2.371   1.212   4.375 -1.5532 -1.3647 -0.8779
 3377SOL     OW21763   0.780   2.519  10.318 -0.3959  0.4021 -0.4330
 3377SOL    HW121764   0.730   2.496  10.396  2.3949  0.7231  1.4595
 3377SOL    HW221765   0.783   2.615  10.318 -2.2427  0.4601  0.5917
 3378SOL     OW21766   1.226   2.732   1.674 -0.4012  0.1908 -0.0833
 3378SOL    HW121767   1.205   2.775   1.757  1.9858  1.6275 -0.2073
 3378SOL    HW221768   1.151   2.674   1.663 -0.7725  0.4307  1.2423
 3379SOL     OW21769   1.586   2.179   4.109 -0.2528 -0.0601  0.0085
 3379SOL    HW121770   1.540   2.198   4.028  2.5415  0.9513 -1.3312
 3379SOL    HW221771   1.649   2.250   4.116 -0.4988  0.2324 -0.8109
 3380SOL     OW21772   1.070   0.760   9.097  0.9802  0.3952 -0.0244
 3380SOL    HW121773   1.138   0.818   9.133 -1.5305  3.1304  0.3458
 3380SOL    HW221774   1.012   0.745   9.172 -0.6140 -0.2853 -1.4059
 3381SOL     OW21775   2.482   4.337   7.568  0.1712  0.4055 -0.5459
 3381SOL    HW121776   2.416   4.273   7.543 -1.0623  1.7448 -0.7439
 3381SOL    HW221777   2.558   4.300   7.524  0.4196  0.0862  0.1673
 3382SOL     OW21778   3.609   4.211  17.088 -0.1487  0.1927 -0.2619
 3382SOL    HW121779   3.560   4.143  17.134  0.4554  0.2900  0.5281
 3382SOL    HW221780   3.677   4.157  17.046  0.9208  1.8766 -0.6988
 3383SOL     OW21781   2.328   3.156   6.570  0.5321 -0.3255 -0.1709
 3383SOL    HW121782   2.253   3.187   6.519  0.1250 -2.1351 -0.6874
 3383SOL    HW221783   2.346   3.073   6.526 -1.2589 -0.1529 -1.2386
 3384SOL     OW21784   0.009   4.051   5.236  0.1887  0.1864 -0.4815
 3384SOL    HW121785   0.028   4.102   5.158  0.2462 -1.0364 -1.2652
 3384SOL    HW221786   0.013   3.967   5.191  0.6494 -1.0643  1.8563
 3385SOL     OW21787   4.504   1.864   7.488 -0.4167  0.2093  0.1679
 3385SOL    HW121788   4.523   1.816   7.569  1.1335 -0.9448 -0.8811
 3385SOL    HW221789   4.577   1.926   7.486 -2.1363  2.2192  0.6571
 3386SOL     OW21790   0.606   3.867  17.598 -0.4301  0.1811  0.6482
 3386SOL    HW121791   0.609   3.926  17.673  0.1445 -0.9489  1.5124
 3386SOL    HW221792   0.545   3.923  17.549  0.1399 -0.1868 -0.4788
 3387SOL     OW21793   3.141   3.633   4.201  0.0561  0.8630  0.1032
 3387SOL    HW121794   3.053   3.600   4.184 -0.5950  2.7265 -0.0822
 3387SOL    HW221795   3.118   3.717   4.161 -1.2883  1.6973  2.6132
 3388SOL     OW21796   0.572   2.957   0.442  0.2624  0.0935  0.2129
 3388SOL    HW121797   0.534   2.884   0.491  0.6173 -0.3912 -0.2213
 3388SOL    HW221798   0.652   2.917   0.408 -0.2748 -0.4200 -0.4627
 3389SOL     OW21799   0.067   2.241  10.615  0.2866 -0.1757  0.0374
 3389SOL    HW121800   4.723   2.191  10.630 -0.4664  1.0491  0.0208
 3389SOL    HW221801   0.074   2.248  10.520 -0.3848 -0.8617 -0.0602
 3390SOL     OW21802   3.621   2.664  13.733 -0.5123  1.1287 -0.0171
 3390SOL    HW121803   3.553   2.638  13.671 -0.9103  3.0218 -0.3713
 3390SOL    HW221804   3.686   2.702  13.675  0.3678 -0.6988 -0.2327
 3391SOL     OW21805   3.573   1.549  16.584 -0.4147 -0.0248 -0.6387
 3391SOL    HW121806   3.648   1.608  16.582 -1.4501  1.2686 -1.4822
 3391SOL    HW221807   3.568   1.534  16.489  1.2550 -0.8560 -0.5942
 3392SOL     OW21808   3.787   0.809   6.514 -0.1265  0.1980  0.1637
 3392SOL    HW121809   3.759   0.784   6.426  3.2205  0.0208 -0.8594
 3392SOL    HW221810   3.847   0.879   6.487 -3.3763  1.2266 -4.3708
 3393SOL     OW21811   1.732   0.078   4.100 -0.2031 -0.2350 -0.3198
 3393SOL    HW121812   1.700   0.168   4.112  1.7860  0.2073  1.5680
 3393SOL    HW221813   1.716   0.060   4.007 -1.5184 -3.4006  0.5100
 3394SOL     OW21814   1.082   4.572  12.641  0.2405  0.1408  0.4576
 3394SOL    HW121815   1.117   4.642  12.695 -0.0175 -0.2814  1.1781
 3394SOL    HW221816   0.989   4.564  12.665 -0.5131  1.9577 -1.8791
 3395SOL     OW21817   3.868   3.618   8.652 -0.3941  0.0361 -0.4733
 3395SOL    HW121818   3.794   3.669   8.619 -0.5085  1.2723  1.7215
 3395SOL    HW221819   3.889   3.668   8.731  1.2159 -0.0711 -0.8345
 3396SOL     OW21820   0.269   4.101   3.535  0.3911  0.3904 -0.1077
 3396SOL    HW121821   0.276   4.028   3.473 -1.6129  1.1071 -1.1954
 3396SOL    HW221822   0.202   4.086   3.601  1.3764 -2.7574  0.1690
 3397SOL     OW21823   2.666   4.231   1.882  0.5777  0.2877  0.1562
 3397SOL    HW121824   2.604   4.169   1.841 -0.8725 -0.0578  2.8460
 3397SOL    HW221825   2.649   4.304   1.823  2.9453  1.2457  0.6912
 3398SOL     OW21826   1.840   0.745   0.036 -0.1790 -0.4030 -0.1320
 3398SOL    HW121827   1.930   0.735   0.005 -0.1812  3.2427 -1.3084
 3398SOL    HW221828   1.783   0.749  17.705 -0.2155 -1.7255 -0.1709
 3399SOL     OW21829   0.454   2.158   4.561 -0.6995  0.0641  0.4264
 3399SOL    HW121830   0.389   2.217   4.524 -0.1370  1.3727  1.5594
 3399SOL    HW221831   0.438   2.084   4.501  0.2862  0.4097 -0.2728
 3400SOL     OW21832   2.037   1.192  16.105 -0.4929  0.6329 -0.5570
 3400SOL    HW121833   2.041   1.288  16.105  1.6389  0.5445  1.8618
 3400SOL    HW221834   1.945   1.168  16.095  0.1780 -1.0624 -2.6968
 3401SOL     OW21835   3.575   4.698   5.398 -0.1299 -0.0239 -0.0316
 3401SOL    HW121836   3.543   0.006   5.320 -1.2378  2.5342  1.8451
 3401SOL    HW221837   3.668   4.690   5.376  0.3077 -0.7064  1.9959
 3402SOL     OW21838   4.613   4.398   2.715 -0.4270 -0.3186 -0.0610
 3402SOL    HW121839   4.667   4.400   2.636 -1.0907  0.1556 -0.5100
 3402SOL    HW221840   4.534   4.442   2.683 -1.6336 -1.6823  1.0579
 3403SOL     OW21841   0.121   3.567   8.943 -0.3850  0.0500  0.0930
 3403SOL    HW121842   0.179   3.623   8.995 -0.1979  0.0022 -0.0651
 3403SOL    HW221843   0.052   3.556   9.008 -1.7604 -0.1474 -1.3928
 3404SOL     OW21844   3.484   2.036   5.205 -0.6714 -1.0891 -0.4237
 3404SOL    HW121845   3.514   2.061   5.117 -1.4499  0.5792 -0.2075
 3404SOL    HW221846   3.443   2.120   5.224  2.1450  0.6213 -1.7941
 3405SOL     OW21847   4.622   4.042  10.969 -0.0876 -0.0532 -0.0371
 3405SOL    HW121848   4.657   4.002  10.889  1.3600 -1.1130  1.1046
 3405SOL    HW221849   4.611   4.133  10.942 -0.8947 -0.0642  0.2669
 3406SOL     OW21850   2.965   3.283   9.298  0.1212 -0.6635 -0.7926
 3406SOL    HW121851   2.950   3.282   9.203  2.7038  0.2549 -1.2208
 3406SOL    HW221852   2.950   3.194   9.330  4.1387 -0.7836  0.7676
 3407SOL     OW21853   3.832   2.757   7.361 -0.1208  0.4409  0.2099
 3407SOL    HW121854   3.828   2.737   7.268  0.3349 -2.3487  0.7874
 3407SOL    HW221855   3.767   2.700   7.402  1.6590 -1.8374 -0.1202
 3408SOL     OW21856   2.730   0.613   6.988 -0.0557  0.2682  0.2494
 3408SOL    HW121857   2.683   0.655   7.060 -0.2308  0.2369  0.1513
 3408SOL    HW221858   2.717   0.680   6.921  0.1324 -1.8298 -1.8867
 3409SOL     OW21859   3.342   2.064   7.597  0.2165  0.2115  0.0404
 3409SOL    HW121860   3.269   2.124   7.608  0.9717  1.0614  0.4457
 3409SOL    HW221861   3.410   2.109   7.647  2.2377  0.8175 -3.2091
 3410SOL     OW21862   3.517   0.696   4.569 -0.0924 -0.1163 -0.3689
 3410SOL    HW121863   3.537   0.770   4.511 -0.1256  0.2957  0.1484
 3410SOL    HW221864   3.466   0.636   4.515  0.7043 -1.0945 -0.0208
 3411SOL     OW21865   3.073   3.570   2.408  0.1032  0.1714  0.1050
 3411SOL    HW121866   3.032   3.648   2.371 -2.0853  0.1234  2.3860
 3411SOL    HW221867   3.014   3.506   2.366  0.3339 -0.0514  0.1179
 3412SOL     OW21868   0.573   4.304   4.556 -0.2301  0.4781 -0.4337
 3412SOL    HW121869   0.651   4.341   4.597 -1.8652  0.7865  2.4247
 3412SOL    HW221870   0.550   4.236   4.620  0.6885 -2.4951 -3.2466
 3413SOL     OW21871   0.214   2.782   7.854  0.2621  0.1737  0.2660
 3413SOL    HW121872   0.126   2.787   7.892  0.2315  2.6797 -0.1397
 3413SOL    HW221873   0.256   2.862   7.888  1.3449 -0.1434 -0.3367
 3414SOL     OW21874   4.014   3.725   2.557  0.1504  0.0928  0.2412
 3414SOL    HW121875   4.057   3.800   2.596  0.6454  1.1741 -2.3612
 3414SOL    HW221876   4.062   3.713   2.475 -1.3710 -0.9398 -0.4964
 3415SOL     OW21877   2.114   0.285  10.073 -0.7391  0.0776  0.3862
 3415SOL    HW121878   2.059   0.237  10.135  0.3250  0.2356  1.4536
 3415SOL    HW221879   2.080   0.249   9.991  0.8580  0.2747 -0.3698
 3416SOL     OW21880   2.207   3.232  16.823  0.9362 -0.3974 -0.6819
 3416SOL    HW121881   2.240   3.193  16.904  0.1695 -0.0442 -0.2022
 3416SOL    HW221882   2.228   3.173  16.751 -1.2622 -2.4579  0.3702
 3417SOL     OW21883   4.312   3.283   0.775  0.0350  0.3795 -0.2810
 3417SOL    HW121884   4.229   3.240   0.756  0.0602 -0.3659  1.3535
 3417SOL    HW221885   4.370   3.212   0.749  1.5767  2.1225 -1.6066
 3418SOL     OW21886   0.563   0.097   3.398  0.4753 -0.0825  0.5363
 3418SOL    HW121887   0.634   0.033   3.388  1.4752  1.4504 -2.1256
 3418SOL    HW221888   0.555   0.135   3.310  1.5973 -3.1701 -0.9234
 3419SOL     OW21889   2.513   3.400   7.956 -0.2404  0.2521  0.0638
 3419SOL    HW121890   2.552   3.363   7.877 -0.1621  1.6687 -0.5744
 3419SOL    HW221891   2.591   3.431   8.002 -0.7219  1.1091  0.3120
 3420SOL     OW21892   3.570   2.308   9.106 -0.5986  0.3370  0.6632
 3420SOL    HW121893   3.597   2.267   9.024  0.0893  0.8700  0.6246
 3420SOL    HW221894   3.642   2.295   9.168 -3.1072 -0.4786  3.4338
 3421SOL     OW21895   4.634   2.365   5.176  0.4771 -0.0806  0.4127
 3421SOL    HW121896   4.574   2.376   5.103  0.8240 -0.2803  0.0960
 3421SOL    HW221897   4.639   2.270   5.162 -0.3557 -0.2424  1.2516
 3422SOL     OW21898   3.676   0.471   8.071  0.0868  0.2057  0.6385
 3422SOL    HW121899   3.610   0.402   8.083 -0.0129  0.6210  2.4856
 3422SOL    HW221900   3.614   0.533   8.032 -0.9232 -1.9445 -1.1955
 3423SOL     OW21901   3.591   4.344  12.390  0.1307  0.4872 -0.0085
 3423SOL    HW121902   3.610   4.326  12.298  0.4139 -0.8529  0.3106
 3423SOL    HW221903   3.519   4.287  12.415  2.1179 -1.4216  1.3353
 3424SOL     OW21904   3.425   3.686  16.296 -0.5220 -0.5314  0.1659
 3424SOL    HW121905   3.416   3.649  16.208  0.9289 -1.7184  0.5249
 3424SOL    HW221906   3.412   3.614  16.359 -3.1671  0.9089  1.2572
 3425SOL     OW21907   3.327   2.470   9.217 -0.7759  0.1900 -0.8737
 3425SOL    HW121908   3.372   2.396   9.177 -0.6085 -0.6232  0.8087
 3425SOL    HW221909   3.244   2.430   9.244 -0.8820  1.2979  0.4777
 3426SOL     OW21910   2.007   3.219   7.498  0.2405  0.0462 -0.1005
 3426SOL    HW121911   1.916   3.208   7.525  0.4934 -0.0674  0.7132
 3426SOL    HW221912   2.041   3.249   7.583  0.0403 -2.1114  0.7308
 3427SOL     OW21913   4.484   0.402   6.646  0.2498  0.1811  0.2493
 3427SOL    HW121914   4.471   0.307   6.644 -1.0038  0.3659 -0.2713
 3427SOL    HW221915   4.426   0.423   6.720 -0.0874  0.2267 -0.0301
 3428SOL     OW21916   0.695   1.996  11.837 -0.3404  0.1308 -0.5795
 3428SOL    HW121917   0.688   2.028  11.747  2.4690  3.1007  0.2454
 3428SOL    HW221918   0.777   2.036  11.867  0.9064 -2.0726 -1.0022
 3429SOL     OW21919   4.628   0.671   7.378 -0.4323  0.5320 -0.2145
 3429SOL    HW121920   4.633   0.633   7.290  2.6773 -0.5478  0.4129
 3429SOL    HW221921   4.546   0.633   7.408 -0.5572  1.2725  0.3762
 3430SOL     OW21922   2.178   3.111   4.533  0.0076  0.3417 -0.2383
 3430SOL    HW121923   2.224   3.027   4.527  0.5020  0.6864 -1.3181
 3430SOL    HW221924   2.208   3.163   4.459 -1.0971 -1.0062 -1.6343
 3431SOL     OW21925   2.359   0.805   4.295  0.6247  0.4286 -0.4766
 3431SOL    HW121926   2.304   0.745   4.243  1.3821 -0.8041  0.1572
 3431SOL    HW221927   2.428   0.746   4.326 -0.0585 -0.0163  0.1859
 3432SOL     OW21928   1.345   4.253   8.604  0.3468  0.0083 -0.0316
 3432SOL    HW121929   1.436   4.280   8.591  0.1491  2.1085  2.7691
 3432SOL    HW221930   1.318   4.255   8.512 -0.7469  3.1458  0.3517
 3433SOL     OW21931   1.230   3.843   7.883  0.4100  0.4941  0.3901
 3433SOL    HW121932   1.149   3.892   7.875 -0.0544  0.1033  2.5718
 3433SOL    HW221933   1.288   3.905   7.839  3.4786 -0.7404  2.6894
 3434SOL     OW21934   2.629   2.632  10.370 -0.0844 -0.7260 -0.4407
 3434SOL    HW121935   2.562   2.568  10.346 -1.9038  1.0775 -0.0650
 3434SOL    HW221936   2.715   2.589  10.381 -1.0155 -2.0547  1.5707
 3435SOL     OW21937   3.342   2.486   7.820 -0.5616 -0.5517  1.0443
 3435SOL    HW121938   3.359   2.553   7.886 -1.6803  1.2789 -0.5445
 3435SOL    HW221939   3.322   2.412   7.878 -1.7189 -1.4519 -0.4997
 3436SOL     OW21940   2.626   4.545   3.833 -0.2689  0.1872 -0.2984
 3436SOL    HW121941   2.546   4.524   3.785 -2.6965  1.1796  3.3256
 3436SOL    HW221942   2.663   4.619   3.784 -0.4628  1.2902  1.2258
 3437SOL     OW21943   4.158   2.793   1.650 -0.1369  0.5010  0.0375
 3437SOL    HW121944   4.193   2.720   1.599  0.3477  0.9563 -0.2804
 3437SOL    HW221945   4.239   2.836   1.677 -0.3253  0.8151  0.1033
 3438SOL     OW21946   1.187   0.542   5.227 -0.1028 -0.1069  0.3336
 3438SOL    HW121947   1.219   0.576   5.143 -1.1543 -0.8868 -0.3878
 3438SOL    HW221948   1.267   0.497   5.253  0.2858 -0.5310 -1.5631
 3439SOL     OW21949   4.288   2.780   2.712  0.4563 -0.0373 -0.2404
 3439SOL    HW121950   4.199   2.814   2.725  1.7712  3.5669 -0.6770
 3439SOL    HW221951   4.285   2.687   2.738  1.5869  0.2615  0.9515
 3440SOL     OW21952   2.522   4.258   8.151 -0.2262 -0.2022  0.0010
 3440SOL    HW121953   2.439   4.238   8.193 -0.0539 -1.6830 -0.3806
 3440SOL    HW221954   2.570   4.178   8.170 -0.1506  0.2149  1.5844
 3441SOL     OW21955   3.670   0.221   6.600 -0.6330 -0.2168  0.2338
 3441SOL    HW121956   3.648   0.141   6.552 -2.3135  1.4087 -1.6742
 3441SOL    HW221957   3.659   0.191   6.690 -0.8298 -1.7000 -0.2740
 3442SOL     OW21958   2.659   0.479  13.837 -0.2906 -0.1591  0.6030
 3442SOL    HW121959   2.565   0.494  13.849 -0.7717 -2.7538 -0.0441
 3442SOL    HW221960   2.665   0.391  13.874 -2.3938  0.2639  1.9561
 3443SOL     OW21961   3.588   0.501   1.498  0.1278 -0.2346  0.1406
 3443SOL    HW121962   3.589   0.425   1.557 -2.4175 -0.6420 -0.3359
 3443SOL    HW221963   3.494   0.508   1.484  0.5109  2.7577 -0.8682
 3444SOL     OW21964   1.930   3.212   1.487  0.4462  0.2984 -0.9380
 3444SOL    HW121965   1.846   3.215   1.533  1.4095 -2.2579  1.0110
 3444SOL    HW221966   1.979   3.273   1.543 -1.2674  0.7150  0.1149
 3445SOL     OW21967   2.331   2.809   7.126  0.3083  0.2167  0.4029
 3445SOL    HW121968   2.251   2.799   7.075  0.7536 -2.3694  0.2214
 3445SOL    HW221969   2.381   2.741   7.081 -1.6305  0.2181 -1.7656
 3446SOL     OW21970   2.892   2.154   4.582  0.2270  0.1494  0.2703
 3446SOL    HW121971   2.811   2.200   4.565 -1.5726 -3.0886  0.1272
 3446SOL    HW221972   2.933   2.224   4.633 -0.2524 -1.5948  3.1173
 3447SOL     OW21973   2.931   3.253   8.483 -0.2727  0.2724 -0.0515
 3447SOL    HW121974   2.961   3.319   8.546  0.6829 -1.1213  0.9544
 3447SOL    HW221975   2.863   3.206   8.530 -0.2786  0.9212  0.6005
 3448SOL     OW21976   0.228   3.605   8.531 -0.3761 -0.1411 -0.4174
 3448SOL    HW121977   0.152   3.619   8.588  1.3741  0.2978  1.7890
 3448SOL    HW221978   0.193   3.561   8.453 -0.7815  2.3013 -1.6385
 3449SOL     OW21979   0.266   0.841  14.129 -0.0631 -0.2769  0.0954
 3449SOL    HW121980   0.283   0.814  14.220 -2.0052  0.4241  0.6457
 3449SOL    HW221981   0.333   0.787  14.086 -0.2071 -1.0859  0.8702
 3450SOL     OW21982   0.053   3.013   7.066  0.2408 -0.3095  0.2154
 3450SOL    HW121983   0.037   2.924   7.033  0.9377  0.5605 -2.4437
 3450SOL    HW221984   0.122   2.993   7.129  2.3089  1.7509 -1.4145
 3451SOL     OW21985   0.656   3.254   0.367  0.0922 -0.1687  0.3800
 3451SOL    HW121986   0.574   3.259   0.416  1.2074 -1.6406  2.4203
 3451SOL    HW221987   0.628   3.192   0.300  1.9944 -0.8313  0.1737
 3452SOL     OW21988   1.108   3.688   8.482  0.2026 -0.4207 -0.6432
 3452SOL    HW121989   1.179   3.711   8.423  0.2419  1.9003  0.3013
 3452SOL    HW221990   1.116   3.760   8.545  3.1033 -0.2469 -1.2314
 3453SOL     OW21991   0.427   2.062   6.448  0.2678 -0.1140  0.3166
 3453SOL    HW121992   0.513   2.066   6.406  0.0919  0.0650 -0.0271
 3453SOL    HW221993   0.396   2.133   6.392 -2.2651  1.2435  3.4179
 3454SOL     OW21994   4.425   4.219   8.083 -0.1578 -0.0788  0.6128
 3454SOL    HW121995   4.461   4.284   8.024  1.1848 -0.1057  1.3923
 3454SOL    HW221996   4.381   4.154   8.028 -0.2200  1.1274 -0.7298
 3455SOL     OW21997   0.601   3.885   5.242 -0.3102  0.3429  0.5921
 3455SOL    HW121998   0.639   3.924   5.320  0.0869  0.4385  0.3481
 3455SOL    HW221999   0.523   3.940   5.237 -1.2908 -0.8207  3.1931
 3456SOL     OW22000   2.464   4.447   9.554 -0.0439 -0.4251  0.1173
 3456SOL    HW122001   2.498   4.409   9.635 -3.6130 -1.3913  1.1638
 3456SOL    HW222002   2.417   4.366   9.533  1.5011 -1.4089  0.4219
 3457SOL     OW22003   0.214   3.951  14.399 -0.2541 -0.4171  0.9066
 3457SOL    HW122004   0.125   3.948  14.364 -1.2955  2.0144  3.2592
 3457SOL    HW222005   0.209   3.872  14.453  3.4573  0.0961  1.9535
 3458SOL     OW22006   2.584   3.735   7.864  0.5793  0.5064 -0.0471
 3458SOL    HW122007   2.646   3.759   7.933  1.0285  0.9325 -0.5977
 3458SOL    HW222008   2.643   3.698   7.798  1.0942  0.2441  0.5545
 3459SOL     OW22009   0.694   3.305   2.689  0.5533 -0.1319 -0.5068
 3459SOL    HW122010   0.693   3.394   2.655 -0.6621 -0.5021 -1.4074
 3459SOL    HW222011   0.609   3.303   2.733  0.4799 -1.7280 -0.6917
 3460SOL     OW22012   1.984   4.426   2.371 -0.1985 -0.0650 -0.2291
 3460SOL    HW122013   1.925   4.463   2.306  0.3265  1.3700  0.1148
 3460SOL    HW222014   2.070   4.437   2.329 -0.4213 -0.3797 -0.7646
 3461SOL     OW22015   2.732   1.379   9.139 -0.5726 -0.2876  0.0393
 3461SOL    HW122016   2.674   1.454   9.151 -0.4020 -0.2290  0.4770
 3461SOL    HW222017   2.691   1.325   9.071 -2.2590  0.9730  0.0401
 3462SOL     OW22018   0.731   3.865   0.267 -0.3059  0.3060 -0.3554
 3462SOL    HW122019   0.823   3.857   0.292 -0.9420 -2.1199  1.2859
 3462SOL    HW222020   0.703   3.799   0.330 -2.3729  1.1253 -0.4350
 3463SOL     OW22021   1.006   3.538   9.966  0.3144  0.0715  0.3184
 3463SOL    HW122022   0.923   3.552  10.010 -0.0718  0.6595 -0.6128
 3463SOL    HW222023   1.065   3.565  10.037  0.3348  0.5773  0.1049
 3464SOL     OW22024   0.421   3.849   7.107  0.1316 -0.5824  0.2794
 3464SOL    HW122025   0.351   3.791   7.077 -0.7694  0.2789  0.7337
 3464SOL    HW222026   0.433   3.913   7.037  0.2294 -0.8877  0.0143
 3465SOL     OW22027   4.194   0.517  13.354 -0.0925  0.0325 -0.4025
 3465SOL    HW122028   4.225   0.427  13.343  0.5222 -0.1342  2.5072
 3465SOL    HW222029   4.182   0.504  13.448  1.6867 -0.8235 -0.2828
 3466SOL     OW22030   2.670   1.164   4.171  0.3009 -0.4539  0.3496
 3466SOL    HW122031   2.764   1.152   4.188  0.0178 -0.8018  1.6680
 3466SOL    HW222032   2.622   1.089   4.207 -1.2730 -0.2835 -1.4111
 3467SOL     OW22033   2.399   2.491  12.419  0.3457 -0.2606 -0.3981
 3467SOL    HW122034   2.431   2.578  12.444  0.7654 -1.1087  2.0007
 3467SOL    HW222035   2.310   2.518  12.396 -0.1981 -0.7425  1.1652
 3468SOL     OW22036   3.361   0.766   2.510  0.2565  0.3496 -0.1697
 3468SOL    HW122037   3.300   0.807   2.448 -0.2814  0.8123  0.6623
 3468SOL    HW222038   3.435   0.827   2.517  0.3621  0.1798  0.1975
 3469SOL     OW22039   1.685   0.409  10.935 -0.5562  0.1352 -0.3054
 3469SOL    HW122040   1.766   0.383  10.893 -0.0979  0.9849  0.0445
 3469SOL    HW222041   1.662   0.489  10.889  0.8226  1.1037  0.7033
 3470SOL     OW22042   4.312   0.009   4.961  0.4899  0.5414  0.1177
 3470SOL    HW122043   4.368   0.084   4.942  1.8022 -0.8764 -1.5621
 3470SOL    HW222044   4.325   0.009   5.056 -0.3069  4.0409  0.2414
 3471SOL     OW22045   2.954   0.929  17.172 -0.1236  0.5537  0.2352
 3471SOL    HW122046   2.935   0.922  17.078 -0.6182  0.2789  0.3606
 3471SOL    HW222047   2.946   0.839  17.200 -3.0892  0.0028 -2.4226
 3472SOL     OW22048   0.106   0.954   1.594  0.4226  0.0916  0.3075
 3472SOL    HW122049   0.186   0.905   1.573 -2.7061 -4.8489 -0.1538
 3472SOL    HW222050   0.037   0.888   1.591 -0.1685  0.7835 -0.9428
 3473SOL     OW22051   4.368   4.438   8.469 -0.4008 -0.1266  0.1190
 3473SOL    HW122052   4.447   4.488   8.492 -0.5151  0.1261 -0.0388
 3473SOL    HW222053   4.399   4.350   8.449 -1.7387 -0.6407  0.3524
 3474SOL     OW22054   2.580   3.514   2.941  0.0246  0.4464  0.4972
 3474SOL    HW122055   2.558   3.598   2.901 -0.1184 -0.7024 -1.8029
 3474SOL    HW222056   2.643   3.543   3.007 -0.6478 -0.3603  1.4786
 3475SOL     OW22057   2.972   2.187   9.016  0.4832 -0.3289 -0.3895
 3475SOL    HW122058   3.056   2.210   8.977  0.5326 -0.3553 -0.2972
 3475SOL    HW222059   2.928   2.127   8.954  0.1943  0.3264 -0.8163
 3476SOL     OW22060   3.962   0.106   7.435 -0.5654 -0.1724 -0.5282
 3476SOL    HW122061   3.968   0.019   7.475 -1.0474 -0.2428 -0.6070
 3476SOL    HW222062   3.877   0.135   7.469  0.6036  1.5307  0.9380
 3477SOL     OW22063   3.056   0.868  13.822 -0.4090  0.0331  0.4542
 3477SOL    HW122064   3.033   0.939  13.883  1.7000  1.4291 -0.3523
 3477SOL    HW222065   3.019   0.801  13.879  0.4438 -0.7293  0.1092
 3478SOL     OW22066   4.164   1.308  17.496 -0.4903 -1.2398 -0.2880
 3478SOL    HW122067   4.069   1.294  17.504 -0.8066 -0.6988 -3.0393
 3478SOL    HW222068   4.172   1.343  17.407 -0.5699  1.3384  0.7170
 3479SOL     OW22069   4.616   4.438  14.193 -0.3173 -0.0526  0.3260
 3479SOL    HW122070   4.575   4.504  14.248  1.8159  1.9080 -0.4073
 3479SOL    HW222071   4.590   4.465  14.105  1.1954 -2.1779 -0.7908
 3480SOL     OW22072   2.107   3.727   9.007  0.0853 -0.1576 -0.2966
 3480SOL    HW122073   2.098   3.676   8.927  2.8700  0.9097 -1.3028
 3480SOL    HW222074   2.145   3.809   8.976 -0.6663  0.4881  0.4765
 3481SOL     OW22075   3.822   0.879   9.319  0.2754 -0.3800  0.1078
 3481SOL    HW122076   3.766   0.898   9.395  1.8810  0.7763  1.0053
 3481SOL    HW222077   3.761   0.823   9.271 -1.0528  1.7867 -0.7357
 3482SOL     OW22078   4.520   4.357  10.686 -0.1199 -0.0372  0.3299
 3482SOL    HW122079   4.559   4.269  10.685  0.6553  0.2860  2.2539
 3482SOL    HW222080   4.492   4.345  10.776 -1.3546 -2.2248 -0.3459
 3483SOL     OW22081   1.727   4.090  14.671  0.0547 -0.4266 -0.0345
 3483SOL    HW122082   1.777   4.057  14.745 -1.2137 -0.7994  0.6528
 3483SOL    HW222083   1.661   4.025  14.650  1.0054 -1.6903  0.8801
 3484SOL     OW22084   4.609   4.231   4.787 -0.0368  0.3579 -0.3374
 3484SOL    HW122085   4.593   4.312   4.836  2.4477  1.5514 -1.4969
 3484SOL    HW222086   4.553   4.250   4.712 -0.3801 -1.8497 -0.6366
 3485SOL     OW22087   0.996   3.019  12.855 -0.2533 -0.0382 -0.1364
 3485SOL    HW122088   1.038   2.944  12.898 -1.1542 -0.7445 -0.4974
 3485SOL    HW222089   0.950   3.055  12.931  1.1885  0.2493  0.6030
 3486SOL     OW22090   2.793   3.988   3.453  0.3453  0.0497  0.1730
 3486SOL    HW122091   2.732   3.920   3.424  1.6453 -1.6425  1.4615
 3486SOL    HW222092   2.735   4.029   3.517 -1.5971 -0.4004 -1.2803
 3487SOL     OW22093   4.475   0.623   0.390  0.7466  0.3235  0.5085
 3487SOL    HW122094   4.515   0.679   0.457  1.8218 -1.9408  1.7883
 3487SOL    HW222095   4.415   0.687   0.352 -1.8299 -2.3759  0.0168
 3488SOL     OW22096   0.054   3.519   3.720  0.2972 -0.4475 -0.4780
 3488SOL    HW122097   0.056   3.592   3.782 -0.9615 -1.0563  0.2919
 3488SOL    HW222098   0.072   3.443   3.776 -0.3281 -2.3540 -2.8445
 3489SOL     OW22099   4.222   1.532   6.054  0.0100 -0.1396 -0.5706
 3489SOL    HW122100   4.294   1.575   6.009  0.1050  1.3854  1.0566
 3489SOL    HW222101   4.176   1.494   5.979  2.0404 -2.8031 -0.4659
 3490SOL     OW22102   2.717   1.922   7.794  0.6205 -0.4676  0.4898
 3490SOL    HW122103   2.624   1.944   7.801  0.4805  0.3473 -3.8359
 3490SOL    HW222104   2.712   1.844   7.849 -0.7279 -0.9188 -0.2884
 3491SOL     OW22105   2.069   0.689   1.002 -0.2994 -0.3117  0.2662
 3491SOL    HW122106   2.130   0.635   0.952 -0.4678 -0.2155 -0.0429
 3491SOL    HW222107   2.034   0.740   0.929  0.4076  0.8046  0.7152
 3492SOL     OW22108   0.607   1.844   1.822 -0.6113 -0.4100  0.1643
 3492SOL    HW122109   0.591   1.844   1.917 -0.4935 -0.3628  0.1838
 3492SOL    HW222110   0.702   1.836   1.827 -0.4316 -1.6782 -4.9056
 3493SOL     OW22111   2.996   2.127  15.725 -0.0633  0.3108  0.5355
 3493SOL    HW122112   3.046   2.204  15.699  1.0464 -0.7376 -0.4437
 3493SOL    HW222113   3.064   2.062  15.707  0.0020  0.3935  0.4862
 3494SOL     OW22114   0.950   0.117   8.370  0.1429 -0.4334  0.7180
 3494SOL    HW122115   0.872   0.069   8.341 -1.1750  1.8203  0.5503
 3494SOL    HW222116   1.012   0.051   8.402  0.9203  0.3093  0.7341
 3495SOL     OW22117   1.367   0.696   3.857 -0.0216 -0.0919  0.3722
 3495SOL    HW122118   1.294   0.712   3.796 -0.9915 -1.6318  1.1116
 3495SOL    HW222119   1.419   0.775   3.869 -0.4388  0.3328 -0.5793
 3496SOL     OW22120   1.038   1.762   3.297 -0.3421  0.0211  0.0328
 3496SOL    HW122121   0.988   1.692   3.340 -0.2154  1.1337  2.0084
 3496SOL    HW222122   1.120   1.714   3.296 -1.4577 -1.8375 -0.6943
 3497SOL     OW22123   4.623   0.613   2.871 -0.4052  0.5104  0.0816
 3497SOL    HW122124   4.702   0.581   2.828 -1.8498 -0.5356 -1.7809
 3497SOL    HW222125   4.564   0.606   2.796  0.3743  2.3624 -0.6963
 3498SOL     OW22126   1.946   4.418   4.389  0.0775 -0.4258 -0.1948
 3498SOL    HW122127   2.008   4.385   4.455  0.4953 -0.0800 -0.4187
 3498SOL    HW222128   1.989   4.382   4.312  0.1365 -2.2538  0.6938
 3499SOL     OW22129   4.271   3.645  10.041  0.2751 -0.2565 -0.3703
 3499SOL    HW122130   4.363   3.647  10.015  0.2889  1.1304 -0.1933
 3499SOL    HW222131   4.238   3.693   9.966  1.3572  2.2426  0.7716
 3500SOL     OW22132   1.418   1.307   4.392 -0.2324 -0.4135  0.0912
 3500SOL    HW122133   1.513   1.319   4.388 -0.1445  0.0881  3.1253
 3500SOL    HW222134   1.407   1.213   4.404 -2.6917 -0.1517 -0.0986
 3501SOL     OW22135   3.538   2.297   8.739 -0.7002 -0.0232  0.2071
 3501SOL    HW122136   3.571   2.226   8.795  1.4699 -0.6827 -1.9084
 3501SOL    HW222137   3.479   2.260   8.674  0.6493  0.4977 -1.3211
 3502SOL     OW22138   2.047   0.345   4.168 -0.5312  0.2449  0.3910
 3502SOL    HW122139   2.093   0.295   4.235  3.1952  2.2460 -0.6962
 3502SOL    HW222140   1.954   0.338   4.190 -0.1894  0.1675  1.7878
 3503SOL     OW22141   4.449   2.871  16.079  0.0106 -0.5489  0.4190
 3503SOL    HW122142   4.356   2.848  16.070 -0.6296  2.2552 -0.2381
 3503SOL    HW222143   4.468   2.870  16.173 -0.1688  0.2138  0.4703
 3504SOL     OW22144   4.549   3.086   7.285 -0.2539  0.0225 -0.0739
 3504SOL    HW122145   4.622   3.069   7.344  0.4607  0.9448 -0.6949
 3504SOL    HW222146   4.543   2.994   7.259 -1.9617  0.0460  0.2600
 3505SOL     OW22147   0.938   0.116   7.163 -0.1691  0.4676  0.6431
 3505SOL    HW122148   0.898   0.110   7.076  1.7648  0.3388 -0.2417
 3505SOL    HW222149   1.019   0.163   7.145 -0.0006 -1.0187 -2.5943
 3506SOL     OW22150   1.076   2.616   3.517 -0.2247  0.1948  0.2300
 3506SOL    HW122151   1.039   2.527   3.511  0.9096 -0.1803 -1.0901
 3506SOL    HW222152   1.150   2.625   3.457 -1.0940  1.0334 -0.7210
 3507SOL     OW22153   4.327   3.566   5.089  0.0057  0.1401 -0.1160
 3507SOL    HW122154   4.238   3.566   5.124 -0.1890 -1.6437 -0.5969
 3507SOL    HW222155   4.305   3.559   4.996  0.4600 -0.7391 -0.1578
 3508SOL     OW22156   4.709   2.089   3.475 -0.1333  0.7363  0.2302
 3508SOL    HW122157   4.682   2.060   3.388 -0.8172  0.6569  0.4721
 3508SOL    HW222158   0.057   2.130   3.457  0.5423 -0.7036  0.0989
 3509SOL     OW22159   2.302   0.398  14.438  0.0591  0.5260  0.6449
 3509SOL    HW122160   2.359   0.394  14.361  0.3447  1.7776  0.7961
 3509SOL    HW222161   2.263   0.485  14.431 -2.2446 -0.4578  1.4161
 3510SOL     OW22162   4.066   4.094   4.868  0.0070 -0.3760  0.6353
 3510SOL    HW122163   4.014   4.038   4.810 -1.1022  1.9991 -0.6927
 3510SOL    HW222164   4.012   4.173   4.865 -0.9858 -1.1098 -1.1589
 3511SOL     OW22165   4.554   2.427  10.883  0.1084  0.3464 -0.0570
 3511SOL    HW122166   4.636   2.468  10.854 -0.3814  0.8840 -0.6804
 3511SOL    HW222167   4.501   2.496  10.924  1.6382  0.5999  1.5265
 3512SOL     OW22168   0.859   3.983  14.169  0.4581  0.2612  0.4600
 3512SOL    HW122169   0.770   4.019  14.174  0.6566  0.7742  0.2757
 3512SOL    HW222170   0.854   3.895  14.206 -1.6260  0.1990  0.0541
 3513SOL     OW22171   4.126   2.582  17.616  0.2864  0.6504 -0.2189
 3513SOL    HW122172   4.112   2.488  17.627  1.3185  0.0870 -3.7691
 3513SOL    HW222173   4.038   2.608  17.588  1.0125  1.2526 -1.9228
 3514SOL     OW22174   0.574   4.529   2.699 -0.2768  0.3404 -0.1363
 3514SOL    HW122175   0.536   4.616   2.690 -0.0890  0.1474 -2.8451
 3514SOL    HW222176   0.622   4.518   2.617 -0.3752  0.5894 -0.2272
 3515SOL     OW22177   3.162   4.435  17.363 -0.1583 -0.0206 -0.3365
 3515SOL    HW122178   3.236   4.475  17.410  1.6372 -1.1691 -2.1713
 3515SOL    HW222179   3.108   4.513  17.351  1.1749  0.7699 -1.3412
 3516SOL     OW22180   4.052   4.597   3.122 -0.2687  0.0777 -0.6046
 3516SOL    HW122181   4.027   4.528   3.183 -0.6197  1.5620  0.9439
 3516SOL    HW222182   4.029   4.564   3.035 -1.1283 -1.4866  0.2086
 3517SOL     OW22183   0.712   0.841   3.499  0.3245  0.4499 -0.2050
 3517SOL    HW122184   0.686   0.764   3.549  1.5703 -0.8123 -1.5018
 3517SOL    HW222185   0.742   0.908   3.560  0.2000  1.3675 -1.1270
 3518SOL     OW22186   4.257   2.701  12.899  0.1246  0.0712  0.7972
 3518SOL    HW122187   4.326   2.644  12.866 -0.6978  0.2042 -1.1332
 3518SOL    HW222188   4.184   2.643  12.877  0.0018 -0.9450  3.8621
 3519SOL     OW22189   1.607   3.427   3.905 -0.3918  0.1308  0.1650
 3519SOL    HW122190   1.557   3.350   3.932  0.3962 -0.1592  0.7961
 3519SOL    HW222191   1.532   3.486   3.895 -1.0202 -0.4534  1.3690
 3520SOL     OW22192   3.750   3.804   8.186  0.3155  0.1022  0.1473
 3520SOL    HW122193   3.836   3.771   8.159  0.8024  0.7135  0.9220
 3520SOL    HW222194   3.703   3.763   8.114 -1.0267  1.1437  0.4502
 3521SOL     OW22195   2.169   0.305   2.486 -0.2935  0.0194 -0.6261
 3521SOL    HW122196   2.154   0.377   2.425  1.8616  0.3100 -0.8296
 3521SOL    HW222197   2.145   0.230   2.431  0.9341  1.7643 -3.5904
 3522SOL     OW22198   3.101   3.392   2.039 -0.4579 -0.0139  0.0465
 3522SOL    HW122199   3.158   3.316   2.031 -2.5556 -1.5374 -0.4253
 3522SOL    HW222200   3.153   3.463   2.001 -1.2220  0.2950 -0.4172
 3523SOL     OW22201   3.570   1.460  14.953  1.0768  0.3156  0.1542
 3523SOL    HW122202   3.561   1.410  14.872 -0.3390  1.3200 -0.3004
 3523SOL    HW222203   3.500   1.426  15.009  1.5140 -0.0561  0.4780
 3524SOL     OW22204   0.286   0.946   5.233  0.5737  0.1058  0.0258
 3524SOL    HW122205   0.235   1.028   5.230  1.0541  0.3266 -2.2636
 3524SOL    HW222206   0.330   0.949   5.148 -0.5953  0.5885 -0.5636
 3525SOL     OW22207   2.803   1.297  17.453  0.1685  1.0230 -0.4163
 3525SOL    HW122208   2.759   1.379  17.434  0.2308  1.1240 -0.1257
 3525SOL    HW222209   2.872   1.286  17.388  0.0457  1.9137 -0.6976
 3526SOL     OW22210   3.436   3.726   3.697 -0.2838  0.2198  0.0459
 3526SOL    HW122211   3.495   3.773   3.755 -0.9343 -0.0527  0.9190
 3526SOL    HW222212   3.397   3.670   3.763  0.3815 -1.1087 -0.7043
 3527SOL     OW22213   3.617   1.188  17.148  0.7023 -0.5000 -0.3142
 3527SOL    HW122214   3.656   1.134  17.217 -2.2065 -0.6332  1.2429
 3527SOL    HW222215   3.659   1.269  17.175  3.0955 -1.8957  0.2190
 3528SOL     OW22216   2.076   3.065   7.290 -0.9182 -0.0022 -0.2860
 3528SOL    HW122217   2.062   3.127   7.362  3.3406 -1.2493  1.6727
 3528SOL    HW222218   2.140   3.000   7.320 -0.5885 -0.6459 -2.4186
 3529SOL     OW22219   1.878   2.132  11.445  0.0772  0.2712 -0.1430
 3529SOL    HW122220   1.971   2.108  11.448  0.0140  0.3668  2.7524
 3529SOL    HW222221   1.856   2.113  11.536 -0.5588  0.1250 -0.3285
 3530SOL     OW22222   1.745   1.138   6.252  0.6513 -0.4081 -0.3916
 3530SOL    HW122223   1.720   1.187   6.331  2.9736 -0.2404  0.2439
 3530SOL    HW222224   1.655   1.134   6.220  0.5271 -2.2970  0.2044
 3531SOL     OW22225   4.071   3.137   2.459  0.0309 -0.3299 -0.4432
 3531SOL    HW122226   4.021   3.152   2.539 -0.8252 -1.3770 -0.7744
 3531SOL    HW222227   4.004   3.150   2.391 -1.8007  0.4501  1.4921
 3532SOL     OW22228   0.949   1.817   6.390 -0.2891  0.2899 -0.2682
 3532SOL    HW122229   1.011   1.807   6.317 -0.1363 -1.0862  0.0557
 3532SOL    HW222230   0.883   1.879   6.360 -0.9726 -1.3645 -2.2055
 3533SOL     OW22231   3.060   1.106   9.136  0.3665  0.5350 -0.7203
 3533SOL    HW122232   2.966   1.119   9.124 -0.0555 -2.2302 -0.3243
 3533SOL    HW222233   3.077   1.118   9.229 -0.9674  1.8826 -0.6424
 3534SOL     OW22234   3.094   2.376   4.373 -0.1222  0.3047  0.3989
 3534SOL    HW122235   3.124   2.360   4.283  1.5359 -1.1158  1.2173
 3534SOL    HW222236   3.000   2.393   4.370 -0.3462 -1.0254  0.1909
 3535SOL     OW22237   1.037   3.896   6.591  0.0534 -0.0253  0.3373
 3535SOL    HW122238   0.997   3.975   6.625 -1.7664  0.6770 -3.3732
 3535SOL    HW222239   1.129   3.921   6.594  0.3505 -0.8183 -2.0409
 3536SOL     OW22240   1.875   3.176   3.885  0.3971 -0.6461  0.1309
 3536SOL    HW122241   1.896   3.260   3.927 -0.9369 -0.2467 -0.0039
 3536SOL    HW222242   1.865   3.119   3.961 -0.7069 -2.9785 -1.7674
 3537SOL     OW22243   1.336   0.531   7.161  0.2777  0.2996 -0.0434
 3537SOL    HW122244   1.305   0.620   7.143  2.0330  0.8121 -0.4698
 3537SOL    HW222245   1.382   0.516   7.079 -1.2101 -0.4590 -0.7489
 3538SOL     OW22246   1.623   3.621   9.586 -0.1459 -0.0194  0.0884
 3538SOL    HW122247   1.612   3.594   9.677  0.3569  2.4253  0.8578
 3538SOL    HW222248   1.691   3.563   9.552 -0.2203 -0.6227  0.9594
 3539SOL     OW22249   0.119   3.064   4.738  0.3695 -0.1390  0.0676
 3539SOL    HW122250   0.113   3.127   4.667 -0.2801 -0.2537  0.0170
 3539SOL    HW222251   0.211   3.037   4.735 -0.1062 -1.7585 -0.2588
 3540SOL     OW22252   0.603   3.466  14.604 -0.7366 -0.0178 -0.2095
 3540SOL    HW122253   0.578   3.559  14.606  1.6099  0.6333 -1.5123
 3540SOL    HW222254   0.649   3.464  14.520  1.8900  0.5760  1.1891
 3541SOL     OW22255   4.121   3.167   4.036  0.1320  0.1701 -0.2267
 3541SOL    HW122256   4.049   3.229   4.052 -0.2348 -0.6326  1.1823
 3541SOL    HW222257   4.081   3.089   3.999  1.9359 -1.2071  0.7751
 3542SOL     OW22258   1.427   2.500   5.933 -0.3070 -0.2742  0.4486
 3542SOL    HW122259   1.498   2.551   5.971  1.5583 -1.9826 -0.7145
 3542SOL    HW222260   1.471   2.439   5.874  1.0549  0.0478  1.1407
 3543SOL     OW22261   0.088   4.017   6.247 -0.1456  0.3810  0.2347
 3543SOL    HW122262   0.063   3.962   6.173  1.8473 -0.2238  0.0176
 3543SOL    HW222263   0.180   4.027   6.222  0.1513 -1.3855  0.6443
 3544SOL     OW22264   3.837   1.698   1.603  0.3001 -0.5469 -0.1390
 3544SOL    HW122265   3.878   1.630   1.656 -1.2403 -0.1773  1.5187
 3544SOL    HW222266   3.911   1.743   1.562 -1.7043  1.8997 -1.0787
 3545SOL     OW22267   1.310   3.945   4.729  0.0159 -0.5777  0.2888
 3545SOL    HW122268   1.236   4.005   4.737  0.6559  0.1711  0.6419
 3545SOL    HW222269   1.303   3.900   4.814  0.6684 -0.8910  0.1780
 3546SOL     OW22270   4.580   2.074   2.883 -0.6048 -1.1116 -0.5760
 3546SOL    HW122271   4.628   2.021   2.947  0.9352 -0.8976 -1.5698
 3546SOL    HW222272   4.630   2.155   2.881 -2.0456 -0.2176 -0.5057
 3547SOL     OW22273   3.880   2.771   3.349  0.2168 -0.2590 -0.6217
 3547SOL    HW122274   3.911   2.797   3.436 -0.5942 -0.2319 -0.3405
 3547SOL    HW222275   3.897   2.852   3.302 -1.8514 -0.2077 -1.2828
 3548SOL     OW22276   2.870   2.237   9.409  0.5616 -0.3088 -0.3839
 3548SOL    HW122277   2.932   2.172   9.373  0.5907  0.6441 -2.0556
 3548SOL    HW222278   2.782   2.208   9.385  0.8089  0.3493 -2.1362
 3549SOL     OW22279   2.695   1.794   2.706 -0.4847 -0.2880 -0.4498
 3549SOL    HW122280   2.761   1.841   2.654 -0.2249  0.6221  0.7099
 3549SOL    HW222281   2.726   1.816   2.794  0.6154 -0.4125 -0.7969
 3550SOL     OW22282   1.037   0.726   4.898  0.4301  0.4667  0.3170
 3550SOL    HW122283   0.962   0.678   4.932  0.3597 -1.9598 -3.2766
 3550SOL    HW222284   1.004   0.816   4.891  0.4085  0.6754  3.1804
 3551SOL     OW22285   4.234   4.471   3.409 -0.0176 -0.0430  0.1892
 3551SOL    HW122286   4.280   4.423   3.340 -3.8100 -2.0850 -0.9329
 3551SOL    HW222287   4.269   4.553   3.374  0.2567 -0.8786 -1.4647
 3552SOL     OW22288   2.626   1.361   6.229 -0.9661  0.1386  0.1427
 3552SOL    HW122289   2.699   1.355   6.168 -1.4622 -1.4553 -0.2932
 3552SOL    HW222290   2.568   1.307   6.176 -0.7560  1.3024 -1.2604
 3553SOL     OW22291   3.655   4.659   9.499 -0.3459 -0.3716  0.1295
 3553SOL    HW122292   3.699   4.637   9.581  0.8769  2.2904  0.1859
 3553SOL    HW222293   3.633   4.569   9.475 -0.8159  0.0520 -1.0435
 3554SOL     OW22294   2.788   4.443   5.813  0.0652  0.2227  0.6816
 3554SOL    HW122295   2.694   4.440   5.796  0.3602 -3.5518 -0.2485
 3554SOL    HW222296   2.799   4.526   5.859 -1.6870  0.0474  1.4159
 3555SOL     OW22297   3.639   2.577   6.901 -0.0006  0.7602  0.0098
 3555SOL    HW122298   3.639   2.628   6.981 -0.3287  1.3529 -0.3722
 3555SOL    HW222299   3.733   2.588   6.882  0.2600  0.4424  1.1529
 3556SOL     OW22300   4.559   4.274   6.701 -0.2491 -0.0687 -0.1146
 3556SOL    HW122301   4.552   4.208   6.631 -2.3024 -0.5531  0.5391
 3556SOL    HW222302   4.604   4.233   6.776  0.5359  1.9196  0.4866
 3557SOL     OW22303   4.525   3.623   9.372 -0.3129  0.5113 -0.2225
 3557SOL    HW122304   4.532   3.543   9.320 -0.0266  0.4841 -0.1438
 3557SOL    HW222305   4.526   3.579   9.456  0.2061  4.8906  2.0642
 3558SOL     OW22306   3.124   2.827   8.754  0.7297  0.2150  0.5653
 3558SOL    HW122307   3.110   2.885   8.679 -0.0261  0.2158  0.6998
 3558SOL    HW222308   3.209   2.854   8.788  1.2968  0.4321 -0.9856
 3559SOL     OW22309   2.299   4.726   8.847 -0.7660  0.6166  0.5541
 3559SOL    HW122310   2.232   0.020   8.909 -1.5296  0.4494 -0.1991
 3559SOL    HW222311   2.336   4.647   8.886  1.0053  1.3516  0.3575
 3560SOL     OW22312   0.338   3.967   3.970  0.1523  0.0633  0.6626
 3560SOL    HW122313   0.368   4.014   4.048  0.7560 -0.7999  0.9576
 3560SOL    HW222314   0.274   4.031   3.940  1.5381  0.9538 -0.3890
 3561SOL     OW22315   0.820   1.356   6.176  0.4152  0.1801 -0.2003
 3561SOL    HW122316   0.906   1.382   6.143 -0.5739  0.5007 -2.4928
 3561SOL    HW222317   0.758   1.419   6.138  0.2884  1.1439  1.5915
 3562SOL     OW22318   2.335   3.983   6.992  0.0092  0.0597 -0.2175
 3562SOL    HW122319   2.282   3.974   7.072 -0.1359 -1.1751 -0.4631
 3562SOL    HW222320   2.423   3.950   7.011 -0.4550 -1.1476 -0.1993
 3563SOL     OW22321   0.481   0.781   2.333  0.2420  0.1844 -0.6260
 3563SOL    HW122322   0.562   0.791   2.384  0.4023 -1.8195 -0.4841
 3563SOL    HW222323   0.512   0.837   2.262  1.2822 -1.0687 -1.1592
 3564SOL     OW22324   2.931   4.071   2.893  0.4941 -0.1194  0.7295
 3564SOL    HW122325   3.010   4.096   2.941  0.1035 -0.8756  1.7623
 3564SOL    HW222326   2.915   3.980   2.918 -0.5033  0.0677  0.7818
 3565SOL     OW22327   0.314   0.741   1.878 -0.0223  0.4880  0.1069
 3565SOL    HW122328   0.284   0.831   1.867  1.5154  0.5896 -3.6071
 3565SOL    HW222329   0.407   0.748   1.900  0.3962  0.5300 -1.6120
 3566SOL     OW22330   0.654   1.230   5.138 -0.7577 -0.2410 -0.1606
 3566SOL    HW122331   0.590   1.290   5.177 -0.7678 -1.1919  1.2687
 3566SOL    HW222332   0.645   1.158   5.201 -1.8688 -0.0255 -0.0783
 3567SOL     OW22333   1.187   3.675  10.142  0.1988 -0.2320 -0.0324
 3567SOL    HW122334   1.283   3.682  10.143  0.2898 -1.4343  0.5067
 3567SOL    HW222335   1.162   3.741  10.078  2.1035  0.9009  0.3989
 3568SOL     OW22336   1.989   3.196   8.395  0.1979 -0.4182 -0.5134
 3568SOL    HW122337   1.981   3.291   8.407 -0.0942 -0.5534  0.3788
 3568SOL    HW222338   1.913   3.153   8.433  2.6211 -1.2989  3.3283
 3569SOL     OW22339   2.584   3.114  10.096 -0.4022 -0.3679 -0.0688
 3569SOL    HW122340   2.631   3.172  10.156 -0.4431 -1.2077  0.7787
 3569SOL    HW222341   2.659   3.080  10.047  0.0049 -1.0757  1.0506
 3570SOL     OW22342   2.349   2.865  14.132 -0.2564 -0.4795 -0.0502
 3570SOL    HW122343   2.351   2.870  14.228 -0.0962  3.5801 -0.2547
 3570SOL    HW222344   2.419   2.802  14.113  0.5488  0.8348 -1.4671
 3571SOL     OW22345   1.982   3.574   4.664 -0.0493  0.2879 -0.3145
 3571SOL    HW122346   1.930   3.653   4.671  2.1778  1.8690 -1.5271
 3571SOL    HW222347   2.014   3.568   4.754 -1.6441  1.1785  0.3165
 3572SOL     OW22348   4.499   4.065   6.186  0.0810  0.0960 -0.6555
 3572SOL    HW122349   4.560   4.120   6.137 -2.3315  3.3816  0.0661
 3572SOL    HW222350   4.552   3.993   6.221  0.8548  1.1100  0.2815
 3573SOL     OW22351   0.277   4.030   4.999 -0.1039  0.2427  0.2921
 3573SOL    HW122352   0.186   4.009   4.977  0.1992 -0.1481 -0.5748
 3573SOL    HW222353   0.279   4.067   5.087  1.0667 -0.4738  0.5730
 3574SOL     OW22354   1.753   3.572   2.750  0.0095 -0.3093  0.0181
 3574SOL    HW122355   1.762   3.639   2.683  0.9706 -1.1431 -0.6891
 3574SOL    HW222356   1.664   3.541   2.735 -0.5862  1.0926  0.6770
 3575SOL     OW22357   4.054   3.398   3.767 -0.1246  0.0999  0.2451
 3575SOL    HW122358   3.982   3.376   3.827  0.9001 -3.4130  0.2126
 3575SOL    HW222359   4.128   3.406   3.826  0.8864  1.5581 -1.2104
 3576SOL     OW22360   1.443   1.316  11.786 -0.4640 -1.4401  0.2494
 3576SOL    HW122361   1.533   1.343  11.770 -0.5172 -0.8076  1.0632
 3576SOL    HW222362   1.466   1.237  11.834 -0.3490 -0.1155  2.3587
 3577SOL     OW22363   3.336   2.688   4.083  0.0162 -0.1187 -0.6042
 3577SOL    HW122364   3.352   2.629   4.156  1.3664  1.2359  0.1950
 3577SOL    HW222365   3.427   2.700   4.056 -0.0009  1.7357  0.1280
 3578SOL     OW22366   0.773   2.919  14.097 -0.0618 -0.3372  0.4593
 3578SOL    HW122367   0.708   2.849  14.098 -0.6457  0.2141  0.4635
 3578SOL    HW222368   0.723   2.993  14.130  0.3341 -0.4916  1.4224
 3579SOL     OW22369   1.665   4.318   4.726 -0.0805  0.3985 -0.5072
 3579SOL    HW122370   1.629   4.375   4.793  0.4963  0.4546 -0.2464
 3579SOL    HW222371   1.702   4.375   4.659 -0.1253  1.8635  0.7343
 3580SOL     OW22372   0.808   0.358  13.425 -0.0581 -0.2909 -0.4874
 3580SOL    HW122373   0.853   0.288  13.377  1.6658  0.3116  0.2479
 3580SOL    HW222374   0.860   0.371  13.504  1.5304  0.9463 -1.7388
 3581SOL     OW22375   4.302   3.388  16.833  1.0435 -0.1791  0.4282
 3581SOL    HW122376   4.217   3.366  16.871  1.3602 -0.5142  0.9440
 3581SOL    HW222377   4.318   3.468  16.883  0.0196 -1.7544  3.2665
 3582SOL     OW22378   1.064   0.010   1.902  0.2588 -0.2194 -0.2209
 3582SOL    HW122379   1.109   0.033   1.984  1.7689 -3.4942 -0.1193
 3582SOL    HW222380   1.024   4.665   1.931 -1.3423  1.3586  2.0375
 3583SOL     OW22381   1.914   0.654  11.724  0.0330  0.4734  0.3051
 3583SOL    HW122382   1.991   0.623  11.771  1.9546  3.3573 -0.9560
 3583SOL    HW222383   1.953   0.698  11.648  0.1132 -0.3916 -0.1578
 3584SOL     OW22384   2.183   0.030   4.281  0.2762 -0.4131  0.1229
 3584SOL    HW122385   2.108   0.002   4.229  0.2052 -1.1953  0.6583
 3584SOL    HW222386   2.151   0.008   4.368  1.4128  1.2127  0.9606
 3585SOL     OW22387   2.521   0.331   2.860  0.1488  0.2035 -0.5318
 3585SOL    HW122388   2.460   0.361   2.792  1.1484  0.4117 -1.3414
 3585SOL    HW222389   2.600   0.303   2.815  0.6108  0.6985 -0.0240
 3586SOL     OW22390   4.494   0.866   3.379  0.0435  0.0342  0.0997
 3586SOL    HW122391   4.449   0.811   3.442 -1.2704 -0.6648 -1.4647
 3586SOL    HW222392   4.514   0.946   3.428 -0.8795 -0.8210  1.8793
 3587SOL     OW22393   1.077   2.655   8.237 -0.3025 -0.0576  0.1692
 3587SOL    HW122394   1.131   2.647   8.316 -0.4875 -1.5121  0.1516
 3587SOL    HW222395   1.138   2.715   8.193 -1.0712  1.7147  1.5157
 3588SOL     OW22396   1.910   4.405   9.693  0.2144  0.4395 -0.4488
 3588SOL    HW122397   1.896   4.321   9.736  0.2005  0.7551  0.1764
 3588SOL    HW222398   1.978   4.382   9.630  0.9532  4.6754 -1.2088
 3589SOL     OW22399   3.331   0.526  10.873  0.2681 -0.0821 -0.2891
 3589SOL    HW122400   3.357   0.600  10.818  0.7004  0.0276  0.0681
 3589SOL    HW222401   3.405   0.526  10.933 -0.4961 -0.1011  0.6490
 3590SOL     OW22402   3.049   0.279   7.193  0.2215  0.0877  0.6303
 3590SOL    HW122403   3.016   0.192   7.219  0.9262  0.3154  2.3215
 3590SOL    HW222404   3.064   0.278   7.099 -2.0614  2.8700  0.2625
 3591SOL     OW22405   2.369   1.513   5.625 -0.5071 -0.1453  0.4236
 3591SOL    HW122406   2.341   1.601   5.651  0.7698  0.1962  0.6780
 3591SOL    HW222407   2.328   1.504   5.540 -0.7515 -3.7558  0.9157
 3592SOL     OW22408   4.174   4.678   2.492  0.3328 -0.0867 -0.5211
 3592SOL    HW122409   4.088   4.720   2.499  1.0882  1.2005  1.1344
 3592SOL    HW222410   4.176   4.647   2.402 -2.0678 -0.3327 -0.4912
 3593SOL     OW22411   2.337   0.219   2.165 -0.0832  0.0196  0.6288
 3593SOL    HW122412   2.375   0.133   2.146  0.2036  0.1548  0.6099
 3593SOL    HW222413   2.288   0.235   2.084 -2.0027  1.2930  2.0320
 3594SOL     OW22414   2.472   1.165   5.381  0.2478  0.0512  0.1504
 3594SOL    HW122415   2.477   1.259   5.361  0.8461  0.1513  0.7748
 3594SOL    HW222416   2.494   1.162   5.474 -2.0845 -0.8904  0.6622
 3595SOL     OW22417   3.473   4.567   9.777 -0.0874  0.9710 -0.2685
 3595SOL    HW122418   3.525   4.532   9.705 -0.5444  1.3437 -0.7723
 3595SOL    HW222419   3.504   4.509   9.847 -0.2084  2.4947  1.0431
 3596SOL     OW22420   4.228   0.952   7.361 -0.2302  0.0157 -0.2786
 3596SOL    HW122421   4.142   0.930   7.325  0.1395 -0.1688 -1.0479
 3596SOL    HW222422   4.276   0.869   7.371  0.9648  0.6606 -0.6907
 3597SOL     OW22423   3.086   4.682  17.556 -0.0235 -0.3293  0.3395
 3597SOL    HW122424   3.054   4.708  17.470  0.2413 -0.8463  0.0812
 3597SOL    HW222425   3.005   4.700  17.604 -1.2554 -1.1566 -1.4003
 3598SOL     OW22426   1.631   3.012  16.004  0.0120 -0.0804  0.6418
 3598SOL    HW122427   1.656   3.103  16.016 -0.6150  0.1303  0.3747
 3598SOL    HW222428   1.720   2.980  15.994  0.6293  1.9498 -0.4325
 3599SOL     OW22429   0.559   3.309   5.137 -0.3519  0.4688 -0.3549
 3599SOL    HW122430   0.540   3.379   5.075 -0.3126  1.0138  0.2414
 3599SOL    HW222431   0.499   3.242   5.103  1.8721 -1.1237 -1.1111
 3600SOL     OW22432   1.239   2.396   9.197  0.0898 -0.4341  0.0236
 3600SOL    HW122433   1.320   2.446   9.197 -0.7335  0.8949 -1.0011
 3600SOL    HW222434   1.202   2.409   9.285  1.8572 -2.2502  1.0278
 3601SOL     OW22435   4.217   3.081  10.732  0.1659 -0.4950  0.3077
 3601SOL    HW122436   4.200   3.172  10.755 -3.5729 -0.7845 -1.3117
 3601SOL    HW222437   4.288   3.104  10.672 -1.3010 -1.8642 -1.9091
 3602SOL     OW22438   0.058   3.518   2.810  0.3300 -0.6788  0.6564
 3602SOL    HW122439   0.059   3.596   2.754  0.6920 -0.9738  0.2550
 3602SOL    HW222440   0.064   3.567   2.892  1.3858  0.4867 -0.1060
 3603SOL     OW22441   4.346   3.936   2.173  0.3175  0.8638  0.0431
 3603SOL    HW122442   4.395   3.868   2.219 -1.3849 -1.4747 -1.6367
 3603SOL    HW222443   4.418   4.000   2.174 -0.4771  1.7422  1.8970
 3604SOL     OW22444   4.432   3.001   2.875  0.5508 -0.3316  0.1752
 3604SOL    HW122445   4.474   3.080   2.842  0.4539 -0.4202 -0.1632
 3604SOL    HW222446   4.397   2.969   2.792  1.4792  0.2955 -0.4570
 3605SOL     OW22447   1.859   1.009  13.150 -0.5902  0.1588 -0.0616
 3605SOL    HW122448   1.863   0.922  13.190 -0.9390  0.5432  0.8038
 3605SOL    HW222449   1.939   1.050  13.183 -0.2773 -1.7578  1.5798
 3606SOL     OW22450   1.566   2.527   4.888 -0.3144 -0.3133 -0.2680
 3606SOL    HW122451   1.479   2.513   4.925 -0.4625 -0.6831 -0.7467
 3606SOL    HW222452   1.554   2.580   4.809  0.6209 -1.0734 -0.9302
 3607SOL     OW22453   4.284   4.168   6.325  0.6573 -0.2151 -0.3770
 3607SOL    HW122454   4.284   4.105   6.397  0.2009  0.1913 -0.0245
 3607SOL    HW222455   4.364   4.135   6.284 -1.2170 -3.3219 -1.5365
 3608SOL     OW22456   1.141   1.598   3.884 -0.4573 -0.2960  0.4777
 3608SOL    HW122457   1.169   1.603   3.792 -1.3736  0.8835  0.2691
 3608SOL    HW222458   1.193   1.668   3.923  0.5694 -0.5421 -0.4605
 3609SOL     OW22459   4.073   4.708   1.781 -0.5481 -1.0382 -0.1912
 3609SOL    HW122460   4.044   0.023   1.705  1.4730 -1.3920 -1.1973
 3609SOL    HW222461   3.999   4.701   1.841 -0.4424 -0.2235  0.0374
 3610SOL     OW22462   2.843   4.173   5.743 -0.6634  0.0010  0.4174
 3610SOL    HW122463   2.815   4.264   5.756 -1.5371 -0.3342  0.8463
 3610SOL    HW222464   2.772   4.126   5.699 -1.0316 -2.8234  4.0703
 3611SOL     OW22465   0.100   3.324  12.693 -0.7724  0.0004  0.1273
 3611SOL    HW122466   0.089   3.378  12.772  1.1769  0.8559 -0.1894
 3611SOL    HW222467   0.012   3.330  12.656 -0.2658 -0.5444 -1.1514
 3612SOL     OW22468   3.060   0.220   2.572 -0.0011 -0.6095  0.0226
 3612SOL    HW122469   3.077   0.199   2.664 -1.4672 -0.7357  0.2635
 3612SOL    HW222470   3.073   0.315   2.579  1.3122 -0.9480  2.1104
 3613SOL     OW22471   3.959   4.145   9.473  0.6365  0.2216  0.1474
 3613SOL    HW122472   3.914   4.067   9.440  0.0246  1.1186 -1.1299
 3613SOL    HW222473   3.967   4.124   9.566 -1.5840  0.3869  0.3701
 3614SOL     OW22474   4.282   4.184   8.748  0.4743  0.1115  0.0096
 3614SOL    HW122475   4.285   4.262   8.802 -0.4232 -0.8923  1.5029
 3614SOL    HW222476   4.302   4.230   8.666  0.9240  1.9263  1.1598
 3615SOL     OW22477   1.607   0.670   7.733  0.0216  0.0414 -0.1019
 3615SOL    HW122478   1.695   0.701   7.713  0.6422  1.9814  5.5855
 3615SOL    HW222479   1.621   0.583   7.771  1.8927  0.0271 -0.8107
 3616SOL     OW22480   4.107   3.231  11.416 -0.3245 -0.0837  0.7880
 3616SOL    HW122481   4.030   3.266  11.462 -0.3561  1.5665 -0.5284
 3616SOL    HW222482   4.066   3.201  11.335  2.2712  0.0977 -0.5914
 3617SOL     OW22483   2.170   2.549  10.279  0.1220 -0.2520  0.2932
 3617SOL    HW122484   2.264   2.536  10.267 -0.0614  0.5034 -1.9257
 3617SOL    HW222485   2.138   2.465  10.247 -1.1763  1.2476 -2.3471
 3618SOL     OW22486   0.631   4.187  12.051 -0.3477  0.8680 -0.2524
 3618SOL    HW122487   0.725   4.182  12.065 -0.3849 -0.5249 -0.5046
 3618SOL    HW222488   0.625   4.141  11.967 -0.3653 -1.9278  1.2691
 3619SOL     OW22489   4.614   1.821  13.937 -0.6020 -0.0249  0.3586
 3619SOL    HW122490   4.565   1.755  13.986 -1.5895  1.3227  1.1840
 3619SOL    HW222491   4.568   1.903  13.952 -0.0851  0.1213  1.1897
 3620SOL     OW22492   3.184   0.109   6.546 -0.9351  0.0516  0.4111
 3620SOL    HW122493   3.106   0.145   6.589 -0.7120  0.3936  0.5283
 3620SOL    HW222494   3.186   0.172   6.473 -2.7917  0.0714  0.3607
 3621SOL     OW22495   2.701   0.284   1.117 -0.3099  0.0108 -0.1772
 3621SOL    HW122496   2.775   0.326   1.073 -0.2417  0.9416  0.8188
 3621SOL    HW222497   2.746   0.214   1.164  1.7536  2.2499  1.1693
 3622SOL     OW22498   2.797   1.124   3.855 -0.1957  0.3420 -0.3594
 3622SOL    HW122499   2.829   1.073   3.930  1.8017  1.4349 -0.4595
 3622SOL    HW222500   2.881   1.156   3.821  0.1681 -0.9565 -0.6897
 3623SOL     OW22501   2.568   1.253   3.103  0.0630  0.1340  0.0914
 3623SOL    HW122502   2.509   1.323   3.130  1.9678  1.1560  1.6166
 3623SOL    HW222503   2.540   1.186   3.166 -1.4403 -0.3477 -1.0907
 3624SOL     OW22504   2.619   1.718   7.953 -0.3609 -0.0792  0.1299
 3624SOL    HW122505   2.570   1.674   7.884 -1.5032  0.2246  0.7521
 3624SOL    HW222506   2.671   1.644   7.982  1.0158  1.9697  2.9065
 3625SOL     OW22507   3.017   0.851   9.390 -0.6876  0.1926  0.0278
 3625SOL    HW122508   3.053   0.763   9.379 -2.3692 -0.3422 -1.2108
 3625SOL    HW222509   3.092   0.908   9.374  1.2731 -1.5876  2.9953
 3626SOL     OW22510   4.505   2.293   5.462 -0.6111  0.4029 -0.4847
 3626SOL    HW122511   4.443   2.366   5.471 -0.2524  0.4310  1.8081
 3626SOL    HW222512   4.491   2.280   5.368  1.0844 -1.6822 -0.4279
 3627SOL     OW22513   3.291   3.310   2.344 -0.6784 -0.6371  0.1635
 3627SOL    HW122514   3.222   3.349   2.398 -0.5504  1.2582 -1.0287
 3627SOL    HW222515   3.233   3.256   2.291 -1.3054 -1.7841  2.0263
 3628SOL     OW22516   3.724   4.515   6.856 -0.1610  0.0398  0.2021
 3628SOL    HW122517   3.790   4.571   6.815  0.7456 -0.1439  1.4098
 3628SOL    HW222518   3.773   4.435   6.839  0.9920  0.6469  0.6369
 3629SOL     OW22519   4.582   1.066   3.830  0.0685 -0.1682  0.3809
 3629SOL    HW122520   4.568   1.053   3.736 -1.2030 -0.2051  0.5818
 3629SOL    HW222521   4.490   1.058   3.854  0.1414  0.0113  0.7133
 3630SOL     OW22522   3.385   1.052  10.381  0.4015 -0.2286  0.5804
 3630SOL    HW122523   3.437   1.131  10.367  0.3583 -0.5736 -1.4740
 3630SOL    HW222524   3.455   0.988  10.395  0.0770 -0.9236 -0.9449
 3631SOL     OW22525   4.226   3.495   9.656 -0.1139 -0.0423  0.1190
 3631SOL    HW122526   4.208   3.478   9.564  0.4902 -1.2057  0.2168
 3631SOL    HW222527   4.319   3.472   9.654 -0.0029  0.4179  0.0657
 3632SOL     OW22528   2.471   2.500   5.951 -0.2964 -0.2562  0.5670
 3632SOL    HW122529   2.414   2.448   5.894 -0.6255  3.0516 -2.1200
 3632SOL    HW222530   2.496   2.564   5.885 -0.8875 -1.7433 -1.0983
 3633SOL     OW22531   3.518   0.006   3.907 -0.0291  0.0065 -0.0470
 3633SOL    HW122532   3.426   4.735   3.881 -0.2482 -0.2266  0.7658
 3633SOL    HW222533   3.532   4.653   3.938  2.0447  1.0536  2.0442
 3634SOL     OW22534   1.775   0.565   2.479 -0.0404  0.0249  0.1936
 3634SOL    HW122535   1.790   0.473   2.503  1.4088  0.2484  0.1315
 3634SOL    HW222536   1.863   0.601   2.490  1.1543 -2.3271 -1.7171
 3635SOL     OW22537   1.663   2.043  16.867  0.1558 -0.1702 -0.1254
 3635SOL    HW122538   1.573   2.022  16.843 -0.5665  2.0373  0.5885
 3635SOL    HW222539   1.721   1.985  16.819 -2.2513 -3.1361  0.5228
 3636SOL     OW22540   3.657   2.034   6.418  0.0919 -0.1152  0.1617
 3636SOL    HW122541   3.643   2.044   6.512  2.7789  0.4155  0.4871
 3636SOL    HW222542   3.720   2.104   6.398  0.8225 -1.0145 -0.6840
 3637SOL     OW22543   3.772   4.628   9.772 -0.0699  0.1025  0.0776
 3637SOL    HW122544   3.835   4.555   9.778  0.0389  0.2664  0.9402
 3637SOL    HW222545   3.785   4.665   9.859  1.6894 -0.3166 -0.0052
 3638SOL     OW22546   3.367   3.610   8.573  0.0989 -0.5290  0.0372
 3638SOL    HW122547   3.463   3.604   8.568  0.1030 -0.1806 -0.2857
 3638SOL    HW222548   3.351   3.666   8.498 -0.8097 -1.4827 -0.4834
 3639SOL     OW22549   2.423   2.888  17.609 -0.0141  0.8212 -0.1914
 3639SOL    HW122550   2.497   2.945  17.591  0.9890 -0.3457  0.1824
 3639SOL    HW222551   2.460   2.822  17.669 -0.8243 -0.7612 -1.4288
 3640SOL     OW22552   1.085   3.401   3.824 -0.9401  0.7866 -0.2402
 3640SOL    HW122553   1.095   3.496   3.823 -1.2621  0.8216 -0.1055
 3640SOL    HW222554   1.107   3.385   3.916  1.0007 -0.8880 -0.9707
 3641SOL     OW22555   2.483   2.562   8.161 -0.3878  0.1265  0.1406
 3641SOL    HW122556   2.391   2.538   8.158 -0.5727  1.1611 -1.8594
 3641SOL    HW222557   2.516   2.475   8.186  0.2117  0.8943  2.0771
 3642SOL     OW22558   1.383   0.461   3.457  0.5654 -0.2114 -0.3508
 3642SOL    HW122559   1.347   0.442   3.370  0.6934 -0.8091 -0.2673
 3642SOL    HW222560   1.415   0.551   3.454 -0.6037  0.2583  0.8894
 3643SOL     OW22561   1.797   3.786   4.658 -0.0177 -0.3612 -0.3672
 3643SOL    HW122562   1.743   3.736   4.598  0.4016 -1.2462 -0.0012
 3643SOL    HW222563   1.781   3.879   4.641  2.4346  0.7951  3.7225
 3644SOL     OW22564   2.191   4.328   2.175  0.2736  0.6234 -0.4202
 3644SOL    HW122565   2.141   4.279   2.109  1.4473 -1.3377  0.1494
 3644SOL    HW222566   2.208   4.260   2.240  0.7975  1.7518  0.6124
 3645SOL     OW22567   1.705   1.462   9.685 -0.5074 -0.1572 -0.3425
 3645SOL    HW122568   1.688   1.408   9.762  0.2535  0.8358  0.5041
 3645SOL    HW222569   1.772   1.521   9.717 -1.9111  1.4980 -0.4423
 3646SOL     OW22570   2.605   4.088   3.605  0.3450 -0.2695  0.7218
 3646SOL    HW122571   2.622   4.115   3.695 -3.1666 -0.5811  1.4484
 3646SOL    HW222572   2.510   4.081   3.597  0.4822 -0.9053 -0.3727
 3647SOL     OW22573   2.077   3.088   5.865  0.2949  0.2366  0.1780
 3647SOL    HW122574   2.000   3.073   5.810 -1.3650 -0.3313  2.6902
 3647SOL    HW222575   2.053   3.170   5.908  0.7030  0.9889 -1.0186
 3648SOL     OW22576   3.422   2.697   5.629 -0.1970  0.0877  0.1787
 3648SOL    HW122577   3.502   2.707   5.681 -0.9710  1.0640  1.1876
 3648SOL    HW222578   3.368   2.633   5.677  0.4746 -0.6194 -0.0135
 3649SOL     OW22579   1.161   0.907   2.411 -0.5097 -0.4276 -0.2009
 3649SOL    HW122580   1.210   0.940   2.486 -0.5688  0.2799 -0.4745
 3649SOL    HW222581   1.223   0.839   2.385  0.2067  0.7278 -1.5555
 3650SOL     OW22582   1.723   3.388  11.228  0.0159  0.0496  0.0943
 3650SOL    HW122583   1.771   3.357  11.305 -0.9547 -1.0575  0.2551
 3650SOL    HW222584   1.678   3.459  11.273  0.3676  0.0859  0.3907
 3651SOL     OW22585   1.891   3.424   1.108 -0.6931 -0.6122 -0.8227
 3651SOL    HW122586   1.915   3.341   1.150 -0.2188  0.6490  1.3676
 3651SOL    HW222587   1.885   3.400   1.016 -3.3679 -0.4217 -0.6878
 3652SOL     OW22588   1.034   2.348   3.540  0.1161  0.5782 -0.2289
 3652SOL    HW122589   1.027   2.336   3.445  0.1176 -1.5270  0.0487
 3652SOL    HW222590   1.106   2.290   3.564 -0.5435  0.1984  0.8443
 3653SOL     OW22591   2.117   2.882   4.926  0.0913 -0.0091  0.4114
 3653SOL    HW122592   2.095   2.959   4.978 -0.6099  0.7861 -1.0727
 3653SOL    HW222593   2.104   2.818   4.996 -2.1486  1.7110  1.5786
 3654SOL     OW22594   1.867   3.907  12.766 -0.8057 -0.2165 -0.0236
 3654SOL    HW122595   1.917   3.840  12.814  2.8101  2.6677  0.2235
 3654SOL    HW222596   1.777   3.896  12.795 -0.2319 -0.3078  1.7393
 3655SOL     OW22597   1.941   3.022   4.651  0.6002 -0.0301  0.2833
 3655SOL    HW122598   1.957   3.066   4.734 -1.7517  2.2785 -0.4892
 3655SOL    HW222599   2.025   3.051   4.615  1.3850  1.4331  3.2917
 3656SOL     OW22600   3.678   3.603   8.390 -0.0233  0.1785 -0.0740
 3656SOL    HW122601   3.658   3.657   8.466  0.9571  0.8208 -0.2738
 3656SOL    HW222602   3.717   3.665   8.329  0.1331  1.3530  1.2299
 3657SOL     OW22603   2.871   3.295   9.595  0.4042  0.0076  0.4758
 3657SOL    HW122604   2.842   3.205   9.611  0.0844  0.3320  1.6689
 3657SOL    HW222605   2.846   3.343   9.674 -1.8110 -1.9071  0.9399
 3658SOL     OW22606   0.987   2.407  13.191  0.2253  0.2192 -0.6797
 3658SOL    HW122607   0.953   2.462  13.262 -1.3295 -2.3004  0.5331
 3658SOL    HW222608   0.963   2.320  13.224 -2.1434  1.1136 -0.0478
 3659SOL     OW22609   0.606   1.606   5.767  0.0311  0.2185 -0.6876
 3659SOL    HW122610   0.631   1.664   5.839  0.5465 -0.4635 -0.3209
 3659SOL    HW222611   0.532   1.560   5.806  0.1418  1.8760  1.4934
 3660SOL     OW22612   2.291   0.029   7.867 -0.1019  0.6123  0.1184
 3660SOL    HW122613   2.349   4.693   7.848  0.6904  0.6237  2.5151
 3660SOL    HW222614   2.206   4.723   7.863  1.0901 -1.5796 -1.5249
 3661SOL     OW22615   4.231   3.078   5.945 -0.3258 -0.0988 -0.6819
 3661SOL    HW122616   4.241   3.033   6.029 -1.3015 -1.2339 -1.1815
 3661SOL    HW222617   4.168   3.148   5.962 -0.7110 -0.2052 -1.6834
 3662SOL     OW22618   3.917   0.063   2.577 -0.1645 -0.3545  0.3938
 3662SOL    HW122619   3.873   0.132   2.626 -0.5728  1.2496 -2.2680
 3662SOL    HW222620   3.876   0.078   2.492 -1.8651 -1.0047  1.0948
 3663SOL     OW22621   1.514   0.476   8.157 -0.5249 -0.3387 -0.3203
 3663SOL    HW122622   1.578   0.544   8.133  0.3504 -1.3252 -0.7649
 3663SOL    HW222623   1.451   0.540   8.191 -0.0491 -0.4050  0.7087
 3664SOL     OW22624   3.460   2.362   4.502  0.6062  0.1948 -0.4313
 3664SOL    HW122625   3.476   2.285   4.558  0.9032  0.4419 -0.1772
 3664SOL    HW222626   3.492   2.428   4.563 -2.4686  1.3704 -0.0742
 3665SOL     OW22627   0.246   0.546   6.329  0.0144  0.1951  0.1462
 3665SOL    HW122628   0.286   0.544   6.416  0.0649  0.5752  0.1351
 3665SOL    HW222629   0.184   0.619   6.338 -0.1002  0.2001 -0.7234
 3666SOL     OW22630   2.744   2.775   6.995  0.0816 -0.1121  0.1455
 3666SOL    HW122631   2.740   2.706   6.928 -1.2296 -0.2069  0.3270
 3666SOL    HW222632   2.682   2.743   7.060 -0.4703 -0.7322 -0.6839
 3667SOL     OW22633   3.364   2.900   8.543 -0.2371  0.3946  0.7872
 3667SOL    HW122634   3.284   2.952   8.540 -0.3742  0.2200  1.3755
 3667SOL    HW222635   3.418   2.977   8.527 -1.7799  1.1025 -1.0182
 3668SOL     OW22636   4.647   2.557   5.354 -0.5058 -0.3061  0.2992
 3668SOL    HW122637   4.702   2.625   5.315 -2.5883  2.8933  2.9866
 3668SOL    HW222638   4.643   2.486   5.290  1.1400  0.1249 -0.2880
 3669SOL     OW22639   3.031   2.384   5.904 -0.2371  0.1093  1.0556
 3669SOL    HW122640   2.948   2.337   5.899  0.3230 -1.0514  2.6578
 3669SOL    HW222641   3.043   2.407   5.996  0.5694 -1.2664  1.2874
 3670SOL     OW22642   1.488   1.374   3.617 -0.4758  0.0399  0.0399
 3670SOL    HW122643   1.483   1.417   3.702 -0.6105  0.3246 -0.1076
 3670SOL    HW222644   1.448   1.442   3.562  3.2774  1.1734 -1.3222
 3671SOL     OW22645   2.999   3.541   1.620  0.1161 -0.1015  0.4887
 3671SOL    HW122646   3.036   3.592   1.548 -1.9109  3.9557  2.2950
 3671SOL    HW222647   3.052   3.565   1.697 -1.1582  0.8534  1.0775
 3672SOL     OW22648   3.148   3.921   9.265  0.1217  0.5096 -0.4933
 3672SOL    HW122649   3.062   3.946   9.296 -0.3600  0.5130 -1.8262
 3672SOL    HW222650   3.126   3.831   9.241  0.6971  0.2814 -0.1797
 3673SOL     OW22651   1.355   4.176   3.221  0.3175  0.1574  0.1138
 3673SOL    HW122652   1.372   4.168   3.127 -0.2257 -0.1197  0.0360
 3673SOL    HW222653   1.275   4.128   3.245 -1.5088  2.7248 -0.8706
 3674SOL     OW22654   0.993   4.518   7.718  0.1801  0.0923  0.4044
 3674SOL    HW122655   1.078   4.518   7.674  0.3622  0.1580  0.7571
 3674SOL    HW222656   0.944   4.457   7.663  0.1010 -0.4823  1.1182
 3675SOL     OW22657   0.018   3.733  13.843  0.5682  0.1524  0.1306
 3675SOL    HW122658   0.039   3.753  13.752  1.9252  1.2403  0.6735
 3675SOL    HW222659   0.018   3.638  13.842  0.4975  0.0960  2.9674
 3676SOL     OW22660   4.192   2.002   4.159 -0.1650 -0.1136  0.0040
 3676SOL    HW122661   4.185   1.967   4.070  1.4143 -1.8780  0.5703
 3676SOL    HW222662   4.108   1.969   4.192  0.4962 -2.5482 -0.7686
 3677SOL     OW22663   0.025   4.648   3.264  0.5365  0.4083  0.1762
 3677SOL    HW122664   0.023   0.005   3.280 -0.0612  0.2354  1.1370
 3677SOL    HW222665   0.109   4.622   3.301 -0.4664 -2.1063  0.6749
 3678SOL     OW22666   1.289   3.984   6.571  0.0175 -0.2975 -0.3617
 3678SOL    HW122667   1.321   4.074   6.562 -0.6314  0.1290  1.5924
 3678SOL    HW222668   1.340   3.943   6.641 -1.3141 -1.6372 -0.1831
 3679SOL     OW22669   4.667   1.034   3.233 -0.3496  0.1367 -0.3432
 3679SOL    HW122670   4.628   0.963   3.284  0.6118 -0.2389 -0.1224
 3679SOL    HW222671   4.651   1.005   3.144  1.6553  1.9968 -1.3092
 3680SOL     OW22672   1.802   4.451  13.647 -0.0242 -0.1442  0.4472
 3680SOL    HW122673   1.826   4.361  13.670 -1.8388 -0.9049 -0.6014
 3680SOL    HW222674   1.727   4.422  13.594 -0.7397  0.1221  1.3166
 3681SOL     OW22675   1.155   3.637   8.059 -0.4291 -0.1705 -0.0104
 3681SOL    HW122676   1.194   3.689   7.988  0.5391 -0.4054  0.3530
 3681SOL    HW222677   1.155   3.554   8.012  2.0381  0.6292 -1.3939
 3682SOL     OW22678   0.510   4.180   5.668 -0.1368 -0.3563  0.3730
 3682SOL    HW122679   0.457   4.228   5.730  1.1645  1.4102  0.1090
 3682SOL    HW222680   0.553   4.125   5.734 -0.7287 -1.8559 -0.4851
 3683SOL     OW22681   0.887   1.784   1.836 -0.5128  0.5034 -0.8173
 3683SOL    HW122682   0.847   1.707   1.878 -0.4726  0.2040 -1.3229
 3683SOL    HW222683   0.974   1.752   1.814  0.1130  1.3370  0.4422
 3684SOL     OW22684   1.053   2.621  15.442  0.0879 -0.3941 -0.3883
 3684SOL    HW122685   0.983   2.565  15.408 -1.5501  2.5302 -1.8709
 3684SOL    HW222686   1.071   2.674  15.364 -0.2958  1.8397  1.0502
 3685SOL     OW22687   0.243   2.640   3.962  0.1202 -0.1683 -0.1897
 3685SOL    HW122688   0.334   2.613   3.949  0.2594  0.9842 -1.4874
 3685SOL    HW222689   0.186   2.563   3.964 -0.3668  0.1606 -1.4270
 3686SOL     OW22690   3.985   2.368   2.333 -0.0124 -0.0522  0.2346
 3686SOL    HW122691   3.957   2.325   2.252  1.1420 -1.8159  0.7488
 3686SOL    HW222692   4.005   2.281   2.369 -0.3915  0.2458  1.1657
 3687SOL     OW22693   3.054   0.759   2.575  0.3618  0.5763  0.7449
 3687SOL    HW122694   3.122   0.825   2.569  0.5645  0.1879 -1.1990
 3687SOL    HW222695   2.986   0.805   2.526  0.8898  1.9313  1.3085
 3688SOL     OW22696   0.261   4.402   6.289  0.0963 -0.4179 -0.2296
 3688SOL    HW122697   0.207   4.324   6.303 -0.5241  0.6330  3.2508
 3688SOL    HW222698   0.325   4.394   6.359  0.9425 -0.0583 -0.9644
 3689SOL     OW22699   0.139   3.705   9.974  0.2304  0.0738 -0.4009
 3689SOL    HW122700   0.142   3.722  10.068  1.3683  1.4986 -0.6904
 3689SOL    HW222701   0.226   3.730   9.944 -1.0417  4.7471 -0.1989
 3690SOL     OW22702   4.015   2.474   1.856  0.0921 -0.5746 -0.1337
 3690SOL    HW122703   4.052   2.500   1.941  0.3417 -2.9147  0.4550
 3690SOL    HW222704   4.065   2.394   1.843 -1.0802 -1.4193  0.5412
 3691SOL     OW22705   1.659   0.553   5.022 -0.7364 -0.1791 -0.0208
 3691SOL    HW122706   1.618   0.602   4.952  1.0581  3.4040  1.4381
 3691SOL    HW222707   1.750   0.582   5.030 -0.2819 -2.1034  1.9640
 3692SOL     OW22708   2.037   3.497   9.290  0.1512  0.5302  0.1042
 3692SOL    HW122709   1.976   3.453   9.231  0.8566  1.2225 -1.1410
 3692SOL    HW222710   2.025   3.589   9.265  0.7545  0.2747 -1.1248
 3693SOL     OW22711   0.276   0.155   1.926  0.0627 -0.0954 -0.0378
 3693SOL    HW122712   0.272   0.231   1.867 -0.8660  0.3627  0.6131
 3693SOL    HW222713   0.187   0.124   1.942  0.8970 -1.5849  1.7016
 3694SOL     OW22714   3.112   1.639   7.717  0.2227 -0.3171  0.1587
 3694SOL    HW122715   3.143   1.725   7.691  0.6974 -0.7460 -0.6905
 3694SOL    HW222716   3.186   1.582   7.692 -0.0292 -0.9099  0.7610
 3695SOL     OW22717   2.315   3.611  10.216 -0.0769  0.0452  0.5847
 3695SOL    HW122718   2.382   3.565  10.267 -0.3883  1.0155  1.8635
 3695SOL    HW222719   2.244   3.546  10.219  1.1825 -1.3645  0.1796
 3696SOL     OW22720   2.873   1.495   2.737  0.1655  0.3716  0.3716
 3696SOL    HW122721   2.895   1.586   2.715  0.0546  0.4402  0.5435
 3696SOL    HW222722   2.866   1.508   2.832 -0.5364  1.7108  0.1356
 3697SOL     OW22723   0.612   1.190   3.469  0.6521 -0.1462 -0.2473
 3697SOL    HW122724   0.550   1.219   3.535  1.0780  0.6341 -0.1966
 3697SOL    HW222725   0.567   1.112   3.437  0.5250 -0.6760  1.2227
 3698SOL     OW22726   3.733   2.821   6.523 -0.5688  0.6104  0.3184
 3698SOL    HW122727   3.750   2.858   6.609 -0.8328  0.0305  0.6203
 3698SOL    HW222728   3.657   2.769   6.549 -0.5056  1.8114  2.8503
 3699SOL     OW22729   0.742   0.562  10.696 -0.4077 -0.4843  0.1874
 3699SOL    HW122730   0.740   0.478  10.650  0.0303 -0.3572 -0.0657
 3699SOL    HW222731   0.782   0.621  10.632  0.6299 -1.8597 -0.4394
 3700SOL     OW22732   2.035   2.279   5.520  0.0778  0.2433 -0.2116
 3700SOL    HW122733   1.963   2.224   5.552  1.2800  0.2890  2.5682
 3700SOL    HW222734   2.000   2.275   5.431 -0.1173  1.4863 -0.1877
 3701SOL     OW22735   2.315   2.677  17.478 -0.3485  0.8120  0.0127
 3701SOL    HW122736   2.375   2.678  17.404  0.5749 -2.0880  0.7105
 3701SOL    HW222737   2.346   2.755  17.525 -0.0125  0.3788  0.5142
 3702SOL     OW22738   3.266   1.655   5.224  0.4463  0.3091  0.1596
 3702SOL    HW122739   3.361   1.648   5.223  0.3708 -0.6647 -0.0801
 3702SOL    HW222740   3.239   1.566   5.248 -0.6186 -0.1249 -2.6573
 3703SOL     OW22741   2.368   3.228   6.894  0.7549 -0.5426 -0.4963
 3703SOL    HW122742   2.272   3.225   6.900  0.6420  0.7194 -1.6319
 3703SOL    HW222743   2.380   3.254   6.803  1.4373 -0.8793 -0.5009
 3704SOL     OW22744   4.716   3.730  12.413  0.1041 -0.1250 -0.4427
 3704SOL    HW122745   0.050   3.794  12.401 -1.4640  1.6698 -0.2308
 3704SOL    HW222746   0.016   3.649  12.379  0.7577  0.2202 -0.5530
 3705SOL     OW22747   4.426   3.456   0.197 -0.3772 -0.6740  0.2551
 3705SOL    HW122748   4.380   3.522   0.249  0.3296  0.9100 -1.1230
 3705SOL    HW222749   4.519   3.472   0.214 -0.5989 -0.9079  1.6767
 3706SOL     OW22750   0.095   1.362   8.869 -0.3176 -0.4180  0.3654
 3706SOL    HW122751   0.075   1.278   8.911  3.4084 -0.6344  1.7018
 3706SOL    HW222752   0.109   1.331   8.779  2.6963  1.7307  0.0851
 3707SOL     OW22753   4.103   3.593  11.891 -0.6572 -0.6695 -0.1088
 3707SOL    HW122754   4.049   3.667  11.865 -0.6838 -0.7986 -0.4309
 3707SOL    HW222755   4.103   3.534  11.815  0.0450 -3.7167  2.2505
 3708SOL     OW22756   3.118   4.714   9.127 -0.1212  0.2281 -0.1899
 3708SOL    HW122757   3.076   4.660   9.195  0.6815 -0.9276 -0.6146
 3708SOL    HW222758   3.189   0.022   9.173  2.7153 -2.3578 -2.0414
 3709SOL     OW22759   1.645   0.756   8.174  0.0787  0.0390 -0.4029
 3709SOL    HW122760   1.665   0.806   8.253  0.9539 -0.8629 -0.0603
 3709SOL    HW222761   1.686   0.816   8.111 -1.1458  1.9894  0.6449
 3710SOL     OW22762   0.857   1.539   8.204  0.1143 -0.1653 -0.1941
 3710SOL    HW122763   0.952   1.529   8.210  0.0480 -2.2670 -3.0712
 3710SOL    HW222764   0.857   1.565   8.112 -1.2210 -2.0953 -0.7361
 3711SOL     OW22765   2.799   1.758  17.407 -0.0834 -0.2723  0.0113
 3711SOL    HW122766   2.754   1.811  17.473 -0.5987  0.5288 -0.9879
 3711SOL    HW222767   2.840   1.827  17.356  0.3662  0.0665  0.8329
 3712SOL     OW22768   0.498   0.017   4.218  0.7559 -0.1428  0.1472
 3712SOL    HW122769   0.443   0.043   4.292 -1.2032 -0.5900 -1.1649
 3712SOL    HW222770   0.479   4.660   4.220  0.1770 -0.0048  1.2170
 3713SOL     OW22771   4.657   0.296   8.050 -0.8254 -0.0694  0.2030
 3713SOL    HW122772   0.010   0.327   8.043 -0.8767  0.6594  2.9855
 3713SOL    HW222773   4.642   0.276   7.958 -1.6758  0.6227  0.1881
 3714SOL     OW22774   1.562   3.235   8.753 -0.2455 -0.1344 -0.2383
 3714SOL    HW122775   1.528   3.214   8.840 -0.8388  0.2705 -0.3752
 3714SOL    HW222776   1.617   3.157   8.758  0.6905  0.6554  2.0645
 3715SOL     OW22777   4.338   2.621   7.945 -0.3324 -0.3528  0.1456
 3715SOL    HW122778   4.414   2.574   7.979 -0.1143 -0.9407 -1.1655
 3715SOL    HW222779   4.338   2.699   8.002  1.1852  0.5677 -1.0874
 3716SOL     OW22780   4.229   1.325   3.690 -0.5151  0.0581  0.2948
 3716SOL    HW122781   4.320   1.320   3.721 -0.4835 -1.1750 -0.0041
 3716SOL    HW222782   4.184   1.246   3.720  0.5311  0.0214  1.7873
 3717SOL     OW22783   4.097   0.828  13.509  0.0812 -0.8832  0.2350
 3717SOL    HW122784   4.091   0.734  13.524 -1.8821 -0.9970 -1.1710
 3717SOL    HW222785   4.171   0.849  13.566  0.1647  0.2473 -0.2922
 3718SOL     OW22786   2.591   0.167   0.064 -0.1346  0.5975 -0.0782
 3718SOL    HW122787   2.549   0.115   0.133 -0.4235  0.6137 -0.2443
 3718SOL    HW222788   2.538   0.246   0.072 -1.6516 -0.3044 -1.3780
 3719SOL     OW22789   0.297   0.608   0.309  1.1644 -0.1090 -0.2390
 3719SOL    HW122790   0.244   0.558   0.248  0.2448 -2.1009  2.1929
 3719SOL    HW222791   0.266   0.577   0.394 -2.4283 -0.2117 -1.6137
 3720SOL     OW22792   4.032   4.148   2.849 -0.3028 -0.2078  0.5171
 3720SOL    HW122793   4.008   4.214   2.914  0.7327 -0.1257  0.8226
 3720SOL    HW222794   3.948   4.111   2.823 -2.1271  2.1845  2.9830
 3721SOL     OW22795   2.450   2.589   7.029 -0.1125 -0.4295  0.3163
 3721SOL    HW122796   2.503   2.545   6.962  0.1108 -0.2923  0.4001
 3721SOL    HW222797   2.527   2.610   7.082 -0.8284  0.5586  0.9624
 3722SOL     OW22798   3.948   4.585   7.567 -0.0721 -0.1776  0.0853
 3722SOL    HW122799   3.906   4.505   7.537 -2.0515 -0.0736  2.5326
 3722SOL    HW222800   4.041   4.571   7.554 -0.2906 -1.2119 -0.3343
 3723SOL     OW22801   0.600   1.857   2.380  0.0263 -0.0686  0.3058
 3723SOL    HW122802   0.637   1.821   2.460 -0.1537 -0.4549  0.2146
 3723SOL    HW222803   0.505   1.856   2.390 -0.0120  2.3042  0.1119
 3724SOL     OW22804   1.992   0.250  13.255 -0.3332  0.3051 -0.1626
 3724SOL    HW122805   2.026   0.319  13.311  4.1688 -1.9672 -0.1010
 3724SOL    HW222806   1.986   0.184  13.323 -0.2688  0.3103 -0.1516
 3725SOL     OW22807   1.983   0.004  14.496  0.2048  0.2527 -1.0554
 3725SOL    HW122808   1.892   0.011  14.466  0.6827  2.4395 -1.9853
 3725SOL    HW222809   1.997   0.099  14.504 -1.1592  0.3913 -0.2514
 3726SOL     OW22810   0.731   2.556   7.357 -0.0356  0.3825 -0.3346
 3726SOL    HW122811   0.655   2.569   7.300 -0.3337  1.2811  0.2785
 3726SOL    HW222812   0.784   2.634   7.341 -0.6786  0.7154 -0.8300
 3727SOL     OW22813   2.709   2.111   0.622  0.0909 -0.4894 -0.1812
 3727SOL    HW122814   2.728   2.047   0.691 -0.7384 -1.1883 -0.5970
 3727SOL    HW222815   2.613   2.113   0.615  0.0214 -1.3501  0.5538
 3728SOL     OW22816   3.761   3.425   5.047 -0.0388 -0.4148 -0.1323
 3728SOL    HW122817   3.723   3.505   5.009  0.0566  0.9521  2.6525
 3728SOL    HW222818   3.708   3.416   5.126 -0.4018  2.4173 -0.0418
 3729SOL     OW22819   1.008   3.732   2.249  0.3359  0.6306 -0.6413
 3729SOL    HW122820   1.064   3.800   2.212  1.6001  0.5945  1.1880
 3729SOL    HW222821   0.926   3.756   2.207 -0.2345  0.6408  0.4793
 3730SOL     OW22822   0.238   2.741   6.313  0.3416 -0.0668  0.0895
 3730SOL    HW122823   0.332   2.731   6.325  0.0033 -1.5392  1.3808
 3730SOL    HW222824   0.232   2.827   6.269 -0.7811  0.7631  1.8776
 3731SOL     OW22825   2.627   3.549   5.607  0.2696  0.3392 -0.1609
 3731SOL    HW122826   2.696   3.503   5.656 -1.5250 -1.9836  0.1984
 3731SOL    HW222827   2.647   3.639   5.632  1.5938 -0.8286  3.0232
 3732SOL     OW22828   3.912   3.396   8.891  0.2079 -0.3953 -0.6133
 3732SOL    HW122829   3.851   3.336   8.935 -2.2787  0.7838 -2.4445
 3732SOL    HW222830   3.857   3.475   8.894 -0.3296 -0.7428 -1.3742
 3733SOL     OW22831   4.504   2.765   6.754  0.2136  0.2613  0.4503
 3733SOL    HW122832   4.592   2.773   6.719 -0.4700 -0.9986 -1.5543
 3733SOL    HW222833   4.487   2.683   6.707 -0.1265 -0.4611  1.8258
 3734SOL     OW22834   1.232   1.946   5.677 -0.2379  0.4375  0.3440
 3734SOL    HW122835   1.173   2.005   5.630  1.1592  1.7216  0.1725
 3734SOL    HW222836   1.307   1.933   5.618 -0.1434  4.6424 -0.4760
 3735SOL     OW22837   2.573   3.976   1.997  0.5549 -0.0222  0.1391
 3735SOL    HW122838   2.600   4.027   2.074  1.7124  0.9612 -0.9027
 3735SOL    HW222839   2.495   3.932   2.030  0.6842 -0.0537  0.4008
 3736SOL     OW22840   2.330   2.089   6.956  0.2428  0.0638 -0.3122
 3736SOL    HW122841   2.295   2.041   6.881 -0.6921  0.9307 -0.4299
 3736SOL    HW222842   2.353   2.019   7.016  1.9053  0.4244 -0.5312
 3737SOL     OW22843   4.367   0.051  14.673  0.0547 -0.4384  0.1898
 3737SOL    HW122844   4.328   0.096  14.598  0.9389 -0.1389 -0.0963
 3737SOL    HW222845   4.456   0.038  14.639  1.4528  5.4267  1.5546
 3738SOL     OW22846   1.978   2.046   2.072 -0.1113 -0.6058 -0.0208
 3738SOL    HW122847   1.981   2.118   2.136 -0.5458 -0.8837  0.3154
 3738SOL    HW222848   2.055   1.996   2.100  0.0317 -0.9804 -1.0847
 3739SOL     OW22849   3.218   1.244  12.901  0.0484 -0.3148 -0.3914
 3739SOL    HW122850   3.249   1.193  12.826  1.0289  0.5469 -0.5666
 3739SOL    HW222851   3.180   1.182  12.963  0.6818  0.7749  1.0927
 3740SOL     OW22852   1.898   3.274   8.093  0.4636  0.4089 -0.0912
 3740SOL    HW122853   1.935   3.187   8.101 -1.0307 -0.2077  0.0774
 3740SOL    HW222854   1.953   3.316   8.160  1.8065 -2.4952  0.6170
 3741SOL     OW22855   3.970   0.697   6.952 -0.3650  0.3641  0.4591
 3741SOL    HW122856   3.929   0.681   6.867  0.9388  2.1394 -0.5090
 3741SOL    HW222857   4.029   0.766   6.921  0.4435 -1.3356 -1.8323
 3742SOL     OW22858   0.677   2.143   7.255  0.1893 -0.1276 -0.1229
 3742SOL    HW122859   0.755   2.187   7.221  0.6608 -0.6404  0.2974
 3742SOL    HW222860   0.609   2.186   7.203 -1.8796 -2.2727  0.8139
 3743SOL     OW22861   2.609   3.917   1.739  0.4035 -0.3789  0.3545
 3743SOL    HW122862   2.688   3.865   1.726 -0.0166 -1.3426  1.6425
 3743SOL    HW222863   2.598   3.910   1.834  0.9372  2.7206  0.6543
 3744SOL     OW22864   1.552   1.913  15.484  0.0862 -0.0365  0.1441
 3744SOL    HW122865   1.576   2.006  15.477 -0.5985  0.1834  0.6918
 3744SOL    HW222866   1.480   1.908  15.547  1.3258  1.3467  1.6683
 3745SOL     OW22867   0.947   3.596   3.550  0.4734  0.4345 -0.0159
 3745SOL    HW122868   0.964   3.615   3.642 -0.9252 -0.1181  0.3484
 3745SOL    HW222869   0.977   3.505   3.544 -1.7469 -0.1289 -2.6640
 3746SOL     OW22870   2.469   3.496   9.640 -0.1443 -0.5633  0.1868
 3746SOL    HW122871   2.512   3.532   9.562  3.3680 -3.4062  0.8359
 3746SOL    HW222872   2.375   3.494   9.619  0.3808  0.7484 -2.2841
 3747SOL     OW22873   1.652   3.539  13.188  0.2106  0.2881 -0.3657
 3747SOL    HW122874   1.745   3.561  13.180  0.4440 -0.6476 -0.2721
 3747SOL    HW222875   1.615   3.620  13.154 -1.7312 -0.0561  0.8801
 3748SOL     OW22876   2.844   1.736   5.905  0.3314  0.7224 -0.5733
 3748SOL    HW122877   2.797   1.666   5.860  0.0657  1.4120 -1.3662
 3748SOL    HW222878   2.849   1.705   5.995 -1.5808 -0.3286 -0.8249
 3749SOL     OW22879   3.723   4.665  15.568  0.1432 -0.4573  0.5313
 3749SOL    HW122880   3.754   0.006  15.522 -0.8703 -0.8020 -0.7117
 3749SOL    HW222881   3.650   4.704  15.616  1.0672  0.0229  1.5468
 3750SOL     OW22882   2.786   1.264  11.631 -0.6967  0.0586 -0.0059
 3750SOL    HW122883   2.819   1.189  11.682  2.1311  1.9643  0.9718
 3750SOL    HW222884   2.850   1.260  11.559  1.1723 -0.2901  1.6777
 3751SOL     OW22885   4.661   3.988   7.347 -0.3344  0.6995  0.6916
 3751SOL    HW122886   4.710   4.000   7.266 -2.0681  0.8041 -0.3452
 3751SOL    HW222887   4.579   4.031   7.321 -0.2128  0.7185  0.3496
 3752SOL     OW22888   0.137   4.412   9.889  0.2050  0.5197  0.4994
 3752SOL    HW122889   0.096   4.477   9.946 -1.6419 -0.5960  0.4407
 3752SOL    HW222890   0.126   4.453   9.803  2.8861  2.0460  0.8930
 3753SOL     OW22891   3.036   3.708   9.128 -0.0649 -0.3674 -0.2632
 3753SOL    HW122892   2.947   3.683   9.104  0.4739 -2.5712  0.0860
 3753SOL    HW222893   3.076   3.623   9.108  2.0493 -0.2962  3.8264
 3754SOL     OW22894   1.895   2.926  12.163  0.3821  0.0860 -0.1542
 3754SOL    HW122895   1.922   3.010  12.201 -2.8753 -0.1206  2.6924
 3754SOL    HW222896   1.800   2.922  12.177  0.4285  0.8781  0.3814
 3755SOL     OW22897   1.888   1.161   3.558  0.0746  0.1998  0.1753
 3755SOL    HW122898   1.931   1.159   3.643 -0.4812  0.9763  0.4753
 3755SOL    HW222899   1.853   1.073   3.543 -1.3016  0.7626  0.0641
 3756SOL     OW22900   3.361   3.703  13.660  0.1286  0.1248 -0.4864
 3756SOL    HW122901   3.383   3.788  13.622 -0.9296  0.3597 -0.5785
 3756SOL    HW222902   3.419   3.690  13.735  1.1633  1.3184 -1.0736
 3757SOL     OW22903   2.635   0.563   1.164 -0.1503  0.2068 -0.4422
 3757SOL    HW122904   2.657   0.520   1.246  0.6688  0.0990 -0.7134
 3757SOL    HW222905   2.710   0.543   1.106 -0.5001 -0.9170 -0.5041
 3758SOL     OW22906   4.183   1.017   4.750 -0.4680  0.2259  0.1249
 3758SOL    HW122907   4.153   0.933   4.717  0.1866 -0.5179  1.4347
 3758SOL    HW222908   4.165   1.013   4.844  0.9062  0.9537  0.4244
 3759SOL     OW22909   1.032   2.310  12.478  0.4141  0.5299 -0.1391
 3759SOL    HW122910   1.018   2.266  12.394  2.3286  1.2827 -0.8362
 3759SOL    HW222911   0.961   2.375  12.474  1.5544  1.7990  0.2804
 3760SOL     OW22912   0.176   1.600   4.796  0.0122 -0.2507  0.2006
 3760SOL    HW122913   0.093   1.601   4.749 -0.0272  0.4747  0.2821
 3760SOL    HW222914   0.147   1.648   4.874  1.1053 -0.0382  0.4852
 3761SOL     OW22915   4.400   0.601   5.915  0.0258  0.0316  0.5737
 3761SOL    HW122916   4.465   0.602   5.985  2.3944  3.8153 -1.6247
 3761SOL    HW222917   4.421   0.513   5.884  0.8641  0.7866 -1.0376
 3762SOL     OW22918   4.608   1.823   2.634 -0.1291 -0.3061  0.3707
 3762SOL    HW122919   4.702   1.842   2.638  0.1613 -0.9870 -3.6066
 3762SOL    HW222920   4.572   1.883   2.700  1.9434  1.0636  0.2464
 3763SOL     OW22921   2.700   1.833   2.262 -0.8297 -0.1401  0.5194
 3763SOL    HW122922   2.612   1.802   2.240 -0.9392 -0.5866  1.5665
 3763SOL    HW222923   2.745   1.749   2.265 -0.5637  0.0472  1.7956
 3764SOL     OW22924   1.724   3.158   7.679  0.1122 -0.0777  0.5990
 3764SOL    HW122925   1.643   3.126   7.719 -0.2307  0.4905  0.3722
 3764SOL    HW222926   1.704   3.252   7.676 -0.1999 -0.1963 -1.4918
 3765SOL     OW22927   4.058   0.991   8.856  0.3490  0.4357 -0.3193
 3765SOL    HW122928   3.984   1.027   8.906 -0.7063 -3.3414  0.8910
 3765SOL    HW222929   4.025   0.925   8.795 -2.8118 -0.0927  1.9532
 3766SOL     OW22930   1.040   4.146  13.432  0.0396  0.9933 -0.0150
 3766SOL    HW122931   1.090   4.153  13.513 -0.8322 -0.9905  0.6858
 3766SOL    HW222932   1.049   4.236  13.400 -1.3135  0.3794 -2.1234
 3767SOL     OW22933   0.780   0.080   0.216  0.8098  0.0409 -0.5935
 3767SOL    HW122934   0.847   0.094   0.149 -1.0992  2.6844 -1.9613
 3767SOL    HW222935   0.829   0.089   0.298  0.0946  1.4215 -0.3224
 3768SOL     OW22936   1.150   2.699   8.513 -0.1118  0.1503  0.1357
 3768SOL    HW122937   1.240   2.699   8.482  0.2039 -1.5114  1.1192
 3768SOL    HW222938   1.141   2.626   8.573  0.3413  0.5032  0.6310
 3769SOL     OW22939   4.705   2.372   5.711  0.6010  0.2110 -0.4245
 3769SOL    HW122940   0.048   2.392   5.662 -0.1978 -0.6500 -2.0546
 3769SOL    HW222941   4.643   2.349   5.643  2.3686  1.2868 -2.3930
 3770SOL     OW22942   3.553   0.494   6.604 -0.2552  0.1467  0.0405
 3770SOL    HW122943   3.466   0.472   6.636  0.5715 -1.6525  1.0555
 3770SOL    HW222944   3.595   0.410   6.623 -0.3040  0.8954  3.3059
 3771SOL     OW22945   0.644   3.683   3.916  0.0090 -0.1379 -0.0634
 3771SOL    HW122946   0.686   3.748   3.859 -1.6446  0.9087 -0.1038
 3771SOL    HW222947   0.563   3.665   3.867 -0.8893  0.7509  1.1072
 3772SOL     OW22948   1.924   0.505   6.810  0.0606 -0.4058  0.0421
 3772SOL    HW122949   1.891   0.502   6.721  1.0733 -1.7201 -0.2961
 3772SOL    HW222950   2.007   0.459   6.800 -0.1744 -0.4260 -1.7882
 3773SOL     OW22951   0.783   4.473   9.114 -0.2271  0.4642  0.3894
 3773SOL    HW122952   0.795   4.540   9.182 -1.1432  0.1461  0.8727
 3773SOL    HW222953   0.830   4.406   9.164  0.6695 -0.4617 -1.6950
 3774SOL     OW22954   0.614   3.560   2.047 -0.2239  0.5273 -0.0065
 3774SOL    HW122955   0.550   3.525   2.109  0.4772  1.3809  1.2052
 3774SOL    HW222956   0.694   3.556   2.099  0.3132 -1.3823 -1.0107
 3775SOL     OW22957   1.515   0.565   6.608 -0.4367  0.7775  0.2249
 3775SOL    HW122958   1.514   0.661   6.605 -1.9012  0.7710  0.4925
 3775SOL    HW222959   1.563   0.544   6.528 -2.1764 -0.0633 -0.5964
 3776SOL     OW22960   1.039   3.153   4.270 -0.6689 -0.6477 -0.0804
 3776SOL    HW122961   1.053   3.089   4.339  0.3447 -0.1570  0.1722
 3776SOL    HW222962   1.046   3.105   4.187 -1.4854  0.5243 -0.8389
 3777SOL     OW22963   1.286   0.322   8.056 -0.1168 -0.4835  0.0086
 3777SOL    HW122964   1.380   0.310   8.044  0.5253  2.4293  2.2607
 3777SOL    HW222965   1.266   0.391   7.992  2.2680 -0.2873 -0.5489
 3778SOL     OW22966   4.150   1.489   5.490  0.4887 -0.3364  0.2653
 3778SOL    HW122967   4.089   1.536   5.433 -0.1665  1.5672  2.5940
 3778SOL    HW222968   4.104   1.405   5.493 -2.5375  1.2916 -0.6949
 3779SOL     OW22969   3.888   4.163   6.254  0.0500 -0.0765 -0.1506
 3779SOL    HW122970   3.949   4.089   6.254 -0.3019 -0.3580 -0.8317
 3779SOL    HW222971   3.864   4.168   6.162 -2.1061  0.7566  0.4743
 3780SOL     OW22972   4.716   4.404  17.648 -0.3796 -0.2968 -0.2269
 3780SOL    HW122973   4.664   4.448  17.581 -1.2671  0.4834  0.9714
 3780SOL    HW222974   4.733   4.467  17.718  0.1170  0.5901 -1.1484
 3781SOL     OW22975   1.994   4.193   5.109  0.2381  0.3476  0.7317
 3781SOL    HW122976   2.002   4.129   5.180  0.3291 -0.4382  0.0126
 3781SOL    HW222977   2.068   4.163   5.058  1.2460  1.9224  1.2819
 3782SOL     OW22978   0.956   4.610   5.883  0.5061 -0.1337  0.0755
 3782SOL    HW122979   0.984   4.526   5.920 -0.9832 -1.0218 -0.7837
 3782SOL    HW222980   0.960   4.667   5.959 -2.5677 -1.2699  1.1025
 3783SOL     OW22981   2.426   2.718  17.251  0.0278 -0.2922 -0.0836
 3783SOL    HW122982   2.515   2.684  17.253 -0.1310 -0.8408 -2.1451
 3783SOL    HW222983   2.423   2.753  17.162  0.3040  0.0431  0.0365
 3784SOL     OW22984   0.645   4.113   9.401 -0.2169  0.3049 -0.0673
 3784SOL    HW122985   0.617   4.053   9.332 -4.2071  2.0801  0.0027
 3784SOL    HW222986   0.700   4.057   9.455  0.9429  1.8802  0.4028
 3785SOL     OW22987   1.044   3.245  12.231  0.0499 -0.5525  0.2476
 3785SOL    HW122988   1.074   3.172  12.284  1.5410  1.0959  1.6755
 3785SOL    HW222989   0.951   3.227  12.219  0.0726 -0.1951 -0.4728
 3786SOL     OW22990   1.016   4.670  12.922 -0.0820  0.7947  0.0708
 3786SOL    HW122991   0.991   4.720  13.000  2.1064  2.3284 -0.1960
 3786SOL    HW222992   0.938   4.685  12.870  0.0882  0.2352 -0.3451
 3787SOL     OW22993   2.935   0.281   5.772  0.3709 -0.3017  0.1143
 3787SOL    HW122994   2.849   0.286   5.812  0.4291 -0.1895  0.2223
 3787SOL    HW222995   2.962   0.369   5.746 -0.1271 -0.5189 -1.1351
 3788SOL     OW22996   0.154   3.567  12.306 -0.1632 -0.2999 -0.4370
 3788SOL    HW122997   0.181   3.498  12.367 -1.0746  0.3591  0.6916
 3788SOL    HW222998   0.207   3.548  12.228  1.7402 -2.2898  1.3482
 3789SOL     OW22999   2.463   0.697  11.107 -0.3037  0.1200 -0.3816
 3789SOL    HW123000   2.447   0.610  11.069 -1.6255  0.5574 -0.8493
 3789SOL    HW223001   2.546   0.677  11.150 -0.4298 -2.1313 -1.1514
 3790SOL     OW23002   4.637   0.789   6.802  0.0968 -0.0101  0.3362
 3790SOL    HW123003   4.688   0.781   6.882  0.2405 -1.5664  0.0913
 3790SOL    HW223004   4.568   0.846   6.835  1.7599  0.6208  2.6969
 3791SOL     OW23005   2.719   1.069   9.862  0.4895 -0.2358  0.1829
 3791SOL    HW123006   2.736   0.979   9.891 -0.0704 -0.8177 -1.3200
 3791SOL    HW223007   2.726   1.061   9.767 -1.1725 -1.7176  0.1907
 3792SOL     OW23008   2.309   2.579   5.489  0.1157 -0.6679  0.0159
 3792SOL    HW123009   2.355   2.540   5.563  0.6249 -2.5773 -1.2926
 3792SOL    HW223010   2.221   2.565   5.525 -1.1322  1.5940 -2.1285
 3793SOL     OW23011   1.462   4.505  12.650  0.1087 -0.1794 -0.8393
 3793SOL    HW123012   1.492   4.522  12.560 -1.1970  0.7955 -1.0826
 3793SOL    HW223013   1.371   4.532  12.645  0.9353  3.0996  1.6442
 3794SOL     OW23014   4.499   1.560   4.493 -0.7955 -0.3565 -0.0244
 3794SOL    HW123015   4.506   1.614   4.572  0.1230 -1.6980  0.8235
 3794SOL    HW223016   4.456   1.618   4.431 -1.0883 -1.5170 -0.9124
 3795SOL     OW23017   1.316   4.359   5.686  0.1560 -0.4197 -0.4246
 3795SOL    HW123018   1.290   4.324   5.601 -2.7680  1.1759 -0.1786
 3795SOL    HW223019   1.408   4.335   5.701  0.2613  0.7959  0.8395
 3796SOL     OW23020   0.796   3.182   9.792  0.3992  0.1118 -0.1310
 3796SOL    HW123021   0.805   3.256   9.732 -2.8282  0.0338 -0.6982
 3796SOL    HW223022   0.749   3.214   9.869 -1.2747 -0.4200 -0.9263
 3797SOL     OW23023   0.366   1.836   6.603 -0.3844 -0.2636  0.1392
 3797SOL    HW123024   0.400   1.765   6.549  0.7117 -0.2688  0.8491
 3797SOL    HW223025   0.374   1.906   6.539 -0.9811  0.3771  0.7541
 3798SOL     OW23026   4.220   3.007   6.211 -0.5040 -0.2381  0.1357
 3798SOL    HW123027   4.264   2.990   6.294 -1.4857  0.1110  0.7327
 3798SOL    HW223028   4.132   3.011   6.251  0.1473  1.9594  1.3886
 3799SOL     OW23029   2.720   2.839  11.339 -0.1406  0.1948  0.6123
 3799SOL    HW123030   2.665   2.917  11.345 -0.9298 -0.3068 -0.0065
 3799SOL    HW223031   2.742   2.825  11.431  1.7575 -0.3444  0.0833
 3800SOL     OW23032   1.314   3.264   1.722  0.4156 -0.7951 -0.8955
 3800SOL    HW123033   1.229   3.283   1.683  0.8403 -1.0197 -1.9499
 3800SOL    HW223034   1.362   3.257   1.639  0.2603 -2.2648 -0.8600
 3801SOL     OW23035   2.489   2.419  10.287 -0.8475  0.6495 -0.1957
 3801SOL    HW123036   2.527   2.374  10.212 -1.4233  0.9180 -0.6494
 3801SOL    HW223037   2.529   2.371  10.359  1.1621 -0.3516 -1.9835
 3802SOL     OW23038   1.686   4.683   3.713 -0.3091  0.2285 -0.2001
 3802SOL    HW123039   1.688   0.038   3.740 -0.8857  0.2007 -0.0728
 3802SOL    HW223040   1.661   4.695   3.621  0.7004  1.8531 -0.2759
 3803SOL     OW23041   2.982   4.091   8.733 -0.3483 -0.0232  0.0715
 3803SOL    HW123042   3.018   4.037   8.804  0.8602 -1.9039 -1.9779
 3803SOL    HW223043   3.014   4.174   8.769  0.0002  0.4609 -1.3892
 3804SOL     OW23044   1.607   0.202   6.024  0.4974  0.7683 -0.3871
 3804SOL    HW123045   1.599   0.144   5.948 -0.9464  1.3886 -0.7012
 3804SOL    HW223046   1.526   0.252   6.013  0.0352  0.2931  0.8397
 3805SOL     OW23047   0.698   4.732   7.719  0.4177 -1.0928 -0.1183
 3805SOL    HW123048   0.746   0.023   7.641  1.3201  2.3940  1.6912
 3805SOL    HW223049   0.767   0.016   7.782  2.0408 -0.0085 -2.2198
 3806SOL     OW23050   0.699   2.061  11.574  0.0966  0.3706  0.1250
 3806SOL    HW123051   0.659   2.034  11.491  1.6061 -2.5793  0.3905
 3806SOL    HW223052   0.789   2.072  11.543 -0.0626 -0.4703 -0.6296
 3807SOL     OW23053   2.912   4.448   8.735 -0.1387 -0.3398 -0.1809
 3807SOL    HW123054   2.919   4.454   8.830  0.8790  0.8347 -0.3322
 3807SOL    HW223055   3.006   4.456   8.716  0.1848 -1.3064  1.0243
 3808SOL     OW23056   1.442   2.253   4.708  0.3849 -0.8097 -0.1236
 3808SOL    HW123057   1.395   2.183   4.662  0.5294 -0.8745 -0.1731
 3808SOL    HW223058   1.462   2.320   4.642  0.2623  0.0103  0.6643
 3809SOL     OW23059   0.179   4.106  10.872 -0.2859 -0.1706 -0.7169
 3809SOL    HW123060   0.242   4.037  10.891 -4.8314 -3.3205  2.8394
 3809SOL    HW223061   0.183   4.166  10.946 -1.1016  1.4264 -1.9666
 3810SOL     OW23062   0.865   1.251   9.230  0.0840  0.4290 -0.9824
 3810SOL    HW123063   0.779   1.285   9.254  0.4792  0.1417  0.9051
 3810SOL    HW223064   0.842   1.235   9.139 -0.4474 -1.1951 -0.5746
 3811SOL     OW23065   0.957   3.556   4.991 -0.5230 -0.1659  0.2911
 3811SOL    HW123066   0.898   3.615   5.038 -1.2131  0.8659 -1.8487
 3811SOL    HW223067   0.897   3.524   4.923  0.9849 -1.9369 -0.2048
 3812SOL     OW23068   4.678   1.868  13.602  0.3955  0.7523  0.0617
 3812SOL    HW123069   4.653   1.916  13.522 -0.6083 -1.6548 -1.0758
 3812SOL    HW223070   4.593   1.861  13.646  0.3009 -1.2744 -0.4414
 3813SOL     OW23071   1.951   3.840   8.621 -0.1413 -0.5244 -0.0254
 3813SOL    HW123072   2.039   3.873   8.604 -1.0848  1.2082 -1.5790
 3813SOL    HW223073   1.901   3.914   8.657  4.0596  1.6252  1.5073
 3814SOL     OW23074   0.743   3.085   1.574  0.2680 -0.3092 -0.2899
 3814SOL    HW123075   0.649   3.099   1.575  0.1578 -0.8768 -2.5163
 3814SOL    HW223076   0.764   3.162   1.627 -2.4807  1.7835 -2.2585
 3815SOL     OW23077   3.779   0.902   5.205  0.0920 -0.6615  0.1332
 3815SOL    HW123078   3.751   0.851   5.129 -1.5360  0.8482 -0.2729
 3815SOL    HW223079   3.694   0.912   5.248  1.3459  0.0218  2.4265
 3816SOL     OW23080   3.688   0.261  10.338 -0.0564 -0.0274 -0.3121
 3816SOL    HW123081   3.651   0.243  10.252 -1.5701 -0.5911  0.4771
 3816SOL    HW223082   3.654   0.198  10.400  1.0842 -1.3424 -1.0257
 3817SOL     OW23083   2.899   1.548   4.133  0.3608 -0.4721  0.0520
 3817SOL    HW123084   2.812   1.525   4.101  0.4215  1.3761 -1.4416
 3817SOL    HW223085   2.894   1.635   4.173  3.2483  0.0259 -0.6223
 3818SOL     OW23086   1.575   3.968   9.876  0.2304 -0.4023 -0.1516
 3818SOL    HW123087   1.657   3.998   9.915  0.0227 -0.6464  0.4731
 3818SOL    HW223088   1.506   3.988   9.939  0.0220  0.6668 -0.7134
 3819SOL     OW23089   3.550   3.903   1.740 -0.2874 -0.1855 -0.1765
 3819SOL    HW123090   3.563   3.940   1.827 -1.9859 -1.0939  0.4723
 3819SOL    HW223091   3.543   3.812   1.770 -2.0676  0.2720  0.7892
 3820SOL     OW23092   2.165   0.566   5.098 -0.7327  0.9789 -0.4167
 3820SOL    HW123093   2.221   0.630   5.055 -0.2574  1.0534  0.3165
 3820SOL    HW223094   2.079   0.602   5.074 -1.0794  0.7172  0.4148
 3821SOL     OW23095   2.427   4.485   3.677 -0.1935  0.5024 -0.0044
 3821SOL    HW123096   2.359   4.453   3.736  0.1543  0.7596  0.5282
 3821SOL    HW223097   2.374   4.494   3.597  0.0980  1.5929 -0.0731
 3822SOL     OW23098   3.307   1.233   4.104  0.1798 -0.1940 -0.3154
 3822SOL    HW123099   3.310   1.329   4.095  1.0669 -0.2733 -0.8874
 3822SOL    HW223100   3.399   1.216   4.119  0.4630  2.1171  0.6598
 3823SOL     OW23101   0.417   1.694  11.377  0.3764  0.2872  0.6119
 3823SOL    HW123102   0.395   1.705  11.470  2.7606 -0.5925  1.2820
 3823SOL    HW223103   0.331   1.676  11.338  0.9006 -2.4994  0.8014
 3824SOL     OW23104   0.470   1.138  17.161  0.4232  0.1418  0.1348
 3824SOL    HW123105   0.402   1.204  17.147 -1.1149 -1.1790  1.4399
 3824SOL    HW223106   0.523   1.165  17.236  1.5466 -1.9723  0.1153
 3825SOL     OW23107   2.011   1.359   5.790  0.0400 -0.3256  0.0123
 3825SOL    HW123108   2.049   1.447   5.788  0.4926 -0.4707  2.3976
 3825SOL    HW223109   1.981   1.347   5.880  0.7111  0.5166  0.3496
 3826SOL     OW23110   2.876   0.888  12.998  0.0869  0.5541  0.2188
 3826SOL    HW123111   2.882   0.967  13.051  0.9343 -0.1430  1.1694
 3826SOL    HW223112   2.894   0.909  12.906 -0.5031 -1.2307 -0.3106
 3827SOL     OW23113   4.330   3.434   8.153  0.2133  0.3307  0.5979
 3827SOL    HW123114   4.424   3.435   8.139 -0.1452 -2.2527 -2.1438
 3827SOL    HW223115   4.304   3.467   8.067  3.3824 -0.2726 -0.6030
 3828SOL     OW23116   3.826   0.492  10.294  0.1074 -0.6563 -0.1847
 3828SOL    HW123117   3.766   0.540  10.237 -0.0713 -1.6917 -0.8866
 3828SOL    HW223118   3.763   0.426  10.325 -3.6210  2.8914 -0.2916
 3829SOL     OW23119   1.313   4.516  10.841  0.3052 -0.5458 -0.2147
 3829SOL    HW123120   1.330   4.610  10.842 -0.5392 -0.3924  0.3815
 3829SOL    HW223121   1.293   4.508  10.934  0.8929 -0.1072 -0.0530
 3830SOL     OW23122   2.378   0.176   7.324 -0.1401  0.3578  0.1814
 3830SOL    HW123123   2.431   0.256   7.326  0.6770 -0.1455 -1.4577
 3830SOL    HW223124   2.395   0.147   7.413  2.1198  0.8485 -0.0778
 3831SOL     OW23125   0.452   2.914   6.195 -0.5485  0.0440 -0.0803
 3831SOL    HW123126   0.530   2.921   6.140 -0.2101 -3.2131 -0.0298
 3831SOL    HW223127   0.374   2.931   6.141 -0.6694  0.3048  0.1771
 3832SOL     OW23128   0.178   0.108   9.036  0.2024 -0.3263 -0.2367
 3832SOL    HW123129   0.168   0.125   9.129 -2.7379  1.6075 -0.9291
 3832SOL    HW223130   0.137   0.185   8.998 -0.6397  0.2937  1.9905
 3833SOL     OW23131   2.579   1.731   3.252 -0.2758 -0.5500  0.7219
 3833SOL    HW123132   2.608   1.804   3.307 -0.7518  0.6765 -0.6617
 3833SOL    HW223133   2.638   1.668   3.294  0.4821 -0.3791 -0.0758
 3834SOL     OW23134   1.155   3.841   9.934 -0.3613  0.0619 -0.3794
 3834SOL    HW123135   1.219   3.816   9.867 -0.5572 -2.6950  0.4848
 3834SOL    HW223136   1.087   3.868   9.872 -0.6704  0.9112  0.3191
 3835SOL     OW23137   1.624   2.080   8.918 -0.4010 -0.1225 -0.7883
 3835SOL    HW123138   1.545   2.079   8.864  0.4823  0.7999 -2.0946
 3835SOL    HW223139   1.646   1.989   8.899 -2.6790 -1.2881  2.1672
 3836SOL     OW23140   3.804   0.262   7.623 -0.2688  0.6928 -0.1148
 3836SOL    HW123141   3.893   0.285   7.651 -0.0470  1.0320 -1.1205
 3836SOL    HW223142   3.765   0.345   7.598 -1.0794  0.4321  0.2881
 3837SOL     OW23143   0.316   4.266   5.478  0.1486 -0.7372 -0.3266
 3837SOL    HW123144   0.390   4.238   5.533 -0.0879  1.4047  1.1091
 3837SOL    HW223145   0.251   4.270   5.548 -2.2580 -1.8517 -2.5384
 3838SOL     OW23146   0.913   3.996   4.192 -0.1808 -0.1137  0.3459
 3838SOL    HW123147   0.823   4.027   4.184 -0.3524 -0.9854 -1.0914
 3838SOL    HW223148   0.940   4.022   4.280  2.6428  1.6655 -1.0487
 3839SOL     OW23149   0.214   0.749   8.664 -0.2431  0.0616  0.4174
 3839SOL    HW123150   0.163   0.769   8.585  0.3688 -1.2155 -0.2971
 3839SOL    HW223151   0.220   0.839   8.694 -2.1474  0.5324 -0.5821
 3840SOL     OW23152   2.862   2.043   0.398  0.0790 -0.6026 -0.4699
 3840SOL    HW123153   2.768   2.055   0.384 -0.0783  1.3235  2.3319
 3840SOL    HW223154   2.876   2.041   0.493  0.8184  0.1034 -0.5685
 3841SOL     OW23155   3.954   2.553   8.683  0.2041 -0.1856  0.4017
 3841SOL    HW123156   4.016   2.531   8.614 -1.2847  0.6333 -1.1810
 3841SOL    HW223157   3.934   2.462   8.704  0.8734 -0.6307 -0.8920
 3842SOL     OW23158   0.444   0.770   4.329 -0.7730 -0.0479 -0.2654
 3842SOL    HW123159   0.399   0.689   4.352 -0.5540 -0.3747 -0.9894
 3842SOL    HW223160   0.534   0.742   4.346 -0.6453  0.5682  0.0949
 3843SOL     OW23161   2.985   0.976   5.707 -0.0831 -0.1177 -0.1085
 3843SOL    HW123162   2.914   0.942   5.761  2.4184  0.3692  3.4843
 3843SOL    HW223163   2.942   1.042   5.652  0.2460 -2.0945 -2.7663
 3844SOL     OW23164   0.775   2.725   4.696  0.0634 -0.5094 -0.2403
 3844SOL    HW123165   0.792   2.645   4.746 -0.8850 -0.1681  0.6250
 3844SOL    HW223166   0.801   2.703   4.607  2.2005  0.0399  0.2683
 3845SOL     OW23167   2.075   3.369   5.698  0.1639  0.2913  0.6858
 3845SOL    HW123168   2.165   3.336   5.705 -0.6806 -2.4959 -1.5095
 3845SOL    HW223169   2.092   3.437   5.633 -0.7395 -0.0851  0.0501
 3846SOL     OW23170   0.369   0.424   0.621 -0.1803  0.0875 -0.0836
 3846SOL    HW123171   0.426   0.367   0.672  0.3065  1.2478  0.6581
 3846SOL    HW223172   0.401   0.512   0.643  2.7806 -1.0891  0.2627
 3847SOL     OW23173   0.939   1.772  11.605  0.3223 -0.0460 -0.2487
 3847SOL    HW123174   0.927   1.824  11.684 -1.5000  0.1893 -0.6620
 3847SOL    HW223175   0.914   1.694  11.654 -2.1210  1.0885  0.3097
 3848SOL     OW23176   3.139   1.355  15.498 -0.1218  0.0820 -0.0876
 3848SOL    HW123177   3.095   1.421  15.444  0.1671 -0.2465 -0.7330
 3848SOL    HW223178   3.103   1.279  15.452  0.2933  0.7881 -1.5877
 3849SOL     OW23179   2.706   0.331   6.177  0.4433  0.0273 -0.3126
 3849SOL    HW123180   2.743   0.302   6.260 -0.8116  2.5609  1.1240
 3849SOL    HW223181   2.611   0.322   6.184  0.4494 -0.9458 -1.4800
 3850SOL     OW23182   2.597   2.354   8.283 -0.3088  0.1424  0.6199
 3850SOL    HW123183   2.543   2.326   8.357 -1.4054 -0.6876 -0.4904
 3850SOL    HW223184   2.623   2.263   8.268 -1.2616 -0.3461  1.9690
 3851SOL     OW23185   3.219   2.829   5.482  0.0056  0.3611  0.0488
 3851SOL    HW123186   3.282   2.901   5.479 -0.4199  0.7708  0.8685
 3851SOL    HW223187   3.275   2.784   5.545  1.8173  0.6956 -1.3093
 3852SOL     OW23188   2.013   1.834   8.627  0.3954  0.6399  0.6939
 3852SOL    HW123189   1.950   1.846   8.557  2.0657 -0.8441 -1.0800
 3852SOL    HW223190   2.086   1.890   8.601  0.3657  0.4366  0.1794
 3853SOL     OW23191   2.200   1.318   6.603 -0.2428  0.0798 -0.4853
 3853SOL    HW123192   2.291   1.345   6.599 -0.3719  0.4968 -0.5801
 3853SOL    HW223193   2.216   1.229   6.636 -0.4596 -0.8201 -2.7953
 3854SOL     OW23194   3.892   2.857  11.009 -0.2128  0.2054  0.1912
 3854SOL    HW123195   3.891   2.789  10.941  1.0279  0.9218 -0.5374
 3854SOL    HW223196   3.959   2.922  10.985 -0.6144  0.1825 -1.0060
 3855SOL     OW23197   2.504   2.471   1.871 -0.2260 -0.0219  0.2203
 3855SOL    HW123198   2.538   2.436   1.789 -3.2201 -2.5554  0.0630
 3855SOL    HW223199   2.485   2.561   1.847  1.1528 -0.2183 -1.6262
 3856SOL     OW23200   2.592   2.850   5.355 -0.0347  0.0781 -1.1145
 3856SOL    HW123201   2.588   2.857   5.450 -0.1294  1.1519 -1.2043
 3856SOL    HW223202   2.512   2.799   5.341 -2.1344  2.8924  0.8035
 3857SOL     OW23203   2.354   0.558  12.600  0.0806 -0.4278 -0.5040
 3857SOL    HW123204   2.346   0.636  12.546 -1.2139  0.4220  0.8971
 3857SOL    HW223205   2.390   0.583  12.685 -0.2795  0.7558 -0.7030
 3858SOL     OW23206   0.198   2.437   4.689  0.7421  0.0563 -0.3032
 3858SOL    HW123207   0.192   2.385   4.609 -0.8366  2.5576 -1.7931
 3858SOL    HW223208   0.263   2.503   4.664 -1.4326  2.0714 -0.5523
 3859SOL     OW23209   3.741   1.756  16.644 -0.1707  0.4969  0.1446
 3859SOL    HW123210   3.779   1.765  16.731  0.2429 -0.9892  0.1275
 3859SOL    HW223211   3.798   1.812  16.591  0.8177 -0.4198  0.2184
 3860SOL     OW23212   4.141   1.545  16.409 -0.0508 -0.0424  0.2673
 3860SOL    HW123213   4.105   1.507  16.490  0.4689  0.5460  0.7724
 3860SOL    HW223214   4.185   1.624  16.439  0.4297  0.2133 -1.1187
 3861SOL     OW23215   4.422   4.546   8.728 -0.1169 -0.1709 -0.6459
 3861SOL    HW123216   4.430   4.628   8.777 -0.7516  0.2662 -1.2643
 3861SOL    HW223217   4.359   4.572   8.660 -1.0811 -0.8651 -0.0097
 3862SOL     OW23218   3.768   1.150   5.390  0.6036 -0.3055 -0.0834
 3862SOL    HW123219   3.721   1.209   5.449  0.3632 -0.7772  0.1887
 3862SOL    HW223220   3.716   1.070   5.392 -0.2411  0.2088 -1.2823
 3863SOL     OW23221   4.109   4.452   8.565  0.7113 -0.2541 -0.4681
 3863SOL    HW123222   4.201   4.438   8.540  0.6696  1.7037 -1.6436
 3863SOL    HW223223   4.101   4.547   8.574  1.8141 -0.1763 -0.2260
 3864SOL     OW23224   4.236   3.705   7.227  0.0324  0.2685  0.1091
 3864SOL    HW123225   4.159   3.668   7.270 -0.8239 -1.8574 -3.3241
 3864SOL    HW223226   4.259   3.634   7.167 -1.3521  0.0700 -0.1722
 3865SOL     OW23227   0.048   0.046  13.480 -0.0828  0.2288 -0.6441
 3865SOL    HW123228   0.098   0.118  13.442  2.1899 -1.8157 -1.5255
 3865SOL    HW223229   0.011   4.728  13.410  3.0949 -4.4689  1.3837
 3866SOL     OW23230   1.390   1.201   5.925 -0.2156 -0.2627  1.0526
 3866SOL    HW123231   1.416   1.240   5.841 -1.7886  3.0791  2.1116
 3866SOL    HW223232   1.360   1.281   5.967  2.6868  0.9002  0.9050
 3867SOL     OW23233   1.572   4.623   4.189  0.6590 -0.3600  0.1005
 3867SOL    HW123234   1.627   4.692   4.152  0.7487  0.3983  1.6861
 3867SOL    HW223235   1.585   4.635   4.283 -0.5705  0.0349  0.2140
 3868SOL     OW23236   3.456   0.173   2.070 -0.6461 -0.0204  0.5541
 3868SOL    HW123237   3.433   0.141   2.157  3.9012  1.0285  2.1601
 3868SOL    HW223238   3.512   0.105   2.032 -0.0147  1.3624 -1.0042
 3869SOL     OW23239   0.397   4.373   5.822 -0.8725  0.0271  0.8660
 3869SOL    HW123240   0.362   4.439   5.762 -0.2160 -0.9447 -0.5971
 3869SOL    HW223241   0.436   4.434   5.885  1.1250  0.0608 -0.3941
 3870SOL     OW23242   3.144   1.602   7.978 -0.4735 -0.0215 -0.2914
 3870SOL    HW123243   3.099   1.579   7.897 -2.4258  0.5254  0.6581
 3870SOL    HW223244   3.237   1.605   7.953 -0.8358  0.8335 -1.4921
 3871SOL     OW23245   2.832   3.715   6.033  0.1576  0.1320  0.3135
 3871SOL    HW123246   2.814   3.802   6.070 -1.4461  0.2069 -0.6215
 3871SOL    HW223247   2.767   3.656   6.072 -0.2045  0.5474  0.3499
 3872SOL     OW23248   2.559   1.403  16.847  0.3381  0.3389 -0.4488
 3872SOL    HW123249   2.511   1.410  16.930 -0.9294  1.3699 -1.2774
 3872SOL    HW223250   2.498   1.454  16.794 -0.8634 -0.1036  0.5311
 3873SOL     OW23251   2.654   2.735   7.794 -0.0382 -0.0354 -0.3083
 3873SOL    HW123252   2.731   2.711   7.741 -0.7129 -1.1589 -0.7839
 3873SOL    HW223253   2.680   2.791   7.867  1.4886 -0.5765 -0.4289
 3874SOL     OW23254   2.805   4.475   7.289  0.5302  0.4542 -0.2739
 3874SOL    HW123255   2.797   4.466   7.194 -1.4769  2.9849 -0.3590
 3874SOL    HW223256   2.899   4.487   7.302  0.2602  0.9058  1.2528
 3875SOL     OW23257   4.005   4.514   2.836 -0.1521 -0.3791 -0.2039
 3875SOL    HW123258   4.053   4.591   2.807  0.7841 -0.5144  0.9907
 3875SOL    HW223259   3.926   4.563   2.862 -0.0794 -0.1015 -0.5161
 3876SOL     OW23260   4.267   3.691   3.756 -0.3815  0.3350 -0.0574
 3876SOL    HW123261   4.362   3.684   3.759 -0.3395  1.0347  0.3362
 3876SOL    HW223262   4.248   3.650   3.840  0.0018  0.6251  0.1665
 3877SOL     OW23263   4.027   2.216  13.666  0.1944 -0.6551  0.1259
 3877SOL    HW123264   3.970   2.262  13.605  1.3344  2.4235  1.3704
 3877SOL    HW223265   4.030   2.267  13.747  0.3213 -0.6537  0.1211
 3878SOL     OW23266   2.006   3.613   9.916  0.1050  0.2096  0.5772
 3878SOL    HW123267   2.079   3.611   9.854 -0.7349 -1.5116 -0.3505
 3878SOL    HW223268   1.935   3.649   9.863  1.0267  0.4885 -0.4797
 3879SOL     OW23269   2.110   0.438   7.397  0.2851 -0.1554 -0.1889
 3879SOL    HW123270   2.126   0.380   7.471  0.1240  1.8906  1.4570
 3879SOL    HW223271   2.030   0.398   7.363 -1.4002  2.4764  0.6443
 3880SOL     OW23272   2.643   1.973   6.424  0.1550  0.3403  0.3022
 3880SOL    HW123273   2.688   2.037   6.371  0.7977 -0.7345 -0.4514
 3880SOL    HW223274   2.715   1.927   6.467  0.2776  0.5141  0.2801
 3881SOL     OW23275   3.560   0.824  10.389 -0.4744  0.2023 -0.7233
 3881SOL    HW123276   3.504   0.772  10.331  0.7882 -1.5797 -0.3524
 3881SOL    HW223277   3.649   0.805  10.358 -0.1327 -1.0255  1.0228
 3882SOL     OW23278   0.438   4.640  14.782 -0.2208  0.2240 -0.3164
 3882SOL    HW123279   0.462   4.592  14.703 -1.5366 -1.2253  0.1671
 3882SOL    HW223280   0.474   4.728  14.770  3.0948 -0.8558  1.7033
 3883SOL     OW23281   1.929   1.878   5.167 -0.2698 -0.3640 -0.0169
 3883SOL    HW123282   1.854   1.936   5.185 -1.6949 -1.2114 -3.3160
 3883SOL    HW223283   1.887   1.793   5.156 -0.6419 -0.2407  0.4489
 3884SOL     OW23284   2.946   0.118   5.175  0.0822  0.2736  0.4818
 3884SOL    HW123285   2.947   0.188   5.241  1.8106 -1.0726  1.8858
 3884SOL    HW223286   2.881   0.058   5.212 -1.3272  2.4175  1.4706
 3885SOL     OW23287   0.043   4.133   6.820  0.1412  0.0708  0.6667
 3885SOL    HW123288   0.051   4.173   6.906 -0.3593  0.1031  0.6975
 3885SOL    HW223289   0.094   4.193   6.765 -1.4237  0.3484 -0.4925
 3886SOL     OW23290   2.358   4.147   7.871 -0.3333 -0.1924 -0.2742
 3886SOL    HW123291   2.274   4.192   7.878 -0.2192  0.0440 -0.4604
 3886SOL    HW223292   2.374   4.150   7.777  0.5985 -0.4892 -0.1263
 3887SOL     OW23293   4.473   0.208   6.903  0.1504 -0.2215 -0.2660
 3887SOL    HW123294   4.446   0.293   6.939 -2.1817 -0.2470 -1.9311
 3887SOL    HW223295   4.390   0.163   6.917  0.4235 -0.2796  1.1471
 3888SOL     OW23296   1.219   0.066  12.546 -0.1112  0.3881  0.1622
 3888SOL    HW123297   1.283   0.007  12.507 -2.5562 -2.2496  0.0984
 3888SOL    HW223298   1.133   0.027  12.528  0.3987 -0.9508  0.6020
 3889SOL     OW23299   2.562   1.083   8.771 -0.0271  0.1417  0.5078
 3889SOL    HW123300   2.613   1.006   8.747 -1.1197 -0.5005  0.2302
 3889SOL    HW223301   2.485   1.040   8.808 -0.9630  0.6820 -0.8032
 3890SOL     OW23302   0.491   1.604   6.480 -0.0006  0.0861 -0.0191
 3890SOL    HW123303   0.534   1.673   6.430 -0.2962  0.0157 -0.3640
 3890SOL    HW223304   0.434   1.568   6.413 -0.5540  0.5817  0.1860
 3891SOL     OW23305   2.770   0.839   3.484  0.1187 -0.1469 -0.0541
 3891SOL    HW123306   2.854   0.830   3.530 -0.3560 -1.1484  0.6426
 3891SOL    HW223307   2.733   0.926   3.496 -1.2406 -1.0848  2.7639
 3892SOL     OW23308   3.915   1.308   4.142  0.2709 -0.1554  0.2144
 3892SOL    HW123309   3.824   1.339   4.142  0.6525  0.9551  0.3305
 3892SOL    HW223310   3.936   1.314   4.049  0.4113  2.2131  0.4168
 3893SOL     OW23311   1.308   1.741  11.759 -0.2214 -0.2675  0.1681
 3893SOL    HW123312   1.376   1.696  11.809  0.2185  1.7459  1.3712
 3893SOL    HW223313   1.364   1.794  11.702 -3.2562  2.4715 -0.2433
 3894SOL     OW23314   1.771   2.593  10.773  0.5449  0.2127  0.1450
 3894SOL    HW123315   1.755   2.688  10.780  2.2902  0.4674  0.5723
 3894SOL    HW223316   1.830   2.581  10.698 -1.2865 -0.9396 -1.1060
 3895SOL     OW23317   2.598   0.146   3.800  0.1411  0.2677  0.0292
 3895SOL    HW123318   2.659   0.128   3.871 -0.1441 -1.8791 -0.2956
 3895SOL    HW223319   2.642   0.095   3.732 -0.9568 -0.2563 -0.2829
 3896SOL     OW23320   0.682   0.903   4.770 -0.6868  0.3185  0.1553
 3896SOL    HW123321   0.691   0.971   4.703 -0.3164  0.9487  0.8471
 3896SOL    HW223322   0.728   0.829   4.731 -2.5914 -0.1413 -1.2307
 3897SOL     OW23323   1.906   1.579   6.140 -0.4060 -0.0870 -0.1548
 3897SOL    HW123324   1.827   1.587   6.087 -0.0455  0.8963 -0.5406
 3897SOL    HW223325   1.884   1.627   6.220  0.8027  1.0661 -0.5288
 3898SOL     OW23326   2.658   2.553   5.754 -0.1478  0.1813 -0.1718
 3898SOL    HW123327   2.627   2.462   5.757 -0.2148  0.0764 -5.1701
 3898SOL    HW223328   2.576   2.602   5.748  0.6321  1.4639 -0.3436
 3899SOL     OW23329   1.318   4.194  17.545 -0.1591  0.0293 -0.1608
 3899SOL    HW123330   1.257   4.258  17.508 -1.5218 -0.7588  0.7224
 3899SOL    HW223331   1.401   4.241  17.542  0.3127 -0.7852  0.1772
 3900SOL     OW23332   1.745   2.869   2.216 -0.0738  0.8955  0.3206
 3900SOL    HW123333   1.790   2.890   2.297 -0.3158  0.4215  0.5752
 3900SOL    HW223334   1.788   2.786   2.199  0.9526  1.3514  0.6766
 3901SOL     OW23335   0.406   4.163   9.084 -0.3323 -0.3433  0.7318
 3901SOL    HW123336   0.440   4.222   9.151 -1.9391  0.1747  1.0871
 3901SOL    HW223337   0.323   4.211   9.082 -1.0869 -1.6732 -0.6295
 3902SOL     OW23338   4.363   3.444  12.465 -0.4739 -0.0271 -0.1665
 3902SOL    HW123339   4.316   3.436  12.548  0.7161  0.3239  0.5402
 3902SOL    HW223340   4.290   3.466  12.408 -1.8994 -2.0785  0.8884
 3903SOL     OW23341   4.149   4.155  14.497 -0.0654 -0.2761  0.0954
 3903SOL    HW123342   4.080   4.156  14.430 -0.6486 -0.9492  0.6865
 3903SOL    HW223343   4.133   4.232  14.552  1.9287  0.6320 -0.6060
 3904SOL     OW23344   1.136   0.110   8.727  0.5723  0.2446 -0.0225
 3904SOL    HW123345   1.197   0.168   8.681  0.5753 -0.7709 -1.2906
 3904SOL    HW223346   1.046   0.137   8.708  0.6786 -0.2033 -1.1911
 3905SOL     OW23347   4.713   2.188   5.938 -0.3462  0.2111 -0.3942
 3905SOL    HW123348   4.662   2.216   6.014  1.2887  0.3717  0.6437
 3905SOL    HW223349   4.707   2.260   5.875  4.9690  0.6215 -0.3872
 3906SOL     OW23350   0.419   2.642   5.312  0.3317  0.3814 -0.0966
 3906SOL    HW123351   0.338   2.648   5.362  1.2351  1.6510  1.2044
 3906SOL    HW223352   0.474   2.634   5.390 -0.3561 -3.1885  0.0412
 3907SOL     OW23353   2.361   2.366   9.558  0.4968  0.7266  0.8259
 3907SOL    HW123354   2.417   2.441   9.538  0.5696  1.0144  2.0965
 3907SOL    HW223355   2.417   2.309   9.612 -0.4576 -2.0708 -1.1388
 3908SOL     OW23356   3.174   3.119   5.331 -0.4910 -0.2587 -0.2057
 3908SOL    HW123357   3.246   3.100   5.391 -1.3105  3.4631  1.9426
 3908SOL    HW223358   3.173   3.213   5.316  1.2603  0.0376  1.5037
 3909SOL     OW23359   4.713   0.431   3.306  0.0533  0.3133  0.0486
 3909SOL    HW123360   4.652   0.445   3.234  2.5873 -0.9375 -2.3646
 3909SOL    HW223361   4.708   0.513   3.355 -1.8789 -0.5344  1.2619
 3910SOL     OW23362   1.780   1.798  15.394 -0.1780  0.3365  0.0915
 3910SOL    HW123363   1.768   1.764  15.483 -1.7562 -0.6999 -0.5174
 3910SOL    HW223364   1.697   1.844  15.399 -1.1034 -1.4064  0.7483
 3911SOL     OW23365   0.219   4.196  14.518 -0.1314  0.0411  0.3015
 3911SOL    HW123366   0.220   4.112  14.471 -2.6206  1.7937 -2.8914
 3911SOL    HW223367   0.135   4.227  14.485 -0.0783 -0.4826 -0.3182
 3912SOL     OW23368   3.278   4.716  14.139 -0.0133  0.5576 -0.6616
 3912SOL    HW123369   3.222   4.643  14.110  0.6061 -0.1161 -0.1754
 3912SOL    HW223370   3.235   0.057  14.104  0.0229 -0.6461 -3.4063
 3913SOL     OW23371   3.704   4.600  12.565  0.2953  0.0833 -0.2313
 3913SOL    HW123372   3.720   4.656  12.641 -0.6960  0.3987 -0.2531
 3913SOL    HW223373   3.635   4.547  12.606  0.3762  0.1247 -0.0429
 3914SOL     OW23374   1.234   4.715   2.507 -0.4302 -0.6614  0.2305
 3914SOL    HW123375   1.157   4.696   2.561 -1.0617 -1.3474 -0.9223
 3914SOL    HW223376   1.281   4.633   2.519  0.4671  0.3044  3.3226
 3915SOL     OW23377   0.261   1.253   6.636 -0.3504 -0.0714  0.2258
 3915SOL    HW123378   0.349   1.265   6.670 -0.0564 -1.3686 -0.0750
 3915SOL    HW223379   0.211   1.331   6.660  0.0954  0.3899 -0.3574
 3916SOL     OW23380   4.549   2.241   2.206 -0.4208  0.0618 -0.3669
 3916SOL    HW123381   4.492   2.288   2.267  0.0494 -0.3541  0.3951
 3916SOL    HW223382   4.554   2.298   2.130 -1.5403 -1.7047 -1.7721
 3917SOL     OW23383   0.327   3.522  12.121  0.5056  0.5098 -0.2214
 3917SOL    HW123384   0.339   3.512  12.027  0.3627 -0.7307 -0.1148
 3917SOL    HW223385   0.357   3.434  12.144  3.3014  1.5822  0.1816
 3918SOL     OW23386   0.523   0.223   1.996 -0.3396  0.3327  0.0452
 3918SOL    HW123387   0.432   0.193   1.992  0.6411 -2.5639 -0.8394
 3918SOL    HW223388   0.507   0.305   2.043  3.4600 -1.1730  3.9022
 3919SOL     OW23389   0.113   1.560   4.367  0.1261  0.5684  0.1030
 3919SOL    HW123390   0.207   1.544   4.366 -0.0486 -0.6869  3.2872
 3919SOL    HW223391   0.102   1.655   4.374  2.6581  0.7664  1.4278
 3920SOL     OW23392   1.158   1.973  11.817 -0.0745  0.1361 -0.2650
 3920SOL    HW123393   1.197   1.888  11.795  0.7495  0.4630 -0.0442
 3920SOL    HW223394   1.146   2.017  11.733  1.1993  0.6041 -0.2020
 3921SOL     OW23395   0.929   0.973   4.880 -0.0249  0.6584  0.1904
 3921SOL    HW123396   0.836   0.974   4.860  0.1067 -1.3888 -0.5241
 3921SOL    HW223397   0.929   1.063   4.911 -1.7941  0.9866 -0.8027
 3922SOL     OW23398   1.802   3.419   9.162 -0.4143  0.3624 -0.5209
 3922SOL    HW123399   1.749   3.342   9.186 -3.1916  1.8134 -1.9523
 3922SOL    HW223400   1.729   3.481   9.161  0.9210  1.9375  0.4313
 3923SOL     OW23401   3.429   0.317  16.933 -0.2983 -0.4840 -0.4876
 3923SOL    HW123402   3.495   0.249  16.934 -1.0123 -1.1247  2.1334
 3923SOL    HW223403   3.480   0.394  16.908 -0.9046  0.7124  1.9825
 3924SOL     OW23404   1.100   3.266   1.555 -0.2944 -0.3875  0.4487
 3924SOL    HW123405   1.022   3.251   1.608 -0.8479  1.2651  0.1069
 3924SOL    HW223406   1.079   3.341   1.499  0.2797  0.8176  1.8516
 3925SOL     OW23407   3.404   0.681   1.798 -0.0500 -0.2127  0.7318
 3925SOL    HW123408   3.403   0.740   1.873  1.0698  1.3296 -0.4840
 3925SOL    HW223409   3.498   0.674   1.783 -0.3065 -1.5130 -0.2979
 3926SOL     OW23410   3.955   0.737  12.188 -0.4139 -0.6806 -0.3169
 3926SOL    HW123411   3.968   0.650  12.226 -1.3021  0.0880  1.7311
 3926SOL    HW223412   3.947   0.781  12.273  0.9276  0.7670 -0.9411
 3927SOL     OW23413   1.726   0.449   7.233 -0.5901  0.6208  0.8057
 3927SOL    HW123414   1.676   0.377   7.195  1.4006  0.3351 -1.3250
 3927SOL    HW223415   1.793   0.463   7.165 -2.0941 -2.2940 -1.2432
 3928SOL     OW23416   3.577   0.089   0.467  0.1600  0.3726 -0.0171
 3928SOL    HW123417   3.508   0.077   0.402 -0.3964 -0.5828  0.7330
 3928SOL    HW223418   3.543   0.169   0.506  0.8796 -0.1929  1.7992
 3929SOL     OW23419   3.642   4.172  16.271  0.3574 -0.2124 -0.1217
 3929SOL    HW123420   3.651   4.248  16.329  0.5977 -1.5028  1.5186
 3929SOL    HW223421   3.717   4.184  16.212  0.7246  1.4699  0.6804
 3930SOL     OW23422   0.328   1.312   1.941  0.3671  0.0096 -0.6762
 3930SOL    HW123423   0.344   1.258   2.019  0.8743 -1.0771 -1.5337
 3930SOL    HW223424   0.405   1.368   1.944 -0.2781  0.8203  0.9842
 3931SOL     OW23425   1.122   1.411   9.668  0.2048  0.2672 -0.5492
 3931SOL    HW123426   1.129   1.502   9.699 -0.9803  0.0557  0.3269
 3931SOL    HW223427   1.068   1.425   9.591 -1.1582 -1.9494  0.0099
 3932SOL     OW23428   2.778   4.187   4.065  0.2023  0.0428 -0.5714
 3932SOL    HW123429   2.802   4.097   4.042  2.5578  0.6284 -0.3975
 3932SOL    HW223430   2.785   4.220   3.975 -1.3879  0.6295 -0.4737
 3933SOL     OW23431   0.625   0.431   7.574  0.1842 -0.1720 -0.4652
 3933SOL    HW123432   0.545   0.398   7.534  0.5457 -1.5442 -0.0498
 3933SOL    HW223433   0.650   0.504   7.517 -3.7678  0.5239 -1.2900
 3934SOL     OW23434   1.240   4.383  11.390  0.2477 -0.3080 -0.0837
 3934SOL    HW123435   1.278   4.359  11.474  0.8308  0.3725 -0.1511
 3934SOL    HW223436   1.314   4.428  11.349 -1.3189  1.0234 -1.4789
 3935SOL     OW23437   0.247   3.341   1.180  0.4683  0.6795  0.5124
 3935SOL    HW123438   0.174   3.372   1.234 -0.3219  2.7994 -1.7923
 3935SOL    HW223439   0.316   3.339   1.247  1.3535 -0.0057 -0.4106
 3936SOL     OW23440   0.077   2.614   8.950  0.1105 -0.2644 -0.0028
 3936SOL    HW123441   0.049   2.692   8.998  0.4200 -2.6733  4.1547
 3936SOL    HW223442   0.168   2.612   8.979  0.1470  1.0039 -0.0254
 3937SOL     OW23443   3.339   2.758   3.197 -0.0504  0.0288 -0.4574
 3937SOL    HW123444   3.290   2.720   3.124  0.1834 -0.4005 -0.3885
 3937SOL    HW223445   3.408   2.692   3.202 -1.2812 -1.2618 -0.4854
 3938SOL     OW23446   1.488   3.156   1.539  0.2259  0.2722  0.5537
 3938SOL    HW123447   1.512   3.166   1.447 -0.4267 -0.1381  0.3375
 3938SOL    HW223448   1.567   3.189   1.582  0.6757 -0.0804 -0.0116
 3939SOL     OW23449   0.630   4.600   7.032 -0.2614  0.3912 -0.3526
 3939SOL    HW123450   0.542   4.564   7.041  0.1033 -0.4804 -0.2370
 3939SOL    HW223451   0.657   4.595   7.123 -1.3592  0.4618 -0.0220
 3940SOL     OW23452   1.549   2.360   1.020 -0.1415 -0.2470 -0.2890
 3940SOL    HW123453   1.589   2.427   1.077 -2.4066  1.3225 -0.5143
 3940SOL    HW223454   1.516   2.296   1.083  2.6032 -0.5726  0.8209
 3941SOL     OW23455   1.302   3.761   9.728 -0.0711 -0.2260 -0.1730
 3941SOL    HW123456   1.356   3.697   9.773 -2.2620  0.7243  3.8405
 3941SOL    HW223457   1.293   3.742   9.635  0.5029  1.8891 -0.6706
 3942SOL     OW23458   2.018   3.164   3.109  0.0951  0.2984 -0.2448
 3942SOL    HW123459   1.929   3.129   3.120  1.0733 -1.1319  3.2091
 3942SOL    HW223460   2.047   3.175   3.200 -3.0376 -0.8627  0.9148
 3943SOL     OW23461   4.547   0.895   2.297  0.5260  0.0331  0.3785
 3943SOL    HW123462   4.616   0.860   2.354  1.1024  2.6606  1.3144
 3943SOL    HW223463   4.600   0.893   2.217  0.8343  0.1379  0.5825
 3944SOL     OW23464   1.367   1.024  11.687  0.3743  0.0074  0.3774
 3944SOL    HW123465   1.425   0.961  11.731 -0.8801 -0.4733  1.3437
 3944SOL    HW223466   1.343   1.063  11.770  2.4959  0.7690  0.6317
 3945SOL     OW23467   3.833   2.730  11.312  0.1327 -0.0400 -0.2856
 3945SOL    HW123468   3.880   2.755  11.232 -1.8527  0.6316 -1.2240
 3945SOL    HW223469   3.875   2.790  11.375 -0.1685 -2.0334  1.8361
 3946SOL     OW23470   2.217   4.556   7.112  0.2212  0.0603 -0.1666
 3946SOL    HW123471   2.124   4.570   7.130  0.2206  1.9956 -1.6994
 3946SOL    HW223472   2.232   4.646   7.085  1.1952  0.5013  1.8691
 3947SOL     OW23473   1.025   3.819   7.591 -0.2709  0.0294 -0.3871
 3947SOL    HW123474   0.969   3.783   7.523 -0.3672 -1.3459  0.4186
 3947SOL    HW223475   0.991   3.788   7.675  2.4504 -0.4437  0.5453
 3948SOL     OW23476   1.327   3.848  10.704 -0.5012 -0.5259 -0.7285
 3948SOL    HW123477   1.293   3.937  10.699  1.6504  0.2834 -1.0155
 3948SOL    HW223478   1.251   3.790  10.698 -0.2110 -1.2977  2.9105
 3949SOL     OW23479   3.815   2.838  11.776  0.3355 -0.4508  0.0215
 3949SOL    HW123480   3.893   2.818  11.828  0.3935  1.5649  0.7164
 3949SOL    HW223481   3.855   2.799  11.698  0.9419  3.2529 -1.4915
 3950SOL     OW23482   4.184   4.506   8.241 -0.3784 -0.4967 -0.4626
 3950SOL    HW123483   4.244   4.564   8.193  1.4201 -1.3573  0.7195
 3950SOL    HW223484   4.210   4.530   8.330 -1.2250 -1.8962  0.1580
 3951SOL     OW23485   0.838   0.337   8.872 -0.7285 -0.2342 -0.0200
 3951SOL    HW123486   0.849   0.295   8.787 -0.4224 -1.3613  0.5776
 3951SOL    HW223487   0.871   0.426   8.855 -1.3424  0.5215  2.7540
 3952SOL     OW23488   2.856   2.610   2.225  0.0280  0.1361 -0.1946
 3952SOL    HW123489   2.908   2.628   2.146 -1.2787 -1.4609 -1.4257
 3952SOL    HW223490   2.781   2.573   2.178  1.6225 -2.2172 -0.9277
 3953SOL     OW23491   3.451   1.119  11.427  0.1135 -0.0176  0.6125
 3953SOL    HW123492   3.453   1.212  11.404 -1.1652  0.3149  1.8593
 3953SOL    HW223493   3.409   1.104  11.511 -0.6418  1.0731  0.4377
 3954SOL     OW23494   2.501   1.102   0.274  0.0752  0.2701 -0.0715
 3954SOL    HW123495   2.414   1.064   0.258  0.7240  0.2572 -3.4482
 3954SOL    HW223496   2.548   1.086   0.192 -3.3180  0.9591 -2.1487
 3955SOL     OW23497   3.814   1.478   4.665  0.1585  0.3338  0.0236
 3955SOL    HW123498   3.838   1.568   4.689  1.8769 -0.5572  1.6413
 3955SOL    HW223499   3.826   1.427   4.745  0.8790  0.8231  0.2320
 3956SOL     OW23500   4.440   2.773  14.138 -0.6325 -0.0286  0.0643
 3956SOL    HW123501   4.443   2.847  14.199 -2.7477 -1.8123  2.3339
 3956SOL    HW223502   4.523   2.727  14.154 -1.0922 -1.2254 -1.0122
 3957SOL     OW23503   0.324   2.497   9.064  0.9113  0.4231  0.2680
 3957SOL    HW123504   0.293   2.409   9.042 -0.0699  1.0393 -0.8314
 3957SOL    HW223505   0.379   2.470   9.137  0.6239  2.8138  1.3889
 3958SOL     OW23506   0.688   2.611   3.541  0.6377  0.1638 -0.1628
 3958SOL    HW123507   0.599   2.576   3.532  0.5090  0.6143 -0.7207
 3958SOL    HW223508   0.728   2.580   3.622  1.1026  0.5056 -0.2608
 3959SOL     OW23509   0.425   0.265   6.993  0.0548  0.4985 -0.0840
 3959SOL    HW123510   0.491   0.201   7.019  1.0091  1.9355  1.0716
 3959SOL    HW223511   0.342   0.227   7.021  0.9080 -3.0319 -2.4103
 3960SOL     OW23512   0.771   4.266   5.267 -0.0810  0.2655 -0.0227
 3960SOL    HW123513   0.718   4.278   5.189 -2.3706  0.8940  1.6204
 3960SOL    HW223514   0.746   4.179   5.298  0.4711 -0.2568 -1.0420
 3961SOL     OW23515   0.154   3.500   2.447  0.0326  0.1800  0.3070
 3961SOL    HW123516   0.182   3.409   2.433  1.8153  0.6876  0.6089
 3961SOL    HW223517   0.104   3.507   2.528 -0.2193 -0.4305  0.2040
 3962SOL     OW23518   3.347   0.379   2.247 -0.2058  0.4039  0.4021
 3962SOL    HW123519   3.402   0.419   2.315  0.9992 -2.5791  1.2310
 3962SOL    HW223520   3.405   0.391   2.171 -1.5634 -0.1360 -0.7180
 3963SOL     OW23521   3.269   3.446   5.989 -0.4509 -0.2189  0.1524
 3963SOL    HW123522   3.315   3.515   5.941 -0.8011 -0.9122 -1.1770
 3963SOL    HW223523   3.284   3.376   5.926  1.5715  0.8137 -0.5111
 3964SOL     OW23524   3.934   4.299   7.226 -0.9741 -0.8457  0.1124
 3964SOL    HW123525   3.935   4.268   7.316  0.6235  1.7483  0.9722
 3964SOL    HW223526   3.989   4.377   7.232 -0.4806 -1.1827 -0.0526
 3965SOL     OW23527   2.746   0.719  15.769  0.4111 -0.0907 -0.2324
 3965SOL    HW123528   2.736   0.624  15.762 -2.0551  0.1235  0.4412
 3965SOL    HW223529   2.677   0.753  15.713 -0.6520  1.1847  1.8292
 3966SOL     OW23530   2.673   2.463   2.103 -0.4282 -0.3517  0.2282
 3966SOL    HW123531   2.652   2.388   2.159  0.1125 -1.3315 -0.8968
 3966SOL    HW223532   2.604   2.468   2.037  0.0554 -0.1448 -0.2627
 3967SOL     OW23533   3.636   2.888  15.833  0.1131 -0.0469 -0.4432
 3967SOL    HW123534   3.709   2.941  15.862 -0.4940  0.0228  0.9378
 3967SOL    HW223535   3.638   2.915  15.741 -0.6194 -1.3036 -0.8396
 3968SOL     OW23536   2.075   1.811   7.177 -0.1196 -0.0161 -0.4738
 3968SOL    HW123537   2.148   1.869   7.198  0.5123 -1.4283  1.2418
 3968SOL    HW223538   2.134   1.737   7.160  1.6845  1.1711  0.6051
 3969SOL     OW23539   0.467   1.058   6.340  0.3401 -0.1788  0.5267
 3969SOL    HW123540   0.444   0.969   6.365  0.8888 -0.2427  0.7972
 3969SOL    HW223541   0.558   1.065   6.369  0.4759  1.0221 -0.1643
 3970SOL     OW23542   1.750   0.572   1.769  0.1549  0.3464  0.2137
 3970SOL    HW123543   1.791   0.515   1.704 -0.3453  1.0760 -0.7536
 3970SOL    HW223544   1.722   0.502   1.827  2.4834 -1.2941 -0.6478
 3971SOL     OW23545   3.733   0.032   0.084 -0.2873 -0.2309 -0.3595
 3971SOL    HW123546   3.647   4.727   0.092  1.1972 -3.2269  0.2351
 3971SOL    HW223547   3.787   4.691   0.098 -1.0126 -0.9015 -1.2397
 3972SOL     OW23548   0.498   3.710   5.765  0.0112 -0.3326 -0.1176
 3972SOL    HW123549   0.495   3.802   5.791  0.7820 -0.2287 -0.4022
 3972SOL    HW223550   0.406   3.716   5.739  0.3073 -0.2470 -1.1464
 3973SOL     OW23551   2.788   3.750   5.755 -0.5042 -0.1067  0.2086
 3973SOL    HW123552   2.828   3.708   5.832  0.3708 -1.4174 -0.9774
 3973SOL    HW223553   2.864   3.785   5.709 -0.4327 -0.5744 -0.0292
 3974SOL     OW23554   0.633   0.778   4.045 -0.5365  0.3305  0.2529
 3974SOL    HW123555   0.681   0.758   4.125  0.5532 -2.6608 -1.1480
 3974SOL    HW223556   0.685   0.719   3.991 -0.8212  2.0826 -1.9427
 3975SOL     OW23557   1.150   0.612   6.321  0.3971  0.2905 -0.0846
 3975SOL    HW123558   1.065   0.617   6.365  1.1594 -0.4349  1.4687
 3975SOL    HW223559   1.132   0.550   6.251 -0.5371  0.4114  0.0538
 3976SOL     OW23560   2.591   2.362   2.999 -0.3214  0.3760 -0.1752
 3976SOL    HW123561   2.613   2.299   2.930  0.3726  0.2209  0.1898
 3976SOL    HW223562   2.497   2.372   2.982 -0.2872  0.0551 -0.5578
 3977SOL     OW23563   0.016   1.521   9.435  0.7158 -0.0556  0.5077
 3977SOL    HW123564   0.022   1.469   9.355 -0.8566  1.0427 -0.3106
 3977SOL    HW223565   0.080   1.591   9.418  0.8754 -0.7329 -1.6287
 3978SOL     OW23566   0.311   2.583   1.604  0.3934  0.5220 -0.0823
 3978SOL    HW123567   0.291   2.530   1.682  0.0160  3.1555  1.6169
 3978SOL    HW223568   0.397   2.616   1.629  0.5013 -0.3196  0.6782
 3979SOL     OW23569   3.381   2.257   5.290  0.2776  0.0893  0.3450
 3979SOL    HW123570   3.294   2.287   5.266  0.0514  0.5404  1.7259
 3979SOL    HW223571   3.437   2.334   5.285  1.7296 -1.0508 -1.1214
 3980SOL     OW23572   1.301   1.232   8.512 -0.7384  0.3392  0.0363
 3980SOL    HW123573   1.394   1.244   8.490 -1.1804  0.3567 -1.7548
 3980SOL    HW223574   1.297   1.257   8.605 -0.8160  0.1143  0.0940
 3981SOL     OW23575   4.728   4.675   9.256 -0.2122  0.2682  0.7144
 3981SOL    HW123576   4.668   4.651   9.186  1.4448  0.7712 -0.9056
 3981SOL    HW223577   4.688   4.647   9.338 -0.8333  0.1633  0.3740
 3982SOL     OW23578   3.505   4.220   5.873  0.1380 -0.3272  0.2087
 3982SOL    HW123579   3.508   4.307   5.914  2.0832 -0.5931  0.6524
 3982SOL    HW223580   3.497   4.241   5.780  0.9174  0.9152  0.4179
 3983SOL     OW23581   0.226   0.501   1.975 -0.1885 -0.7027  0.2062
 3983SOL    HW123582   0.286   0.493   2.049  3.0996  2.9913 -2.0429
 3983SOL    HW223583   0.288   0.555   1.926  0.5107 -0.5656  1.2679
 3984SOL     OW23584   2.803   1.588   0.689  0.2677 -0.4656 -0.0843
 3984SOL    HW123585   2.896   1.564   0.687  0.1266 -0.8776 -2.9281
 3984SOL    HW223586   2.765   1.524   0.750  0.0762 -0.8845 -0.6360
 3985SOL     OW23587   1.620   4.180   6.960 -0.9911 -0.1876  0.1863
 3985SOL    HW123588   1.701   4.131   6.951 -0.9839 -0.2246  0.4343
 3985SOL    HW223589   1.614   4.176   7.056  0.9589  1.8674  0.3912
 3986SOL     OW23590   3.172   2.616   5.001 -0.7835  0.4475 -0.3740
 3986SOL    HW123591   3.256   2.624   4.955  0.4774  1.0785  2.0819
 3986SOL    HW223592   3.119   2.597   4.923 -0.1680  2.4100 -1.2598
 3987SOL     OW23593   0.746   3.725   9.860  0.7818 -0.0663 -0.2808
 3987SOL    HW123594   0.808   3.743   9.789 -0.2897 -0.5193 -1.3244
 3987SOL    HW223595   0.789   3.783   9.923 -0.2456 -2.0594  2.2499
 3988SOL     OW23596   4.622   1.176  12.248  0.3305 -0.4950 -0.1587
 3988SOL    HW123597   4.598   1.126  12.325 -0.1283 -2.0308 -1.2977
 3988SOL    HW223598   4.549   1.238  12.238 -0.0870 -0.9785 -0.0939
 3989SOL     OW23599   2.230   1.014  11.676  0.2254  0.5229  0.4674
 3989SOL    HW123600   2.284   1.093  11.674  0.3108  0.5183  3.2654
 3989SOL    HW223601   2.285   0.959  11.619 -1.0435  0.3888 -0.6045
 3990SOL     OW23602   1.291   2.518   1.069  0.3124 -0.2015  0.0578
 3990SOL    HW123603   1.261   2.607   1.048  0.4252 -0.4279 -1.0746
 3990SOL    HW223604   1.370   2.497   1.019 -0.7466 -1.8657 -0.9140
 3991SOL     OW23605   3.140   2.033  17.202  0.9768 -1.0093 -0.0704
 3991SOL    HW123606   3.129   1.980  17.123 -1.1809  1.8618 -1.6980
 3991SOL    HW223607   3.202   1.976  17.249 -0.8249 -0.5411  2.8899
 3992SOL     OW23608   4.250   1.583  10.418 -0.6934 -0.4283 -0.0273
 3992SOL    HW123609   4.185   1.652  10.407 -0.7083 -0.8484 -2.6592
 3992SOL    HW223610   4.283   1.559  10.331  0.0363  0.6740 -0.0534
 3993SOL     OW23611   2.527   0.458   4.677  0.1033 -0.2023 -0.6305
 3993SOL    HW123612   2.586   0.385   4.697 -0.2420  0.3510  2.4471
 3993SOL    HW223613   2.444   0.412   4.674 -0.6337  1.2282 -2.1197
 3994SOL     OW23614   3.637   0.869  15.361 -0.0648  0.2541  0.2881
 3994SOL    HW123615   3.666   0.933  15.426 -1.2366  1.7753 -0.6890
 3994SOL    HW223616   3.545   0.861  15.386  0.2197  2.3445  1.9660
 3995SOL     OW23617   1.237   0.757   7.045  0.2705  0.2522  0.6779
 3995SOL    HW123618   1.281   0.789   6.966 -0.9057 -0.7442 -0.3730
 3995SOL    HW223619   1.149   0.787   7.024  1.1910  1.0870 -1.9490
 3996SOL     OW23620   0.228   4.341   6.723 -0.2309 -0.7202  0.1862
 3996SOL    HW123621   0.318   4.349   6.690 -0.6612 -1.3868 -1.1585
 3996SOL    HW223622   0.183   4.395   6.658  1.0599 -0.8530 -0.8337
 3997SOL     OW23623   1.309   1.500   5.443 -0.4850 -1.1317 -0.5501
 3997SOL    HW123624   1.298   1.452   5.525  2.4803  2.3948  1.8944
 3997SOL    HW223625   1.220   1.525   5.417 -0.4936  0.2226  0.7693
 3998SOL     OW23626   4.451   4.361   5.097  0.1959  0.2926  0.2939
 3998SOL    HW123627   4.477   4.434   5.040 -0.0693 -0.4707 -0.7990
 3998SOL    HW223628   4.440   4.288   5.036 -0.4797  0.2692  0.4462
 3999SOL     OW23629   0.121   2.864   3.833 -0.4711 -0.6490 -0.2219
 3999SOL    HW123630   0.128   2.818   3.750 -1.1840 -1.1771  0.0137
 3999SOL    HW223631   0.168   2.798   3.885 -0.8172 -0.2425  0.6146
 4000SOL     OW23632   3.637   2.160   5.562 -0.0521 -0.2916 -0.1453
 4000SOL    HW123633   3.567   2.225   5.573 -0.0964 -0.0468 -1.7995
 4000SOL    HW223634   3.623   2.103   5.637  0.8173  1.3639  1.2758
 4001SOL     OW23635   1.492   3.163   1.917  0.5371 -0.3637  0.0902
 4001SOL    HW123636   1.410   3.185   1.872 -0.0930 -3.0199 -0.0750
 4001SOL    HW223637   1.542   3.241   1.895 -2.2571  1.4639  0.1553
 4002SOL     OW23638   0.564   3.890  11.265 -0.1515 -0.4377 -0.1950
 4002SOL    HW123639   0.634   3.942  11.304  0.0922 -1.2763  0.4837
 4002SOL    HW223640   0.548   3.834  11.340 -1.2009 -3.2458 -2.5307
 4003SOL     OW23641   4.393   1.552   8.297  0.2160  0.8642 -0.1333
 4003SOL    HW123642   4.379   1.512   8.212 -0.7771  0.1406  0.3630
 4003SOL    HW223643   4.308   1.593   8.312 -1.1706 -1.1589 -2.5446
 4004SOL     OW23644   4.061   4.580   4.160  0.3579 -0.0511 -0.3200
 4004SOL    HW123645   4.156   4.587   4.165  0.3892 -0.4732 -0.3261
 4004SOL    HW223646   4.049   4.673   4.177  2.4921 -0.0020  0.8622
 4005SOL     OW23647   2.887   0.511   9.350 -0.0792  0.3093  0.4312
 4005SOL    HW123648   2.924   0.452   9.416  2.7119 -0.1632 -1.5360
 4005SOL    HW223649   2.962   0.560   9.316 -0.4495  0.7379  0.2365
 4006SOL     OW23650   0.614   2.318   4.719  0.2043 -0.2865  0.1567
 4006SOL    HW123651   0.542   2.290   4.775 -0.2307 -0.0615 -0.2983
 4006SOL    HW223652   0.572   2.275   4.645 -0.5470  0.7099  0.0100
 4007SOL     OW23653   0.997   4.105   4.836 -0.1816 -0.0065 -0.5103
 4007SOL    HW123654   1.034   4.138   4.918 -2.1838  0.8055  0.0405
 4007SOL    HW223655   1.020   4.178   4.778  3.0732 -1.4153 -1.0363
 4008SOL     OW23656   3.919   4.523   3.402 -0.2704 -0.7145  0.4947
 4008SOL    HW123657   4.012   4.499   3.393  0.0709  0.9409 -0.3187
 4008SOL    HW223658   3.925   4.594   3.466  0.0302 -0.7278  0.4816
 4009SOL     OW23659   3.926   0.339   3.771  0.3941  0.8167 -0.1676
 4009SOL    HW123660   3.862   0.269   3.784  0.8969  0.0816 -1.7290
 4009SOL    HW223661   3.951   0.341   3.864  1.6864  0.4011 -0.5125
 4010SOL     OW23662   3.964   0.335  15.631 -0.3889  0.3568 -0.4235
 4010SOL    HW123663   3.936   0.404  15.691  0.2504 -0.6101  0.9644
 4010SOL    HW223664   3.880   0.293  15.617  0.1523  0.0083 -2.6661
 4011SOL     OW23665   3.093   4.494   6.979  0.1294  0.1519 -0.0350
 4011SOL    HW123666   2.999   4.486   6.969  0.2472 -1.1444 -0.1806
 4011SOL    HW223667   3.099   4.463   7.069  1.4332  0.2934 -0.0615
 4012SOL     OW23668   1.469   1.985   1.799 -0.2074 -0.4820  0.2010
 4012SOL    HW123669   1.564   1.984   1.804 -0.1734  0.6909 -0.2597
 4012SOL    HW223670   1.457   2.010   1.707 -2.2276 -0.8065  0.3642
 4013SOL     OW23671   0.872   3.023   8.441  0.3168 -0.1360 -0.1370
 4013SOL    HW123672   0.941   3.078   8.476 -0.7430 -0.2141  2.1274
 4013SOL    HW223673   0.816   3.000   8.516  3.4280 -0.4702  2.0471
 4014SOL     OW23674   0.898   3.464   5.357 -0.3502 -0.4707  0.5175
 4014SOL    HW123675   0.893   3.452   5.452 -1.1642 -0.1485  0.5157
 4014SOL    HW223676   0.835   3.395   5.335 -0.2600 -0.8073  1.3225
 4015SOL     OW23677   3.989   4.575   6.019  0.8179 -0.0716  0.1143
 4015SOL    HW123678   4.052   4.633   6.062 -0.3707  1.1152  0.2708
 4015SOL    HW223679   4.024   4.488   6.035 -0.2812 -0.3444  0.9710
 4016SOL     OW23680   0.507   2.187   0.885  0.0914  0.3769 -0.4037
 4016SOL    HW123681   0.485   2.277   0.908  3.1253  1.0741 -0.3080
 4016SOL    HW223682   0.583   2.207   0.830 -0.0262 -0.2474 -0.7960
 4017SOL     OW23683   4.217   1.049   6.123 -0.5286 -0.2190 -0.0592
 4017SOL    HW123684   4.295   1.101   6.105 -2.0404  2.3079  0.8443
 4017SOL    HW223685   4.154   1.083   6.059 -0.6030 -0.1616  0.0446
 4018SOL     OW23686   4.259   4.181   3.540 -0.3184 -0.6065 -0.7681
 4018SOL    HW123687   4.240   4.273   3.525  1.3940  0.0286  0.9111
 4018SOL    HW223688   4.349   4.164   3.513  0.5872  0.3555  1.6744
 4019SOL     OW23689   2.623   4.549   9.316  0.0668 -0.6645 -0.1185
 4019SOL    HW123690   2.542   4.567   9.268  0.2601  0.4878 -0.0319
 4019SOL    HW223691   2.586   4.508   9.394 -1.5104  0.1023 -0.4607
 4020SOL     OW23692   2.706   1.177  16.631  0.0262  0.1441 -0.1177
 4020SOL    HW123693   2.754   1.170  16.714  1.0118 -1.1594 -0.8029
 4020SOL    HW223694   2.770   1.222  16.577  1.6623  0.0903  1.7495
 4021SOL     OW23695   2.284   4.563   0.439  1.0090 -0.0849 -0.0357
 4021SOL    HW123696   2.350   4.505   0.478 -0.9091 -1.9666  0.4340
 4021SOL    HW223697   2.287   4.638   0.499  1.7268 -1.5562  1.8054
 4022SOL     OW23698   1.967   0.211   2.142 -0.2441 -0.2898  0.0659
 4022SOL    HW123699   2.027   0.144   2.110  0.5086 -0.4910  1.8838
 4022SOL    HW223700   1.910   0.165   2.203  2.2539  0.3852  2.9134
 4023SOL     OW23701   4.595   1.094   0.163  0.5419  0.0498  0.1841
 4023SOL    HW123702   4.651   1.091   0.241 -0.3315  0.3042  0.8272
 4023SOL    HW223703   4.527   1.153   0.196 -0.8902 -1.7164  0.3843
 4024SOL     OW23704   3.458   0.309   0.557  0.1290  0.1269 -0.5059
 4024SOL    HW123705   3.483   0.387   0.607 -2.4207 -0.1007  1.0930
 4024SOL    HW223706   3.364   0.308   0.572  0.3893 -1.5585  1.0296
 4025SOL     OW23707   3.886   0.924  15.013 -0.5291 -0.8900  0.3084
 4025SOL    HW123708   3.805   0.975  15.008  0.5442  0.7468 -0.6547
 4025SOL    HW223709   3.895   0.905  15.106 -1.8739 -0.0582  0.6098
 4026SOL     OW23710   4.680   3.053   5.861 -0.1450  0.5802 -0.0185
 4026SOL    HW123711   4.699   2.978   5.804 -3.2632  1.3439 -2.0307
 4026SOL    HW223712   4.588   3.067   5.840 -0.0050  1.6196  0.0670
 4027SOL     OW23713   2.977   0.154   6.275 -0.3759 -0.6392  0.0244
 4027SOL    HW123714   2.953   0.141   6.184 -0.0288 -0.6806 -0.0610
 4027SOL    HW223715   2.973   0.074   6.327 -0.2111 -1.5880 -1.4366
 4028SOL     OW23716   1.240   0.945   9.207 -0.0158  0.5650  0.4015
 4028SOL    HW123717   1.312   0.893   9.244  0.1260  0.6391  0.2310
 4028SOL    HW223718   1.264   1.032   9.238  0.8034  0.5092 -0.0513
 4029SOL     OW23719   0.005   1.134  17.604  0.3039  0.0290 -0.1005
 4029SOL    HW123720   0.097   1.141  17.581  0.3064 -2.8403 -0.9899
 4029SOL    HW223721   4.708   1.076  17.535  2.4503 -0.2851 -0.8815
 4030SOL     OW23722   1.372   0.831   8.099 -0.4822 -0.0086  0.0213
 4030SOL    HW123723   1.321   0.766   8.146 -0.0090 -1.4515 -1.4663
 4030SOL    HW223724   1.457   0.790   8.107 -0.4084 -0.3357 -2.4174
 4031SOL     OW23725   3.861   0.165   8.028  0.1726  0.2546 -0.4324
 4031SOL    HW123726   3.890   0.074   8.018 -1.9201 -0.3870 -0.7305
 4031SOL    HW223727   3.767   0.154   8.038 -0.1521  1.5383 -1.9790
 4032SOL     OW23728   0.147   0.382   6.613 -1.3948  0.2137 -0.1288
 4032SOL    HW123729   0.114   0.346   6.695 -0.4405  0.5723  0.4142
 4032SOL    HW223730   0.074   0.445   6.608  0.7275  2.7632  0.9665
 4033SOL     OW23731   1.588   3.769  13.038  0.1488  0.5566  0.3787
 4033SOL    HW123732   1.572   3.715  12.960  0.0646 -0.5981  1.1897
 4033SOL    HW223733   1.534   3.847  13.025  0.2025  0.1301 -2.4931
 4034SOL     OW23734   1.904   2.437   5.245 -0.0302 -0.2198  0.0268
 4034SOL    HW123735   1.941   2.351   5.224  2.1327  0.2962  1.7153
 4034SOL    HW223736   1.940   2.498   5.180 -1.5262 -0.1514 -0.7403
 4035SOL     OW23737   1.701   0.349   1.951  0.2129 -1.0378  0.7350
 4035SOL    HW123738   1.684   0.303   2.033 -1.0864 -0.3809  0.8362
 4035SOL    HW223739   1.676   0.281   1.888  0.0571 -1.8000  1.6262
 4036SOL     OW23740   4.091   1.139   4.323 -0.4091 -0.0124  0.2837
 4036SOL    HW123741   4.113   1.166   4.412  0.7042  2.1795 -0.6513
 4036SOL    HW223742   4.019   1.195   4.294  0.6867  1.3474  0.2216
 4037SOL     OW23743   1.216   0.080   2.153  0.2938  0.1389  0.0425
 4037SOL    HW123744   1.278   0.045   2.216 -0.0916  0.0503  0.3705
 4037SOL    HW223745   1.127   0.065   2.185 -0.3652  0.7346 -1.5085
 4038SOL     OW23746   4.023   0.030  12.634  0.1155 -0.2973  0.1418
 4038SOL    HW123747   4.049   0.122  12.644 -0.1480 -0.2228  0.1267
 4038SOL    HW223748   3.975   0.003  12.712 -0.6029 -0.6955 -0.4382
 4039SOL     OW23749   1.888   0.355   7.029  0.0800 -0.5261 -0.1331
 4039SOL    HW123750   1.905   0.404   6.948 -0.7310 -0.5711 -0.3292
 4039SOL    HW223751   1.813   0.305   6.997  0.0350 -0.9360  0.6290
 4040SOL     OW23752   0.088   0.975  15.613  0.0520 -0.2721  0.0337
 4040SOL    HW123753   0.164   1.002  15.562 -1.4112  2.2056 -0.8193
 4040SOL    HW223754   0.093   0.880  15.599 -1.6856 -0.0417 -2.1724
 4041SOL     OW23755   0.089   4.492  12.236  0.3611 -0.3277  0.1449
 4041SOL    HW123756   0.084   4.397  12.247 -2.0403 -0.0303  1.5313
 4041SOL    HW223757   0.179   4.507  12.206  0.8342  0.2584  1.8234
 4042SOL     OW23758   2.508   3.762   7.060 -0.3117  0.1663 -0.0793
 4042SOL    HW123759   2.558   3.739   6.981 -2.3804 -1.6632 -0.8395
 4042SOL    HW223760   2.489   3.672   7.088  0.7233 -0.6356 -1.9266
 4043SOL     OW23761   3.716   0.089   8.287 -0.7730 -0.2940 -0.2929
 4043SOL    HW123762   3.767   0.143   8.348 -0.1032 -1.6216  0.3179
 4043SOL    HW223763   3.770   0.011   8.297 -0.5542  0.1289  1.8625
 4044SOL     OW23764   0.647   2.447   0.447 -0.1161  0.6442  0.0615
 4044SOL    HW123765   0.655   2.352   0.442 -2.5200  0.4288  0.3347
 4044SOL    HW223766   0.739   2.461   0.468 -0.0099 -1.2250  0.8337
 4045SOL     OW23767   0.967   3.877   2.881 -0.2061  0.2178 -0.0233
 4045SOL    HW123768   0.952   3.895   2.788 -0.0485 -0.2445 -0.1418
 4045SOL    HW223769   0.880   3.885   2.921  0.9309  1.5587  2.1438
 4046SOL     OW23770   2.914   1.714   9.319 -0.2520 -0.1495  0.3628
 4046SOL    HW123771   2.836   1.769   9.318  0.8918  1.4966  1.7079
 4046SOL    HW223772   2.937   1.726   9.227  2.9910  0.2952  1.2397
 4047SOL     OW23773   0.385   3.549   7.679  0.5740  0.2080  0.0996
 4047SOL    HW123774   0.358   3.490   7.750  1.5954 -0.5310 -0.1389
 4047SOL    HW223775   0.327   3.525   7.607  0.7645 -0.0112  0.0189
 4048SOL     OW23776   0.823   3.481   4.297  0.1662 -0.0729  0.0579
 4048SOL    HW123777   0.808   3.571   4.269 -0.9320 -0.0222  0.7804
 4048SOL    HW223778   0.739   3.447   4.328 -0.0833  0.7033  0.2217
 4049SOL     OW23779   4.566   3.254   6.283 -0.1950  0.0129  0.2043
 4049SOL    HW123780   4.629   3.276   6.214  0.4681 -1.6941  0.2607
 4049SOL    HW223781   4.524   3.174   6.250  0.9614 -0.8873  0.8827
 4050SOL     OW23782   4.112   0.191   9.652 -0.0678  0.5987  0.3735
 4050SOL    HW123783   4.064   0.176   9.571  1.5399  0.5800 -0.5775
 4050SOL    HW223784   4.065   0.157   9.728  1.0871 -1.7088  0.0773
 4051SOL     OW23785   4.157   2.204   2.678  0.3161 -0.0561  0.3423
 4051SOL    HW123786   4.070   2.186   2.644 -0.2486 -0.8219  2.1753
 4051SOL    HW223787   4.188   2.115   2.695  0.2108  0.3000  2.4436
 4052SOL     OW23788   3.238   0.669   3.365  0.1958 -0.6624  0.0308
 4052SOL    HW123789   3.196   0.659   3.450 -0.1640  0.8145  0.0327
 4052SOL    HW223790   3.320   0.620   3.374 -0.2164 -1.4252 -0.3321
 4053SOL     OW23791   0.139   1.008   9.971  0.4548  0.2070  0.3019
 4053SOL    HW123792   0.048   1.010   9.943  0.7214 -0.7163 -0.6286
 4053SOL    HW223793   0.182   1.077   9.920  2.7818 -1.7803 -0.4211
 4054SOL     OW23794   4.532   4.497   3.231  0.1610  0.1508  0.2683
 4054SOL    HW123795   4.495   4.543   3.156 -0.3529 -0.3301  0.2198
 4054SOL    HW223796   4.613   4.547   3.236  1.2910 -1.5141 -1.2605
 4055SOL     OW23797   0.242   4.194   1.647 -0.0565 -0.3199 -0.0241
 4055SOL    HW123798   0.279   4.112   1.614  1.8802 -0.6644  3.0455
 4055SOL    HW223799   0.305   4.256   1.611 -0.6979  0.9994  1.1023
 4056SOL     OW23800   3.521   1.378  11.998  0.2056  0.3070 -0.3418
 4056SOL    HW123801   3.518   1.439  11.924  1.2643  1.5136  0.6078
 4056SOL    HW223802   3.476   1.301  11.965  1.2019 -0.4850  0.1285
 4057SOL     OW23803   2.208   3.576   2.074 -0.1584  0.2056  0.5627
 4057SOL    HW123804   2.209   3.550   1.981  0.1099  1.9530  0.0722
 4057SOL    HW223805   2.299   3.606   2.084  0.2852 -0.3032 -1.7617
 4058SOL     OW23806   4.259   3.592  16.501  0.3192 -0.1266  0.1497
 4058SOL    HW123807   4.234   3.642  16.579  1.2148  0.3907  0.1140
 4058SOL    HW223808   4.188   3.529  16.492  1.5522 -1.6350  0.9248
 4059SOL     OW23809   0.323   3.767  12.420  0.1804 -0.2559 -0.6893
 4059SOL    HW123810   0.303   3.676  12.400 -0.7562 -0.5114  1.4204
 4059SOL    HW223811   0.245   3.809  12.385  0.5587  0.0608 -1.1572
 4060SOL     OW23812   0.607   0.757   5.038 -0.0454  0.1936 -0.7606
 4060SOL    HW123813   0.559   0.729   4.960  1.5689  0.0571 -1.6939
 4060SOL    HW223814   0.564   0.841   5.052  0.5309  0.1473  1.3053
 4061SOL     OW23815   2.579   4.482   2.833  0.0134 -0.2733 -0.1081
 4061SOL    HW123816   2.673   4.465   2.825 -0.0040 -0.9172  1.0079
 4061SOL    HW223817   2.577   4.524   2.919 -1.5890  1.1584 -0.8544
 4062SOL     OW23818   4.161   2.448   7.789  0.1968  0.4403  0.1784
 4062SOL    HW123819   4.099   2.518   7.768  0.6046  1.2601  1.7379
 4062SOL    HW223820   4.222   2.504   7.837  1.0510  0.2734 -0.7270
 4063SOL     OW23821   2.759   2.492   7.603 -0.2507 -0.0206  0.7019
 4063SOL    HW123822   2.821   2.545   7.554  0.5761 -1.1851  0.4879
 4063SOL    HW223823   2.806   2.458   7.679 -2.1480  1.3203  2.4651
 4064SOL     OW23824   0.090   2.120   4.299  0.2730 -0.2778  0.9298
 4064SOL    HW123825   0.022   2.065   4.259 -0.8131  1.1190  0.8465
 4064SOL    HW223826   0.132   2.149   4.218  0.0460 -0.5836  0.7047
 4065SOL     OW23827   0.836   3.271   6.015  0.2155  0.0450  0.4495
 4065SOL    HW123828   0.899   3.293   5.947 -3.3001 -0.0394 -2.8514
 4065SOL    HW223829   0.771   3.342   6.015  0.0924 -0.0591 -2.2051
 4066SOL     OW23830   3.413   3.105   7.731  0.2046 -0.4295  0.2247
 4066SOL    HW123831   3.387   3.014   7.743 -1.5488  0.0348 -0.0254
 4066SOL    HW223832   3.500   3.098   7.692 -0.2823  1.3399 -1.2392
 4067SOL     OW23833   3.163   0.228  17.155 -0.2474  0.1430 -0.0952
 4067SOL    HW123834   3.190   0.312  17.119 -1.5250  1.0024  0.9637
 4067SOL    HW223835   3.234   0.173  17.122 -1.2991 -1.4053  0.2139
 4068SOL     OW23836   1.906   1.395  10.540  0.0947  0.2740 -0.3407
 4068SOL    HW123837   1.831   1.345  10.572  1.3631 -0.3888  1.6021
 4068SOL    HW223838   1.904   1.472  10.596  3.0366  0.6589 -0.7575
 4069SOL     OW23839   2.680   1.084   1.380 -0.4828 -0.4074 -0.1610
 4069SOL    HW123840   2.685   1.179   1.378 -0.1602 -0.4057  1.0621
 4069SOL    HW223841   2.595   1.064   1.340 -0.3052  1.7116 -1.5676
 4070SOL     OW23842   1.414   0.741   7.570  0.7103  0.1223 -0.3850
 4070SOL    HW123843   1.367   0.799   7.629  2.8970  2.2358 -0.6936
 4070SOL    HW223844   1.469   0.693   7.633  0.5054  1.0890  0.5363
 4071SOL     OW23845   4.649   3.618   7.071  0.5590  0.3043  0.6040
 4071SOL    HW123846   4.656   3.644   7.163 -0.9085  0.0314  0.7871
 4071SOL    HW223847   4.575   3.559   7.065  0.6596  0.5053 -2.8065
 4072SOL     OW23848   0.096   4.553   0.093  0.1496  0.0116 -0.5399
 4072SOL    HW123849   0.134   4.466   0.105  3.2046  1.5014  0.8592
 4072SOL    HW223850   0.161   4.592   0.152 -0.1414  0.7087 -0.6876
 4073SOL     OW23851   2.512   0.360   1.320  0.5855 -0.1328 -0.1193
 4073SOL    HW123852   2.563   0.337   1.242  0.3213 -0.0856 -0.3042
 4073SOL    HW223853   2.453   0.420   1.274  0.5168 -0.8143 -0.9269
 4074SOL     OW23854   1.657   4.551   1.349  0.0712 -0.2238  0.9015
 4074SOL    HW123855   1.612   4.550   1.265 -1.2851 -0.9432  1.6389
 4074SOL    HW223856   1.730   4.608   1.325  0.2540 -1.2053 -0.8626
 4075SOL     OW23857   3.795   2.652   2.342  0.4271  0.0120 -0.2787
 4075SOL    HW123858   3.818   2.619   2.255 -1.4156  0.2713 -0.8658
 4075SOL    HW223859   3.842   2.735   2.350  1.3649 -0.4024 -1.7020
 4076SOL     OW23860   4.408   0.650   2.723 -0.6103  0.6725  0.2284
 4076SOL    HW123861   4.421   0.736   2.762 -0.8506  0.8348 -0.0541
 4076SOL    HW223862   4.391   0.658   2.629  1.3460  0.2483 -0.1608
 4077SOL     OW23863   4.080   1.618   3.799 -0.2301 -0.5567  0.3237
 4077SOL    HW123864   4.126   1.650   3.876 -0.5487 -1.1532  0.7579
 4077SOL    HW223865   4.041   1.697   3.762  2.5423  0.4606 -0.4325
 4078SOL     OW23866   1.479   3.576   9.863 -0.5413 -0.0106 -0.1709
 4078SOL    HW123867   1.482   3.590   9.957 -1.7993 -0.0175 -0.1300
 4078SOL    HW223868   1.515   3.487   9.859 -0.5687 -0.0207 -0.1975
 4079SOL     OW23869   1.441   1.068  17.370 -0.0021  0.1065 -0.1030
 4079SOL    HW123870   1.492   1.146  17.349 -0.6764  0.6727  0.3576
 4079SOL    HW223871   1.380   1.065  17.296 -0.4206  4.1022  0.0948
 4080SOL     OW23872   3.636   0.341   1.969 -0.5831  0.0942 -0.4133
 4080SOL    HW123873   3.618   0.328   1.876  0.9412 -0.1821 -0.6675
 4080SOL    HW223874   3.563   0.296   2.012  0.7033 -0.6038  1.0501
 4081SOL     OW23875   4.251   1.815   8.784 -0.6757 -0.4566  0.7821
 4081SOL    HW123876   4.340   1.785   8.803  0.0535  0.9543 -0.3863
 4081SOL    HW223877   4.204   1.809   8.867  2.1485 -2.3727  2.2525
 4082SOL     OW23878   3.273   2.349  13.522  0.6305  0.0898  0.2109
 4082SOL    HW123879   3.245   2.277  13.466  2.6725 -0.2409 -0.3887
 4082SOL    HW223880   3.217   2.420  13.490  0.6740 -0.7144 -1.6212
 4083SOL     OW23881   4.352   3.582   3.232  0.4266  0.6337  0.4260
 4083SOL    HW123882   4.394   3.502   3.263  0.4477 -0.2559 -1.9076
 4083SOL    HW223883   4.315   3.620   3.311 -2.8331 -1.1142 -0.2495
 4084SOL     OW23884   1.922   1.968   8.295 -0.3932  0.3394 -0.0602
 4084SOL    HW123885   1.973   2.049   8.304  0.5013 -0.4402  1.8676
 4084SOL    HW223886   1.980   1.918   8.237 -1.2774  1.7051 -2.1077
 4085SOL     OW23887   3.067   2.849   8.073  0.2554 -0.1165  0.2576
 4085SOL    HW123888   3.102   2.936   8.056  1.1125 -0.7831 -1.4396
 4085SOL    HW223889   3.144   2.797   8.097 -1.0489 -1.5130  1.4622
 4086SOL     OW23890   3.055   0.213   4.675 -0.0274 -0.1976 -0.2021
 4086SOL    HW123891   3.046   0.177   4.763 -0.6826 -1.2671 -0.7037
 4086SOL    HW223892   3.148   0.197   4.664 -0.0830  1.1091 -2.6167
 4087SOL     OW23893   0.440   2.431   0.853 -0.0694 -0.2984 -0.3092
 4087SOL    HW123894   0.441   2.443   0.758  0.5041  2.7357  0.0902
 4087SOL    HW223895   0.509   2.491   0.882  2.1783 -1.2344 -3.5888
 4088SOL     OW23896   3.888   1.913   4.138 -0.1025  0.4464  0.0870
 4088SOL    HW123897   3.809   1.899   4.191 -0.6240 -1.4876 -1.2008
 4088SOL    HW223898   3.870   1.992   4.087  0.4199  0.3186 -0.2955
 4089SOL     OW23899   1.452   1.790   2.416  0.2586 -0.3052  0.1626
 4089SOL    HW123900   1.544   1.812   2.401  0.5131 -0.9799  0.7277
 4089SOL    HW223901   1.464   1.766   2.508  1.2233  0.7787  0.3198
 4090SOL     OW23902   0.156   0.945  14.951  0.1011 -0.4429  0.1164
 4090SOL    HW123903   0.144   0.864  14.902  1.7208 -1.4437  1.3635
 4090SOL    HW223904   0.127   0.915  15.037  1.2290 -0.3385  0.5357
 4091SOL     OW23905   1.816   2.179   1.516  0.3237 -0.2890  0.6661
 4091SOL    HW123906   1.777   2.093   1.531 -0.0128 -0.0164  1.3767
 4091SOL    HW223907   1.894   2.151   1.469 -0.0193 -1.0486  0.5511
 4092SOL     OW23908   2.783   3.080   8.606  0.1371 -0.0598  0.0671
 4092SOL    HW123909   2.816   3.027   8.678 -0.7754 -1.9147 -0.8753
 4092SOL    HW223910   2.723   3.026   8.555  0.8330 -2.5076  1.8765
 4093SOL     OW23911   4.582   1.650   9.604  0.0437  0.6132  0.2276
 4093SOL    HW123912   4.622   1.590   9.541  1.1727  1.8065 -0.1756
 4093SOL    HW223913   4.623   1.630   9.688 -0.1633 -0.4533  0.0825
 4094SOL     OW23914   2.854   4.049   6.103 -0.5554 -0.3048  0.0868
 4094SOL    HW123915   2.777   4.017   6.055 -0.2259  0.4586 -0.9469
 4094SOL    HW223916   2.870   4.132   6.058  1.2355 -0.5879  0.2160
 4095SOL     OW23917   0.067   1.523   2.186  0.3354 -0.1137  0.8854
 4095SOL    HW123918   0.011   1.600   2.200 -0.2062  0.0770 -2.3538
 4095SOL    HW223919   0.150   1.565   2.163 -0.1376  1.7355  2.5558
 4096SOL     OW23920   4.103   1.144   7.055  0.5330  0.3161  0.2690
 4096SOL    HW123921   4.180   1.094   7.080 -1.7325 -2.0909  2.4363
 4096SOL    HW223922   4.122   1.222   7.107 -2.1008  1.0503  0.1586
 4097SOL     OW23923   2.629   2.077  16.861 -0.3773 -0.5613 -0.0997
 4097SOL    HW123924   2.535   2.091  16.846 -0.3198 -0.6461 -0.5646
 4097SOL    HW223925   2.654   2.137  16.930  0.8778  0.3487 -1.3508
 4098SOL     OW23926   2.756   0.265   2.752 -0.3848 -0.3772 -0.6432
 4098SOL    HW123927   2.797   0.179   2.763 -0.4526 -0.3974 -0.5485
 4098SOL    HW223928   2.740   0.252   2.658 -2.6795  1.6422 -0.5245
 4099SOL     OW23929   3.045   4.432   2.398  0.0321 -0.4072 -0.2060
 4099SOL    HW123930   3.093   4.514   2.408 -1.5098  0.7233 -1.8918
 4099SOL    HW223931   3.121   4.383   2.366  0.9471  0.8399  0.0641
 4100SOL     OW23932   1.834   1.860  16.760 -0.2989 -0.4493  0.1463
 4100SOL    HW123933   1.799   1.780  16.721 -2.6416  0.2965  0.7094
 4100SOL    HW223934   1.914   1.824  16.796 -0.8239 -1.4547  0.3100
 4101SOL     OW23935   1.237   4.322   5.393  0.3765  0.1906  0.0583
 4101SOL    HW123936   1.217   4.239   5.436 -2.1667 -0.6401 -2.7179
 4101SOL    HW223937   1.273   4.293   5.309  0.1586  0.9241 -0.2828
 4102SOL     OW23938   1.947   3.383   1.890 -0.1869  0.2397  0.1995
 4102SOL    HW123939   1.891   3.306   1.900 -0.7410  0.8325  1.6430
 4102SOL    HW223940   2.015   3.369   1.955  1.1160 -2.5901 -1.7941
 4103SOL     OW23941   2.784   1.725   1.357 -0.4365 -0.3757  0.1877
 4103SOL    HW123942   2.849   1.756   1.420 -0.5346 -0.3885  0.2947
 4103SOL    HW223943   2.713   1.693   1.412 -1.2323  3.0259  1.0887
 4104SOL     OW23944   0.237   2.537   9.725 -0.4588 -0.0423 -0.0688
 4104SOL    HW123945   0.159   2.493   9.691 -1.3926  2.0606 -0.5912
 4104SOL    HW223946   0.199   2.624   9.728  3.4302  1.6391  0.3644
 4105SOL     OW23947   4.007   0.704   9.662 -0.2979  0.2427 -0.0083
 4105SOL    HW123948   4.066   0.664   9.598 -0.5794 -1.0824  0.5395
 4105SOL    HW223949   3.922   0.669   9.635 -0.9866  0.9023  1.3508
 4106SOL     OW23950   3.210   2.290  15.347 -0.9092 -0.0503 -0.0467
 4106SOL    HW123951   3.223   2.254  15.434 -0.3802  0.0881 -0.0699
 4106SOL    HW223952   3.237   2.382  15.354 -1.7616  0.1334  0.7622
 4107SOL     OW23953   1.328   3.243   3.797 -0.4375 -0.5276 -0.4499
 4107SOL    HW123954   1.243   3.287   3.803 -0.3896 -0.5772  0.6524
 4107SOL    HW223955   1.305   3.163   3.751  0.2428 -1.6416  1.1493
 4108SOL     OW23956   2.272   1.603   7.151 -0.0918  0.4019 -0.4807
 4108SOL    HW123957   2.337   1.636   7.089  0.0234  0.5353 -0.2921
 4108SOL    HW223958   2.289   1.510   7.159 -0.4676  0.3102 -0.7653
 4109SOL     OW23959   1.502   3.527   2.639 -0.7864  0.2579 -0.8699
 4109SOL    HW123960   1.461   3.441   2.635 -0.4705 -0.0167  1.4749
 4109SOL    HW223961   1.455   3.578   2.705 -1.7562  0.3943 -1.6728
 4110SOL     OW23962   2.077   0.096   8.379 -0.1769  0.7513 -0.3792
 4110SOL    HW123963   2.116   0.176   8.343  1.0258  0.3101 -0.0680
 4110SOL    HW223964   2.031   0.062   8.303 -1.6045 -0.1149  0.8810
 4111SOL     OW23965   0.706   2.913   2.069  0.0849 -0.1100  0.4835
 4111SOL    HW123966   0.788   2.866   2.084 -0.2077 -0.7845  0.0138
 4111SOL    HW223967   0.730   3.000   2.099  0.0883  0.1733 -0.3317
 4112SOL     OW23968   1.479   4.498   1.857  0.1246 -1.0576  0.0127
 4112SOL    HW123969   1.515   4.491   1.768  2.3217  0.2283  0.7841
 4112SOL    HW223970   1.385   4.513   1.850  0.0941 -0.4456  1.8809
 4113SOL     OW23971   4.478   3.493   0.770  0.4783  0.2297  0.3588
 4113SOL    HW123972   4.407   3.429   0.776  1.7186 -1.1763  0.1132
 4113SOL    HW223973   4.551   3.433   0.756  0.1364 -0.1784  0.2908
 4114SOL     OW23974   0.262   3.823   8.976  0.2022 -0.1420  0.5780
 4114SOL    HW123975   0.250   3.862   8.890 -0.2562  0.1778  0.7915
 4114SOL    HW223976   0.351   3.786   8.970 -0.6439 -2.3419  1.5342
 4115SOL     OW23977   3.147   4.057  12.795  0.1163 -0.0271  0.4706
 4115SOL    HW123978   3.081   4.024  12.735  0.1249 -1.5492  1.2983
 4115SOL    HW223979   3.217   3.992  12.791 -0.6596 -0.7366 -1.1021
 4116SOL     OW23980   1.845   4.404   5.083  0.7190 -0.8668  0.2403
 4116SOL    HW123981   1.808   4.379   4.998  1.2676  0.3096 -0.3456
 4116SOL    HW223982   1.902   4.329   5.100  1.3656 -0.6768 -1.0487
 4117SOL     OW23983   2.375   4.332   6.906 -0.3270 -0.4245 -0.1855
 4117SOL    HW123984   2.303   4.381   6.868 -0.2898  1.6851  2.4934
 4117SOL    HW223985   2.393   4.261   6.844  0.7950  0.6822 -1.1232
 4118SOL     OW23986   0.918   2.149   2.543 -0.9889  0.1925  0.1852
 4118SOL    HW123987   0.823   2.146   2.538 -1.0327  0.8682  0.5576
 4118SOL    HW223988   0.932   2.131   2.636 -2.1839 -0.9980  0.1416
 4119SOL     OW23989   0.638   2.948   3.216 -0.2686 -0.7977  0.1238
 4119SOL    HW123990   0.635   2.929   3.310 -3.7471 -2.1898 -0.2560
 4119SOL    HW223991   0.648   3.043   3.226 -1.1012 -0.6385 -0.5983
 4120SOL     OW23992   0.796   2.477  12.529  0.4253  0.1449 -0.3842
 4120SOL    HW123993   0.766   2.557  12.573 -2.0578 -0.9719 -0.0277
 4120SOL    HW223994   0.734   2.413  12.565  1.0144  1.3706  2.8232
 4121SOL     OW23995   3.291   0.575  15.027 -0.0403  0.3511 -0.3868
 4121SOL    HW123996   3.234   0.595  14.953 -0.5299 -1.5171 -0.5246
 4121SOL    HW223997   3.353   0.647  15.011 -0.0602  0.3036 -0.6737
 4122SOL     OW23998   4.211   2.438   6.474  0.8759 -0.4057 -0.0839
 4122SOL    HW123999   4.143   2.391   6.522  1.6464 -1.3535  0.0908
 4122SOL    HW224000   4.272   2.365   6.462  0.7360 -0.2813 -1.5545
 4123SOL     OW24001   3.567   0.938   9.857  0.1919 -0.3144 -0.4517
 4123SOL    HW124002   3.651   0.915   9.895 -0.9759 -1.6566  1.3149
 4123SOL    HW224003   3.525   0.988   9.927  1.3038  0.0267 -0.0284
 4124SOL     OW24004   0.984   3.828   1.274 -0.0519 -0.2631 -0.1447
 4124SOL    HW124005   1.024   3.766   1.335  0.4182  2.4405  2.2564
 4124SOL    HW224006   0.894   3.797   1.284 -0.1019  0.1333  0.6421
 4125SOL     OW24007   4.704   4.728   6.696  0.5812  0.8210 -0.0969
 4125SOL    HW124008   4.715   0.067   6.754 -1.4122  1.0318  0.0074
 4125SOL    HW224009   4.704   0.028   6.608 -0.6116  2.5017  0.5949
 4126SOL     OW24010   1.931   3.741   8.239  0.1475  0.0600 -0.2731
 4126SOL    HW124011   2.021   3.735   8.208  0.4848  1.0615  0.5253
 4126SOL    HW224012   1.938   3.818   8.294  1.2203 -0.5747  0.4719
 4127SOL     OW24013   2.419   1.923   4.067  0.3776  0.3175  0.2951
 4127SOL    HW124014   2.416   1.879   4.153  0.1696  0.2318  0.2443
 4127SOL    HW224015   2.397   1.852   4.007 -0.7079  0.9296 -0.0251
 4128SOL     OW24016   0.614   2.700   3.100 -0.0136 -0.5134 -0.0336
 4128SOL    HW124017   0.678   2.644   3.144  1.8842  1.9376  0.3538
 4128SOL    HW224018   0.643   2.790   3.120 -1.2245  0.5236 -2.9765
 4129SOL     OW24019   2.196   0.213   6.267 -0.6378 -0.2631 -0.7067
 4129SOL    HW124020   2.183   0.196   6.360  0.3481 -1.5894 -0.8083
 4129SOL    HW224021   2.152   0.138   6.227 -1.3552  0.3153 -1.0089
 4130SOL     OW24022   0.997   3.737   5.343 -0.1079 -0.2984 -0.0732
 4130SOL    HW124023   0.972   3.750   5.435 -0.0168 -3.4876  0.4146
 4130SOL    HW224024   0.968   3.647   5.329  0.2552 -0.6636  1.4397
 4131SOL     OW24025   1.953   0.097   6.016  0.3049  0.1626  0.4913
 4131SOL    HW124026   1.919   0.049   6.092 -0.0751  0.5329  0.5546
 4131SOL    HW224027   1.914   0.042   5.947 -1.3156  1.1654  0.6066
 4132SOL     OW24028   0.046   3.529  10.423 -0.6873  0.6572 -0.1182
 4132SOL    HW124029   0.037   3.608  10.369 -1.3745 -0.1587 -1.1918
 4132SOL    HW224030   0.139   3.542  10.440 -0.4994  0.2493 -0.8272
 4133SOL     OW24031   3.011   1.800  11.791  0.2755  0.0040  0.0615
 4133SOL    HW124032   2.991   1.866  11.856  0.8416 -1.3552  1.6246
 4133SOL    HW224033   3.055   1.855  11.726  0.0875  1.4521  1.1625
 4134SOL     OW24034   1.908   1.984  16.261 -0.0934 -0.4107 -0.0689
 4134SOL    HW124035   1.898   2.075  16.290  0.0011  0.6027 -3.2250
 4134SOL    HW224036   1.832   1.980  16.204  0.9607 -1.1427 -1.4299
 4135SOL     OW24037   0.660   1.624   4.910 -0.7337  0.2771 -0.0652
 4135SOL    HW124038   0.579   1.581   4.883  1.0751 -4.0831  1.5537
 4135SOL    HW224039   0.669   1.576   4.992  0.8718 -1.0018 -1.0025
 4136SOL     OW24040   1.586   3.913   6.013 -0.6213 -0.0732 -0.0847
 4136SOL    HW124041   1.610   3.941   6.101  0.7541  1.5929 -0.9845
 4136SOL    HW224042   1.573   3.819   6.027 -0.3871 -0.4567 -2.3711
 4137SOL     OW24043   2.232   1.020   3.021 -0.0227 -0.2136 -0.0402
 4137SOL    HW124044   2.271   1.007   3.108 -0.8508 -0.1167  0.3467
 4137SOL    HW224045   2.294   1.070   2.968 -2.1888  2.1828 -0.3436
 4138SOL     OW24046   2.309   3.656  11.432 -0.0995  0.4528 -0.3327
 4138SOL    HW124047   2.244   3.725  11.433  0.2182  0.7479  0.6835
 4138SOL    HW224048   2.277   3.587  11.374 -0.9686 -0.2564  0.9899
 4139SOL     OW24049   4.475   1.943   4.808  0.3239 -0.2704  0.1822
 4139SOL    HW124050   4.499   2.012   4.870  2.9509 -0.5578 -0.5213
 4139SOL    HW224051   4.503   1.978   4.723 -3.6858  1.8181 -0.2971
 4140SOL     OW24052   3.540   0.321   3.328  0.0430 -0.6338 -0.1031
 4140SOL    HW124053   3.588   0.378   3.268 -0.9041 -1.0044 -1.2171
 4140SOL    HW224054   3.560   0.235   3.293  0.6533  0.5858 -2.7506
 4141SOL     OW24055   3.444   4.160   1.610  0.4334  0.4954 -0.0673
 4141SOL    HW124056   3.352   4.168   1.636  1.1512  1.7317  2.0736
 4141SOL    HW224057   3.483   4.082   1.649 -0.2264  0.4255  0.4479
 4142SOL     OW24058   0.078   0.958  11.785 -0.1362 -0.0483 -0.4255
 4142SOL    HW124059   0.103   0.866  11.788  0.3207 -0.0010 -2.3386
 4142SOL    HW224060   0.020   0.965  11.861  0.8636  1.8512  0.1595
 4143SOL     OW24061   3.144   2.545  17.319 -0.2397 -0.2864  0.4308
 4143SOL    HW124062   3.146   2.476  17.385  0.1323 -0.3073  0.3965
 4143SOL    HW224063   3.217   2.516  17.265 -0.3401 -3.3103  1.9071
 4144SOL     OW24064   0.900   3.083  11.811 -0.2753 -0.3698 -0.3693
 4144SOL    HW124065   0.817   3.118  11.780 -1.1108 -1.3294  0.7997
 4144SOL    HW224066   0.926   3.151  11.874  0.0779  0.0819 -0.9937
 4145SOL     OW24067   2.224   3.334   8.492 -0.4716  0.1629  0.1339
 4145SOL    HW124068   2.174   3.264   8.451  1.5662 -0.6993 -0.9064
 4145SOL    HW224069   2.179   3.406   8.447 -2.4624 -0.8035  0.5805
 4146SOL     OW24070   4.262   1.293   9.818  0.0703  0.7170  0.4879
 4146SOL    HW124071   4.312   1.309   9.738  0.1860 -0.3294  0.3437
 4146SOL    HW224072   4.177   1.278   9.776  0.7250  1.5226 -1.1055
 4147SOL     OW24073   1.744   2.102   6.361  0.7634 -0.2260 -0.0138
 4147SOL    HW124074   1.748   2.080   6.454 -1.6368 -1.4020 -0.1802
 4147SOL    HW224075   1.745   2.197   6.368  0.7800 -0.1428 -1.1608
 4148SOL     OW24076   4.369   3.226  11.488 -0.7100 -0.0974 -0.5632
 4148SOL    HW124077   4.372   3.320  11.504 -1.5061 -0.1028 -0.3811
 4148SOL    HW224078   4.282   3.206  11.454 -0.8546 -0.5282  0.0614
 4149SOL     OW24079   0.977   3.770  15.255  1.0537  0.1783  0.6103
 4149SOL    HW124080   1.019   3.722  15.183 -0.4664  0.0928 -0.2283
 4149SOL    HW224081   0.970   3.858  15.219 -1.9178 -1.2697 -2.3983
 4150SOL     OW24082   0.680   1.858   4.167  0.0769 -0.3915 -0.3319
 4150SOL    HW124083   0.726   1.867   4.250 -0.2215 -0.0385 -0.2084
 4150SOL    HW224084   0.662   1.764   4.166  1.3259 -0.6325  0.5232
 4151SOL     OW24085   0.571   2.868  17.327 -0.1259  0.2187  0.2748
 4151SOL    HW124086   0.528   2.797  17.279 -2.2543  2.5802 -1.2867
 4151SOL    HW224087   0.580   2.924  17.250 -2.8306  0.8122  0.3757
 4152SOL     OW24088   0.698   4.046   5.440  0.2223  0.2496 -0.7871
 4152SOL    HW124089   0.633   4.106   5.474  0.0366 -0.5540  0.2793
 4152SOL    HW224090   0.765   4.034   5.508 -0.6377  2.3438  0.4150
 4153SOL     OW24091   2.450   1.429   4.130  0.3549  0.0484 -0.4229
 4153SOL    HW124092   2.445   1.344   4.173 -2.3635 -0.6316 -2.0345
 4153SOL    HW224093   2.478   1.474   4.210 -1.4332 -0.3363  0.4337
 4154SOL     OW24094   3.998   1.542   4.449  0.0767  0.0739 -0.3984
 4154SOL    HW124095   4.073   1.501   4.492 -0.6439 -1.0239 -0.1768
 4154SOL    HW224096   3.922   1.508   4.497 -0.6437 -0.5971 -1.9977
 4155SOL     OW24097   4.057   2.298   6.895 -0.1336  0.0218  0.0580
 4155SOL    HW124098   4.149   2.274   6.903 -0.4353 -1.3961 -0.6813
 4155SOL    HW224099   4.044   2.282   6.802  2.1686  0.1590 -0.2755
 4156SOL     OW24100   4.700   2.347   6.389  0.0152 -0.3076 -0.2454
 4156SOL    HW124101   4.657   2.325   6.306  0.4604 -2.4240  0.0786
 4156SOL    HW224102   4.670   2.437   6.402 -1.8177 -0.8716 -0.4902
 4157SOL     OW24103   1.944   2.063   9.482 -0.3785 -0.1580  0.1789
 4157SOL    HW124104   1.861   2.085   9.438 -0.0593 -1.8272 -1.2518
 4157SOL    HW224105   1.933   2.128   9.551 -1.4569 -0.2690  0.1230
 4158SOL     OW24106   1.085   2.317   5.675  0.1370  0.0957  0.0774
 4158SOL    HW124107   1.138   2.284   5.602 -0.2270  1.7631 -0.9567
 4158SOL    HW224108   1.004   2.350   5.635 -1.4779 -0.5358  2.9001
 4159SOL     OW24109   0.967   1.655   2.545  0.8057  0.5796  0.1275
 4159SOL    HW124110   1.049   1.693   2.513  1.9846 -1.2477  0.9942
 4159SOL    HW224111   0.986   1.565   2.521  2.2434  0.7137  0.7684
 4160SOL     OW24112   0.374   3.744   4.437 -0.3628  0.3373 -0.4263
 4160SOL    HW124113   0.417   3.658   4.435 -0.3334  0.2891  1.7604
 4160SOL    HW224114   0.397   3.767   4.347 -0.3053 -0.2517 -0.5597
 4161SOL     OW24115   0.523   3.195   3.447  0.2047  0.1869 -0.3338
 4161SOL    HW124116   0.463   3.265   3.471  0.3727  0.4937 -0.8267
 4161SOL    HW224117   0.473   3.119   3.477 -1.1808  0.3606 -2.2647
 4162SOL     OW24118   0.306   2.426   2.933 -0.1482  0.1080 -0.0476
 4162SOL    HW124119   0.249   2.439   2.857  1.8301 -0.8449 -1.6876
 4162SOL    HW224120   0.386   2.456   2.890  0.6090  0.0923  1.3559
 4163SOL     OW24121   2.362   1.088   6.643 -0.3487 -0.5349 -0.3818
 4163SOL    HW124122   2.352   0.994   6.654 -1.2851 -0.0647  3.0507
 4163SOL    HW224123   2.405   1.092   6.558 -1.1119  1.3548 -0.6906
 4164SOL     OW24124   0.078   2.522   3.680 -0.2634  0.4026  0.2049
 4164SOL    HW124125   0.051   2.583   3.612  0.3113  0.5524  0.1110
 4164SOL    HW224126   0.005   2.537   3.740 -0.2431 -1.6907  0.7536
 4165SOL     OW24127   4.198   2.423   2.076 -0.1271  0.1399 -0.1124
 4165SOL    HW124128   4.265   2.397   2.013 -0.8623 -1.1605 -0.3705
 4165SOL    HW224129   4.184   2.332   2.102 -1.5328 -0.3508 -2.5452
 4166SOL     OW24130   1.460   3.655  10.141  0.3046 -0.1853  0.0563
 4166SOL    HW124131   1.491   3.588  10.202  1.1056  0.4528  0.3532
 4166SOL    HW224132   1.503   3.733  10.175 -1.2409  0.7520 -0.1270
 4167SOL     OW24133   3.090   3.296  10.492  0.2098 -0.1960  0.1849
 4167SOL    HW124134   3.178   3.318  10.463 -0.4988  0.7351 -1.2632
 4167SOL    HW224135   3.109   3.252  10.575  1.9482  1.0105  0.4296
 4168SOL     OW24136   2.163   3.255  11.151  0.1649  0.0414 -0.2714
 4168SOL    HW124137   2.188   3.163  11.154 -1.5470 -0.5061 -2.7905
 4168SOL    HW224138   2.092   3.238  11.088  1.6080  1.5588 -2.3174
 4169SOL     OW24139   1.795   2.831   3.114 -0.1271 -0.1717 -0.5598
 4169SOL    HW124140   1.735   2.867   3.049 -0.4620 -0.0266 -0.1708
 4169SOL    HW224141   1.747   2.797   3.190 -2.9970  1.8329 -1.4845
 4170SOL     OW24142   3.093   1.733   5.801 -0.2719 -0.2390 -0.1195
 4170SOL    HW124143   3.119   1.645   5.826  4.0561  1.6308  1.9123
 4170SOL    HW224144   3.011   1.742   5.850 -0.5830  1.3709 -0.9080
 4171SOL     OW24145   4.263   0.930   9.489 -0.0487  0.2909 -0.1282
 4171SOL    HW124146   4.213   0.957   9.566  0.1868  2.1988 -0.6353
 4171SOL    HW224147   4.213   0.975   9.421  2.9000  1.0245 -1.8271
 4172SOL     OW24148   2.537   4.304  14.212 -0.7453 -0.5664 -0.3213
 4172SOL    HW124149   2.496   4.369  14.155  0.3230 -1.0965 -1.7181
 4172SOL    HW224150   2.625   4.343  14.220 -0.1743 -2.4771  2.7344
 4173SOL     OW24151   1.842   3.805   2.186 -0.0891  0.0779  0.1364
 4173SOL    HW124152   1.880   3.747   2.121 -1.0489 -0.7037  0.2751
 4173SOL    HW224153   1.847   3.750   2.264 -2.3419  1.2495  1.1168
 4174SOL     OW24154   1.911   0.551   8.533 -0.1524 -0.0826 -0.1331
 4174SOL    HW124155   1.932   0.460   8.554  0.8381  0.6015  1.9193
 4174SOL    HW224156   1.957   0.565   8.450 -1.2745 -3.0242 -1.2467
 4175SOL     OW24157   2.724   0.679   6.657 -0.2050 -0.4526  0.0648
 4175SOL    HW124158   2.687   0.742   6.719 -2.8613 -0.9897 -0.9681
 4175SOL    HW224159   2.716   0.729   6.576 -0.1738 -1.6983 -0.7088
 4176SOL     OW24160   0.772   0.810  15.974 -0.3728  0.1948  0.8225
 4176SOL    HW124161   0.749   0.717  15.973  1.1143 -0.1364 -2.7612
 4176SOL    HW224162   0.785   0.814  15.879 -0.7205  1.2163  0.8170
 4177SOL     OW24163   0.516   1.522   3.857 -0.2477 -0.1210 -0.3992
 4177SOL    HW124164   0.523   1.430   3.884  2.0952 -0.2498 -1.4509
 4177SOL    HW224165   0.431   1.537   3.897  1.2668  0.1575  2.6635
 4178SOL     OW24166   3.116   4.179   4.243  0.5595 -0.1300  0.0252
 4178SOL    HW124167   3.036   4.225   4.269  1.6081  0.9800  1.2324
 4178SOL    HW224168   3.183   4.242   4.267 -0.5982  1.9655 -2.2151
 4179SOL     OW24169   0.216   3.739   1.998 -0.6515  0.2443 -0.2737
 4179SOL    HW124170   0.142   3.694   2.040 -1.0774  0.1574 -1.1206
 4179SOL    HW224171   0.270   3.662   1.983  0.7532  0.8976  1.4946
 4180SOL     OW24172   2.008   0.599  14.118 -0.6126  0.4384 -0.3711
 4180SOL    HW124173   1.917   0.626  14.108 -0.4864  1.5005  1.2954
 4180SOL    HW224174   1.999   0.562  14.206 -0.9717 -1.4613 -1.2044
 4181SOL     OW24175   2.101   3.983   8.354  0.1381  0.1754  0.1460
 4181SOL    HW124176   2.149   3.955   8.432 -0.4990 -3.4033 -0.7485
 4181SOL    HW224177   2.146   3.922   8.295  1.2363 -1.3071  2.5267
 4182SOL     OW24178   0.613   0.436   4.879 -0.1474  0.0581 -0.5715
 4182SOL    HW124179   0.606   0.340   4.876 -1.6809  0.1868 -0.9620
 4182SOL    HW224180   0.523   0.464   4.864  0.5411  2.1734 -0.7627
 4183SOL     OW24181   3.477   1.105  10.071  0.4580  0.2311 -0.1035
 4183SOL    HW124182   3.413   1.106  10.142 -0.7824  0.7201 -1.2283
 4183SOL    HW224183   3.459   1.179  10.013  0.5603  0.6399  0.3800
 4184SOL     OW24184   0.805   0.075   4.528 -0.2859 -0.3660  0.2413
 4184SOL    HW124185   0.849   0.012   4.470 -1.4003  0.0256 -1.0199
 4184SOL    HW224186   0.871   0.143   4.545 -1.1164 -0.0780  2.2697
 4185SOL     OW24187   0.304   1.557   7.803  0.3627  0.7789  0.0989
 4185SOL    HW124188   0.341   1.503   7.733 -2.6853  0.0910 -0.9954
 4185SOL    HW224189   0.371   1.625   7.809  0.5063  0.4668  2.1773
 4186SOL     OW24190   2.797   0.174  10.475  0.5404 -0.9020 -0.0513
 4186SOL    HW124191   2.739   0.198  10.403 -1.2028 -0.2465  1.5750
 4186SOL    HW224192   2.841   0.252  10.509  3.5300 -1.8024 -1.7485
 4187SOL     OW24193   2.582   2.233   7.620  0.0114  0.2803  0.5442
 4187SOL    HW124194   2.582   2.324   7.647 -0.1834  0.2433  0.6694
 4187SOL    HW224195   2.542   2.192   7.697  2.5133  0.1573  1.7804
 4188SOL     OW24196   1.669   1.988  14.336 -0.6739 -0.7412  0.1292
 4188SOL    HW124197   1.574   1.982  14.329 -0.8042  1.2802  0.3715
 4188SOL    HW224198   1.682   2.048  14.409 -0.7273 -0.1909 -0.3084
 4189SOL     OW24199   3.109   0.685   4.794  0.2937 -0.0104  0.6503
 4189SOL    HW124200   3.149   0.600   4.775  1.8632  1.0179 -0.7289
 4189SOL    HW224201   3.018   0.658   4.785 -0.7891  3.2095  2.1372
 4190SOL     OW24202   0.070   2.834   2.261  0.6093 -0.1671 -0.3666
 4190SOL    HW124203   0.091   2.881   2.180 -1.0143 -0.9462 -1.2372
 4190SOL    HW224204   0.063   2.900   2.330  1.2497  0.4524 -0.8899
 4191SOL     OW24205   3.482   0.556   2.390 -0.2193  0.2552 -0.3656
 4191SOL    HW124206   3.426   0.626   2.424  0.6415  1.2044 -0.8897
 4191SOL    HW224207   3.540   0.600   2.326 -1.6463  3.7941  0.7626
 4192SOL     OW24208   1.257   3.395   6.789  0.3510 -0.0029 -0.1434
 4192SOL    HW124209   1.299   3.342   6.721  0.6798 -1.4803  1.2236
 4192SOL    HW224210   1.325   3.459   6.809  0.5232 -0.0101 -0.6881
 4193SOL     OW24211   1.973   1.728  12.851  0.0735  0.4140 -0.0995
 4193SOL    HW124212   1.890   1.687  12.876  2.2474 -4.4903 -1.0833
 4193SOL    HW224213   2.040   1.693  12.909 -0.6407 -0.3612  0.2605
 4194SOL     OW24214   4.123   4.256   8.151  0.4167 -0.1209 -0.2192
 4194SOL    HW124215   4.140   4.347   8.175 -2.5520  0.2169  0.6182
 4194SOL    HW224216   4.205   4.227   8.191 -0.6962 -0.0891  2.1016
 4195SOL     OW24217   1.257   1.329  14.323  0.5013  0.4981 -0.3305
 4195SOL    HW124218   1.274   1.419  14.351 -0.1599  0.6295 -0.3606
 4195SOL    HW224219   1.181   1.301  14.374  0.3098  3.7469  1.1927
 4196SOL     OW24220   0.339   3.467   2.143 -0.2666  0.4343 -0.5313
 4196SOL    HW124221   0.310   3.489   2.054  0.3681  1.4432 -0.4892
 4196SOL    HW224222   0.264   3.413   2.167 -0.2404 -0.4144 -2.3295
 4197SOL     OW24223   0.114   4.258   1.890 -0.0315 -0.0793 -0.5282
 4197SOL    HW124224   0.129   4.177   1.938 -1.6302 -0.6591 -1.0010
 4197SOL    HW224225   0.172   4.243   1.816  0.5484  0.9405 -0.2700
 4198SOL     OW24226   3.446   4.061   4.274  0.2586 -0.2152 -0.0348
 4198SOL    HW124227   3.395   4.031   4.348  1.0672 -2.1494 -0.2509
 4198SOL    HW224228   3.403   4.014   4.202  1.5590 -1.3876 -0.0554
 4199SOL     OW24229   1.626   0.319  15.154  0.1560 -0.5510  0.2013
 4199SOL    HW124230   1.532   0.331  15.167 -0.2430  0.5632 -3.6258
 4199SOL    HW224231   1.627   0.323  15.058 -1.4046  0.0392  0.2004
 4200SOL     OW24232   2.349   3.509   5.627  0.0718  0.4468  0.5102
 4200SOL    HW124233   2.445   3.511   5.633 -0.0303  1.2733  1.7845
 4200SOL    HW224234   2.328   3.558   5.706 -1.0584  0.3249  0.2826
 4201SOL     OW24235   1.103   0.611   3.346 -0.5462  0.3553  0.1110
 4201SOL    HW124236   1.055   0.531   3.367  2.9505 -2.0407 -1.0887
 4201SOL    HW224237   1.029   0.666   3.321 -1.6597 -0.0612  2.5481
 4202SOL     OW24238   2.113   2.971   1.315  0.6545  0.0827 -0.6137
 4202SOL    HW124239   2.053   2.898   1.299  0.7081  0.1421 -1.0755
 4202SOL    HW224240   2.167   2.938   1.388 -1.0584 -1.2502  0.0436
 4203SOL     OW24241   0.118   4.214   7.759  0.5197 -0.8524  0.4317
 4203SOL    HW124242   0.146   4.303   7.739 -2.8793 -0.2501 -1.6280
 4203SOL    HW224243   0.167   4.178   7.833  3.1814  0.6387 -0.6212
 4204SOL     OW24244   2.687   0.245   5.885 -0.7095 -0.3062 -0.5585
 4204SOL    HW124245   2.614   0.286   5.838 -1.8529 -1.1284  0.5305
 4204SOL    HW224246   2.704   0.294   5.966 -2.8871 -0.2778 -0.1179
 4205SOL     OW24247   4.176   0.922   9.092  0.6793 -0.7839 -0.1264
 4205SOL    HW124248   4.119   0.848   9.076  0.0097  0.0677 -1.6248
 4205SOL    HW224249   4.160   0.962   9.007  0.2062 -0.8368 -0.0626
 4206SOL     OW24250   0.176   2.469   2.691 -0.5124 -0.2046  0.0287
 4206SOL    HW124251   0.191   2.538   2.626 -1.9866 -1.2142 -1.3924
 4206SOL    HW224252   0.189   2.393   2.634 -0.7078 -0.4623  0.3312
 4207SOL     OW24253   2.374   0.274   5.630 -0.3432  0.1916  0.2374
 4207SOL    HW124254   2.283   0.303   5.619  0.0106  1.0275 -0.5303
 4207SOL    HW224255   2.370   0.196   5.685 -1.0281  0.9497  1.2639
 4208SOL     OW24256   4.469   2.108  16.058  0.1598 -0.6197 -0.1316
 4208SOL    HW124257   4.477   2.104  15.963  0.6781 -1.5874 -0.0552
 4208SOL    HW224258   4.395   2.047  16.061  1.9539 -2.8477 -1.5854
 4209SOL     OW24259   0.049   3.610   6.799  0.5713 -0.0405  0.0058
 4209SOL    HW124260   0.037   3.702   6.774  1.0026 -0.0868 -0.3648
 4209SOL    HW224261   0.094   3.632   6.881 -0.5567  1.0290  0.3308
 4210SOL     OW24262   3.260   0.231   9.969  0.6128  0.3050  0.2041
 4210SOL    HW124263   3.219   0.145   9.972  0.3575  0.4206  0.0312
 4210SOL    HW224264   3.285   0.247  10.060 -1.9868  1.3660  0.7372
 4211SOL     OW24265   4.651   0.298   2.959  0.0142 -0.1262  0.0170
 4211SOL    HW124266   4.673   0.206   2.972  0.7239 -0.3629 -2.7718
 4211SOL    HW224267   4.610   0.302   2.872 -1.6219 -0.3590  0.7856
 4212SOL     OW24268   2.411   2.363  14.979 -0.0536  0.0451 -0.2682
 4212SOL    HW124269   2.421   2.453  15.012  1.4698 -0.3254  0.2654
 4212SOL    HW224270   2.450   2.313  15.050  0.8174  1.1409  0.0154
 4213SOL     OW24271   1.316   2.435   4.971  0.6282 -0.3187 -0.1522
 4213SOL    HW124272   1.283   2.426   4.881 -1.0031  0.5593  0.3700
 4213SOL    HW224273   1.291   2.525   4.988  0.9972  0.3978 -3.2678
 4214SOL     OW24274   4.054   4.012   1.785 -1.0524  0.1321  0.0387
 4214SOL    HW124275   3.963   4.017   1.755 -1.5385  0.0423  1.5208
 4214SOL    HW224276   4.109   4.042   1.713  0.0871 -1.2928  0.3214
 4215SOL     OW24277   0.970   0.935   5.457 -0.2494 -0.0286  0.4841
 4215SOL    HW124278   0.989   0.940   5.551  3.6995  4.5902 -0.5373
 4215SOL    HW224279   0.937   0.846   5.445  1.4943 -0.3267 -2.0532
 4216SOL     OW24280   1.927   4.241   1.770 -0.1711  0.2744 -0.0786
 4216SOL    HW124281   1.939   4.315   1.710 -1.1559  0.7707  0.3382
 4216SOL    HW224282   1.956   4.170   1.713  0.5866 -0.7230  1.5520
 4217SOL     OW24283   4.285   4.635   6.696 -0.7072  0.1331  0.2985
 4217SOL    HW124284   4.377   4.619   6.717 -1.0099  0.7131  2.0618
 4217SOL    HW224285   4.243   4.670   6.775 -1.0056  1.3023 -0.3744
 4218SOL     OW24286   0.587   1.259   8.738 -0.5425  0.0747 -0.0522
 4218SOL    HW124287   0.597   1.347   8.776  0.3267  0.6336 -1.5361
 4218SOL    HW224288   0.504   1.237   8.780 -0.6551 -0.6125 -0.6354
 4219SOL     OW24289   2.160   0.136   3.866  0.3896 -0.2716 -0.7769
 4219SOL    HW124290   2.180   0.174   3.781 -0.0028  1.0981 -0.2586
 4219SOL    HW224291   2.073   0.174   3.879  0.9093  0.8167 -0.5120
 4220SOL     OW24292   4.616   4.362   3.738 -0.4167 -0.1124  0.2420
 4220SOL    HW124293   4.667   4.401   3.667  0.2504  1.4085  1.5724
 4220SOL    HW224294   4.596   4.277   3.698  1.1491 -1.2630  1.9345
 4221SOL     OW24295   0.528   4.629  12.446  0.3207  0.0116 -0.1291
 4221SOL    HW124296   0.459   4.641  12.380 -0.4982 -1.7174  0.4192
 4221SOL    HW224297   0.512   4.702  12.506  2.0921  0.4100 -0.1476
 4222SOL     OW24298   2.813   2.449  10.927 -0.0404  0.1501  0.2033
 4222SOL    HW124299   2.758   2.494  10.862  1.2670  2.1459  0.4696
 4222SOL    HW224300   2.765   2.369  10.947 -2.3469  0.9248 -2.1811
 4223SOL     OW24301   3.670   4.456   5.030 -0.1963 -1.2174  0.0508
 4223SOL    HW124302   3.590   4.424   4.988 -0.3147 -2.8448  1.5678
 4223SOL    HW224303   3.662   4.551   5.017 -2.0259 -1.6813 -2.3235
 4224SOL     OW24304   2.252   3.267   3.987  0.0595  0.3507  0.0164
 4224SOL    HW124305   2.243   3.289   3.894 -0.0630  2.0611  0.4326
 4224SOL    HW224306   2.166   3.300   4.014 -0.7274 -2.5046  0.9920
 4225SOL     OW24307   1.218   2.867   9.354 -0.2073  0.4454  0.2625
 4225SOL    HW124308   1.156   2.898   9.420 -1.0304  0.2091 -0.3954
 4225SOL    HW224309   1.157   2.815   9.301  0.8055  1.3956 -1.8569
 4226SOL     OW24310   0.193   0.042   8.539 -0.4597 -0.3264 -0.1639
 4226SOL    HW124311   0.104   0.048   8.505 -0.0361 -2.1159 -1.5797
 4226SOL    HW224312   0.179   0.015   8.629  1.1435  1.7728  0.7260
 4227SOL     OW24313   0.254   3.988   0.525  0.2867  0.4368  0.7228
 4227SOL    HW124314   0.216   4.063   0.569  0.1945  1.4132 -1.0337
 4227SOL    HW224315   0.282   3.929   0.595 -1.2776 -0.6299  0.4655
 4228SOL     OW24316   0.327   1.537   8.165 -0.1112 -0.5680  0.4299
 4228SOL    HW124317   0.418   1.522   8.140 -0.1992 -0.2218 -0.0914
 4228SOL    HW224318   0.331   1.503   8.255 -1.1887 -0.3290  0.5732
 4229SOL     OW24319   3.271   2.626  16.789  0.2978 -0.7947  0.2140
 4229SOL    HW124320   3.294   2.544  16.745  2.3276 -0.3540  0.4416
 4229SOL    HW224321   3.239   2.669  16.709  1.2257  2.6758  1.7308
 4230SOL     OW24322   1.699   2.192   7.220 -0.0094  0.2832 -0.1761
 4230SOL    HW124323   1.725   2.194   7.312 -1.5409 -2.3182  0.3222
 4230SOL    HW224324   1.692   2.097   7.216  0.6640  0.1349  2.4900
 4231SOL     OW24325   2.412   2.791   2.611  0.4104 -0.2505 -0.3626
 4231SOL    HW124326   2.475   2.760   2.546 -0.8934 -0.2073 -1.6549
 4231SOL    HW224327   2.445   2.879   2.629 -1.9842  0.6480 -0.3823
 4232SOL     OW24328   4.183   2.863  14.184 -0.0179  0.0556  0.2343
 4232SOL    HW124329   4.273   2.833  14.167 -0.2351  0.4807 -1.6367
 4232SOL    HW224330   4.179   2.928  14.113 -2.7244 -1.8967 -1.3872
 4233SOL     OW24331   1.674   1.437   4.145 -0.0263  0.6693 -0.5792
 4233SOL    HW124332   1.656   1.507   4.207  2.2307  0.0850  0.7277
 4233SOL    HW224333   1.619   1.466   4.073  0.4582  1.1793 -0.7484
 4234SOL     OW24334   3.720   4.423  14.772  0.6173 -0.1697 -0.2815
 4234SOL    HW124335   3.682   4.356  14.829  0.0428  1.3940  1.1509
 4234SOL    HW224336   3.796   4.370  14.745  0.3501 -0.2872 -0.7976
 4235SOL     OW24337   1.242   3.350   9.623  0.3446  0.3527 -0.0842
 4235SOL    HW124338   1.190   3.288   9.673  1.3701 -0.3507  0.1039
 4235SOL    HW224339   1.191   3.431   9.620  1.1463  1.0841  4.8891
 4236SOL     OW24340   3.185   4.561   4.289  0.0528 -0.8452  0.1638
 4236SOL    HW124341   3.143   4.623   4.349  0.1493  0.1165 -0.7598
 4236SOL    HW224342   3.190   4.480   4.340 -1.5124 -0.2821  1.2236
 4237SOL     OW24343   1.421   2.648   3.674 -0.0750  0.4343  0.1296
 4237SOL    HW124344   1.381   2.573   3.717 -2.8709 -0.1259 -3.4061
 4237SOL    HW224345   1.436   2.716   3.740  1.0349 -1.8992  2.2725
 4238SOL     OW24346   1.070   0.913   6.134  0.0548 -0.4773  0.5552
 4238SOL    HW124347   1.024   0.902   6.051 -0.2013  1.0136  0.5020
 4238SOL    HW224348   1.024   0.854   6.193  0.1386  1.2025  2.3247
 4239SOL     OW24349   3.847   3.571   2.237  0.0558 -0.6164  0.2355
 4239SOL    HW124350   3.837   3.483   2.273  3.0503 -0.6285  1.0892
 4239SOL    HW224351   3.916   3.547   2.175  1.3942  0.4489  1.3073
 4240SOL     OW24352   3.445   0.232   7.759  0.0779 -0.2487 -0.6184
 4240SOL    HW124353   3.497   0.312   7.748  0.3762 -0.4716 -0.8158
 4240SOL    HW224354   3.371   0.255   7.702 -1.4214  1.9744  2.1984
 4241SOL     OW24355   2.123   2.098  11.551  0.1365  0.6671 -0.2136
 4241SOL    HW124356   2.216   2.079  11.539  0.2049  0.6800  0.2780
 4241SOL    HW224357   2.114   2.048  11.632 -0.3901  1.2533  0.0946
 4242SOL     OW24358   0.256   2.396   9.991 -0.2849 -0.2355  0.0093
 4242SOL    HW124359   0.315   2.322   9.980 -0.5258 -0.7100  1.8207
 4242SOL    HW224360   0.269   2.443   9.909  1.8792  0.4543  0.7417
 4243SOL     OW24361   2.986   1.144   7.205  0.0303  0.2564  0.5850
 4243SOL    HW124362   2.912   1.203   7.220  0.0834  0.2533  0.8588
 4243SOL    HW224363   2.942   1.070   7.164  0.3168  2.2257 -3.2331
 4244SOL     OW24364   4.484   2.099   5.653  0.1137  0.6703 -0.1110
 4244SOL    HW124365   4.507   2.162   5.585  0.8499  3.6011  2.8657
 4244SOL    HW224366   4.544   2.027   5.632 -0.6030 -0.5534  2.0803
 4245SOL     OW24367   3.961   2.262  15.022 -0.4552  0.0272 -0.3303
 4245SOL    HW124368   3.900   2.244  14.952  1.1871  0.2666 -1.8287
 4245SOL    HW224369   3.959   2.358  15.027 -1.9949  0.0270 -1.1888
 4246SOL     OW24370   3.521   4.039  17.501 -0.4560  0.2090 -0.1167
 4246SOL    HW124371   3.484   4.018  17.416  1.1870 -1.1086 -0.4977
 4246SOL    HW224372   3.501   3.958  17.549 -3.0205  0.0106 -1.5596
 4247SOL     OW24373   0.934   3.754   4.087  0.5183  0.0511 -0.4012
 4247SOL    HW124374   0.925   3.843   4.121 -1.4418 -0.5871  0.7233
 4247SOL    HW224375   0.846   3.726   4.064  0.2039  0.7923 -0.0932
 4248SOL     OW24376   2.700   4.283   1.304 -0.1515  0.0598 -0.0907
 4248SOL    HW124377   2.752   4.237   1.370  1.4460 -0.6316 -1.8516
 4248SOL    HW224378   2.641   4.333   1.361  0.6738 -1.3243  2.0074
 4249SOL     OW24379   2.136   2.164   2.309  0.1291 -0.4778  0.2864
 4249SOL    HW124380   2.079   2.194   2.380 -2.3753 -0.2539 -1.8457
 4249SOL    HW224381   2.188   2.095   2.350  0.0013 -1.6747 -1.6033
 4250SOL     OW24382   4.405   0.520   9.736 -0.2492  0.2027 -0.1297
 4250SOL    HW124383   4.461   0.521   9.814 -2.1414 -0.9743  1.2575
 4250SOL    HW224384   4.322   0.556   9.769  1.4655  2.6082  1.5651
 4251SOL     OW24385   1.620   0.718   4.518 -0.0076  0.2514 -0.3217
 4251SOL    HW124386   1.627   0.654   4.447  2.8555  0.7515 -0.4660
 4251SOL    HW224387   1.526   0.713   4.539 -0.1782 -2.6124 -1.8320
 4252SOL     OW24388   2.060   1.982   3.488  0.3085 -0.3871  0.1850
 4252SOL    HW124389   2.089   2.002   3.399  1.7997  1.2428  1.0387
 4252SOL    HW224390   1.977   2.028   3.493 -0.2193 -1.3506  0.2736
 4253SOL     OW24391   0.520   3.274  14.755 -1.0552  0.0974  0.5410
 4253SOL    HW124392   0.533   3.336  14.683  4.5243 -1.0807  0.5123
 4253SOL    HW224393   0.532   3.333  14.829  0.7283  0.1454  0.2049
 4254SOL     OW24394   0.958   4.488  11.474  0.2037 -0.6167  0.0146
 4254SOL    HW124395   0.926   4.409  11.429 -1.8220 -0.6509  1.5177
 4254SOL    HW224396   0.919   4.565  11.431  2.6059  1.5517  1.6898
 4255SOL     OW24397   4.582   1.071  13.648  0.4078 -0.0395  0.6710
 4255SOL    HW124398   4.618   1.038  13.566 -0.1953 -0.5500  0.6107
 4255SOL    HW224399   4.568   1.163  13.627  2.8264 -0.0332 -0.8698
 4256SOL     OW24400   2.543   1.120   6.440 -0.2702 -0.2262 -0.2565
 4256SOL    HW124401   2.628   1.084   6.469  0.8520  1.6039 -1.2826
 4256SOL    HW224402   2.560   1.213   6.427 -3.3151  0.4882  0.8362
 4257SOL     OW24403   1.941   4.100  10.933 -0.1467  0.3586 -0.3084
 4257SOL    HW124404   1.876   4.084  10.864 -3.9946  0.3448  3.3591
 4257SOL    HW224405   2.013   4.045  10.902  0.8293  0.4934  1.7158
 4258SOL     OW24406   0.650   0.614   4.426  0.0721 -0.4777  0.2718
 4258SOL    HW124407   0.648   0.523   4.456 -1.7665 -0.6281 -0.2910
 4258SOL    HW224408   0.714   0.602   4.356 -0.8853 -2.6741 -0.2196
 4259SOL     OW24409   3.058   2.018   4.279  0.6140 -0.5634 -0.3496
 4259SOL    HW124410   3.072   2.049   4.369  1.0596 -0.2071 -0.5408
 4259SOL    HW224411   2.964   2.003   4.280  0.2639  1.6497 -1.7026
 4260SOL     OW24412   2.607   0.457   7.877 -0.0200 -0.1274 -0.1842
 4260SOL    HW124413   2.661   0.423   7.806 -1.5023  1.2910 -1.9926
 4260SOL    HW224414   2.616   0.552   7.864 -1.5875  0.4343  2.9032
 4261SOL     OW24415   2.693   2.922  14.309 -0.1135 -0.1994 -0.2320
 4261SOL    HW124416   2.702   3.014  14.285  2.4291 -0.5981 -0.9030
 4261SOL    HW224417   2.658   2.883  14.229 -2.0489  2.0884 -0.5079
 4262SOL     OW24418   0.210   0.373   4.640  0.2501  0.6494  0.1893
 4262SOL    HW124419   0.295   0.356   4.599 -0.9546 -1.2831 -1.5014
 4262SOL    HW224420   0.175   0.420   4.564 -0.1890 -0.1543 -0.1089
 4263SOL     OW24421   1.094   2.059   7.539 -0.3091  0.3313  0.2900
 4263SOL    HW124422   1.186   2.083   7.545  0.0374 -1.4597  2.0028
 4263SOL    HW224423   1.059   2.133   7.489  1.2184  0.2153 -0.9646
 4264SOL     OW24424   2.857   2.437  17.222 -0.6058  0.2475  0.5111
 4264SOL    HW124425   2.903   2.402  17.298  0.8682  0.9536 -0.0395
 4264SOL    HW224426   2.930   2.458  17.163 -0.3622  0.2716  0.8251
 4265SOL     OW24427   2.360   2.639   8.549 -0.2743  0.3089  0.2146
 4265SOL    HW124428   2.363   2.546   8.526  1.9637  0.2314  0.8812
 4265SOL    HW224429   2.449   2.673   8.551 -0.7899  1.5945  1.1040
 4266SOL     OW24430   1.270   3.108   1.044  0.0743 -0.6099  0.1279
 4266SOL    HW124431   1.274   3.176   1.111 -0.9462 -1.3880  0.9756
 4266SOL    HW224432   1.178   3.085   1.057 -0.5428  0.4755 -2.4757
 4267SOL     OW24433   4.615   4.715  14.566 -0.5900  0.4332 -0.0443
 4267SOL    HW124434   4.686   4.653  14.549  0.5871  2.1370 -1.4571
 4267SOL    HW224435   4.633   0.040  14.495  1.9433 -0.4986 -0.2110
 4268SOL     OW24436   1.199   0.230   4.090 -0.3507  0.0746  0.3293
 4268SOL    HW124437   1.126   0.173   4.065  1.7788 -1.7690 -1.7136
 4268SOL    HW224438   1.190   0.295   4.020 -4.5953 -1.7911 -0.8665
 4269SOL     OW24439   0.503   2.518   2.767  0.4031  0.0251  0.1519
 4269SOL    HW124440   0.596   2.527   2.747  0.7313  2.9429  3.0556
 4269SOL    HW224441   0.473   2.487   2.681  1.2794  0.7276 -0.4049
 4270SOL     OW24442   0.473   0.094   5.034 -0.1537  0.2468  0.2489
 4270SOL    HW124443   0.385   0.129   5.049 -1.1606 -1.2982 -1.9985
 4270SOL    HW224444   0.462   0.005   5.068  3.5386  0.3059  1.6136
 4271SOL     OW24445   3.216   2.044   1.643  0.1248 -0.2698  0.3536
 4271SOL    HW124446   3.180   2.133   1.638 -0.9107 -0.7617 -0.8347
 4271SOL    HW224447   3.170   1.992   1.577  2.0180 -1.3537 -0.1087
 4272SOL     OW24448   1.191   4.004   2.217 -0.0580  0.4104 -0.3272
 4272SOL    HW124449   1.269   4.058   2.232  1.0976 -0.3130 -3.7764
 4272SOL    HW224450   1.122   4.070   2.221 -2.1284 -1.8691  0.7769
 4273SOL     OW24451   1.109   3.855  13.673 -0.2230  0.1720  0.0082
 4273SOL    HW124452   1.029   3.893  13.709  1.5212  2.8840  1.0359
 4273SOL    HW224453   1.077   3.821  13.590  0.0853 -2.5500  1.0022
 4274SOL     OW24454   3.399   1.461  13.380  0.1559 -0.1144 -0.0746
 4274SOL    HW124455   3.388   1.434  13.289  2.9394  0.1226 -0.4772
 4274SOL    HW224456   3.313   1.502  13.393  0.4359  0.5133 -0.2230
 4275SOL     OW24457   1.266   0.871   6.788 -0.4727 -0.0104 -0.0737
 4275SOL    HW124458   1.312   0.821   6.721 -2.2428  1.1581 -2.1216
 4275SOL    HW224459   1.284   0.957   6.751 -0.0356  0.1799  0.5665
 4276SOL     OW24460   1.866   1.914   4.027  0.3179 -0.2535 -0.6249
 4276SOL    HW124461   1.944   1.914   4.083 -2.2656  3.1305  2.9977
 4276SOL    HW224462   1.877   2.000   3.986  2.5227  0.2491  1.0047
 4277SOL     OW24463   0.475   3.102   9.277  0.2473  0.1756  0.1958
 4277SOL    HW124464   0.432   3.104   9.363  1.0043 -0.2197  0.5819
 4277SOL    HW224465   0.508   3.012   9.281  1.8933  0.6830 -1.7648
 4278SOL     OW24466   4.319   0.153   6.261  0.7793 -0.1732 -0.1594
 4278SOL    HW124467   4.277   0.205   6.330  0.7304 -0.4581  0.0273
 4278SOL    HW224468   4.335   0.071   6.308 -0.5532 -0.9427 -1.0121
 4279SOL     OW24469   1.529   4.084   5.582 -0.7930  0.6007 -0.2331
 4279SOL    HW124470   1.586   4.141   5.633  2.9643 -3.5201  0.2701
 4279SOL    HW224471   1.502   4.028   5.655  0.4748  1.6301  1.0345
 4280SOL     OW24472   1.092   3.985  10.252  0.5167  0.4916 -0.4556
 4280SOL    HW124473   1.146   3.946  10.320 -1.2927  0.6248  1.0362
 4280SOL    HW224474   1.018   4.004  10.309  0.8462 -0.8641  0.4235
 4281SOL     OW24475   1.169   3.317   4.769 -0.0575  0.1843  0.3920
 4281SOL    HW124476   1.165   3.334   4.675  0.7470  0.3158  0.3849
 4281SOL    HW224477   1.078   3.291   4.788 -0.3858  0.0427 -1.4066
 4282SOL     OW24478   1.922   1.914   4.561 -0.3199 -0.1635  0.7597
 4282SOL    HW124479   1.962   1.999   4.579 -0.5741  0.1048  0.0839
 4282SOL    HW224480   1.899   1.884   4.649  0.7504  1.4242  1.5722
 4283SOL     OW24481   1.617   1.653   7.361 -0.4643  0.0388 -0.1760
 4283SOL    HW124482   1.711   1.653   7.348 -0.2532 -0.2976  1.3972
 4283SOL    HW224483   1.598   1.746   7.376 -0.2732  0.4000 -2.1811
 4284SOL     OW24484   2.609   0.720   8.601 -0.2638  0.3976 -0.1822
 4284SOL    HW124485   2.516   0.741   8.607 -0.6120 -0.8847 -1.0909
 4284SOL    HW224486   2.598   0.662   8.525 -2.5236  1.2054 -0.4838
 4285SOL     OW24487   1.759   2.189   3.561  1.0075  0.6446 -0.3578
 4285SOL    HW124488   1.688   2.190   3.496  0.0053  1.1507  0.7550
 4285SOL    HW224489   1.758   2.102   3.601  0.6440  0.6441 -0.3639
 4286SOL     OW24490   0.710   4.688  11.520 -0.0518  0.3270 -0.4880
 4286SOL    HW124491   0.761   0.031  11.510 -1.4330  1.4836  1.7633
 4286SOL    HW224492   0.723   4.667  11.612 -1.8284 -2.0088 -0.7699
 4287SOL     OW24493   3.925   1.963  15.944 -0.3159 -0.4427 -0.2745
 4287SOL    HW124494   3.866   1.942  16.015  0.0509  0.8126  0.4033
 4287SOL    HW224495   3.930   1.884  15.889 -0.0297 -1.1945  0.8363
 4288SOL     OW24496   0.788   3.863  16.419 -0.6270 -0.2003 -0.2426
 4288SOL    HW124497   0.704   3.824  16.440 -0.0709 -1.0970  0.3159
 4288SOL    HW224498   0.757   3.937  16.368 -1.7140  1.0865  2.2616
 4289SOL     OW24499   4.602   2.804   4.548  0.2011  0.3157 -0.1831
 4289SOL    HW124500   4.666   2.759   4.603  1.7125 -1.4780 -3.4318
 4289SOL    HW224501   4.653   2.860   4.489  0.3455  0.9327  0.5208
 4290SOL     OW24502   2.281   3.004  10.138 -0.6320  0.5228  0.7092
 4290SOL    HW124503   2.285   3.006  10.233  1.3308 -0.7525  0.6536
 4290SOL    HW224504   2.373   3.011  10.111 -0.8679 -1.5755 -0.7060
 4291SOL     OW24505   3.362   2.347  15.612  0.3711  0.0647  0.1775
 4291SOL    HW124506   3.438   2.288  15.614  1.1498  1.0228 -1.5589
 4291SOL    HW224507   3.391   2.428  15.654  0.4431 -0.4731  1.1730
 4292SOL     OW24508   1.757   3.472   0.166  0.0140 -0.6800  0.3429
 4292SOL    HW124509   1.667   3.502   0.151  0.2749  0.0766  0.3203
 4292SOL    HW224510   1.733   3.406   0.232 -0.8179 -1.7389 -1.0171
 4293SOL     OW24511   1.877   3.331   2.819 -0.0071  0.1866 -0.2711
 4293SOL    HW124512   1.836   3.416   2.829  1.3248  0.6552  1.1724
 4293SOL    HW224513   1.918   3.322   2.905 -0.3711 -1.3117 -0.2397
 4294SOL     OW24514   0.436   3.304   9.080  0.5239 -0.8466  0.4772
 4294SOL    HW124515   0.457   3.223   9.127 -1.6189 -1.7226 -0.0266
 4294SOL    HW224516   0.369   3.336   9.140 -0.4721 -0.6729 -0.7164
 4295SOL     OW24517   0.754   0.637   3.847  0.1475 -0.3505 -0.1422
 4295SOL    HW124518   0.699   0.679   3.781  1.8304  0.5484 -0.9837
 4295SOL    HW224519   0.733   0.544   3.837 -0.3701 -0.2394 -0.0884
 4296SOL     OW24520   2.379   2.190  17.068 -0.0832 -0.0203 -0.5354
 4296SOL    HW124521   2.331   2.246  17.129  0.5861 -1.3172  1.1901
 4296SOL    HW224522   2.470   2.201  17.096 -0.2451 -0.2757  0.0911
 4297SOL     OW24523   1.880   0.127   4.772  0.4673 -1.1068  0.1098
 4297SOL    HW124524   1.913   0.191   4.835  0.2696  0.1701 -1.0991
 4297SOL    HW224525   1.886   0.049   4.827 -0.6852 -1.1168  0.2141
 4298SOL     OW24526   1.402   2.885   6.673  0.4226 -0.1288  0.1831
 4298SOL    HW124527   1.403   2.969   6.719 -0.4086 -0.2738  0.4687
 4298SOL    HW224528   1.372   2.824   6.740 -0.1186  2.1718  2.0354
 4299SOL     OW24529   3.019   2.012   6.216  0.0245 -1.0190  0.0113
 4299SOL    HW124530   3.013   2.003   6.120  0.6432 -1.9243  0.0539
 4299SOL    HW224531   3.082   1.946   6.243  2.3445  1.8941  1.6257
 4300SOL     OW24532   3.320   2.310   8.421 -0.4819 -0.0746 -0.1985
 4300SOL    HW124533   3.299   2.395   8.458 -1.1670  0.1685 -1.1390
 4300SOL    HW224534   3.388   2.332   8.357 -0.5317 -2.2125 -1.0027
 4301SOL     OW24535   2.153   1.382  11.536  0.3654  0.7794 -0.1713
 4301SOL    HW124536   2.216   1.312  11.550 -2.1408 -1.4924 -0.2935
 4301SOL    HW224537   2.168   1.391  11.442  0.1072 -1.1521 -0.3897
 4302SOL     OW24538   2.000   2.865  15.769 -0.4196 -0.1870 -0.1011
 4302SOL    HW124539   1.971   2.885  15.858 -1.1482 -2.2454  0.1427
 4302SOL    HW224540   2.091   2.850  15.792 -0.5493  0.5083  0.8723
 4303SOL     OW24541   2.002   3.172   1.193  0.4011 -0.5430 -0.5360
 4303SOL    HW124542   1.965   3.187   1.280 -0.6080 -1.1589 -0.8544
 4303SOL    HW224543   2.071   3.110   1.218 -0.4195 -2.1802 -2.3394
 4304SOL     OW24544   0.029   4.544   5.247  0.3229 -0.7898  0.1606
 4304SOL    HW124545   4.718   4.471   5.289 -0.3124 -0.1568  0.5474
 4304SOL    HW224546   4.714   4.615   5.285  0.7914 -2.1752  3.4139
 4305SOL     OW24547   1.281   0.247   6.641  0.3287  0.3380  0.0796
 4305SOL    HW124548   1.229   0.321   6.609 -1.4406 -0.7078  0.5517
 4305SOL    HW224549   1.251   0.188   6.572  3.1257 -1.5868  0.5159
 4306SOL     OW24550   2.834   3.180   2.749 -0.7243 -0.3342 -0.3748
 4306SOL    HW124551   2.844   3.215   2.837 -2.1890  2.1828 -1.2145
 4306SOL    HW224552   2.871   3.253   2.699 -0.0091  1.6060  2.9638
 4307SOL     OW24553   4.466   4.112   9.292 -0.2553 -0.2853  0.1769
 4307SOL    HW124554   4.375   4.135   9.310  1.1287  2.9458  3.0173
 4307SOL    HW224555   4.463   4.024   9.253  2.4205 -0.0616 -0.5247
 4308SOL     OW24556   3.751   2.199   6.007 -0.0171 -0.0140  0.6439
 4308SOL    HW124557   3.778   2.215   6.097 -0.1961  2.9908  0.1395
 4308SOL    HW224558   3.673   2.151   6.034  1.7563 -1.5036  3.1456
 4309SOL     OW24559   2.817   0.033   1.214  0.1771  0.0668 -0.3814
 4309SOL    HW124560   2.872   0.009   1.139 -3.0433 -3.1427 -1.6835
 4309SOL    HW224561   2.798   4.678   1.232  0.3237 -0.1583 -1.3558
 4310SOL     OW24562   3.379   1.547   9.479 -0.4499 -0.4644 -0.7133
 4310SOL    HW124563   3.301   1.556   9.423  0.2971  1.8469 -1.3801
 4310SOL    HW224564   3.368   1.623   9.536  1.5192 -1.1933  0.6103
 4311SOL     OW24565   0.325   1.646   2.105  0.2744  0.2340  0.3369
 4311SOL    HW124566   0.353   1.734   2.127 -3.4464  2.1962 -2.6892
 4311SOL    HW224567   0.370   1.588   2.166 -0.9638  1.4005  2.3764
 4312SOL     OW24568   1.778   4.464   6.643  0.3299  0.1099 -0.2943
 4312SOL    HW124569   1.730   4.547   6.640  1.5143  0.8230  0.4532
 4312SOL    HW224570   1.762   4.440   6.735 -2.1337  3.1207  0.0598
 4313SOL     OW24571   4.524   4.194   3.471  0.2278 -0.3285  0.8899
 4313SOL    HW124572   4.552   4.117   3.422  1.1435  0.0344  0.8406
 4313SOL    HW224573   4.506   4.254   3.399 -2.9558 -1.6134  0.6322
 4314SOL     OW24574   3.309   2.292   6.869  0.5170  0.5995  0.3551
 4314SOL    HW124575   3.312   2.211   6.919 -0.3930  0.8106  0.7500
 4314SOL    HW224576   3.401   2.317   6.878  0.5640  0.4833  0.1872
 4315SOL     OW24577   2.470   0.714   6.456 -0.1747 -0.2008  0.0689
 4315SOL    HW124578   2.428   0.799   6.438  0.9651  0.1360 -0.9557
 4315SOL    HW224579   2.540   0.718   6.391 -0.1779  1.9178  0.2004
 4316SOL     OW24580   1.727   1.268   3.191  0.2446  0.6069  0.4860
 4316SOL    HW124581   1.805   1.235   3.235  0.4060  1.2553  0.6828
 4316SOL    HW224582   1.696   1.318   3.266  1.1451 -1.0819  1.9978
 4317SOL     OW24583   3.883   2.666  13.629 -0.7251 -0.7219 -0.7820
 4317SOL    HW124584   3.888   2.579  13.589  2.2702 -0.2744 -1.3997
 4317SOL    HW224585   3.884   2.727  13.555  0.1810  0.2680  0.0443
 4318SOL     OW24586   1.297   0.036   3.472 -0.3829 -0.2280  0.1943
 4318SOL    HW124587   1.337   4.701   3.522  3.9205  0.6486 -1.9673
 4318SOL    HW224588   1.250   0.083   3.540  0.9787 -1.2807  1.8541
 4319SOL     OW24589   3.346   1.434   7.283  0.0769  0.0333  0.5440
 4319SOL    HW124590   3.435   1.437   7.248  0.3581 -0.2492  1.2285
 4319SOL    HW224591   3.351   1.510   7.341 -0.0277  0.2296  0.2955
 4320SOL     OW24592   1.170   2.309   5.180  0.2766 -0.3611  0.1889
 4320SOL    HW124593   1.210   2.359   5.108  0.3404 -0.4844  0.1401
 4320SOL    HW224594   1.145   2.383   5.235  0.0877 -0.1167 -0.2181
 4321SOL     OW24595   4.205   0.800   6.262  0.1731 -0.2356  0.1794
 4321SOL    HW124596   4.259   0.861   6.211 -1.5897  1.2322  0.0723
 4321SOL    HW224597   4.265   0.751   6.317 -0.7269 -0.1930  1.1894
 4322SOL     OW24598   1.174   2.382   1.865 -0.2018  0.0910  1.0246
 4322SOL    HW124599   1.259   2.416   1.891 -0.0281 -1.6105  2.6235
 4322SOL    HW224600   1.181   2.356   1.773 -2.9044  0.1630  0.7684
 4323SOL     OW24601   2.180   3.673  14.382  0.5446 -0.1033 -0.6160
 4323SOL    HW124602   2.144   3.610  14.320 -0.6870 -0.3558  0.3371
 4323SOL    HW224603   2.175   3.757  14.338  0.1761  0.5847  0.7199
 4324SOL     OW24604   0.133   4.174   8.100 -0.3733 -0.4391  0.3831
 4324SOL    HW124605   0.142   4.241   8.167 -0.2753  1.2893 -1.3521
 4324SOL    HW224606   0.226   4.163   8.079 -0.5440 -0.9922 -0.0891
 4325SOL     OW24607   1.275   0.237   8.536 -0.0549 -0.2919 -0.2865
 4325SOL    HW124608   1.246   0.285   8.459 -1.4367 -1.1532 -0.2980
 4325SOL    HW224609   1.348   0.184   8.504  1.1520  0.2499  1.5840
 4326SOL     OW24610   4.255   4.295   4.321 -0.2176 -0.0510  0.3231
 4326SOL    HW124611   4.275   4.341   4.402 -0.6794 -1.3182  1.1561
 4326SOL    HW224612   4.292   4.353   4.255  0.6286  0.5624  1.3305
 4327SOL     OW24613   0.505   1.281   3.973 -0.0203  0.6413  0.4654
 4327SOL    HW124614   0.487   1.269   4.066 -0.1124 -1.5483  0.1597
 4327SOL    HW224615   0.520   1.189   3.954 -2.8508  0.0664  1.0857
 4328SOL     OW24616   1.304   3.750   7.587  0.3455 -0.0958  0.2278
 4328SOL    HW124617   1.290   3.661   7.621 -0.9697  0.4448  1.1134
 4328SOL    HW224618   1.214   3.783   7.596  0.6991  0.4782  1.6594
 4329SOL     OW24619   3.117   3.598   6.550 -0.2269 -0.7101  0.6878
 4329SOL    HW124620   3.170   3.518   6.555  0.1797 -0.4233  1.0548
 4329SOL    HW224621   3.101   3.599   6.456 -0.1416 -1.9753  0.6564
 4330SOL     OW24622   3.620   2.490   4.098  0.4921  0.4409  0.1310
 4330SOL    HW124623   3.569   2.461   4.022  1.6968  0.6208 -0.7391
 4330SOL    HW224624   3.613   2.413   4.155 -1.3072  0.4782 -0.0275
 4331SOL     OW24625   0.977   0.992   3.864 -0.4269 -0.0406 -0.0703
 4331SOL    HW124626   1.056   1.041   3.887 -0.0078 -1.3584  1.2831
 4331SOL    HW224627   1.012   0.903   3.855  2.1465  0.9154  0.2484
 4332SOL     OW24628   0.206   2.273   6.472  0.4305  0.0284 -0.0754
 4332SOL    HW124629   0.217   2.312   6.558  1.4168  1.8740 -1.0201
 4332SOL    HW224630   0.116   2.296   6.451  1.4429  1.6506 -2.7711
 4333SOL     OW24631   1.106   3.013   6.842  0.1420  0.3193 -0.5893
 4333SOL    HW124632   1.182   3.070   6.858  0.5565 -0.0398 -1.2554
 4333SOL    HW224633   1.046   3.067   6.892 -2.4705 -1.3305 -1.9531
 4334SOL     OW24634   1.360   3.227   7.288  0.0888 -0.0454  0.2487
 4334SOL    HW124635   1.301   3.286   7.240  0.1161 -0.1975  0.0297
 4334SOL    HW224636   1.319   3.141   7.283 -0.5616  0.2342  0.7606
 4335SOL     OW24637   3.440   1.990  16.856  0.3705 -0.4150  0.0713
 4335SOL    HW124638   3.455   1.925  16.924  1.5582 -0.9654 -0.7207
 4335SOL    HW224639   3.469   1.943  16.778  0.1948 -1.3769  0.5978
 4336SOL     OW24640   3.591   4.464   7.098  0.0893 -0.4788  0.0391
 4336SOL    HW124641   3.523   4.494   7.037 -0.7381 -0.5137  0.9423
 4336SOL    HW224642   3.666   4.458   7.039  1.4100 -1.9237  1.8695
 4337SOL     OW24643   4.506   1.013  10.991  0.0192  0.2708 -0.1652
 4337SOL    HW124644   4.546   1.076  11.050 -1.3386  0.9772 -0.0082
 4337SOL    HW224645   4.416   1.016  11.023  0.2785 -0.3383  0.6102
 4338SOL     OW24646   0.417   1.309   0.069 -0.3159 -0.6959 -0.5029
 4338SOL    HW124647   0.498   1.267   0.098  1.3508  2.9619  0.1891
 4338SOL    HW224648   0.368   1.231   0.043 -1.1337 -0.1576 -0.5635
 4339SOL     OW24649   1.258   3.743   8.769  0.5993 -0.1549 -0.7458
 4339SOL    HW124650   1.224   3.654   8.760 -1.1559  0.3573  0.7430
 4339SOL    HW224651   1.228   3.796   8.695 -0.4415 -0.5112 -0.5792
 4340SOL     OW24652   3.028   3.745   8.441  0.4747  0.0751 -0.0090
 4340SOL    HW124653   3.049   3.722   8.531  0.4720 -1.1068 -0.3092
 4340SOL    HW224654   2.957   3.807   8.459  0.9386 -0.0472  2.1919
 4341SOL     OW24655   0.365   2.876   6.721  0.1600 -0.1308 -0.4636
 4341SOL    HW124656   0.278   2.873   6.682 -0.1626  1.4321  0.1534
 4341SOL    HW224657   0.410   2.803   6.679 -0.5296 -0.5618 -0.4519
 4342SOL     OW24658   1.532   1.677   5.426  0.5950  0.0255  0.3316
 4342SOL    HW124659   1.527   1.683   5.330  2.0901  1.6040  0.3591
 4342SOL    HW224660   1.464   1.611   5.439  0.9738 -0.0886  1.7191
 4343SOL     OW24661   0.496   3.516   4.105 -0.2248  0.5618  0.1556
 4343SOL    HW124662   0.580   3.526   4.060 -0.6966  0.5804 -0.7283
 4343SOL    HW224663   0.488   3.421   4.112 -0.4239  0.4712 -1.2890
 4344SOL     OW24664   3.193   3.217   5.822  0.0874  0.1481  0.3608
 4344SOL    HW124665   3.142   3.295   5.797  1.0813  0.1187 -1.7106
 4344SOL    HW224666   3.114   3.166   5.803 -0.2664 -0.1832  2.6688
 4345SOL     OW24667   0.649   0.769  15.518  0.0257 -0.4748  0.7632
 4345SOL    HW124668   0.556   0.760  15.541 -0.3000  0.8601  0.0303
 4345SOL    HW224669   0.676   0.677  15.515 -1.3219 -0.9079  1.5411
 4346SOL     OW24670   2.064   2.869   3.051 -0.0602  0.3273  0.0338
 4346SOL    HW124671   2.089   2.954   3.088  0.1795  0.1524  0.2702
 4346SOL    HW224672   1.973   2.861   3.080 -0.2690  2.3972 -0.0602
 4347SOL     OW24673   3.846   4.724  10.026 -0.3782  0.3533 -0.0898
 4347SOL    HW124674   3.904   0.046   9.978 -0.6000  0.1341 -0.6261
 4347SOL    HW224675   3.888   0.000  10.111  0.9030 -1.6623 -0.4343
 4348SOL     OW24676   0.181   1.635   7.527 -0.0716 -0.0647  0.5829
 4348SOL    HW124677   0.172   1.718   7.573 -0.6042  0.9360 -1.3387
 4348SOL    HW224678   0.133   1.649   7.445  0.6690  0.3059  0.2056
 4349SOL     OW24679   1.232   0.272   9.360  0.0982  0.1040  0.0929
 4349SOL    HW124680   1.289   0.265   9.437 -0.9455  0.9200  0.9526
 4349SOL    HW224681   1.291   0.245   9.290  0.2984 -0.7588  0.5913
 4350SOL     OW24682   3.859   0.970   7.877  0.3534  0.6708  0.1159
 4350SOL    HW124683   3.850   0.882   7.840 -0.2810  1.7060 -2.1375
 4350SOL    HW224684   3.882   1.028   7.805  0.2785  1.0805  0.4282
 4351SOL     OW24685   1.566   1.536   8.308  0.3227 -0.0404  0.2093
 4351SOL    HW124686   1.583   1.496   8.393 -0.0917 -1.2365 -0.2760
 4351SOL    HW224687   1.635   1.498   8.253 -1.1765 -1.4210 -0.7133
 4352SOL     OW24688   4.488   1.472   0.992  0.2852  0.0451 -0.4108
 4352SOL    HW124689   4.515   1.469   1.084  1.7606  0.4613 -0.8312
 4352SOL    HW224690   4.537   1.394   0.965 -1.2952 -0.3345 -2.1679
 4353SOL     OW24691   1.021   3.702   3.782 -0.7303  0.1934  0.0711
 4353SOL    HW124692   1.027   3.686   3.876 -0.3126 -0.4143 -0.0631
 4353SOL    HW224693   0.997   3.795   3.785 -0.2751  0.2075  3.1023
 4354SOL     OW24694   2.968   1.912   2.907 -0.3723 -0.4578  0.4011
 4354SOL    HW124695   2.886   1.882   2.945 -0.5714 -2.0216 -1.2817
 4354SOL    HW224696   2.965   2.004   2.935 -0.4532 -0.4662  0.4179
 4355SOL     OW24697   0.788   3.405  12.038 -0.1384  0.1289  0.2016
 4355SOL    HW124698   0.717   3.457  12.001  0.4666  0.7087 -0.1604
 4355SOL    HW224699   0.846   3.475  12.066  1.5925 -0.5852 -1.6050
 4356SOL     OW24700   2.282   3.045  17.007 -0.1898  0.0341  0.4066
 4356SOL    HW124701   2.284   2.956  16.971  1.8990  0.3432 -0.2075
 4356SOL    HW224702   2.340   3.028  17.081  1.8491 -1.8088 -1.6142
 4357SOL     OW24703   3.490   0.138  14.105 -0.1203  0.3089 -0.0090
 4357SOL    HW124704   3.434   0.215  14.115  0.6231  0.3666  3.6973
 4357SOL    HW224705   3.426   0.070  14.123  0.7246 -0.5837 -0.3867
 4358SOL     OW24706   4.038   0.452   2.879 -0.0800 -0.4746  0.3767
 4358SOL    HW124707   4.069   0.493   2.960  0.8371 -0.8773  0.2298
 4358SOL    HW224708   3.961   0.402   2.903 -1.9471  1.6006 -1.3360
 4359SOL     OW24709   0.864   2.781  11.132 -0.2533 -0.4184  0.2193
 4359SOL    HW124710   0.851   2.689  11.156  0.3107 -0.5310  0.0884
 4359SOL    HW224711   0.948   2.765  11.090 -0.4248 -0.9203  0.0709
 4360SOL     OW24712   0.128   1.927  10.438 -0.4069 -0.1860  0.2343
 4360SOL    HW124713   0.104   2.014  10.407 -0.9122  0.5745  2.7637
 4360SOL    HW224714   0.154   1.953  10.526  1.3629 -0.3006 -0.2665
 4361SOL     OW24715   0.145   0.921   4.460 -0.0742  0.5604  0.2871
 4361SOL    HW124716   0.150   0.960   4.372 -0.2484 -2.5395 -1.1013
 4361SOL    HW224717   0.072   0.972   4.495 -1.3385 -1.0171 -0.0538
 4362SOL     OW24718   1.302   0.402   8.774 -0.3520  0.1995  0.4142
 4362SOL    HW124719   1.384   0.451   8.772 -0.1669 -0.1271 -0.1304
 4362SOL    HW224720   1.317   0.349   8.696 -1.3122  0.0949  0.3049
 4363SOL     OW24721   4.135   1.537  10.030  0.3556  0.1444 -0.1238
 4363SOL    HW124722   4.128   1.558   9.937  0.4401 -1.6213 -0.5425
 4363SOL    HW224723   4.057   1.582  10.062  0.2855  0.0409 -0.1451
 4364SOL     OW24724   2.365   3.985   9.309  0.2100  0.4261  0.8317
 4364SOL    HW124725   2.349   3.909   9.252  1.2419 -0.0644  1.2067
 4364SOL    HW224726   2.300   4.044   9.270  0.7162 -1.2828 -2.6568
 4365SOL     OW24727   1.847   0.504   3.106 -0.2965 -1.0547  0.3487
 4365SOL    HW124728   1.839   0.420   3.060  1.8419  0.7438 -3.3229
 4365SOL    HW224729   1.896   0.555   3.042 -1.7262  0.7301  0.6693
 4366SOL     OW24730   0.010   1.558   3.198 -0.5768  0.5634  0.5856
 4366SOL    HW124731   4.690   1.547   3.274 -0.7764  0.1281  0.3780
 4366SOL    HW224732   4.680   1.579   3.132 -0.5368  2.6416  1.2067
 4367SOL     OW24733   1.980   2.007   6.785  0.1346  0.1601  0.3085
 4367SOL    HW124734   2.012   1.988   6.696  1.8048 -1.4221  1.2468
 4367SOL    HW224735   1.928   2.085   6.763  2.5013  2.1359  1.6938
 4368SOL     OW24736   4.304   0.225   2.933 -0.1996  0.6240  0.3741
 4368SOL    HW124737   4.378   0.226   2.872 -1.4871  0.7055 -1.2182
 4368SOL    HW224738   4.303   0.321   2.928 -1.4645  0.5447 -1.3155
 4369SOL     OW24739   2.457   3.701   9.984 -0.5882  0.9417 -1.1215
 4369SOL    HW124740   2.405   3.689  10.064  2.6125  0.0971  0.8613
 4369SOL    HW224741   2.501   3.616   9.980 -1.2673  0.5394 -0.1732
 4370SOL     OW24742   1.224   3.420   9.157 -0.5042 -0.5103  0.0274
 4370SOL    HW124743   1.236   3.370   9.237  2.4128 -2.8755 -1.8995
 4370SOL    HW224744   1.282   3.495   9.171 -1.9435  0.6451 -0.2272
 4371SOL     OW24745   3.476   1.468   1.610  0.0294 -0.0412  0.2041
 4371SOL    HW124746   3.461   1.479   1.704 -0.9765  0.8077 -0.0590
 4371SOL    HW224747   3.548   1.526   1.588 -1.1315  0.9369 -0.9440
 4372SOL     OW24748   0.278   1.823   4.628 -0.6962 -0.7187  0.2943
 4372SOL    HW124749   0.344   1.865   4.683  0.5232 -1.8375 -0.3121
 4372SOL    HW224750   0.283   1.733   4.660 -1.0395 -0.1665  1.9116
 4373SOL     OW24751   2.233   3.603   4.875 -0.3861 -0.5070 -0.7565
 4373SOL    HW124752   2.187   3.564   4.949  0.3657 -0.9554 -0.5309
 4373SOL    HW224753   2.261   3.679   4.926 -0.3227 -1.2194  0.2609
 4374SOL     OW24754   3.597   1.351   9.599  0.2980  0.3339  0.6365
 4374SOL    HW124755   3.513   1.395   9.587 -0.0484 -0.9642 -1.7645
 4374SOL    HW224756   3.631   1.355   9.509 -0.1411 -1.5404  0.3794
 4375SOL     OW24757   3.447   3.861  14.893  0.3576  0.1807  0.2148
 4375SOL    HW124758   3.486   3.879  14.808 -0.3527  0.2019 -0.0974
 4375SOL    HW224759   3.502   3.795  14.936  0.4975  0.8856  1.1330
 4376SOL     OW24760   3.583   0.877   8.544  0.1486  0.0275  0.0676
 4376SOL    HW124761   3.623   0.866   8.457  0.3660 -0.3513  0.2141
 4376SOL    HW224762   3.498   0.900   8.508 -1.9680 -2.4089  3.5736
 4377SOL     OW24763   4.617   4.611   7.221 -0.1528  0.1138 -0.1418
 4377SOL    HW124764   4.624   4.520   7.193  2.2472  0.5513 -0.9676
 4377SOL    HW224765   4.704   4.646   7.202 -1.1812  1.8832 -1.6217
 4378SOL     OW24766   3.652   1.290  12.502 -0.0305 -0.5177 -0.2456
 4378SOL    HW124767   3.557   1.277  12.503 -0.3172  1.6460 -0.2810
 4378SOL    HW224768   3.663   1.327  12.414 -0.4391  1.6134  0.6058
 4379SOL     OW24769   1.557   0.215   6.660  0.3517 -0.3499  0.1656
 4379SOL    HW124770   1.481   0.227   6.603 -0.0378  2.6611  1.3233
 4379SOL    HW224771   1.541   0.278   6.730  0.3107 -1.3476  1.0660
 4380SOL     OW24772   0.454   3.263   2.805  0.2500  0.5475  0.4938
 4380SOL    HW124773   0.368   3.274   2.844 -1.4638 -0.4650 -2.9488
 4380SOL    HW224774   0.458   3.170   2.781 -0.1903  0.8572 -0.7810
 4381SOL     OW24775   3.935   0.465   0.857 -0.1023  0.4195  0.3047
 4381SOL    HW124776   4.002   0.497   0.917  1.2822  3.0769 -2.6549
 4381SOL    HW224777   3.859   0.516   0.887 -0.8412  0.3307 -1.4126
 4382SOL     OW24778   1.726   1.351   3.452 -0.2369 -0.5246  0.3727
 4382SOL    HW124779   1.635   1.345   3.481 -1.0002 -0.2693 -1.9318
 4382SOL    HW224780   1.757   1.269   3.491  0.7210 -1.1295 -1.6409
 4383SOL     OW24781   4.206   4.213  15.711 -0.1367 -0.1525 -0.2870
 4383SOL    HW124782   4.145   4.253  15.649  0.5398  1.4223  0.0591
 4383SOL    HW224783   4.282   4.199  15.655 -0.3381  1.5831 -0.9953
 4384SOL     OW24784   3.324   4.377   0.966 -0.3398  0.7862  0.5124
 4384SOL    HW124785   3.417   4.357   0.974 -0.0491  1.4269 -1.1812
 4384SOL    HW224786   3.333   4.427   0.885  0.0620 -0.0685  0.0349
 4385SOL     OW24787   2.747   0.865   8.796  0.1843 -0.3217 -0.1500
 4385SOL    HW124788   2.732   0.810   8.719 -1.3221 -2.4787  1.7173
 4385SOL    HW224789   2.776   0.792   8.850  1.3331  0.6447  0.5442
 4386SOL     OW24790   0.966   1.172   9.650  0.2460 -0.2986  0.0443
 4386SOL    HW124791   1.038   1.153   9.711  0.9585  0.7541 -0.4722
 4386SOL    HW224792   0.974   1.267   9.646 -0.6793 -0.2315 -0.2884
 4387SOL     OW24793   1.823   3.799   1.137  0.6136 -0.0771  0.4368
 4387SOL    HW124794   1.799   3.726   1.194 -2.2402 -1.4192 -2.4751
 4387SOL    HW224795   1.835   3.762   1.049  1.2041  0.1589  0.4164
 4388SOL     OW24796   0.206   4.245  11.957 -0.6063 -0.3623  0.4456
 4388SOL    HW124797   0.215   4.250  12.052  0.5827 -0.3027  0.3277
 4388SOL    HW224798   0.122   4.286  11.941  0.5583  1.0661 -1.9657
 4389SOL     OW24799   0.460   4.292   9.309  0.2951  0.2539  0.1728
 4389SOL    HW124800   0.520   4.254   9.374 -0.4879 -0.6036  0.3923
 4389SOL    HW224801   0.379   4.302   9.359  0.5153  0.7070  0.4416
 4390SOL     OW24802   1.652   1.296   6.802 -0.0344 -0.0194  0.2025
 4390SOL    HW124803   1.743   1.296   6.772 -1.4293 -3.0871 -4.0306
 4390SOL    HW224804   1.669   1.330   6.890  0.2912  0.8653 -0.1932
 4391SOL     OW24805   4.408   0.485   7.458 -0.1847  0.8545  0.4814
 4391SOL    HW124806   4.350   0.539   7.512 -1.5701  0.0026 -0.1622
 4391SOL    HW224807   4.348   0.433   7.405 -2.3506  2.4575  1.3525
 4392SOL     OW24808   3.195   0.065  11.016 -0.0395  0.2349  0.0427
 4392SOL    HW124809   3.209   0.017  11.097 -2.4450 -0.2127  0.1828
 4392SOL    HW224810   3.103   0.086  11.004  0.1085  0.6358 -0.4162
 4393SOL     OW24811   3.065   2.926   7.456 -0.1702  0.2887 -0.0950
 4393SOL    HW124812   3.029   2.942   7.369  1.3302 -0.7326 -0.8986
 4393SOL    HW224813   3.041   3.010   7.494  0.2532 -0.2017  1.2764
 4394SOL     OW24814   0.129   1.485  13.724  0.1519 -0.0220 -0.2872
 4394SOL    HW124815   0.160   1.404  13.766 -0.7531  0.3464  1.0816
 4394SOL    HW224816   0.117   1.540  13.801  1.7894 -0.0283 -0.0243
 4395SOL     OW24817   4.504   2.385   9.415 -0.6108  0.5226 -0.5683
 4395SOL    HW124818   4.550   2.468   9.407  0.0654  0.0244 -1.7986
 4395SOL    HW224819   4.474   2.362   9.327 -0.3314 -2.2259  0.0354
 4396SOL     OW24820   2.001   3.575   7.486 -0.1594 -0.4616 -0.4206
 4396SOL    HW124821   1.961   3.661   7.495  3.6976  1.1553  1.2656
 4396SOL    HW224822   2.034   3.576   7.576 -1.3956 -1.4181  0.0543
 4397SOL     OW24823   2.793   2.584  11.312  0.1747  0.5660 -0.2536
 4397SOL    HW124824   2.825   2.579  11.402 -1.2067  1.8008  0.3084
 4397SOL    HW224825   2.771   2.677  11.300 -0.6714  0.6389  1.9248
 4398SOL     OW24826   2.733   3.453   5.350  0.5902  0.4386 -0.3270
 4398SOL    HW124827   2.684   3.494   5.422 -0.4801 -0.8381 -0.3361
 4398SOL    HW224828   2.662   3.401   5.313 -0.2890  1.4824 -0.1364
 4399SOL     OW24829   1.129   2.682  15.853  0.1520 -0.5108  0.1112
 4399SOL    HW124830   1.155   2.747  15.789 -1.4482  0.2942  0.2875
 4399SOL    HW224831   1.039   2.710  15.873 -0.0031  0.0244 -1.3566
 4400SOL     OW24832   4.642   2.333  17.040 -0.3800 -0.2846  0.3815
 4400SOL    HW124833   4.666   2.241  17.025  0.1381 -0.2051  0.7154
 4400SOL    HW224834   4.642   2.351  16.946  0.0746 -3.2614 -0.2020
 4401SOL     OW24835   4.691   4.435  13.572 -0.0614 -0.0334 -0.3464
 4401SOL    HW124836   4.684   4.368  13.640 -0.4559  0.5437  0.1835
 4401SOL    HW224837   0.043   4.434  13.535  0.7740 -1.7464  1.7570
 4402SOL     OW24838   2.548   3.493   9.074 -0.4697  0.6804 -0.3441
 4402SOL    HW124839   2.510   3.537   8.998  0.9252  1.0355 -0.8312
 4402SOL    HW224840   2.486   3.539   9.130  0.1534  1.8433 -0.6102
 4403SOL     OW24841   2.629   0.254   3.274 -0.6358  0.5998 -0.3485
 4403SOL    HW124842   2.714   0.296   3.289 -0.5165  0.4185 -0.5256
 4403SOL    HW224843   2.660   0.195   3.205  1.6749  0.6145  0.6868
 4404SOL     OW24844   3.995   2.046   5.650 -0.6780 -0.5209 -0.2118
 4404SOL    HW124845   3.979   2.120   5.709  1.2494  2.4064 -3.3698
 4404SOL    HW224846   4.018   2.094   5.571  0.6384 -0.8575 -0.0370
 4405SOL     OW24847   3.206   2.705   7.538 -0.5451  0.0315  0.0891
 4405SOL    HW124848   3.270   2.759   7.586  0.0884 -0.0012 -0.7191
 4405SOL    HW224849   3.139   2.772   7.525 -0.8498  0.1187  2.0282
 4406SOL     OW24850   4.514   3.679  16.727 -0.2646  0.1039  0.1609
 4406SOL    HW124851   4.474   3.636  16.651  0.8778  1.2022 -1.0663
 4406SOL    HW224852   4.545   3.609  16.784  0.1569  0.0519 -0.1358
 4407SOL     OW24853   3.491   1.554  15.512  0.0963  0.5416  0.1165
 4407SOL    HW124854   3.520   1.532  15.424 -1.5639 -0.1071 -0.2731
 4407SOL    HW224855   3.575   1.578  15.551 -0.4825  0.4499  1.4534
 4408SOL     OW24856   3.755   2.515   0.644 -0.1231 -0.6830 -0.5193
 4408SOL    HW124857   3.757   2.429   0.687 -0.6976 -0.5786 -0.2790
 4408SOL    HW224858   3.845   2.542   0.662  0.4562 -1.4503 -2.3614
 4409SOL     OW24859   4.365   4.276   3.246 -0.0151  0.1366 -0.5089
 4409SOL    HW124860   4.340   4.225   3.169 -0.2301 -2.9260  1.5587
 4409SOL    HW224861   4.442   4.326   3.222  2.0541 -1.5347  2.6966
 4410SOL     OW24862   0.589   0.836   2.874  0.5376 -0.3302 -0.6063
 4410SOL    HW124863   0.573   0.917   2.825 -0.5265  1.2870  2.3997
 4410SOL    HW224864   0.652   0.872   2.936 -0.3523  1.8595 -0.9692
 4411SOL     OW24865   4.361   1.706  12.709  1.0355 -0.0458 -0.2708
 4411SOL    HW124866   4.325   1.732  12.623  0.2666 -0.7650 -0.1645
 4411SOL    HW224867   4.318   1.625  12.737  0.2927 -0.2806 -2.0574
 4412SOL     OW24868   4.237   0.671   0.658 -0.1685 -0.3381  0.0595
 4412SOL    HW124869   4.234   0.584   0.618  1.5931  0.2421 -1.3528
 4412SOL    HW224870   4.325   0.678   0.694 -0.0181 -2.0280  0.0025
 4413SOL     OW24871   2.170   1.793  13.911  0.2229 -0.0227  0.0908
 4413SOL    HW124872   2.100   1.749  13.863 -0.7947  0.7441  0.8762
 4413SOL    HW224873   2.215   1.834  13.837  0.3902 -1.5785 -0.6759
 4414SOL     OW24874   1.999   3.595  11.384  0.3109 -0.2144  0.3571
 4414SOL    HW124875   2.050   3.517  11.361  0.3230 -0.3302  0.7731
 4414SOL    HW224876   2.064   3.658  11.414  0.3748  0.8981 -2.1628
 4415SOL     OW24877   0.151   2.029  10.129 -0.1647  0.2604 -0.2999
 4415SOL    HW124878   0.235   2.021  10.084  0.3638  1.7814  0.4266
 4415SOL    HW224879   0.086   2.002  10.064 -0.3844  0.8389 -0.3177
 4416SOL     OW24880   3.954   0.369   0.262 -0.0264 -0.0353  0.5032
 4416SOL    HW124881   3.866   0.340   0.235  0.5686 -1.1454 -0.2519
 4416SOL    HW224882   3.987   0.438   0.205 -1.4429  0.4461  0.2622
 4417SOL     OW24883   3.117   0.889   8.365  0.0275  0.1252  0.2349
 4417SOL    HW124884   3.060   0.963   8.387  0.1162  0.1894  0.2502
 4417SOL    HW224885   3.166   0.876   8.446 -0.5520  3.2530  1.0875
 4418SOL     OW24886   0.399   3.785  10.279  0.0705 -0.5369  0.1552
 4418SOL    HW124887   0.418   3.793  10.372 -2.1500 -1.6069  0.7064
 4418SOL    HW224888   0.304   3.776  10.283 -0.1355  1.8127  0.5807
 4419SOL     OW24889   4.002   4.019   8.024 -0.2402 -0.3516 -0.6810
 4419SOL    HW124890   4.027   4.099   8.070 -1.7191 -2.0512  3.1291
 4419SOL    HW224891   3.928   4.050   7.973  0.9893  1.6038 -1.2610
 4420SOL     OW24892   2.778   0.405   8.300  0.5853  0.1216 -0.3048
 4420SOL    HW124893   2.832   0.340   8.254  1.5988  0.2048  0.7717
 4420SOL    HW224894   2.838   0.421   8.373 -0.6782 -0.3109  0.8097
 4421SOL     OW24895   3.275   0.854   4.284  0.4670  0.4752 -0.2832
 4421SOL    HW124896   3.290   0.861   4.189  3.5864  0.4457  0.2321
 4421SOL    HW224897   3.365   0.853   4.315  0.7062  1.0501 -0.9592
 4422SOL     OW24898   1.526   1.966   9.201  0.1285 -0.1020  0.4535
 4422SOL    HW124899   1.465   1.945   9.272 -1.0537  0.9283 -0.2482
 4422SOL    HW224900   1.477   2.038   9.162 -2.4560 -0.9570  2.0664
 4423SOL     OW24901   0.435   2.418   2.163 -0.5466 -0.2415  0.1662
 4423SOL    HW124902   0.379   2.393   2.089  0.5432  0.1009 -0.7640
 4423SOL    HW224903   0.519   2.442   2.123 -0.7058 -0.4949 -0.3297
 4424SOL     OW24904   3.280   1.312   5.382 -0.1111  0.0656  0.0833
 4424SOL    HW124905   3.337   1.337   5.455 -0.1392  0.8658 -0.1711
 4424SOL    HW224906   3.242   1.232   5.417 -2.8340 -0.2266 -3.5492
 4425SOL     OW24907   3.626   4.165   3.311  0.2943 -0.3118  0.1023
 4425SOL    HW124908   3.637   4.207   3.397 -2.0786 -0.2964  0.3922
 4425SOL    HW224909   3.535   4.188   3.292  0.8737 -0.5959 -2.9970
 4426SOL     OW24910   3.622   3.901   5.205 -0.2851 -0.6509  0.5692
 4426SOL    HW124911   3.585   3.972   5.258  0.8300 -0.1817  0.7212
 4426SOL    HW224912   3.645   3.948   5.125  3.4639  0.4300  2.2792
 4427SOL     OW24913   2.429   2.042  17.434 -0.1291  0.1603  0.3721
 4427SOL    HW124914   2.373   2.064  17.359  2.4226  2.4752 -0.8581
 4427SOL    HW224915   2.372   1.987  17.487 -1.9162  1.6291 -0.0394
 4428SOL     OW24916   1.068   2.505   1.418  0.2238 -0.1129  0.3134
 4428SOL    HW124917   1.020   2.476   1.340 -0.3232  1.4777  0.0604
 4428SOL    HW224918   1.011   2.573   1.455  0.6972  0.5872 -0.2350
 4429SOL     OW24919   3.777   4.564   7.797  0.0104 -0.5418  0.3174
 4429SOL    HW124920   3.841   4.572   7.727  0.4291  0.8053  0.8706
 4429SOL    HW224921   3.727   4.644   7.782  1.0926  0.0530 -0.1116
 4430SOL     OW24922   4.536   1.870   6.828 -0.2073  0.0388 -0.2383
 4430SOL    HW124923   4.443   1.850   6.839  0.0091  0.2935  1.9307
 4430SOL    HW224924   4.564   1.794   6.777  0.2258 -0.4655  0.7646
 4431SOL     OW24925   4.228   4.561   9.788  0.4659 -0.2551 -0.5888
 4431SOL    HW124926   4.142   4.524   9.805  0.0184  0.9209 -0.3127
 4431SOL    HW224927   4.274   4.539   9.869  0.5272  1.6608 -0.1048
 4432SOL     OW24928   0.827   2.353   3.322 -0.1299  0.0896  1.4333
 4432SOL    HW124929   0.910   2.325   3.282 -1.2470 -0.6690 -0.3455
 4432SOL    HW224930   0.815   2.441   3.285  0.8177 -1.4570 -2.6168
 4433SOL     OW24931   3.303   4.037   2.567  0.2631  0.4584 -1.0506
 4433SOL    HW124932   3.383   4.030   2.515  0.7096  0.0964 -0.3073
 4433SOL    HW224933   3.326   3.990   2.647  0.1143  0.4540 -1.0101
 4434SOL     OW24934   2.982   4.722   8.288 -0.0310  0.1096 -0.3748
 4434SOL    HW124935   3.055   4.680   8.333  0.8532  1.6279 -0.3992
 4434SOL    HW224936   2.904   4.682   8.326 -1.0637  0.9818 -1.5876
 4435SOL     OW24937   3.209   1.050   3.572  0.0075  0.5420  0.0493
 4435SOL    HW124938   3.270   1.002   3.516 -2.0953 -0.6367 -1.2568
 4435SOL    HW224939   3.247   1.047   3.660  1.8205 -0.3856 -0.7701
 4436SOL     OW24940   4.227   0.259   1.610  0.2682 -0.3150  0.4930
 4436SOL    HW124941   4.227   0.233   1.517 -0.3771 -1.3544  0.7808
 4436SOL    HW224942   4.277   0.341   1.605 -1.3369  0.7993  2.8868
 4437SOL     OW24943   1.237   2.231  10.985 -0.1587 -0.1843 -0.1389
 4437SOL    HW124944   1.287   2.194  11.057 -0.1247  0.8665  0.3887
 4437SOL    HW224945   1.230   2.149  10.937  1.8356 -0.5209  0.1728
 4438SOL     OW24946   3.777   1.560  15.517 -0.1800  0.1129 -0.6980
 4438SOL    HW124947   3.869   1.580  15.535 -0.4575  0.7878 -0.0341
 4438SOL    HW224948   3.780   1.588  15.425 -1.5443  1.1556 -0.4303
 4439SOL     OW24949   1.328   4.230   7.105 -0.4248  0.4314 -0.0405
 4439SOL    HW124950   1.242   4.193   7.124  0.2037 -1.7936 -1.5148
 4439SOL    HW224951   1.352   4.255   7.194 -0.1110  0.9416 -0.2647
 4440SOL     OW24952   4.106   3.386   8.307  0.2957  0.0717 -0.0416
 4440SOL    HW124953   4.187   3.415   8.265 -0.2294  3.9996  1.6590
 4440SOL    HW224954   4.132   3.334   8.384 -0.7297  1.4473  1.2227
 4441SOL     OW24955   1.196   4.473  14.031 -0.4046  0.1939 -0.0236
 4441SOL    HW124956   1.172   4.381  14.018 -1.1195  0.4877 -0.7851
 4441SOL    HW224957   1.254   4.480  14.107  2.8192  0.9466 -2.5509
 4442SOL     OW24958   2.464   0.349  11.367  0.2054  0.2063 -0.1455
 4442SOL    HW124959   2.384   0.362  11.317  0.8075  1.9869 -0.6650
 4442SOL    HW224960   2.455   0.424  11.426 -0.0687  0.3534 -0.3746
 4443SOL     OW24961   3.319   3.955  13.120 -1.0666 -0.3368  0.2050
 4443SOL    HW124962   3.360   3.905  13.049 -0.8226 -2.5998  1.9274
 4443SOL    HW224963   3.350   4.043  13.100 -0.6225 -0.9589 -1.8163
 4444SOL     OW24964   2.777   2.873   0.972  0.0819  0.3185  0.2685
 4444SOL    HW124965   2.750   2.964   0.981 -0.5264  0.1080  0.6152
 4444SOL    HW224966   2.843   2.880   0.903 -0.5169  1.2219 -0.2263
 4445SOL     OW24967   1.077   2.225   1.016 -0.3414 -0.2286  0.7802
 4445SOL    HW124968   1.017   2.273   0.960 -1.7697  0.2319  2.6987
 4445SOL    HW224969   1.068   2.276   1.097  0.1162  3.1106 -1.2922
 4446SOL     OW24970   4.075   3.078   3.558  0.4468  0.0799 -0.7299
 4446SOL    HW124971   4.109   3.167   3.547 -0.7344  0.2421 -2.9537
 4446SOL    HW224972   4.012   3.092   3.629  0.9522 -1.5554  0.0410
 4447SOL     OW24973   1.838   1.432   2.732  0.0485 -0.1943  0.5686
 4447SOL    HW124974   1.842   1.526   2.719 -0.9899 -0.3935 -1.1564
 4447SOL    HW224975   1.879   1.423   2.818  0.3310  0.8989  0.5389
 4448SOL     OW24976   2.263   1.744   5.738 -0.3327  0.4142  0.7087
 4448SOL    HW124977   2.241   1.830   5.703  0.5903  0.1302 -0.5824
 4448SOL    HW224978   2.317   1.757   5.816  1.9805 -3.3102 -0.2639
 4449SOL     OW24979   4.020   2.209   0.328 -0.0231 -0.0687  0.0708
 4449SOL    HW124980   4.086   2.269   0.362 -0.7609  1.9511 -2.0809
 4449SOL    HW224981   3.957   2.263   0.279  0.6539 -0.6736 -1.4636
 4450SOL     OW24982   3.616   1.504  13.569  0.5657  0.4154 -0.5324
 4450SOL    HW124983   3.537   1.472  13.525  1.5122 -3.9931  0.9237
 4450SOL    HW224984   3.677   1.431  13.559 -0.8861 -0.7029 -1.2366
 4451SOL     OW24985   2.338   3.496   0.966  0.7794 -0.1262  0.2936
 4451SOL    HW124986   2.412   3.449   0.927 -0.3441 -1.1799 -0.5773
 4451SOL    HW224987   2.385   3.579   0.977 -0.0509  0.7948 -2.8200
 4452SOL     OW24988   2.176   1.789   2.596 -0.4043 -0.7336  0.5580
 4452SOL    HW124989   2.270   1.793   2.613 -0.6648  0.5350  1.7115
 4452SOL    HW224990   2.145   1.870   2.638  1.7324  0.0267  0.6414
 4453SOL     OW24991   1.034   2.731   9.215 -0.0402  0.1932  0.0271
 4453SOL    HW124992   0.993   2.686   9.289 -1.8810 -1.0369 -1.7197
 4453SOL    HW224993   0.963   2.775   9.168 -0.7489  1.3098  2.1267
 4454SOL     OW24994   4.200   2.031  16.001 -0.6641 -0.4197  0.3233
 4454SOL    HW124995   4.195   2.094  15.928  0.1505 -2.3807 -1.4125
 4454SOL    HW224996   4.118   1.986  15.985 -1.2844  1.6510 -2.3163
 4455SOL     OW24997   3.966   2.960   7.164 -0.0933  0.6923 -0.6694
 4455SOL    HW124998   4.044   2.910   7.139  0.1834  1.3479 -1.1215
 4455SOL    HW224999   3.889   2.910   7.138 -0.3255  0.3212  0.7857
 4456SOL     OW25000   3.222   4.468   6.755  0.1800  0.2894  0.0914
 4456SOL    HW125001   3.167   4.487   6.831  0.6206 -1.7705  0.9121
 4456SOL    HW225002   3.155   4.469   6.687 -1.6547 -1.8043  1.8970
 4457SOL     OW25003   2.575   4.202   5.171  0.1620  0.7121  0.8761
 4457SOL    HW125004   2.516   4.268   5.134 -1.5673 -0.9505  0.6842
 4457SOL    HW225005   2.604   4.240   5.254  1.7871  1.2889  0.0303
 4458SOL     OW25006   2.333   0.003  11.973  0.5763 -0.3871 -0.0982
 4458SOL    HW125007   2.259   0.029  12.028  0.0224 -1.4861 -0.3017
 4458SOL    HW225008   2.359   0.088  11.939  2.0547 -0.3473  1.1612
 4459SOL     OW25009   4.452   1.647   5.490 -0.7033  0.4241  0.3403
 4459SOL    HW125010   4.440   1.566   5.441  2.0222  0.6953 -0.7485
 4459SOL    HW225011   4.541   1.645   5.523 -1.2905 -1.9034  1.7710
 4460SOL     OW25012   0.434   0.894   7.079  0.1243  0.6009  0.0912
 4460SOL    HW125013   0.396   0.920   7.163  1.4347 -1.4637  1.3103
 4460SOL    HW225014   0.383   0.951   7.022  0.8306 -0.9250 -2.0395
 4461SOL     OW25015   1.948   1.143   8.870 -0.0639  0.0220 -0.2351
 4461SOL    HW125016   1.880   1.076   8.875 -2.2473  2.2357  0.0179
 4461SOL    HW225017   1.981   1.122   8.783 -0.7887  0.3957 -0.6083
 4462SOL     OW25018   4.118   0.436  15.990  0.0523  0.2847 -0.0054
 4462SOL    HW125019   4.163   0.361  16.029 -1.0888 -0.8279 -0.8280
 4462SOL    HW225020   4.128   0.494  16.065  0.9236 -3.0194  2.4259
 4463SOL     OW25021   3.111   2.550   5.497  0.2154 -0.9869 -0.5700
 4463SOL    HW125022   3.071   2.469   5.528  0.2493 -0.7658  0.0450
 4463SOL    HW225023   3.158   2.575   5.577 -0.3888  0.9485 -0.8238
 4464SOL     OW25024   1.131   3.310   7.166  0.1739 -0.0465  0.4416
 4464SOL    HW125025   1.122   3.286   7.073 -1.2954  2.7946 -0.1398
 4464SOL    HW225026   1.040   3.314   7.194 -0.0944  0.2802 -0.4623
 4465SOL     OW25027   1.322   0.555  15.556 -0.1230 -0.1909 -0.4491
 4465SOL    HW125028   1.327   0.481  15.494 -0.6161 -0.6091  0.0077
 4465SOL    HW225029   1.337   0.507  15.637 -1.5830  1.3327  0.7326
 4466SOL     OW25030   3.921   2.497   5.924  0.8690  0.1592 -0.5489
 4466SOL    HW125031   3.857   2.469   5.989  1.3768  1.2024  0.3935
 4466SOL    HW225032   3.979   2.560   5.966  0.7732 -0.9102  1.1784
 4467SOL     OW25033   0.061   3.927   6.494  0.3384  0.2730  0.7671
 4467SOL    HW125034   0.055   3.969   6.408  0.3473 -2.5053 -0.5730
 4467SOL    HW225035   0.142   3.877   6.484 -0.5227 -1.0742  0.6389
 4468SOL     OW25036   1.411   2.642   7.493  0.0382  0.2674 -0.1673
 4468SOL    HW125037   1.493   2.646   7.543  0.1554  2.2113 -0.5137
 4468SOL    HW225038   1.358   2.709   7.536 -1.5101 -0.4401 -0.9838
 4469SOL     OW25039   2.901   4.291   4.291  0.4035 -0.3779  0.6465
 4469SOL    HW125040   2.849   4.372   4.290  0.9222 -0.0518 -0.3123
 4469SOL    HW225041   2.851   4.236   4.231  0.9557  0.5951 -0.7151
 4470SOL     OW25042   4.475   3.788   8.749  0.4733  0.0949  0.6238
 4470SOL    HW125043   4.511   3.871   8.720 -0.2044 -0.2199 -1.1101
 4470SOL    HW225044   4.383   3.809   8.769 -0.8950 -2.0245 -3.4944
 4471SOL     OW25045   1.602   4.304   8.820 -0.2705 -0.5351 -0.2764
 4471SOL    HW125046   1.688   4.273   8.849 -0.7718 -1.9892 -0.3306
 4471SOL    HW225047   1.559   4.222   8.797  0.8514 -0.9367 -0.9548
 4472SOL     OW25048   0.913   4.535   2.026  0.4003  0.5488  0.4811
 4472SOL    HW125049   0.947   4.570   2.109 -0.6787 -0.0850  1.1998
 4472SOL    HW225050   0.851   4.605   2.008  0.1235  0.3585  0.6868
 4473SOL     OW25051   2.967   1.120   5.053 -0.1271 -0.2823  0.1692
 4473SOL    HW125052   2.982   1.206   5.014 -3.8121  0.1917 -0.2450
 4473SOL    HW225053   2.879   1.129   5.090 -0.4315  0.1632 -0.6604
 4474SOL     OW25054   2.932   1.589   6.693 -0.0170 -0.0040 -0.2686
 4474SOL    HW125055   2.990   1.520   6.725  1.6642  1.4485 -0.1935
 4474SOL    HW225056   2.902   1.545   6.614 -0.8312 -0.0840  0.0869
 4475SOL     OW25057   0.359   2.491   9.440  0.0317  0.1329  0.0296
 4475SOL    HW125058   0.396   2.407   9.415 -0.2292 -0.2436  0.8969
 4475SOL    HW225059   0.299   2.463   9.509  3.0938 -0.8579  2.2513
 4476SOL     OW25060   3.702   3.859   7.053  0.6366  0.5945 -0.1700
 4476SOL    HW125061   3.698   3.779   7.105 -1.0002  0.3528 -0.6804
 4476SOL    HW225062   3.629   3.904   7.094 -1.1855 -1.6641 -0.9166
 4477SOL     OW25063   0.280   0.626   7.882  0.1330 -0.2721 -0.3582
 4477SOL    HW125064   0.265   0.696   7.818 -0.0297  0.2209  0.2186
 4477SOL    HW225065   0.300   0.680   7.958  0.4445  0.0078 -0.6344
 4478SOL     OW25066   3.530   1.129   3.242 -0.3312  0.2670  0.4912
 4478SOL    HW125067   3.505   1.081   3.321  1.5272  0.7820  1.3851
 4478SOL    HW225068   3.603   1.184   3.270  0.9834 -0.4851 -1.4549
 4479SOL     OW25069   2.587   4.144   6.186  0.4562  0.0261 -0.6780
 4479SOL    HW125070   2.502   4.186   6.193  0.6641  0.1171  1.1381
 4479SOL    HW225071   2.655   4.200   6.224 -0.9537 -0.6211  2.7243
 4480SOL     OW25072   0.096   4.387  16.973  0.1778  0.3436 -0.9236
 4480SOL    HW125073   0.162   4.317  16.973 -0.2261 -0.0354 -1.5322
 4480SOL    HW225074   0.144   4.462  17.008 -0.5412 -0.9678  2.9372
 4481SOL     OW25075   3.677   3.159   4.538 -0.0554  0.2746  0.1995
 4481SOL    HW125076   3.690   3.179   4.631  1.7644 -0.9852  0.1971
 4481SOL    HW225077   3.633   3.238   4.506  0.1040 -0.3235 -1.4693
 4482SOL     OW25078   2.957   2.320  12.606  0.2169  0.1648 -0.3856
 4482SOL    HW125079   3.018   2.260  12.649 -0.4813  0.7331  1.4356
 4482SOL    HW225080   3.020   2.385  12.575  0.5701 -0.8320 -1.7265
 4483SOL     OW25081   4.420   2.323   9.157  0.2164  0.5664  0.0673
 4483SOL    HW125082   4.385   2.392   9.101 -2.0475  0.2997  1.1339
 4483SOL    HW225083   4.499   2.300   9.108  0.0469 -2.6613  1.3367
 4484SOL     OW25084   1.245   2.869  10.938  0.4172  0.2595 -0.2325
 4484SOL    HW125085   1.294   2.876  11.020 -0.5060 -0.9253  0.4123
 4484SOL    HW225086   1.188   2.797  10.965 -0.4554  0.6306 -1.0746
 4485SOL     OW25087   3.224   0.706   0.948 -0.2145  0.4616  0.0382
 4485SOL    HW125088   3.136   0.672   0.963  0.8604 -2.9168 -1.3920
 4485SOL    HW225089   3.234   0.689   0.854 -1.7275  1.8921 -0.3848
 4486SOL     OW25090   1.392   4.445   6.353 -0.6065  0.1550  0.1021
 4486SOL    HW125091   1.353   4.402   6.277  0.2759 -2.5669  1.1793
 4486SOL    HW225092   1.416   4.362   6.394 -2.0493 -0.2595  0.0978
 4487SOL     OW25093   4.405   0.973   9.211  0.3882  0.2695 -0.0826
 4487SOL    HW125094   4.400   0.889   9.255 -2.2445  1.9300  2.7895
 4487SOL    HW225095   4.324   0.968   9.160 -0.5766 -0.2843  1.5152
 4488SOL     OW25096   2.206   3.011  11.213  0.0856 -0.5201  0.1693
 4488SOL    HW125097   2.269   2.958  11.261  1.1664  0.9206  0.3335
 4488SOL    HW225098   2.144   2.945  11.182 -1.0355  0.9398 -0.6627
 4489SOL     OW25099   0.452   4.623   7.664 -0.0956  0.2498 -0.3091
 4489SOL    HW125100   0.474   4.689   7.598  0.6086 -0.6317 -0.9598
 4489SOL    HW225101   0.531   4.627   7.718 -0.9525 -1.1863  1.0536
 4490SOL     OW25102   3.392   4.521  17.468  0.3819  0.0145 -0.7034
 4490SOL    HW125103   3.410   4.444  17.521  0.3006 -1.2818 -2.5566
 4490SOL    HW225104   3.381   4.589  17.534  0.2497 -2.0654  1.4198
 4491SOL     OW25105   0.208   3.107  17.530 -0.6306  0.4292 -0.5490
 4491SOL    HW125106   0.255   3.037  17.576  1.1187  1.5280 -0.6650
 4491SOL    HW225107   0.274   3.168  17.497 -0.3579 -1.3456 -3.2727
 4492SOL     OW25108   0.239   4.446   7.710  0.2459 -0.6149  0.3946
 4492SOL    HW125109   0.165   4.482   7.661 -0.1537 -1.1136  0.6375
 4492SOL    HW225110   0.305   4.503   7.670 -1.0695  1.3644  0.9925
 4493SOL     OW25111   4.167   1.797   6.703 -0.1248  0.2713 -0.3641
 4493SOL    HW125112   4.199   1.826   6.788 -0.1292  2.4690 -1.1016
 4493SOL    HW225113   4.092   1.742   6.727 -0.2963  2.0393  3.0375
 4494SOL     OW25114   1.864   1.719   0.854 -0.1912 -0.5050 -0.4686
 4494SOL    HW125115   1.870   1.624   0.860  1.1219 -0.3132  1.6610
 4494SOL    HW225116   1.803   1.751   0.921  1.6857 -2.2824  2.1229
 4495SOL     OW25117   2.057   4.641  16.007  0.0546 -0.8691 -0.5934
 4495SOL    HW125118   2.037   4.554  16.040 -1.0143 -1.2776 -2.3050
 4495SOL    HW225119   2.018   4.628  15.920 -0.6886 -0.6137 -0.3000
 4496SOL     OW25120   3.397   1.307  15.288  0.2053 -0.0316 -0.1578
 4496SOL    HW125121   3.480   1.354  15.295 -0.2242  0.6519  0.2710
 4496SOL    HW225122   3.335   1.362  15.336 -1.2339 -2.6152  0.9453
 4497SOL     OW25123   2.119   4.614  16.894  0.7921 -0.9055  0.1428
 4497SOL    HW125124   2.058   4.575  16.956  0.4898 -0.1357  0.3333
 4497SOL    HW225125   2.201   4.626  16.940  0.4153 -0.0580  0.6096
 4498SOL     OW25126   0.497   1.280   6.759 -0.4751 -0.0552  0.3169
 4498SOL    HW125127   0.518   1.363   6.803 -1.1179 -1.9490  4.2328
 4498SOL    HW225128   0.572   1.222   6.777 -0.4714  0.0201  0.5459
 4499SOL     OW25129   2.287   0.450   7.780 -0.1170 -0.0651 -0.1496
 4499SOL    HW125130   2.365   0.502   7.760 -1.3188  1.1080 -1.8184
 4499SOL    HW225131   2.310   0.412   7.864  1.7352  1.9731  0.2471
 4500SOL     OW25132   0.222   4.571   9.149  0.2057  0.0155  0.5438
 4500SOL    HW125133   0.230   4.649   9.095 -0.5115  0.3270  0.8801
 4500SOL    HW225134   0.135   4.590   9.185  0.3420 -0.1113  0.9405
 4501SOL     OW25135   1.173   1.448   3.013  0.0035 -0.1749  0.3957
 4501SOL    HW125136   1.237   1.380   2.994 -1.2710 -1.4806  0.7671
 4501SOL    HW225137   1.112   1.432   2.941  0.3642 -0.8368  0.2353
 4502SOL     OW25138   0.397   2.443  15.907  0.2120  0.6959 -0.4641
 4502SOL    HW125139   0.436   2.523  15.942  0.1340 -0.0848  1.3573
 4502SOL    HW225140   0.322   2.435  15.965  0.1676 -0.5714 -0.6961
 4503SOL     OW25141   4.460   0.362   2.202  0.1614  0.4797 -0.2258
 4503SOL    HW125142   4.404   0.332   2.274 -1.9242 -0.1640 -2.1614
 4503SOL    HW225143   4.516   0.423   2.251 -0.5064  1.0179 -0.1270
 4504SOL     OW25144   1.342   3.371  11.914 -0.3652 -0.4895  0.3300
 4504SOL    HW125145   1.426   3.343  11.952 -0.7478 -3.3887 -0.9612
 4504SOL    HW225146   1.302   3.422  11.984 -1.0348  0.9636 -1.1197
 4505SOL     OW25147   0.746   1.842   6.924 -0.0721  0.5996 -0.3657
 4505SOL    HW125148   0.761   1.822   6.831  1.0796  1.2932 -0.3364
 4505SOL    HW225149   0.773   1.933   6.913 -1.1730  1.2383  2.4134
 4506SOL     OW25150   1.541   3.162   1.027  0.3008  0.1672  0.0760
 4506SOL    HW125151   1.447   3.179   1.022  0.0758 -1.1409 -0.2013
 4506SOL    HW225152   1.563   3.194   0.939  2.5741  0.5927  0.7830
 4507SOL     OW25153   1.082   2.348  13.988 -0.4731  0.0094  0.5479
 4507SOL    HW125154   1.038   2.351  13.904 -2.4669  0.6505  1.6049
 4507SOL    HW225155   1.104   2.441  14.000 -1.8922  0.4551 -0.2654
 4508SOL     OW25156   1.843   1.035   5.846  0.0039  0.5307 -0.2207
 4508SOL    HW125157   1.760   1.037   5.893  0.7373 -0.2557  1.1252
 4508SOL    HW225158   1.904   1.059   5.917  0.4999  0.3487 -0.5856
 4509SOL     OW25159   3.039   2.525   6.840 -0.0677  0.7791 -0.0573
 4509SOL    HW125160   3.086   2.482   6.768 -0.5587  0.9215 -0.4667
 4509SOL    HW225161   3.062   2.617   6.824  0.0101  0.8274  0.3543
 4510SOL     OW25162   0.208   4.192   2.495  0.5607 -0.2390 -0.1220
 4510SOL    HW125163   0.295   4.158   2.476  0.4650 -0.1643 -0.6819
 4510SOL    HW225164   0.235   4.268   2.546  0.3961  1.0490 -1.9695
 4511SOL     OW25165   0.038   3.641   8.700  0.1578  0.8904 -0.1763
 4511SOL    HW125166   4.684   3.668   8.712  0.3708  1.5310 -0.0422
 4511SOL    HW225167   0.059   3.606   8.786 -1.6803  0.0284 -0.0658
 4512SOL     OW25168   3.503   0.109   3.133 -0.0448 -0.2543  0.6320
 4512SOL    HW125169   3.448   0.138   3.059 -1.0948 -1.0064  1.1102
 4512SOL    HW225170   3.544   0.032   3.095  0.0967 -0.2690  0.8173
 4513SOL     OW25171   4.076   3.505   6.401  0.1667  0.1748 -0.2071
 4513SOL    HW125172   4.116   3.588   6.426 -0.5249  1.2506 -2.6273
 4513SOL    HW225173   3.989   3.530   6.372 -0.2775 -0.1892  0.8262
 4514SOL     OW25174   3.596   3.377   6.528  0.3723  0.1479  0.1981
 4514SOL    HW125175   3.631   3.458   6.566 -1.0726  0.8762 -0.0197
 4514SOL    HW225176   3.578   3.396   6.436  0.7869  1.9281  0.4895
 4515SOL     OW25177   0.941   2.838   6.735  0.4870 -0.1859  0.1610
 4515SOL    HW125178   0.924   2.764   6.793  0.9952  0.3597  1.0079
 4515SOL    HW225179   0.976   2.893   6.805  0.0181 -1.2181  1.2162
 4516SOL     OW25180   4.664   3.972  15.289 -0.1903  0.0401 -0.1716
 4516SOL    HW125181   4.632   3.882  15.292  1.4343 -0.4821  1.4490
 4516SOL    HW225182   0.019   3.945  15.291 -0.1721  0.2289  2.0618
 4517SOL     OW25183   0.806   1.457  16.593 -0.1972 -0.3762  0.2097
 4517SOL    HW125184   0.726   1.405  16.587 -1.0808  1.0035  0.1038
 4517SOL    HW225185   0.802   1.495  16.506  2.0961 -0.7442 -0.0408
 4518SOL     OW25186   1.142   4.588   6.442  0.1679  0.0188 -0.4011
 4518SOL    HW125187   1.095   4.514   6.404  0.4232  0.4875 -1.6259
 4518SOL    HW225188   1.228   4.547   6.448 -0.5984 -1.7471 -1.5147
 4519SOL     OW25189   3.633   4.379  16.450 -0.0541 -0.2451  0.0055
 4519SOL    HW125190   3.681   4.460  16.432 -0.5018  0.1265  0.4917
 4519SOL    HW225191   3.604   4.389  16.540  1.2638  1.3995  0.2500
 4520SOL     OW25192   2.353   4.255   4.646  0.0449  0.1327  0.2980
 4520SOL    HW125193   2.357   4.349   4.627  0.7537 -0.1241 -0.8119
 4520SOL    HW225194   2.265   4.235   4.613  0.4051 -0.1334 -0.4740
 4521SOL     OW25195   4.154   3.335   6.589 -0.1580 -0.3989 -0.8385
 4521SOL    HW125196   4.248   3.326   6.573 -0.2688  1.1660 -2.3711
 4521SOL    HW225197   4.118   3.370   6.508  1.1959 -1.0100 -1.7211
 4522SOL     OW25198   2.389   0.047   5.842  0.5811  0.4041 -0.4802
 4522SOL    HW125199   2.446   0.025   5.915  1.7053  0.5916 -1.3031
 4522SOL    HW225200   2.318   0.096   5.883 -0.1312  0.9153 -2.2805
 4523SOL     OW25201   0.668   0.683   9.071  0.2692  0.3291  0.3779
 4523SOL    HW125202   0.715   0.699   9.153 -0.9665  0.5565  1.0505
 4523SOL    HW225203   0.609   0.610   9.092  0.1399 -0.0609 -1.3385
 4524SOL     OW25204   3.482   2.592   8.855  0.0779  0.0624  0.1489
 4524SOL    HW125205   3.522   2.514   8.892 -1.7757 -0.4830  1.0165
 4524SOL    HW225206   3.530   2.597   8.772 -2.8587  1.1863 -1.4859
 4525SOL     OW25207   1.685   4.274  14.264  0.5359  1.0767 -0.1424
 4525SOL    HW125208   1.603   4.288  14.217 -0.0079 -0.5727  0.3027
 4525SOL    HW225209   1.743   4.244  14.193 -0.0535  0.5478 -0.4036
 4526SOL     OW25210   2.404   4.136   3.987  0.1152  0.3330  0.1383
 4526SOL    HW125211   2.385   4.044   3.966 -0.4310  0.6505 -0.7855
 4526SOL    HW225212   2.316   4.172   3.973 -1.3109 -2.8492  0.8255
 4527SOL     OW25213   1.965   2.998   4.128 -0.2932 -0.2628 -0.5607
 4527SOL    HW125214   1.909   2.967   4.199  0.8324 -0.6237  0.1681
 4527SOL    HW225215   2.000   3.073   4.177 -1.1932 -1.0425  1.2969
 4528SOL     OW25216   4.668   0.410   3.610 -0.0417 -0.2121  0.7381
 4528SOL    HW125217   4.671   0.403   3.705  0.7641  2.2501  0.8911
 4528SOL    HW225218   4.705   0.496   3.593 -0.1515  0.7211  5.2523
 4529SOL     OW25219   4.507   2.581  12.436 -0.0665  0.9117 -0.7001
 4529SOL    HW125220   4.475   2.492  12.454 -0.5723  1.6139  1.8650
 4529SOL    HW225221   4.416   2.611  12.436 -0.1209  0.7529 -1.2771
 4530SOL     OW25222   0.185   3.650   7.081 -0.1532 -0.1792  0.8725
 4530SOL    HW125223   0.092   3.627   7.087  0.3241 -2.9081 -2.1446
 4530SOL    HW225224   0.233   3.568   7.086 -0.1365 -0.1239  1.6390
 4531SOL     OW25225   3.632   0.582   4.251 -0.2756 -0.1999  0.8471
 4531SOL    HW125226   3.634   0.486   4.253 -2.5479 -0.3019 -1.8567
 4531SOL    HW225227   3.701   0.615   4.308 -1.2735  0.8801  1.4035
 4532SOL     OW25228   2.972   1.161  15.417  0.0568 -0.0195 -0.0796
 4532SOL    HW125229   2.943   1.073  15.442  1.6507 -0.4938  0.0719
 4532SOL    HW225230   2.917   1.169  15.339 -1.6438  0.5534  1.1503
 4533SOL     OW25231   3.639   4.188  14.940  0.0043 -0.2112 -0.7864
 4533SOL    HW125232   3.681   4.110  14.903  1.4324  1.0855 -1.9184
 4533SOL    HW225233   3.584   4.153  15.009  1.8625 -0.2268  0.6856
 4534SOL     OW25234   4.006   2.098   9.268 -0.0517 -0.0840 -0.4600
 4534SOL    HW125235   4.010   2.013   9.312 -0.7533  0.1339  0.0153
 4534SOL    HW225236   4.101   2.106   9.257  0.4057 -3.4761  1.1035
 4535SOL     OW25237   3.053   3.482  10.862 -0.0714 -0.5379 -0.5669
 4535SOL    HW125238   3.100   3.484  10.945 -3.3342  2.2040  1.2621
 4535SOL    HW225239   2.979   3.430  10.892 -1.5763  1.9211  0.0543
 4536SOL     OW25240   0.433   1.696   8.914  0.4752 -0.4765 -0.3532
 4536SOL    HW125241   0.368   1.762   8.891  1.9860  1.2241  0.3596
 4536SOL    HW225242   0.487   1.745   8.975  1.5050  0.3773 -1.9393
 4537SOL     OW25243   3.184   4.053   7.222  0.9132 -0.5306  0.2023
 4537SOL    HW125244   3.110   4.093   7.175  2.4157  4.5694  2.2084
 4537SOL    HW225245   3.209   4.125   7.280 -0.9870  1.0879 -0.9612
 4538SOL     OW25246   2.360   3.939   7.330  0.4934 -0.2525 -0.3634
 4538SOL    HW125247   2.366   3.843   7.330 -0.2814 -0.3053  0.4089
 4538SOL    HW225248   2.272   3.954   7.294  0.9482 -2.2428 -2.3275
 4539SOL     OW25249   0.156   4.680   7.184 -0.2746 -0.1062  0.1308
 4539SOL    HW125250   0.147   0.026   7.230 -1.7730  0.3967 -1.0858
 4539SOL    HW225251   0.157   4.703   7.091 -0.9996  0.8316  0.3592
 4540SOL     OW25252   4.076   0.898  10.175  0.2224 -0.1721  0.8827
 4540SOL    HW125253   4.064   0.986  10.210 -1.4934  0.3899 -1.0825
 4540SOL    HW225254   4.160   0.900  10.128  0.1298 -1.3414  0.6774
 4541SOL     OW25255   1.957   2.649   8.336  0.1033  0.7936  0.0604
 4541SOL    HW125256   1.920   2.732   8.366 -1.4191 -0.3479  1.3068
 4541SOL    HW225257   1.903   2.588   8.386 -0.8600  0.2356 -1.6785
 4542SOL     OW25258   4.709   3.112  15.799  0.8686  0.3809 -0.0053
 4542SOL    HW125259   0.021   3.194  15.790  1.9659 -0.0839  1.6455
 4542SOL    HW225260   4.665   3.108  15.715 -2.8264 -0.5913  1.9928
 4543SOL     OW25261   4.564   4.070   6.515  0.2038 -0.5028 -0.0832
 4543SOL    HW125262   4.506   4.002   6.482  0.8004 -0.7873 -0.5216
 4543SOL    HW225263   4.642   4.018   6.531 -0.5457 -1.6963 -0.3214
 4544SOL     OW25264   1.641   1.428  10.201 -0.9784  0.4462 -0.2869
 4544SOL    HW125265   1.595   1.344  10.203  0.4668 -0.4426 -3.7472
 4544SOL    HW225266   1.576   1.490  10.168 -2.2350  0.0414  1.4608
 4545SOL     OW25267   2.354   3.032  17.285  0.1032 -0.2073 -0.0028
 4545SOL    HW125268   2.278   2.976  17.269 -1.3015  1.9918 -0.9781
 4545SOL    HW225269   2.346   3.034  17.380  0.6921  1.3245  0.0174
 4546SOL     OW25270   0.834   1.640   4.619 -0.4666  0.2156  0.7682
 4546SOL    HW125271   0.822   1.563   4.563 -1.4872  1.5048 -0.7680
 4546SOL    HW225272   0.886   1.602   4.690  0.6950  3.0346  1.3889
 4547SOL     OW25273   2.429   3.414   4.452  0.2138  0.6020  0.3293
 4547SOL    HW125274   2.403   3.394   4.362 -0.7456  0.4188  0.6515
 4547SOL    HW225275   2.346   3.413   4.500  0.0899 -3.1501  0.0223
 4548SOL     OW25276   2.781   2.444   8.449  0.2931 -0.0558  0.0642
 4548SOL    HW125277   2.708   2.432   8.389  0.5886  2.0014 -0.7289
 4548SOL    HW225278   2.781   2.369   8.509  1.8894 -0.2739 -0.1909
 4549SOL     OW25279   3.215   2.953   5.098 -0.0334 -0.8342 -0.5474
 4549SOL    HW125280   3.304   2.933   5.069 -0.4158 -1.0019 -1.5900
 4549SOL    HW225281   3.228   2.958   5.193 -1.1962 -1.9991 -0.3197
 4550SOL     OW25282   2.275   1.853   6.815  0.1726  0.6616  0.4078
 4550SOL    HW125283   2.225   1.771   6.815  1.6234 -0.2314 -0.8288
 4550SOL    HW225284   2.290   1.874   6.723  1.2245 -1.9802 -0.0293
 4551SOL     OW25285   1.277   2.495  10.925 -0.1592  0.1262  0.2228
 4551SOL    HW125286   1.349   2.529  10.871 -1.1097  0.5961 -0.7494
 4551SOL    HW225287   1.277   2.405  10.893  1.0512 -0.6882  2.5032
 4552SOL     OW25288   4.634   1.575   2.511 -0.1432 -0.4306  0.5035
 4552SOL    HW125289   4.545   1.546   2.492 -0.4492  1.2679 -0.6817
 4552SOL    HW225290   4.629   1.659   2.555  1.5268 -0.7571  1.3545
 4553SOL     OW25291   0.238   3.703   5.636  0.1288  0.6247  0.2905
 4553SOL    HW125292   0.237   3.638   5.706 -1.1332  0.8001  0.4418
 4553SOL    HW225293   0.164   3.675   5.582  0.7788 -1.1240  0.2987
 4554SOL     OW25294   4.719   3.471   7.847 -0.0191  0.0858  0.1409
 4554SOL    HW125295   4.637   3.423   7.856  0.9049 -1.6805 -0.9004
 4554SOL    HW225296   4.697   3.541   7.785 -2.5913 -0.6659  0.2070
 4555SOL     OW25297   4.197   1.712   8.425  0.2831  0.5750 -0.2433
 4555SOL    HW125298   4.159   1.768   8.493 -0.3321 -0.7556  0.5145
 4555SOL    HW225299   4.137   1.723   8.351  0.9296 -0.9321 -0.9864
 4556SOL     OW25300   0.430   1.834   7.646  0.1412 -0.3922  0.5807
 4556SOL    HW125301   0.484   1.789   7.711  0.1984  0.1330  0.9015
 4556SOL    HW225302   0.473   1.821   7.562 -2.0090  0.4828 -0.6791
 4557SOL     OW25303   4.527   1.788   9.272  0.2450  0.1613  0.2179
 4557SOL    HW125304   4.599   1.758   9.326  0.8206 -0.3586 -0.8292
 4557SOL    HW225305   4.489   1.850   9.335  3.0824  0.8715  1.2300
 4558SOL     OW25306   4.470   0.548   1.477  0.3510  0.0197 -0.2701
 4558SOL    HW125307   4.494   0.638   1.455 -3.2808  1.0611  0.1532
 4558SOL    HW225308   4.496   0.498   1.399  0.8963 -1.6933  1.0062
 4559SOL     OW25309   0.696   1.649   2.853  0.3916  0.0537  0.0604
 4559SOL    HW125310   0.636   1.682   2.920 -1.4852 -3.3884  0.0579
 4559SOL    HW225311   0.756   1.591   2.900 -1.1240 -0.7083  1.0423
 4560SOL     OW25312   3.196   3.648   5.491  0.3927 -0.6084  0.2251
 4560SOL    HW125313   3.269   3.711   5.497 -0.4238  0.2326  1.4467
 4560SOL    HW225314   3.131   3.691   5.546  0.4672 -1.3353  0.8780
 4561SOL     OW25315   1.322   2.218   2.516 -0.1072 -0.4856 -0.5576
 4561SOL    HW125316   1.333   2.142   2.459  1.5113  0.5464 -1.6153
 4561SOL    HW225317   1.253   2.264   2.470 -1.0393  0.3521  1.6898
 4562SOL     OW25318   0.618   0.911  17.162 -0.1957 -0.0457  0.1026
 4562SOL    HW125319   0.590   1.003  17.158  0.0809 -0.0304 -1.3748
 4562SOL    HW225320   0.531   0.884  17.192 -0.4376  0.8226  0.1946
 4563SOL     OW25321   3.656   0.685   5.407 -0.2651  0.1536  0.3951
 4563SOL    HW125322   3.653   0.640   5.322 -0.5506  0.9012  0.0107
 4563SOL    HW225323   3.748   0.674   5.430 -0.1009 -0.3142 -0.4735
 4564SOL     OW25324   3.544   3.771   3.448 -0.5968 -0.4011  0.5327
 4564SOL    HW125325   3.590   3.780   3.532  0.4811  0.0118 -0.1093
 4564SOL    HW225326   3.477   3.704   3.464  0.8755 -2.0573 -0.3451
 4565SOL     OW25327   3.529   1.648   7.023  0.4402 -0.0868 -0.2794
 4565SOL    HW125328   3.585   1.722   7.045 -0.0323 -0.1496  1.1627
 4565SOL    HW225329   3.464   1.663   7.092 -0.6445  1.3672 -1.6456
 4566SOL     OW25330   3.301   4.352   2.243  0.3594 -0.1142 -0.4504
 4566SOL    HW125331   3.332   4.397   2.321 -1.4228 -1.3537  0.9811
 4566SOL    HW225332   3.311   4.422   2.179  0.5656  1.3320  1.1915
 4567SOL     OW25333   1.413   0.162   9.541  0.1862 -0.4480  0.2316
 4567SOL    HW125334   1.350   0.153   9.613  0.3402  2.3994  0.7221
 4567SOL    HW225335   1.443   0.074   9.518 -0.6542 -0.8896  0.7911
 4568SOL     OW25336   2.749   1.754   8.835 -0.2810 -0.2796 -0.3735
 4568SOL    HW125337   2.729   1.666   8.801 -0.8847  0.4635 -1.9331
 4568SOL    HW225338   2.660   1.782   8.856 -0.2456  0.5341 -1.2822
 4569SOL     OW25339   3.468   2.096   3.831 -0.6667 -0.3330  0.4436
 4569SOL    HW125340   3.526   2.075   3.757  0.9672  0.6988  1.4163
 4569SOL    HW225341   3.448   2.013   3.873 -2.9951 -1.3028 -2.5709
 4570SOL     OW25342   3.501   2.472   2.690 -0.2205 -0.3867  0.4036
 4570SOL    HW125343   3.538   2.553   2.724  3.2903 -1.3160 -1.1450
 4570SOL    HW225344   3.432   2.506   2.633  2.7375  1.7390 -1.8966
 4571SOL     OW25345   2.923   0.807  14.121 -0.3033 -0.1622 -0.0455
 4571SOL    HW125346   2.958   0.751  14.052  0.5558  0.2772  0.0300
 4571SOL    HW225347   3.004   0.848  14.153 -0.1121  0.4548 -1.3169
 4572SOL     OW25348   1.047   3.184   5.536 -0.5791  0.0696  0.4665
 4572SOL    HW125349   1.029   3.245   5.608 -0.7536 -2.9781  3.0303
 4572SOL    HW225350   1.093   3.229   5.465 -1.6813 -1.8682 -1.4768
 4573SOL     OW25351   2.006   0.871   9.431  0.3379  0.6362  0.2217
 4573SOL    HW125352   1.973   0.916   9.509  1.6358  0.0523  1.0955
 4573SOL    HW225353   2.017   0.936   9.360 -1.2083 -0.2153 -0.7874
 4574SOL     OW25354   4.646   0.765   3.095  0.0061  0.7212 -0.0740
 4574SOL    HW125355   4.646   0.708   3.019  0.8298  0.4606  0.1287
 4574SOL    HW225356   4.625   0.694   3.156 -0.2903  1.0396  0.2001
 4575SOL     OW25357   2.742   2.771   0.400  0.2763 -0.2619 -0.4090
 4575SOL    HW125358   2.701   2.685   0.413  0.8225 -0.3682  0.6534
 4575SOL    HW225359   2.706   2.817   0.476 -2.6381 -0.5390 -1.6217
 4576SOL     OW25360   0.814   1.672   2.267  0.1834  0.6921  0.2540
 4576SOL    HW125361   0.906   1.691   2.250  1.2593 -5.2590 -0.4238
 4576SOL    HW225362   0.778   1.753   2.304 -0.6429 -0.0634  1.1196
 4577SOL     OW25363   1.494   3.088   8.434 -0.5898  0.4049  0.2875
 4577SOL    HW125364   1.429   3.157   8.447 -2.2274 -1.0987  0.1203
 4577SOL    HW225365   1.450   3.016   8.480 -1.1593 -0.7847 -2.1335
 4578SOL     OW25366   1.763   0.993  14.472  0.5943 -0.8343  0.7221
 4578SOL    HW125367   1.855   0.995  14.446 -0.6501  1.0818 -3.4883
 4578SOL    HW225368   1.734   0.904  14.453  1.0339 -1.1149  1.3710
 4579SOL     OW25369   3.952   2.745   8.083 -0.5339  0.4805 -0.1598
 4579SOL    HW125370   3.864   2.744   8.045  0.0317  3.6386 -1.5667
 4579SOL    HW225371   3.965   2.836   8.056  2.3935  0.1896  0.2869
 4580SOL     OW25372   2.725   3.006   7.510 -0.5450  0.1626  0.2066
 4580SOL    HW125373   2.746   3.061   7.434 -2.8746 -0.3447 -0.8150
 4580SOL    HW225374   2.650   3.046   7.555  0.0616 -1.1544  2.3872
 4581SOL     OW25375   0.490   4.128   2.497 -0.0838  1.3077 -0.2047
 4581SOL    HW125376   0.540   4.123   2.415 -0.6077 -1.0988 -0.3661
 4581SOL    HW225377   0.472   4.035   2.512 -0.5287  1.3299 -0.6056
 4582SOL     OW25378   3.233   0.962   0.561 -0.0422 -0.1256  0.2065
 4582SOL    HW125379   3.235   1.048   0.519  0.8604  0.6287  1.8018
 4582SOL    HW225380   3.228   0.981   0.655 -3.3104  0.8024 -0.1413
 4583SOL     OW25381   2.282   0.293   4.995  0.0133 -0.4820  0.5895
 4583SOL    HW125382   2.232   0.212   5.009  2.7833 -2.5232 -1.3958
 4583SOL    HW225383   2.238   0.356   5.052 -1.6675 -0.0160 -1.1933
 4584SOL     OW25384   3.401   4.229  16.435  0.0197 -0.5602  0.2252
 4584SOL    HW125385   3.446   4.164  16.381  0.1362 -1.9209  1.9652
 4584SOL    HW225386   3.471   4.295  16.429  0.1877 -0.5954  1.6710
 4585SOL     OW25387   3.352   0.546   3.782  0.1150 -0.1441  0.3756
 4585SOL    HW125388   3.406   0.473   3.753  2.8602  1.3495  1.7117
 4585SOL    HW225389   3.399   0.564   3.863 -1.1039 -1.8619  1.4743
 4586SOL     OW25390   2.157   1.584   9.984  0.2787  0.0755  0.5901
 4586SOL    HW125391   2.165   1.513   9.921  1.3325 -1.5252  2.5328
 4586SOL    HW225392   2.196   1.540  10.059  0.5483  1.1795  1.0915
 4587SOL     OW25393   3.557   1.086   1.205 -0.0453 -0.9954 -0.2819
 4587SOL    HW125394   3.629   1.107   1.146  3.1841  0.2883  4.0835
 4587SOL    HW225395   3.542   1.172   1.245 -0.4278 -1.3118  0.2513
 4588SOL     OW25396   4.471   4.005  16.421  0.3435  0.0631  0.2368
 4588SOL    HW125397   4.462   3.910  16.412 -1.1537  0.1871  0.4551
 4588SOL    HW225398   4.400   4.039  16.366  1.9506  3.1818  0.0507
 4589SOL     OW25399   2.462   2.841   9.812 -0.0645 -1.2107  0.2523
 4589SOL    HW125400   2.477   2.933   9.835  1.2665 -1.3119 -0.2144
 4589SOL    HW225401   2.473   2.862   9.720  0.9463 -1.1988  0.3735
 4590SOL     OW25402   1.167   2.053   6.964 -0.2014 -0.0518  0.4228
 4590SOL    HW125403   1.229   1.992   7.005 -0.2277 -0.1531  0.3125
 4590SOL    HW225404   1.236   2.112   6.934  0.0683 -0.4458  0.2520
 4591SOL     OW25405   4.437   3.844   2.688  0.1163  0.2413  0.2360
 4591SOL    HW125406   4.428   3.783   2.761  1.1053 -1.6962 -1.2495
 4591SOL    HW225407   4.368   3.819   2.626 -2.6388  2.4317  2.4135
 4592SOL     OW25408   3.724   0.785   3.880  0.3027 -0.0870  0.4190
 4592SOL    HW125409   3.658   0.773   3.811 -0.2916  1.0917  0.7815
 4592SOL    HW225410   3.760   0.698   3.893  3.1122  0.6647 -2.4188
 4593SOL     OW25411   4.476   2.558   5.748 -0.4058  0.3391  0.2866
 4593SOL    HW125412   4.521   2.508   5.816  1.1923  0.4693 -0.6876
 4593SOL    HW225413   4.385   2.528   5.754 -0.8162  1.3217 -0.8066
 4594SOL     OW25414   2.933   3.301   5.464  0.7468  0.7926 -0.2495
 4594SOL    HW125415   2.878   3.369   5.424  0.7630  0.3456 -1.0366
 4594SOL    HW225416   3.019   3.305   5.422  1.3972 -2.2899  0.8258
 4595SOL     OW25417   3.543   4.565   2.734  0.5070 -0.0364  0.5732
 4595SOL    HW125418   3.568   4.609   2.652 -3.9377  0.4787 -0.5339
 4595SOL    HW225419   3.584   4.479   2.728 -0.8477 -0.6320 -0.2970
 4596SOL     OW25420   2.248   0.895  13.560 -0.0692 -0.1489  0.3445
 4596SOL    HW125421   2.212   0.873  13.474 -1.0018  0.7037  0.5077
 4596SOL    HW225422   2.337   0.922  13.537  0.4973 -0.1169  2.5613
 4597SOL     OW25423   1.375   0.193   2.627  0.4339  0.1734  0.2229
 4597SOL    HW125424   1.470   0.187   2.618  0.6144 -0.7077  2.7413
 4597SOL    HW225425   1.347   0.112   2.586 -2.3650  2.1964 -1.8928
 4598SOL     OW25426   4.193   3.520  15.392  0.2072  0.0106  0.3017
 4598SOL    HW125427   4.227   3.610  15.397 -0.6551  0.2960  1.0686
 4598SOL    HW225428   4.236   3.491  15.312  0.6584 -1.0899  0.9461
 4599SOL     OW25429   2.775   1.570   2.238 -0.2734 -0.1807 -0.3439
 4599SOL    HW125430   2.726   1.543   2.160  0.7637 -0.1718 -0.9994
 4599SOL    HW225431   2.719   1.535   2.307  0.1708 -1.5399 -0.6702
 4600SOL     OW25432   4.212   2.392   6.019 -0.3783  0.3971  0.0084
 4600SOL    HW125433   4.287   2.333   6.007  0.9250  1.4775  2.8664
 4600SOL    HW225434   4.210   2.423   5.928  1.3744  1.1829  0.2247
 4601SOL     OW25435   1.722   3.803   2.566  0.3778 -0.2386 -0.3606
 4601SOL    HW125436   1.696   3.852   2.644  1.1467 -0.4062 -0.0022
 4601SOL    HW225437   1.750   3.880   2.516  0.5209  0.7886  1.3075
 4602SOL     OW25438   0.772   4.243   8.921  0.3559 -0.0104  0.2370
 4602SOL    HW125439   0.861   4.277   8.926 -0.0316  1.3277 -2.0098
 4602SOL    HW225440   0.734   4.301   8.987 -1.4786  0.1881 -0.9836
 4603SOL     OW25441   3.502   0.092  15.669  0.7176  0.1864 -0.4973
 4603SOL    HW125442   3.434   0.042  15.623 -1.1755  2.2618  0.0428
 4603SOL    HW225443   3.447   0.148  15.723 -1.2100 -1.8526 -0.3335
 4604SOL     OW25444   1.883   3.032   9.500  0.1276 -0.1258 -0.1557
 4604SOL    HW125445   1.837   3.092   9.559  0.8664  1.2427 -0.9594
 4604SOL    HW225446   1.968   3.035   9.544  0.5723  1.8124 -1.1485
 4605SOL     OW25447   3.084   0.633   1.788 -0.4451  0.0892 -0.4219
 4605SOL    HW125448   3.032   0.714   1.788 -2.3587 -1.1440  0.9859
 4605SOL    HW225449   3.155   0.630   1.724 -0.0799  0.7239 -0.0467
 4606SOL     OW25450   1.268   0.748   3.014 -0.2308 -0.5063 -0.3095
 4606SOL    HW125451   1.290   0.742   2.921  0.1921  0.2260 -0.2579
 4606SOL    HW225452   1.180   0.785   3.012  0.5088  1.3583  1.1038
 4607SOL     OW25453   3.417   0.924   3.443 -0.5990 -0.3231  0.3303
 4607SOL    HW125454   3.414   0.829   3.445 -1.5248 -0.2786  1.7031
 4607SOL    HW225455   3.497   0.945   3.490 -0.2706  0.1597 -0.4428
 4608SOL     OW25456   1.897   1.723   2.746 -0.1533  0.1060  0.2400
 4608SOL    HW125457   1.960   1.773   2.694 -0.8040 -1.8591 -2.4076
 4608SOL    HW225458   1.951   1.700   2.821 -0.1134 -0.3593  0.0711
 4609SOL     OW25459   1.998   2.308  13.908  0.7643 -0.0211  0.3820
 4609SOL    HW125460   1.977   2.401  13.917  3.5987  0.4924  1.6725
 4609SOL    HW225461   1.981   2.279  13.997 -1.5641 -0.6239 -0.2743
 4610SOL     OW25462   1.960   0.163   7.794 -0.1342 -0.1013  0.0248
 4610SOL    HW125463   1.929   0.100   7.729  2.5004 -0.6929 -0.6396
 4610SOL    HW225464   1.963   0.115   7.877 -3.4944  0.8855  0.7284
 4611SOL     OW25465   2.652   1.896   9.501 -0.0326  0.1417  0.1714
 4611SOL    HW125466   2.700   1.962   9.550 -0.3789  2.0616 -2.0724
 4611SOL    HW225467   2.565   1.932   9.487  0.6090  1.2866 -0.9520
 4612SOL     OW25468   3.834   1.918   2.820  0.1637 -0.4524 -0.4698
 4612SOL    HW125469   3.826   2.003   2.778 -0.0870 -1.2229 -1.9771
 4612SOL    HW225470   3.914   1.883   2.781  0.4118 -0.9959  0.5272
 4613SOL     OW25471   3.370   2.007   7.023  0.2994 -0.5379  0.0464
 4613SOL    HW125472   3.281   2.002   6.990 -1.0637  0.5461  3.4997
 4613SOL    HW225473   3.357   2.002   7.118 -0.1378  1.3293  0.0911
 4614SOL     OW25474   2.327   1.731  10.464 -0.0711 -0.3507  0.2522
 4614SOL    HW125475   2.364   1.698  10.383  1.7689  1.7745  0.2085
 4614SOL    HW225476   2.236   1.703  10.460  0.0109 -0.5847  0.0593
 4615SOL     OW25477   2.211   0.432  12.978  0.1460  0.7334 -0.0282
 4615SOL    HW125478   2.294   0.410  12.935 -2.4918 -1.8783 -3.7991
 4615SOL    HW225479   2.171   0.345  12.985 -1.7860  1.8215  2.6598
 4616SOL     OW25480   1.579   1.035   9.992  0.1696 -0.0631  0.2699
 4616SOL    HW125481   1.528   1.103  10.036 -0.9396 -0.0049 -1.1218
 4616SOL    HW225482   1.558   0.963  10.052 -0.2465  0.9872  1.4063
 4617SOL     OW25483   0.702   3.205   6.872  0.0281 -0.3707  0.0413
 4617SOL    HW125484   0.719   3.272   6.806  0.9410 -2.0780 -1.4505
 4617SOL    HW225485   0.643   3.153   6.817 -0.1320 -0.8706  0.6796
 4618SOL     OW25486   3.357   4.480   2.479  0.0521 -0.6029  0.6068
 4618SOL    HW125487   3.446   4.507   2.503  0.3739 -0.5311 -0.6720
 4618SOL    HW225488   3.300   4.517   2.547 -0.5762 -0.2842 -0.1046
 4619SOL     OW25489   1.120   0.252  15.152 -0.1451 -0.4810 -0.5321
 4619SOL    HW125490   1.189   0.193  15.121  1.6604 -0.3972  3.3808
 4619SOL    HW225491   1.145   0.337  15.115  0.7043 -0.2598  0.5732
 4620SOL     OW25492   1.238   1.300  11.576  0.2920  0.1112  0.2593
 4620SOL    HW125493   1.245   1.390  11.544 -3.8900  1.7093  3.8303
 4620SOL    HW225494   1.301   1.309  11.647  0.8661  0.0618 -0.2491
 4621SOL     OW25495   0.465   3.887   4.665 -0.0986 -0.2244  0.4986
 4621SOL    HW125496   0.416   3.876   4.583 -0.3184 -0.3984  0.6530
 4621SOL    HW225497   0.409   3.841   4.727 -2.6898 -1.6040 -2.8521
 4622SOL     OW25498   3.874   3.773   3.352  0.1249 -0.1944 -0.0351
 4622SOL    HW125499   3.878   3.838   3.423  1.6496 -1.4045  0.9852
 4622SOL    HW225500   3.855   3.691   3.397  0.2972 -0.0891  0.2310
 4623SOL     OW25501   0.693   1.138   4.170 -0.7285 -0.0219  0.1264
 4623SOL    HW125502   0.648   1.175   4.246 -0.2402  2.3110 -0.7014
 4623SOL    HW225503   0.687   1.045   4.193  0.4897 -0.3653 -0.9418
 4624SOL     OW25504   2.310   3.916  12.654 -0.1711 -0.1554 -0.3216
 4624SOL    HW125505   2.336   3.958  12.736  0.5939  1.4630 -1.4009
 4624SOL    HW225506   2.335   3.983  12.591 -1.3553 -1.2190 -1.9373
 4625SOL     OW25507   0.488   2.627  14.312 -0.3575 -0.0151  0.5289
 4625SOL    HW125508   0.563   2.633  14.371 -0.0161 -0.5644  0.1442
 4625SOL    HW225509   0.414   2.616  14.372 -2.0373  1.6454 -1.2199
 4626SOL     OW25510   1.264   3.875   6.324 -0.2671  0.4802 -0.1022
 4626SOL    HW125511   1.360   3.878   6.326 -0.3286  2.6552 -0.0617
 4626SOL    HW225512   1.251   3.914   6.410  0.3013 -0.2357  0.3040
 4627SOL     OW25513   1.101   4.574   3.988  0.6164 -0.2776 -0.3403
 4627SOL    HW125514   1.133   4.590   4.077 -0.0664 -1.3048  0.0851
 4627SOL    HW225515   1.177   4.540   3.940  0.3344 -0.9790 -0.2794
 4628SOL     OW25516   2.352   2.585  16.017 -0.4428 -0.2031 -0.2655
 4628SOL    HW125517   2.329   2.667  16.060  0.9163 -0.6816  1.3752
 4628SOL    HW225518   2.356   2.612  15.925 -1.1059  1.4176  0.1831
 4629SOL     OW25519   4.687   2.576   9.338  0.0316 -0.0199 -0.0988
 4629SOL    HW125520   4.634   2.652   9.313 -2.0391 -0.8893  1.6630
 4629SOL    HW225521   0.011   2.631   9.386 -0.0146  0.1141 -0.1938
 4630SOL     OW25522   1.584   4.529   1.614 -0.3464  0.6121 -0.1542
 4630SOL    HW125523   1.502   4.564   1.580  0.3626  1.3199 -1.1600
 4630SOL    HW225524   1.629   4.508   1.531 -0.1920  3.6854 -0.8515
 4631SOL     OW25525   4.224   0.317   4.785  0.0725 -0.2412 -0.5301
 4631SOL    HW125526   4.315   0.304   4.814 -0.7423  0.2718  2.1819
 4631SOL    HW225527   4.228   0.406   4.752 -0.5140 -0.5177 -1.3363
 4632SOL     OW25528   1.116   3.343   3.538 -0.1130 -0.3115  0.7463
 4632SOL    HW125529   1.133   3.386   3.622 -0.8017  2.4129 -0.4944
 4632SOL    HW225530   1.197   3.356   3.488 -0.8468  0.8482 -0.1366
 4633SOL     OW25531   0.265   2.195   9.336 -0.0832  0.0947 -0.1708
 4633SOL    HW125532   0.184   2.228   9.375 -0.4500 -1.9818  0.8466
 4633SOL    HW225533   0.228   2.155   9.257  0.7275 -0.5645 -0.2188
 4634SOL     OW25534   0.478   2.515   5.055  0.4323  0.6310 -0.0952
 4634SOL    HW125535   0.393   2.486   5.020 -0.3759  0.8622  1.6834
 4634SOL    HW225536   0.444   2.565   5.129  0.1396  0.6739 -0.2561
 4635SOL     OW25537   3.911   2.614   8.944 -0.9479  0.2029 -0.4664
 4635SOL    HW125538   3.906   2.710   8.939  0.8730  0.2498 -1.3882
 4635SOL    HW225539   3.911   2.597   8.850  2.0282  0.3130 -0.4967
 4636SOL     OW25540   2.742   4.106   4.957 -0.7128  0.3711  0.1576
 4636SOL    HW125541   2.705   4.142   5.038 -1.5702  0.7489 -0.4081
 4636SOL    HW225542   2.668   4.118   4.898 -0.4512 -2.1367 -0.6576
 4637SOL     OW25543   2.413   0.433  10.932 -0.0573  0.2943 -0.7864
 4637SOL    HW125544   2.373   0.505  10.884 -0.2178  1.3906  1.0005
 4637SOL    HW225545   2.377   0.366  10.874 -1.5511 -0.8338  1.4431
 4638SOL     OW25546   1.982   0.872  14.227  0.3085  0.3619  0.2465
 4638SOL    HW125547   2.019   0.784  14.224  2.7810  1.4211 -0.1420
 4638SOL    HW225548   1.969   0.889  14.133  0.4882 -0.0239  0.1521
 4639SOL     OW25549   1.194   2.950  13.474  0.5971 -0.2378 -0.0694
 4639SOL    HW125550   1.142   2.884  13.519 -1.6323  1.7819  0.3525
 4639SOL    HW225551   1.124   2.997  13.428 -0.3275 -0.2791  1.3291
 4640SOL     OW25552   4.681   4.204  15.675  0.2424 -0.0228 -0.4165
 4640SOL    HW125553   0.016   4.261  15.704  1.4922 -0.9395 -1.7322
 4640SOL    HW225554   4.666   4.219  15.582  1.8092  2.1608 -0.3262
 4641SOL     OW25555   3.840   2.783   6.261  0.4631 -0.0458 -0.1435
 4641SOL    HW125556   3.881   2.870   6.267 -2.4831  1.3623 -0.2424
 4641SOL    HW225557   3.782   2.783   6.337 -0.2881  0.4179 -0.7138
 4642SOL     OW25558   3.361   1.224   0.516  0.5925  0.0540  0.5074
 4642SOL    HW125559   3.317   1.250   0.597  0.9855 -0.8838  1.0156
 4642SOL    HW225560   3.410   1.303   0.492 -1.5910  0.8976 -1.1549
 4643SOL     OW25561   1.257   0.887  12.023  0.5683  0.0324  0.0789
 4643SOL    HW125562   1.302   0.972  12.020 -0.4051  0.4726 -1.7978
 4643SOL    HW225563   1.248   0.885  11.928 -1.5729 -1.4353  0.3327
 4644SOL     OW25564   0.004   3.081  16.097 -0.2925 -0.9480 -0.1414
 4644SOL    HW125565   0.018   3.174  16.081  2.6285 -1.3114  0.2812
 4644SOL    HW225566   0.079   3.047  16.047 -0.3588 -1.4845  0.1205
 4645SOL     OW25567   4.363   4.620   1.648  0.1429  0.1554 -0.2145
 4645SOL    HW125568   4.396   4.683   1.712 -0.5759  0.5715 -0.2568
 4645SOL    HW225569   4.277   4.600   1.686  0.7575  1.5888  1.9643
 4646SOL     OW25570   0.128   1.806   3.308 -0.0274  0.0056  0.0971
 4646SOL    HW125571   0.040   1.827   3.277 -0.1996  0.5092  0.9329
 4646SOL    HW225572   0.134   1.719   3.268 -0.5998  0.9456 -2.0107
 4647SOL     OW25573   3.593   1.370   8.761  0.0961 -0.0110  0.2134
 4647SOL    HW125574   3.687   1.378   8.775  0.1283 -0.0626  0.0316
 4647SOL    HW225575   3.556   1.344   8.845  1.2689 -1.1468  0.3698
 4648SOL     OW25576   2.420   4.459  16.267  0.3102  0.3126  0.6127
 4648SOL    HW125577   2.431   4.517  16.192  1.1454  1.1680  1.3754
 4648SOL    HW225578   2.467   4.382  16.236  1.0611 -0.1393  2.8804
 4649SOL     OW25579   2.099   3.320  12.112 -0.6223  0.3696 -0.1634
 4649SOL    HW125580   2.165   3.282  12.053 -0.9670 -2.1149  1.0393
 4649SOL    HW225581   2.142   3.401  12.139  1.2680 -0.9118  0.6852
 4650SOL     OW25582   3.745   1.029  12.512  0.0249 -0.1440  0.4988
 4650SOL    HW125583   3.748   1.114  12.470 -3.7073 -0.6627 -0.7540
 4650SOL    HW225584   3.686   1.039  12.587 -0.3303  3.8388 -0.3559
 4651SOL     OW25585   1.491   2.214   4.374 -0.1186  0.3385  0.0859
 4651SOL    HW125586   1.548   2.205   4.298 -0.4659 -1.4961  0.0354
 4651SOL    HW225587   1.510   2.306   4.393  0.0546  0.2788  0.2021
 4652SOL     OW25588   2.190   1.229   9.011 -0.7484  0.2367 -0.0320
 4652SOL    HW125589   2.102   1.213   8.977 -1.2028 -0.7145  1.5730
 4652SOL    HW225590   2.217   1.278   8.934  0.7106 -1.2567 -0.4781
 4653SOL     OW25591   2.760   2.219   8.575 -0.1849  0.0023 -0.0092
 4653SOL    HW125592   2.827   2.175   8.627 -0.8516 -0.0773  0.7931
 4653SOL    HW225593   2.682   2.191   8.623 -0.1498 -0.4116 -0.1974
 4654SOL     OW25594   0.615   3.997   7.924 -0.1140 -0.2013 -0.1266
 4654SOL    HW125595   0.695   3.946   7.928 -0.3139 -0.1430  4.2547
 4654SOL    HW225596   0.633   4.029   7.835  1.9137 -0.9142  0.0386
 4655SOL     OW25597   2.657   1.653   5.231  0.7102 -0.5479 -0.2199
 4655SOL    HW125598   2.687   1.724   5.287  1.6550 -1.5328  0.5156
 4655SOL    HW225599   2.571   1.649   5.274 -0.0992  0.7576 -1.7144
 4656SOL     OW25600   1.631   2.237   7.482 -0.0366  0.1162  0.1495
 4656SOL    HW125601   1.640   2.293   7.559 -1.2782  2.2613 -1.2614
 4656SOL    HW225602   1.620   2.153   7.526 -0.3749  0.2027  0.2232
 4657SOL     OW25603   1.151   0.014   9.158  0.1401 -0.4479 -0.0830
 4657SOL    HW125604   1.099   0.093   9.142  2.0400  0.6301 -0.9205
 4657SOL    HW225605   1.225   0.042   9.211 -1.0459  2.8395 -0.1429
 4658SOL     OW25606   2.521   4.687   2.691 -0.3045 -0.1770 -0.3531
 4658SOL    HW125607   2.614   4.710   2.695 -0.2986 -0.8090  2.8597
 4658SOL    HW225608   2.533   4.599   2.726 -1.7196 -0.8263 -1.5121
 4659SOL     OW25609   4.295   2.365   3.513  0.4572  0.0524  0.2933
 4659SOL    HW125610   4.344   2.326   3.585  2.3861  1.2276 -0.3644
 4659SOL    HW225611   4.255   2.283   3.485 -0.6340  0.0849  1.8088
 4660SOL     OW25612   1.613   0.516   2.787 -0.1839  0.0564 -0.3977
 4660SOL    HW125613   1.664   0.535   2.708 -1.4562 -1.7831 -1.6731
 4660SOL    HW225614   1.536   0.573   2.785 -0.1044  0.1439 -1.1952
 4661SOL     OW25615   0.354   0.433   1.304 -0.1067  0.1690  0.2297
 4661SOL    HW125616   0.332   0.345   1.275  0.1800  0.3647 -0.6149
 4661SOL    HW225617   0.265   0.469   1.307 -0.4260 -0.4464 -1.9144
 4662SOL     OW25618   0.910   3.027   3.824  0.0622 -0.1235  0.4902
 4662SOL    HW125619   0.969   2.969   3.775 -0.2290  1.3523 -1.6270
 4662SOL    HW225620   0.872   3.085   3.758  2.5547 -0.7050 -1.4551
 4663SOL     OW25621   2.740   0.870   5.770  0.3255  0.2875 -0.1680
 4663SOL    HW125622   2.720   0.953   5.725 -0.0247  0.4568  0.3030
 4663SOL    HW225623   2.667   0.849   5.828  0.4629  1.7407  0.5245
 4664SOL     OW25624   2.127   1.037   4.872  0.2087 -0.1519  0.2293
 4664SOL    HW125625   2.221   1.028   4.888  0.1771  1.4091  1.2370
 4664SOL    HW225626   2.094   1.002   4.954 -0.9805 -1.7640 -0.9422
 4665SOL     OW25627   3.777   1.814   0.401  0.0440  0.3589  0.5411
 4665SOL    HW125628   3.822   1.888   0.441 -0.9194  1.6364 -0.7179
 4665SOL    HW225629   3.713   1.851   0.340 -0.6712 -0.5675  0.7432
 4666SOL     OW25630   3.365   0.088   9.704 -0.1369  0.0107  0.0992
 4666SOL    HW125631   3.416   0.011   9.732 -2.1408 -1.6300 -0.8111
 4666SOL    HW225632   3.276   0.054   9.711 -1.1157  2.4880 -0.6128
 4667SOL     OW25633   4.383   0.400  11.569 -0.6172  0.3214  0.1246
 4667SOL    HW125634   4.476   0.402  11.592 -0.5003 -0.5743 -0.2648
 4667SOL    HW225635   4.391   0.451  11.488  0.2781  0.0808  0.0607
 4668SOL     OW25636   1.956   2.392   1.282 -0.3704  0.0348 -0.1308
 4668SOL    HW125637   2.014   2.406   1.357 -0.9177  1.9533 -0.0472
 4668SOL    HW225638   2.018   2.336   1.237  1.2950  1.1334  0.7980
 4669SOL     OW25639   1.798   4.629  13.848 -0.1037  0.0419 -0.1750
 4669SOL    HW125640   1.709   4.635  13.883 -0.0692 -0.0237 -0.0757
 4669SOL    HW225641   1.784   4.582  13.766  0.3251 -0.2534 -0.0783
 4670SOL     OW25642   4.289   0.508   4.319 -0.4353  0.3182  0.1831
 4670SOL    HW125643   4.384   0.513   4.324 -0.4571  1.2879 -0.3132
 4670SOL    HW225644   4.275   0.414   4.331  1.0531  0.1474  0.5075
 4671SOL     OW25645   3.935   3.690   7.123 -0.4839 -0.5540 -0.3933
 4671SOL    HW125646   3.936   3.595   7.113  0.1429 -0.3898 -1.8697
 4671SOL    HW225647   3.948   3.711   7.216  1.2786 -2.2139 -0.2639
 4672SOL     OW25648   3.946   3.344   1.825  0.1070 -0.2982  0.6025
 4672SOL    HW125649   3.942   3.435   1.856  1.9253  0.4385 -1.3285
 4672SOL    HW225650   4.037   3.317   1.840  0.0299 -1.2780 -0.7348
 4673SOL     OW25651   4.433   2.294   4.695  0.0142 -0.2271 -0.4133
 4673SOL    HW125652   4.510   2.351   4.694  0.4987 -0.8808 -0.8383
 4673SOL    HW225653   4.368   2.363   4.703  1.2051  1.2199 -3.3076
 4674SOL     OW25654   1.530   3.221   4.363  0.2347  0.2148  0.3146
 4674SOL    HW125655   1.599   3.155   4.369 -0.6661 -0.7331  0.2483
 4674SOL    HW225656   1.461   3.165   4.327  3.2111 -2.1087 -1.6942
 4675SOL     OW25657   4.398   1.104   4.447 -0.4082  0.4273  0.3280
 4675SOL    HW125658   4.319   1.072   4.405 -1.2337  2.4835  0.3147
 4675SOL    HW225659   4.423   1.027   4.499 -2.6991 -1.2346 -1.0916
 4676SOL     OW25660   2.115   1.702   3.764 -0.0886 -0.3676  0.1495
 4676SOL    HW125661   2.148   1.629   3.711  0.5964  0.3382 -0.4049
 4676SOL    HW225662   2.044   1.667   3.817 -1.6938  2.9515  0.1853
 4677SOL     OW25663   1.750   0.301   2.567  0.0027  0.1619 -0.2677
 4677SOL    HW125664   1.837   0.277   2.600 -0.4580 -1.4025 -0.2024
 4677SOL    HW225665   1.703   0.218   2.564  1.9707 -0.9901  1.1705
 4678SOL     OW25666   2.997   0.792   0.536 -0.0523  0.0800  0.3389
 4678SOL    HW125667   3.065   0.732   0.565  1.8896  1.4430 -1.3693
 4678SOL    HW225668   3.049   0.872   0.530 -0.5208  0.4863  1.6594
 4679SOL     OW25669   2.573   4.695   1.793 -0.1015  0.7824 -0.1912
 4679SOL    HW125670   2.645   0.021   1.793 -0.8940  1.7093 -1.8540
 4679SOL    HW225671   2.501   0.021   1.778  1.3574  1.9045 -2.5990
 4680SOL     OW25672   0.688   2.539   1.990  0.1663 -0.5395 -0.3246
 4680SOL    HW125673   0.744   2.470   1.954  1.0932  0.9847 -1.7866
 4680SOL    HW225674   0.734   2.551   2.072 -1.3076 -0.0221  0.4313
 4681SOL     OW25675   0.378   3.534  15.317  0.0415 -0.4244  0.2743
 4681SOL    HW125676   0.368   3.572  15.405  1.0254  2.0647 -0.6963
 4681SOL    HW225677   0.462   3.491  15.331  0.5301  1.2828  2.6385
 4682SOL     OW25678   3.832   3.102  13.604 -0.2277 -0.3651 -0.0966
 4682SOL    HW125679   3.770   3.151  13.550 -1.2892 -0.0682  1.3758
 4682SOL    HW225680   3.795   3.126  13.689 -0.1218  1.9236 -0.6894
 4683SOL     OW25681   0.185   4.268   1.008 -0.4351  0.0916  0.2163
 4683SOL    HW125682   0.103   4.284   0.960  0.5380  0.7805 -1.2031
 4683SOL    HW225683   0.248   4.332   0.975  0.3816 -0.2327  1.1471
 4684SOL     OW25684   1.124   1.806   4.752  0.1736 -0.2609  0.7960
 4684SOL    HW125685   1.051   1.777   4.808  0.2819 -1.8022  0.1227
 4684SOL    HW225686   1.137   1.897   4.780 -3.2353  1.0365 -1.7611
 4685SOL     OW25687   2.421   2.947   8.703 -0.0738 -0.1575 -0.4919
 4685SOL    HW125688   2.432   2.852   8.701 -3.4157 -0.5433  0.5080
 4685SOL    HW225689   2.466   2.969   8.621  0.7024  0.1233  0.0075
 4686SOL     OW25690   1.446   3.664   3.620 -0.5084  0.4434  0.0881
 4686SOL    HW125691   1.417   3.609   3.547 -2.0593 -0.1950  1.1708
 4686SOL    HW225692   1.541   3.671   3.614 -0.3797 -1.6102 -0.0917
 4687SOL     OW25693   3.616   3.951   4.667 -0.2154  0.2048 -0.2816
 4687SOL    HW125694   3.705   3.920   4.677 -0.6494 -0.6198  1.1036
 4687SOL    HW225695   3.572   3.885   4.614  2.1428 -2.5715  1.2689
 4688SOL     OW25696   0.570   1.111   5.811  0.5496 -0.4071  0.3598
 4688SOL    HW125697   0.614   1.089   5.894  1.8035 -1.5354 -0.6088
 4688SOL    HW225698   0.642   1.122   5.749 -0.9416  1.6322 -1.0146
 4689SOL     OW25699   0.507   3.110   6.704  0.3042  0.0252  0.2921
 4689SOL    HW125700   0.538   3.109   6.613  0.3127 -1.3146  0.3112
 4689SOL    HW225701   0.463   3.025   6.697 -0.4094  0.5945 -2.0739
 4690SOL     OW25702   0.034   1.258   8.330 -0.1953  0.0212  0.2853
 4690SOL    HW125703   4.685   1.258   8.286  0.2360  0.3423 -0.5644
 4690SOL    HW225704   0.049   1.348   8.358 -1.2543 -1.4291  5.3789
 4691SOL     OW25705   4.695   3.570   7.581  0.4088 -0.1509  0.0175
 4691SOL    HW125706   0.044   3.612   7.591 -0.3890  1.2333  1.1188
 4691SOL    HW225707   4.665   3.604   7.496  0.1376  2.0272  0.9955
 4692SOL     OW25708   0.390   3.099   5.083  0.5740  0.0099  0.0643
 4692SOL    HW125709   0.325   3.122   5.149 -1.6598 -2.9767 -1.0593
 4692SOL    HW225710   0.437   3.026   5.124  0.3975  0.4380  1.0156
 4693SOL     OW25711   4.316   1.529   4.826  0.7487  0.3183  0.6541
 4693SOL    HW125712   4.312   1.584   4.748 -0.1030  0.6945  0.9735
 4693SOL    HW225713   4.372   1.583   4.882 -3.5634  4.4404  0.9555
 4694SOL     OW25714   3.364   3.632   5.185  0.0867 -0.2419 -0.0000
 4694SOL    HW125715   3.437   3.632   5.246 -0.5503 -0.7478  0.7707
 4694SOL    HW225716   3.360   3.544   5.147 -1.1773 -0.5819  0.9043
 4695SOL     OW25717   2.239   3.005   7.633  0.2312  0.8536 -0.2474
 4695SOL    HW125718   2.272   3.093   7.612 -1.3986  1.1668 -1.4355
 4695SOL    HW225719   2.280   2.956   7.562 -1.8750 -1.0500 -0.1445
 4696SOL     OW25720   3.975   0.653   4.292  0.1684 -0.1896  0.8026
 4696SOL    HW125721   3.991   0.582   4.353 -1.2992 -1.1136  0.1055
 4696SOL    HW225722   3.957   0.732   4.344 -2.0877  1.0608 -1.8431
 4697SOL     OW25723   0.792   3.964  12.497 -0.1357  0.0347  0.1535
 4697SOL    HW125724   0.820   4.045  12.455 -0.0379 -0.5828 -0.9633
 4697SOL    HW225725   0.701   3.963  12.467 -1.2205 -0.8288  3.4678
 4698SOL     OW25726   0.054   2.023   3.053  0.1240 -0.5732  0.1508
 4698SOL    HW125727   0.118   2.094   3.043  0.5572 -1.0399 -0.4217
 4698SOL    HW225728   0.119   1.955   3.041 -0.8036 -1.5426  0.6663
 4699SOL     OW25729   2.336   0.116   7.605 -0.1448 -0.2589 -0.3853
 4699SOL    HW125730   2.263   0.177   7.605  0.5030  0.5465 -4.7021
 4699SOL    HW225731   2.326   0.092   7.697  0.4934  2.0954  0.2950
 4700SOL     OW25732   1.279   1.935   5.401 -0.9446  0.5933 -0.2891
 4700SOL    HW125733   1.275   1.841   5.382  2.8569 -0.1346  2.5593
 4700SOL    HW225734   1.313   1.965   5.316  1.1083  2.6649  1.2692
 4701SOL     OW25735   2.140   2.757   4.135 -0.9213  0.0416 -0.0192
 4701SOL    HW125736   2.092   2.839   4.147 -0.3251  0.1910  1.3494
 4701SOL    HW225737   2.071   2.698   4.105 -1.8988  1.5205 -0.6568
 4702SOL     OW25738   2.368   0.664   2.781 -0.3951  0.5047  0.2509
 4702SOL    HW125739   2.420   0.649   2.860  0.6919 -0.0992 -0.5764
 4702SOL    HW225740   2.357   0.582   2.732 -2.9953 -0.9727  3.3000
 4703SOL     OW25741   0.867   3.768  12.689  0.2624  0.0801 -0.2087
 4703SOL    HW125742   0.874   3.753  12.594 -0.0390  0.0041 -0.2175
 4703SOL    HW225743   0.828   3.855  12.684 -0.4226 -0.1385  1.4196
 4704SOL     OW25744   3.506   3.239   7.239  0.1620  0.0431  0.2215
 4704SOL    HW125745   3.458   3.181   7.299 -2.4117 -1.6270 -3.3998
 4704SOL    HW225746   3.451   3.234   7.160 -2.7243 -3.0576  2.3745
 4705SOL     OW25747   2.164   4.222   3.935  0.1205 -1.0148  0.0197
 4705SOL    HW125748   2.184   4.301   3.885 -1.6469  0.5539  1.7737
 4705SOL    HW225749   2.078   4.217   3.893 -0.8709  1.6528  1.7308
 4706SOL     OW25750   4.589   4.550   4.262  0.0390  0.2541 -0.4159
 4706SOL    HW125751   4.651   4.477   4.266 -1.0249 -0.5833  0.9140
 4706SOL    HW225752   4.635   4.607   4.323 -0.7038  0.3117  0.0974
 4707SOL     OW25753   1.270   2.979   1.520 -0.4179 -0.1115 -0.1297
 4707SOL    HW125754   1.275   2.893   1.561  0.1876  0.1436  0.3411
 4707SOL    HW225755   1.350   3.018   1.556 -0.9946 -1.0077  2.0720
 4708SOL     OW25756   1.986   2.558   5.008  0.7485  0.0959  0.7626
 4708SOL    HW125757   1.933   2.637   5.016 -1.4911 -1.3865  0.4181
 4708SOL    HW225758   1.968   2.539   4.916 -0.3252  1.0762  0.7791
 4709SOL     OW25759   0.041   2.164   8.346  0.2608 -0.5124  0.2351
 4709SOL    HW125760   0.125   2.158   8.392  0.3841  0.6561  0.1552
 4709SOL    HW225761   4.728   2.203   8.418  3.0127  0.0974  1.8119
 4710SOL     OW25762   2.825   1.082   7.543 -0.2399  0.0960 -0.2436
 4710SOL    HW125763   2.899   1.069   7.602  0.6488  0.4219 -1.2930
 4710SOL    HW225764   2.865   1.043   7.466 -2.1886 -1.1743 -0.6148
 4711SOL     OW25765   4.102   0.891   5.004 -0.1451  0.2295 -0.1944
 4711SOL    HW125766   4.145   0.875   5.088  0.1503  1.2725 -0.1458
 4711SOL    HW225767   4.072   0.802   4.986  1.0772 -0.2974  0.3612
 4712SOL     OW25768   2.112   4.459  11.703  0.2696  0.2055  0.3577
 4712SOL    HW125769   2.109   4.553  11.684  1.1571 -0.2514 -1.9877
 4712SOL    HW225770   2.174   4.449  11.776 -0.0127 -1.4112  0.3790
 4713SOL     OW25771   3.959   4.647   8.111  1.1641  0.1268  0.4938
 4713SOL    HW125772   4.042   4.617   8.148  0.1684 -1.2788  1.5982
 4713SOL    HW225773   3.899   4.579   8.139 -0.3398  0.4213 -2.0412
 4714SOL     OW25774   0.328   1.448   8.431 -0.7993 -0.3037  0.0304
 4714SOL    HW125775   0.342   1.517   8.496 -2.2159  0.3920 -0.3883
 4714SOL    HW225776   0.409   1.398   8.421 -0.6431 -0.0971  0.2467
 4715SOL     OW25777   0.480   4.695  15.056 -0.0652 -0.4488  0.0911
 4715SOL    HW125778   0.445   4.681  14.968  3.4158  0.1939 -1.4338
 4715SOL    HW225779   0.531   4.615  15.064 -0.1052 -0.6192 -1.3100
 4716SOL     OW25780   3.578   3.313   5.960  0.0929 -0.2385 -0.2605
 4716SOL    HW125781   3.595   3.400   5.997 -2.1720  0.8127 -1.7331
 4716SOL    HW225782   3.589   3.340   5.869 -0.6696  0.7663 -0.0487
 4717SOL     OW25783   1.802   3.715  14.487 -0.4157  0.3496 -0.1794
 4717SOL    HW125784   1.831   3.765  14.410  0.8460  1.0419  0.7409
 4717SOL    HW225785   1.869   3.738  14.552 -0.8171  1.2824 -0.0902
 4718SOL     OW25786   0.272   2.754  16.611  0.0988  0.8089  0.4727
 4718SOL    HW125787   0.330   2.762  16.687 -0.4703  1.5527  0.8295
 4718SOL    HW225788   0.246   2.845  16.597  0.0445  0.6416 -0.5492
 4719SOL     OW25789   2.856   3.354   1.743  0.3201  0.5450  0.2351
 4719SOL    HW125790   2.847   3.400   1.826 -0.9519 -0.0314  0.4131
 4719SOL    HW225791   2.887   3.422   1.683 -0.5239  1.7761  1.1827
 4720SOL     OW25792   4.542   0.712   8.285  0.4459  0.2462 -0.2495
 4720SOL    HW125793   4.537   0.648   8.214 -0.7412 -0.6210  0.6064
 4720SOL    HW225794   4.597   0.668   8.351  0.1954 -1.8389 -1.4250
 4721SOL     OW25795   0.422   2.628  15.132 -0.8227  0.2067  0.0422
 4721SOL    HW125796   0.422   2.559  15.198 -2.4762 -1.5709 -1.8397
 4721SOL    HW225797   0.457   2.582  15.056  0.3244  0.1438  0.6045
 4722SOL     OW25798   3.983   0.635   2.046  0.2508 -0.3376  0.2958
 4722SOL    HW125799   3.999   0.653   2.139  0.7736  0.7694 -0.0063
 4722SOL    HW225800   4.066   0.662   2.008  0.2984 -1.2691 -0.2702
 4723SOL     OW25801   3.927   4.498  13.509  0.3253 -0.1211  0.4742
 4723SOL    HW125802   3.974   4.415  13.515 -1.1619 -0.9074  1.1096
 4723SOL    HW225803   3.984   4.547  13.449 -0.3887  0.7843  0.5483
 4724SOL     OW25804   0.065   0.851  12.098  0.0446 -0.0731 -0.1235
 4724SOL    HW125805   0.061   0.947  12.100 -2.8373 -0.2196  2.0868
 4724SOL    HW225806   0.056   0.842  12.193  0.1022 -1.3305 -0.2338
 4725SOL     OW25807   2.867   4.383   9.317  0.0017  0.1985  0.0082
 4725SOL    HW125808   2.786   4.433   9.322 -0.5942 -0.9178  1.6043
 4725SOL    HW225809   2.831   4.306   9.273 -1.4941  0.8779  0.0561
 4726SOL     OW25810   3.711   4.145   3.711 -0.2020 -0.4604  0.1675
 4726SOL    HW125811   3.681   4.222   3.662 -0.2460  0.6916  2.0215
 4726SOL    HW225812   3.775   4.119   3.645 -3.2311 -2.0114 -2.1662
 4727SOL     OW25813   0.835   0.723   4.216 -0.3700 -0.2128  0.3013
 4727SOL    HW125814   0.896   0.661   4.178 -0.8483  0.4850 -1.6128
 4727SOL    HW225815   0.886   0.804   4.216 -1.3307  0.3893 -0.7603
 4728SOL     OW25816   2.095   0.995   9.196 -0.5836 -0.7045  0.6144
 4728SOL    HW125817   2.078   1.009   9.102  3.7266  1.5473  0.1883
 4728SOL    HW225818   2.178   0.949   9.191  0.9108  2.1206 -1.0301
 4729SOL     OW25819   0.868   3.516  10.676  0.4551  0.0460  0.2925
 4729SOL    HW125820   0.951   3.472  10.693  0.5849  1.1881  2.5464
 4729SOL    HW225821   0.809   3.441  10.673  0.7519 -0.0359 -4.6705
 4730SOL     OW25822   4.019   2.287   6.619  0.2440  0.7521  0.3688
 4730SOL    HW125823   3.991   2.196   6.608  1.1852  0.4295  0.7068
 4730SOL    HW225824   3.937   2.331   6.595 -0.7579  0.5455  3.3292
 4731SOL     OW25825   1.458   0.701   0.492 -0.1857  0.6204  0.7945
 4731SOL    HW125826   1.480   0.767   0.426  0.2222 -0.3766 -0.0757
 4731SOL    HW225827   1.546   0.669   0.471 -0.4447  1.4895 -1.6766
 4732SOL     OW25828   0.375   2.977   4.714 -0.0104  0.5802 -0.3152
 4732SOL    HW125829   0.416   2.924   4.782 -0.6494 -0.4003 -0.6815
 4732SOL    HW225830   0.418   2.952   4.633 -0.5534  0.9677 -0.7247
 4733SOL     OW25831   4.547   3.990   4.427  1.0237  0.2171 -0.3703
 4733SOL    HW125832   4.484   4.013   4.358  1.8852 -0.3053 -1.3259
 4733SOL    HW225833   4.628   4.004   4.379  1.7671 -1.1983  0.4752
 4734SOL     OW25834   3.328   0.131   4.141 -0.0799  0.1038 -0.2489
 4734SOL    HW125835   3.421   0.155   4.140  0.0672 -0.5343 -1.5565
 4734SOL    HW225836   3.316   0.044   4.104 -0.7445  0.4422 -0.8158
 4735SOL     OW25837   2.889   2.531  15.056 -0.3962 -0.2330  0.1042
 4735SOL    HW125838   2.897   2.444  15.015  0.7390 -0.4154  0.7096
 4735SOL    HW225839   2.963   2.579  15.020  0.1588 -2.0137 -1.1785
 4736SOL     OW25840   0.385   0.200   4.005 -0.8198 -0.1791  0.3920
 4736SOL    HW125841   0.479   0.190   3.989 -1.2086 -0.5495 -1.6588
 4736SOL    HW225842   0.369   0.108   4.030  2.3247 -1.3492 -1.9987
 4737SOL     OW25843   0.757   3.066   0.645 -0.7506  0.6795  0.4422
 4737SOL    HW125844   0.688   3.074   0.580  0.4771  0.8765 -0.8485
 4737SOL    HW225845   0.707   3.083   0.724  3.6969 -0.7111  3.5405
 4738SOL     OW25846   0.849   1.926   7.595 -0.4299  0.3019  0.0379
 4738SOL    HW125847   0.840   1.864   7.522  0.8336 -0.5256  0.6060
 4738SOL    HW225848   0.931   1.973   7.578 -1.7416  3.3678  2.2705
 4739SOL     OW25849   4.563   0.409   1.260  0.1673 -0.2165  0.2703
 4739SOL    HW125850   4.652   0.425   1.292  0.8012 -2.8306 -0.1251
 4739SOL    HW225851   4.563   0.403   1.165 -0.7212  3.0239  0.0952
 4740SOL     OW25852   4.339   3.438   1.606  0.6098 -0.5429 -0.1212
 4740SOL    HW125853   4.320   3.518   1.655  0.8064  0.2260 -1.2934
 4740SOL    HW225854   4.249   3.413   1.585  0.4508  0.1145 -0.2364
 4741SOL     OW25855   3.331   1.356   3.282 -0.3637  0.1327  1.3519
 4741SOL    HW125856   3.362   1.291   3.219  0.3601  2.5541 -0.7862
 4741SOL    HW225857   3.299   1.426   3.225 -1.6350  0.5469  2.5747
 4742SOL     OW25858   0.029   0.941   7.427 -0.3287 -0.0120 -0.4960
 4742SOL    HW125859   4.730   0.996   7.357 -1.0521 -1.8127 -1.5321
 4742SOL    HW225860   0.003   0.854   7.397  0.5575 -1.6135  3.4560
 4743SOL     OW25861   1.426   3.181   5.801 -0.0058 -0.0385 -0.0157
 4743SOL    HW125862   1.359   3.192   5.868  0.7324  0.1508  0.6964
 4743SOL    HW225863   1.497   3.136   5.848  0.8413  1.3215 -0.0121
 4744SOL     OW25864   2.261   3.782   7.593  0.4528 -0.1317  0.1510
 4744SOL    HW125865   2.308   3.738   7.522 -0.9243  0.2147 -0.9741
 4744SOL    HW225866   2.314   3.861   7.601  3.6774 -2.4998  1.9523
 4745SOL     OW25867   2.772   3.239   3.264  0.1883 -0.0452 -0.0860
 4745SOL    HW125868   2.812   3.166   3.216 -0.2923  0.0760 -0.6776
 4745SOL    HW225869   2.690   3.203   3.295  0.4474 -0.5561 -0.0067
 4746SOL     OW25870   1.062   2.505   5.323  0.4364  0.0833 -0.3544
 4746SOL    HW125871   1.018   2.558   5.389  0.0098 -1.0394  0.2597
 4746SOL    HW225872   1.106   2.577   5.277  0.8742  0.1924  0.2338
 4747SOL     OW25873   3.529   2.006   0.598  0.3377 -0.4012 -0.8507
 4747SOL    HW125874   3.589   1.993   0.672  0.6186 -0.7392 -1.1388
 4747SOL    HW225875   3.524   2.101   0.590  0.8964 -0.1655  1.5366
 4748SOL     OW25876   3.037   0.346   4.154 -0.6493  0.1897  0.1633
 4748SOL    HW125877   2.996   0.293   4.222  1.4789  0.4967  1.6848
 4748SOL    HW225878   2.961   0.394   4.121 -2.0865 -3.5116 -1.9584
 4749SOL     OW25879   3.651   4.688   8.646 -0.0474  0.2465 -0.1007
 4749SOL    HW125880   3.710   4.655   8.714 -0.6600 -1.0195 -0.1849
 4749SOL    HW225881   3.640   0.043   8.668  0.4122  0.4155 -0.5848
 4750SOL     OW25882   4.119   0.726  15.224  0.1389 -0.3880  0.1236
 4750SOL    HW125883   4.033   0.728  15.181  0.0018  2.7182  0.5892
 4750SOL    HW225884   4.093   0.702  15.313 -1.6236  1.9741  0.2453
 4751SOL     OW25885   4.121   3.032   8.954  0.0987  0.3032 -0.2061
 4751SOL    HW125886   4.111   2.999   8.865 -1.3216 -0.9746  0.4416
 4751SOL    HW225887   4.203   3.079   8.940  0.6957 -0.3663  0.9994
 4752SOL     OW25888   0.365   0.563  13.121 -0.5495  0.2098  0.2503
 4752SOL    HW125889   0.290   0.570  13.180 -0.9817 -0.9153 -0.1720
 4752SOL    HW225890   0.373   0.651  13.082  4.1276 -0.0907  0.5432
 4753SOL     OW25891   1.955   4.695   7.566 -0.2655  0.3202 -0.4097
 4753SOL    HW125892   1.990   4.681   7.479  0.4382  0.0940 -0.0877
 4753SOL    HW225893   1.877   0.010   7.543 -0.2178  0.8668  0.6219
 4754SOL     OW25894   1.177   0.406   8.296  0.3890 -0.5611  0.6728
 4754SOL    HW125895   1.089   0.372   8.282 -0.6731  2.6476 -0.4455
 4754SOL    HW225896   1.211   0.365   8.217  0.2627 -0.5088  0.5913
 4755SOL     OW25897   1.268   2.803   1.945 -0.0995 -0.4645  0.1252
 4755SOL    HW125898   1.343   2.847   1.904 -1.7327  1.5815 -0.6612
 4755SOL    HW225899   1.288   2.710   1.929 -3.9039 -0.9848 -1.6226
 4756SOL     OW25900   1.837   1.683   8.206 -0.0983  0.1512  0.1739
 4756SOL    HW125901   1.902   1.651   8.269 -0.0681 -0.1340 -0.0049
 4756SOL    HW225902   1.776   1.725   8.266 -1.5291 -3.5503  1.2963
 4757SOL     OW25903   4.002   1.641   5.720 -0.1607 -0.1369 -0.3688
 4757SOL    HW125904   3.942   1.689   5.778  0.7535  0.7360 -0.1550
 4757SOL    HW225905   3.957   1.644   5.636 -1.5085  0.0588  0.3501
 4758SOL     OW25906   2.934   4.368   7.621 -0.2576 -0.7574 -0.1199
 4758SOL    HW125907   2.914   4.459   7.598  1.5390 -0.2565  0.2634
 4758SOL    HW225908   2.903   4.369   7.712 -2.9507  1.9836 -1.0791
 4759SOL     OW25909   4.595   2.105   7.058  0.3584 -0.6045 -0.1603
 4759SOL    HW125910   4.658   2.034   7.072  1.8267  0.7382  0.0897
 4759SOL    HW225911   4.559   2.076   6.974 -0.2586 -0.1123 -0.0655
 4760SOL     OW25912   2.805   3.307  17.003  0.2881  0.4017 -0.2123
 4760SOL    HW125913   2.736   3.269  16.949 -1.6833  1.8367  1.2694
 4760SOL    HW225914   2.763   3.321  17.088 -0.2541  1.3286 -0.6273
 4761SOL     OW25915   0.462   0.254   4.561 -0.6400 -0.2227 -0.2464
 4761SOL    HW125916   0.489   0.226   4.648 -0.7579 -2.2815 -0.8756
 4761SOL    HW225917   0.549   0.262   4.520 -1.1744 -2.9708 -1.8858
 4762SOL     OW25918   1.300   3.809  13.287 -0.2387  0.0428  0.4595
 4762SOL    HW125919   1.309   3.901  13.314  0.9553  0.1994 -0.4625
 4762SOL    HW225920   1.320   3.811  13.194 -1.4695 -0.8036  0.1827
 4763SOL     OW25921   1.545   3.813  14.637 -0.2338 -0.2020  0.1756
 4763SOL    HW125922   1.475   3.747  14.635 -0.3137 -0.1346  0.8824
 4763SOL    HW225923   1.620   3.758  14.615 -0.9071 -0.8170 -0.6088
 4764SOL     OW25924   3.181   4.610   8.692  0.6837 -0.7360  0.7503
 4764SOL    HW125925   3.130   4.679   8.736  3.3152  2.2066 -0.8757
 4764SOL    HW225926   3.263   4.616   8.740  1.5021 -0.1781 -0.7490
 4765SOL     OW25927   0.044   1.950   5.388  0.9248  0.1807 -0.0072
 4765SOL    HW125928   0.095   2.017   5.435 -3.8051  0.4748  4.7600
 4765SOL    HW225929   0.084   1.953   5.301  1.4540 -0.0852  0.2249
 4766SOL     OW25930   1.992   0.247   2.674  0.4824 -0.1699 -0.5137
 4766SOL    HW125931   2.034   0.301   2.741  0.7234  0.5400 -1.2349
 4766SOL    HW225932   2.045   0.277   2.600 -0.1144  0.5980 -0.6279
 4767SOL     OW25933   1.720   2.794  10.190  0.3163 -0.4185  0.6493
 4767SOL    HW125934   1.803   2.767  10.230  0.5748 -0.7723 -0.1400
 4767SOL    HW225935   1.703   2.873  10.242  1.9455  0.6836 -0.4772
 4768SOL     OW25936   3.693   2.865   9.358 -0.2674 -0.0717  0.1303
 4768SOL    HW125937   3.648   2.791   9.398 -0.6470 -0.2070 -0.5517
 4768SOL    HW225938   3.635   2.880   9.283  1.1122  0.8557 -0.7737
 4769SOL     OW25939   0.377   4.284   4.355 -0.0949 -0.4916 -0.6050
 4769SOL    HW125940   0.462   4.282   4.399  0.5307  0.2566 -1.7819
 4769SOL    HW225941   0.329   4.322   4.429 -0.5047 -1.8603 -0.1662
 4770SOL     OW25942   2.388   0.070   3.973  0.0491 -0.6443 -0.0380
 4770SOL    HW125943   2.307   0.107   3.940  1.2459  1.5044 -0.6038
 4770SOL    HW225944   2.440   0.116   3.906  0.0119 -1.8013 -0.8741
 4771SOL     OW25945   2.708   4.563   8.626  0.3139  0.1978  0.0049
 4771SOL    HW125946   2.770   4.521   8.685 -1.4699 -2.4052  0.0108
 4771SOL    HW225947   2.752   4.551   8.542  0.4692  3.4906 -0.4073
 4772SOL     OW25948   4.096   1.819   7.781  0.0277 -0.5495  0.4913
 4772SOL    HW125949   4.177   1.867   7.799  0.6060 -1.1482 -0.5391
 4772SOL    HW225950   4.034   1.892   7.775  0.4683 -0.4831 -3.0947
 4773SOL     OW25951   2.883   1.957   2.572 -0.0691 -0.4422  0.2371
 4773SOL    HW125952   2.874   1.974   2.478 -2.8401  0.9381  0.7250
 4773SOL    HW225953   2.877   2.046   2.608  3.0668 -0.1000 -0.1354
 4774SOL     OW25954   3.618   0.255   6.037 -0.5918  0.4041  0.3875
 4774SOL    HW125955   3.616   0.299   5.951 -1.2563 -0.2368  0.0777
 4774SOL    HW225956   3.676   0.181   6.021 -3.2856 -1.7869  0.6571
 4775SOL     OW25957   4.323   3.711   5.354  0.0751  0.0091 -0.0181
 4775SOL    HW125958   4.288   3.797   5.330 -3.4971 -0.8184  2.2224
 4775SOL    HW225959   4.335   3.670   5.268  0.3746  1.3739 -0.6307
 4776SOL     OW25960   3.837   0.748  15.238  0.3000  0.3260 -0.6717
 4776SOL    HW125961   3.836   0.673  15.298 -0.6823 -0.2216 -1.3695
 4776SOL    HW225962   3.756   0.789  15.267  0.5144 -0.3248  0.8994
 4777SOL     OW25963   0.036   0.838  12.357  0.4432  0.0440  0.1142
 4777SOL    HW125964   4.715   0.909  12.385 -2.2530 -1.8343 -0.7154
 4777SOL    HW225965   0.031   0.790  12.440 -0.8705  0.0206  0.0290
 4778SOL     OW25966   0.628   3.098  13.175  0.3327  0.1118 -0.5851
 4778SOL    HW125967   0.559   3.097  13.241  0.3442  1.9565 -0.5556
 4778SOL    HW225968   0.575   3.068  13.102 -1.0149  1.1593 -0.0445
 4779SOL     OW25969   0.176   2.103  17.673  0.2672 -0.2320 -0.4220
 4779SOL    HW125970   0.109   2.068  17.614  0.3842 -0.1517 -0.5991
 4779SOL    HW225971   0.247   2.108  17.610 -0.3544  2.2600 -0.9093
 4780SOL     OW25972   3.417   1.171  12.422  0.8159  0.6571 -0.1243
 4780SOL    HW125973   3.359   1.222  12.367 -0.7695 -2.2783 -1.1985
 4780SOL    HW225974   3.415   1.089  12.373  0.0220  0.4654  0.2289
 4781SOL     OW25975   0.996   0.510  15.896  0.0714 -0.0719  0.4232
 4781SOL    HW125976   1.035   0.564  15.827 -1.8289 -1.9811 -2.1793
 4781SOL    HW225977   1.049   0.431  15.897  0.0545 -0.0830  0.4363
 4782SOL     OW25978   0.052   2.608   8.222 -0.0305  0.1071 -0.1718
 4782SOL    HW125979   0.059   2.547   8.149 -0.4127 -0.0468 -0.0789
 4782SOL    HW225980   0.119   2.567   8.275  1.9478  1.1125 -1.8976
 4783SOL     OW25981   2.713   0.428   2.300  0.1080 -0.8113  1.3227
 4783SOL    HW125982   2.755   0.480   2.368 -0.2879 -1.7660  2.2976
 4783SOL    HW225983   2.778   0.358   2.297  0.7770 -0.1023 -0.4217
 4784SOL     OW25984   1.504   0.061   5.804 -0.0616  0.1832 -0.0336
 4784SOL    HW125985   1.418   0.027   5.781 -0.5572  1.4051  0.0137
 4784SOL    HW225986   1.558   4.719   5.814  1.5116  1.1783 -0.7850
 4785SOL     OW25987   2.996   3.997   8.073 -0.4003  0.5609  0.0573
 4785SOL    HW125988   2.953   4.031   8.151 -0.8424  0.0602  0.0365
 4785SOL    HW225989   3.078   3.983   8.119 -0.4817 -1.0295 -0.2610
 4786SOL     OW25990   4.366   4.692   7.232  0.1016  0.2313  0.6250
 4786SOL    HW125991   4.367   0.049   7.254  0.4622  0.2607  0.4743
 4786SOL    HW225992   4.460   4.678   7.228  0.0665  0.4423 -1.1360
 4787SOL     OW25993   0.438   2.914   3.657  0.3418  0.0718 -0.3832
 4787SOL    HW125994   0.363   2.946   3.607  0.6081  1.4221  0.0810
 4787SOL    HW225995   0.392   2.840   3.696  0.4730  0.3298  0.2634
 4788SOL     OW25996   3.646   0.641  10.617  0.2874  0.6735  0.5383
 4788SOL    HW125997   3.584   0.700  10.660  0.0870  0.4631  0.5407
 4788SOL    HW225998   3.680   0.692  10.544 -1.5170 -1.3496 -1.7156
 4789SOL     OW25999   0.676   1.103   6.855 -0.0084  0.0804 -0.1171
 4789SOL    HW126000   0.698   1.113   6.948 -0.2791  0.1954 -0.0662
 4789SOL    HW226001   0.634   1.017   6.851  0.7815 -0.3870  1.5203
 4790SOL     OW26002   4.067   3.902   3.748 -0.2680 -0.1040  0.2099
 4790SOL    HW126003   4.124   3.825   3.743  1.0761  0.9554 -0.8441
 4790SOL    HW226004   3.990   3.860   3.708  0.6587 -0.3539 -1.2983
 4791SOL     OW26005   0.337   1.570   3.448 -0.0436  0.1834  0.0938
 4791SOL    HW126006   0.267   1.505   3.441  0.8096 -0.6879 -0.3417
 4791SOL    HW226007   0.320   1.629   3.522 -0.5462  0.3363 -0.1437
 4792SOL     OW26008   3.255   1.739   2.662  0.0559 -0.0916  0.1396
 4792SOL    HW126009   3.172   1.733   2.709  0.0462  0.8009  0.2366
 4792SOL    HW226010   3.260   1.664   2.603  0.7634  0.8431 -0.9972
 4793SOL     OW26011   4.190   0.752   4.154  0.0935  0.0464  0.1947
 4793SOL    HW126012   4.227   0.689   4.092  0.2186 -1.3463  1.6805
 4793SOL    HW226013   4.126   0.699   4.202 -1.8466  1.6979 -0.5848
 4794SOL     OW26014   4.159   3.479   6.819  0.2735  0.1204  0.4842
 4794SOL    HW126015   4.066   3.479   6.842  0.3930 -0.8467  0.9532
 4794SOL    HW226016   4.161   3.427   6.738 -0.6478  0.2793  0.3604
 4795SOL     OW26017   2.667   3.842   4.754  0.5947  0.0734 -0.1629
 4795SOL    HW126018   2.627   3.837   4.841  0.5269  2.3048 -0.0887
 4795SOL    HW226019   2.754   3.878   4.764  0.2583  1.0223 -0.6725
 4796SOL     OW26020   1.574   1.777  15.171  0.0454  0.1698  0.4384
 4796SOL    HW126021   1.641   1.844  15.161 -0.4549  0.9905  2.4799
 4796SOL    HW226022   1.623   1.704  15.208  1.2539  0.3635 -0.8113
 4797SOL     OW26023   3.726   3.810  13.393  0.1557 -0.1034 -0.2251
 4797SOL    HW126024   3.761   3.794  13.306  0.2343 -2.6794  0.2805
 4797SOL    HW226025   3.640   3.849  13.374  0.9649  1.8668  0.1325
 4798SOL     OW26026   4.568   2.850   2.626  0.2526 -0.1432  0.4839
 4798SOL    HW126027   4.616   2.804   2.695  1.7654  1.5601  0.5736
 4798SOL    HW226028   4.479   2.816   2.638  0.8117 -2.3332 -1.4446
 4799SOL     OW26029   4.679   1.860   5.674  0.3305  0.2206  0.1316
 4799SOL    HW126030   0.015   1.833   5.730 -0.6027  1.9090  2.1895
 4799SOL    HW226031   4.713   1.859   5.585  1.3849 -0.2257  0.5476
 4800SOL     OW26032   0.908   4.073  14.617  0.2364  0.3019 -0.2438
 4800SOL    HW126033   0.823   4.086  14.661  0.3364 -2.4969  0.7879
 4800SOL    HW226034   0.945   4.160  14.628  1.6212 -0.5660  2.0732
 4801SOL     OW26035   1.733   1.427   7.038 -0.0641  0.0099 -0.4867
 4801SOL    HW126036   1.717   1.514   7.002  0.6640 -0.0112 -0.8516
 4801SOL    HW226037   1.804   1.430   7.102 -0.5650 -0.0438  0.0704
 4802SOL     OW26038   1.479   4.636   8.467  0.3458  0.0517 -0.0466
 4802SOL    HW126039   1.427   4.562   8.437 -2.7533  1.7245  1.2220
 4802SOL    HW226040   1.505   4.625   8.558 -1.7178 -0.6446  0.4558
 4803SOL     OW26041   4.209   0.024   3.933 -0.4503  0.4332  0.1222
 4803SOL    HW126042   4.265   4.683   3.930 -0.7833  0.0793  2.7403
 4803SOL    HW226043   4.207   0.038   3.839 -0.2455 -1.9327 -0.2473
 4804SOL     OW26044   4.659   2.047  11.880  0.6741 -0.3615 -0.1838
 4804SOL    HW126045   0.003   2.095  11.896 -0.6741  1.5699  0.8819
 4804SOL    HW226046   4.594   2.109  11.847  0.4733  0.3388  1.5591
 4805SOL     OW26047   4.462   0.322   5.832 -0.1073 -0.5881 -0.1179
 4805SOL    HW126048   4.414   0.266   5.772  1.2084 -1.4161 -0.4198
 4805SOL    HW226049   4.535   0.356   5.780  0.3430 -0.7312  0.4165
 4806SOL     OW26050   3.796   0.887  17.661 -0.1130 -0.7740  0.1596
 4806SOL    HW126051   3.775   0.855  17.574 -2.4180  0.2230  0.3676
 4806SOL    HW226052   3.718   0.855  17.705 -1.3112  2.0656  0.0784
 4807SOL     OW26053   3.662   2.582   3.614  0.3751  0.3388  0.5966
 4807SOL    HW126054   3.576   2.540   3.623 -0.5746  2.4768  1.4982
 4807SOL    HW226055   3.635   2.628   3.535 -2.8511 -2.0723  0.2840
 4808SOL     OW26056   0.274   2.248   0.549  0.7325  0.3553  0.3137
 4808SOL    HW126057   0.269   2.277   0.458 -0.7141  2.2068  0.9758
 4808SOL    HW226058   0.293   2.334   0.588  0.3730  0.0617  1.1271
 4809SOL     OW26059   1.617   4.223   8.026 -0.9366  0.5026  0.3681
 4809SOL    HW126060   1.680   4.292   8.009 -0.3630 -0.9325 -3.1841
 4809SOL    HW226061   1.664   4.165   8.086 -3.5027 -1.1085  0.8195
 4810SOL     OW26062   4.020   2.849   2.777  0.6593 -0.0117  0.2139
 4810SOL    HW126063   3.987   2.760   2.778  0.0001  0.2407  0.7202
 4810SOL    HW226064   3.943   2.900   2.803  0.5405 -0.0141 -0.1287
 4811SOL     OW26065   3.663   3.689   4.974 -0.0986 -0.4520 -0.1719
 4811SOL    HW126066   3.596   3.753   4.998  0.5711 -0.1292  0.8327
 4811SOL    HW226067   3.629   3.671   4.887  0.9438 -0.0902 -0.6513
 4812SOL     OW26068   4.237   2.169  16.475 -0.0107  0.5890 -0.4593
 4812SOL    HW126069   4.278   2.233  16.418 -1.9266  1.9866 -0.2753
 4812SOL    HW226070   4.276   2.176  16.562  0.3920 -0.0769 -0.5889
 4813SOL     OW26071   4.419   3.643   1.059  0.4277  0.1930  0.2217
 4813SOL    HW126072   4.422   3.611   0.969  0.5764  1.2544 -0.1424
 4813SOL    HW226073   4.336   3.692   1.055 -0.7322 -1.8893 -1.4289
 4814SOL     OW26074   0.044   3.653  15.510 -0.4561 -0.2416  0.1119
 4814SOL    HW126075   0.024   3.733  15.559  1.8327 -0.8959  2.0596
 4814SOL    HW226076   0.130   3.627  15.542 -0.0691  1.3870  0.4159
 4815SOL     OW26077   0.899   4.532   5.380  0.7305 -0.1357 -0.2589
 4815SOL    HW126078   0.812   4.569   5.363 -0.1019 -1.4903  0.9464
 4815SOL    HW226079   0.881   4.443   5.349 -2.1186  0.7532 -1.1220
 4816SOL     OW26080   2.670   1.992   1.947  0.3192  0.3671  0.7482
 4816SOL    HW126081   2.698   2.008   1.857  0.2714 -0.4055  0.6012
 4816SOL    HW226082   2.608   1.920   1.949  1.7643 -0.8812  0.4400
 4817SOL     OW26083   1.994   1.632   4.153 -0.3090  0.0572  0.1753
 4817SOL    HW126084   1.997   1.597   4.064  0.3420 -0.9288  0.5901
 4817SOL    HW226085   2.051   1.708   4.145 -1.1532  0.5657 -1.1531
 4818SOL     OW26086   1.799   1.184  12.433  0.0067  0.5504  0.8766
 4818SOL    HW126087   1.777   1.166  12.525 -1.1446  0.1854  0.5207
 4818SOL    HW226088   1.894   1.173  12.424  0.1272  2.6247 -0.3228
 4819SOL     OW26089   0.531   4.534  16.268 -0.6528 -0.4548  0.2277
 4819SOL    HW126090   0.619   4.545  16.304  0.5721 -1.1641 -2.5887
 4819SOL    HW226091   0.481   4.525  16.349  0.9571  0.2208  1.2936
 4820SOL     OW26092   4.611   0.061   3.839  0.5357 -0.1413  0.3102
 4820SOL    HW126093   4.580   0.127   3.901  0.8575 -0.6391  0.9967
 4820SOL    HW226094   4.580   0.100   3.757  1.8941 -0.0027 -0.1381
 4821SOL     OW26095   2.065   2.093   3.242  0.3109  0.0936 -0.3430
 4821SOL    HW126096   2.111   2.089   3.158  1.2412  0.6907  0.1342
 4821SOL    HW226097   2.027   2.181   3.240  0.2437  0.0008 -3.7028
 4822SOL     OW26098   0.721   2.962   8.654 -0.0907 -0.4389  0.1068
 4822SOL    HW126099   0.747   2.963   8.746  1.5961 -3.4008 -0.3385
 4822SOL    HW226100   0.648   2.900   8.662  0.3205 -0.8662  0.6331
 4823SOL     OW26101   0.572   0.929   0.950 -0.2303  0.3657 -0.0078
 4823SOL    HW126102   0.664   0.913   0.969 -0.0869  1.8785  0.6327
 4823SOL    HW226103   0.576   1.021   0.922  1.1022  0.8597  1.7462
 4824SOL     OW26104   2.028   2.238   3.697 -0.0444  0.4452  0.3408
 4824SOL    HW126105   2.085   2.243   3.620 -1.2628 -2.1842 -0.7186
 4824SOL    HW226106   1.941   2.228   3.658  0.4251 -2.9802  0.2206
 4825SOL     OW26107   3.713   3.706  14.907 -0.3157  0.2100  0.5703
 4825SOL    HW126108   3.768   3.655  14.966 -0.0882  0.8127  0.8801
 4825SOL    HW226109   3.717   3.646  14.832  2.5858  0.6375  0.3741
 4826SOL     OW26110   2.730   3.864  11.533 -0.0023  0.4791  0.0987
 4826SOL    HW126111   2.808   3.891  11.581  0.3215  0.5580 -0.4700
 4826SOL    HW226112   2.709   3.782  11.577  1.6493 -0.0929 -0.1829
 4827SOL     OW26113   3.435   0.634   5.558  0.8377 -0.0178  0.4975
 4827SOL    HW126114   3.432   0.674   5.645  1.8981  1.2371 -0.0385
 4827SOL    HW226115   3.523   0.654   5.525  1.1708  0.1241  1.4710
 4828SOL     OW26116   1.926   3.815   9.492 -0.7981 -0.1510  0.0428
 4828SOL    HW126117   1.959   3.768   9.415 -0.9992 -1.5686  0.8143
 4828SOL    HW226118   1.832   3.809   9.474 -0.8840  1.0455  0.1266
 4829SOL     OW26119   3.804   2.270  10.162 -0.5291 -0.2430  0.0703
 4829SOL    HW126120   3.860   2.244  10.088 -0.6696  0.3691 -0.2455
 4829SOL    HW226121   3.869   2.277  10.232  0.0335  0.4295 -0.5165
 4830SOL     OW26122   4.570   2.821   9.299  0.1146 -0.1325  0.1582
 4830SOL    HW126123   4.591   2.877   9.374  1.4456 -1.4949  0.8019
 4830SOL    HW226124   4.475   2.817   9.293  0.0684 -1.9662  2.1406
 4831SOL     OW26125   0.755   0.762   8.690  0.3896  0.1957  0.2199
 4831SOL    HW126126   0.849   0.745   8.681 -0.2397 -1.8176 -2.8888
 4831SOL    HW226127   0.727   0.721   8.608 -1.2900  1.5120  0.1386
 4832SOL     OW26128   3.060   1.084  14.004  0.3941  0.1976  0.8122
 4832SOL    HW126129   3.127   1.149  13.981  0.6619  0.0527  1.1676
 4832SOL    HW226130   3.081   1.058  14.094  1.2105  0.5525  0.7244
 4833SOL     OW26131   1.621   3.837   3.993  0.2226  0.5831  0.9689
 4833SOL    HW126132   1.589   3.921   3.960  0.4020  0.9702  1.7703
 4833SOL    HW226133   1.617   3.852   4.088  0.3838  0.3207  1.0159
 4834SOL     OW26134   1.207   3.969   8.591 -0.2254 -0.3654  0.3150
 4834SOL    HW126135   1.120   3.998   8.617 -0.8395 -1.3026 -0.6753
 4834SOL    HW226136   1.228   4.031   8.520  0.2310 -2.5906 -1.4806
 4835SOL     OW26137   2.143   1.163   8.339 -0.2391  0.0825  1.1563
 4835SOL    HW126138   2.077   1.094   8.330  0.4508 -0.1208 -2.4943
 4835SOL    HW226139   2.092   1.236   8.375 -1.8602 -0.3061 -0.3123
 4836SOL     OW26140   0.038   4.558   9.675 -0.7265  0.5040  0.5925
 4836SOL    HW126141   0.097   4.583   9.604  0.3064  0.8622  1.5997
 4836SOL    HW226142   4.690   4.594   9.648 -0.4881  0.6010 -0.0453
 4837SOL     OW26143   1.394   1.416   7.981 -0.0544 -0.3207 -0.0289
 4837SOL    HW126144   1.406   1.337   8.035 -0.8386 -0.0600  0.5244
 4837SOL    HW226145   1.479   1.415   7.935 -0.1642  0.4786 -0.2444
 4838SOL     OW26146   3.917   1.305  17.508 -0.1984  0.3700 -0.6268
 4838SOL    HW126147   3.905   1.400  17.510  1.6286  0.5789  0.3866
 4838SOL    HW226148   3.834   1.273  17.474 -0.5899  0.8029 -0.0808
 4839SOL     OW26149   1.496   1.469  16.646  0.7841 -0.2310  0.2519
 4839SOL    HW126150   1.525   1.431  16.729 -0.4297 -0.9529  0.3519
 4839SOL    HW226151   1.556   1.544  16.642  1.5114 -0.8558 -0.4813
 4840SOL     OW26152   2.906   2.487   3.535 -0.3455  0.8858 -0.1295
 4840SOL    HW126153   2.869   2.569   3.568  1.0558  1.4156  0.0960
 4840SOL    HW226154   2.857   2.484   3.453 -0.2785 -2.3357 -0.0857
 4841SOL     OW26155   1.755   1.173   9.258 -0.8107  0.2397  0.2892
 4841SOL    HW126156   1.768   1.267   9.275 -1.0629  0.2124  0.6119
 4841SOL    HW226157   1.741   1.138   9.345 -0.3886 -0.6520 -0.0008
 4842SOL     OW26158   2.469   3.800   8.963 -0.1603 -0.2182  0.1964
 4842SOL    HW126159   2.383   3.833   8.989  0.7112  1.5814  0.8091
 4842SOL    HW226160   2.435   3.728   8.910  2.3292  0.1365 -1.8514
 4843SOL     OW26161   2.425   4.619   6.435  0.3081  0.1638  0.3949
 4843SOL    HW126162   2.492   4.568   6.481  0.3107  1.5271  1.9028
 4843SOL    HW226163   2.479   4.694   6.411  2.0489 -0.9143  0.9382
 4844SOL     OW26164   0.504   0.686  12.637  0.0886 -0.3545 -0.1191
 4844SOL    HW126165   0.475   0.759  12.582 -0.0734  0.5683  1.1948
 4844SOL    HW226166   0.591   0.659  12.608 -0.1172 -0.4365 -0.6608
 4845SOL     OW26167   2.015   4.220   6.309 -0.1713 -0.1328  0.2595
 4845SOL    HW126168   2.060   4.267   6.379 -1.5691 -0.0838  1.1163
 4845SOL    HW226169   1.946   4.283   6.293 -0.2480 -0.2531  0.1170
 4846SOL     OW26170   3.073   1.766   6.865  0.0291 -0.2605 -0.4027
 4846SOL    HW126171   3.016   1.736   6.794 -0.3147  1.3823 -0.8094
 4846SOL    HW226172   3.119   1.687   6.892  1.8863  0.1060 -2.5161
 4847SOL     OW26173   1.725   0.633  14.116  0.0989  0.1932 -0.0034
 4847SOL    HW126174   1.709   0.552  14.164 -0.4432 -0.4270 -1.2293
 4847SOL    HW226175   1.686   0.618  14.030 -1.2377 -1.1091  0.8288
 4848SOL     OW26176   0.754   2.004   6.325 -1.1710 -0.3395  0.1590
 4848SOL    HW126177   0.837   2.051   6.321 -2.2871  1.7048  0.7956
 4848SOL    HW226178   0.690   2.070   6.297 -1.6288 -0.7013  0.3567
 4849SOL     OW26179   0.698   0.483   2.837  0.0382 -0.1723 -0.1472
 4849SOL    HW126180   0.645   0.532   2.774  1.0342  0.1586 -0.7386
 4849SOL    HW226181   0.632   0.487   2.906  1.2555  0.4639  0.9849
 4850SOL     OW26182   1.040   1.691   9.697 -0.1184 -0.6024 -0.0586
 4850SOL    HW126183   1.011   1.735   9.777 -1.1785  1.1904 -1.4309
 4850SOL    HW226184   0.984   1.720   9.625  1.3294  1.4668 -0.3105
 4851SOL     OW26185   4.257   0.897   1.554 -0.1493 -0.4776  0.5046
 4851SOL    HW126186   4.288   0.842   1.482 -1.4505  2.1284 -2.0559
 4851SOL    HW226187   4.179   0.938   1.517 -0.0008 -0.7472 -0.1020
 4852SOL     OW26188   0.076   0.665   4.856 -0.8750 -0.1799 -0.2002
 4852SOL    HW126189   0.071   0.761   4.861  0.1850 -0.3380  3.6249
 4852SOL    HW226190   0.045   0.657   4.766 -0.7112 -1.5949 -0.1229
 4853SOL     OW26191   2.631   2.304  15.201  0.2072 -0.3760 -0.5922
 4853SOL    HW126192   2.718   2.274  15.176 -0.2158 -1.8701 -0.2625
 4853SOL    HW226193   2.579   2.227  15.224  0.2078  0.0323  0.8082
 4854SOL     OW26194   0.813   2.641   3.298 -0.5626 -0.4005  0.0007
 4854SOL    HW126195   0.890   2.697   3.295 -1.0283  0.2975  1.4829
 4854SOL    HW226196   0.784   2.638   3.389  0.2031  0.0466  0.2559
 4855SOL     OW26197   1.526   1.635  11.855  0.2307 -0.2969  0.3832
 4855SOL    HW126198   1.533   1.601  11.944  1.8677  0.7780  0.6612
 4855SOL    HW226199   1.586   1.582  11.803  0.1868  0.3041 -0.2828
 4856SOL     OW26200   3.996   3.772  11.264 -0.8709  0.1754 -0.0466
 4856SOL    HW126201   3.963   3.712  11.331  1.6008  0.8026  1.7072
 4856SOL    HW226202   4.036   3.722  11.192  0.0036  2.7209 -1.3284
 4857SOL     OW26203   2.149   3.570  15.610 -0.7118  0.3015  0.0552
 4857SOL    HW126204   2.104   3.510  15.670 -0.5883  2.4682  2.3305
 4857SOL    HW226205   2.131   3.653  15.654  2.5992  0.5322  1.0024
 4858SOL     OW26206   2.909   4.252   6.373  0.6101  0.5027 -0.5026
 4858SOL    HW126207   2.983   4.199   6.402 -0.6925 -0.3361  1.2680
 4858SOL    HW226208   2.946   4.280   6.289 -0.7951 -1.5624 -1.7916
 4859SOL     OW26209   1.195   3.962   6.002 -0.6061 -0.4955  0.0354
 4859SOL    HW126210   1.199   3.972   6.097  0.2832  2.7446 -0.3342
 4859SOL    HW226211   1.183   4.054   5.977  1.2226 -0.1166  0.5585
 4860SOL     OW26212   3.409   1.692  12.645 -0.2244 -0.2725  0.0541
 4860SOL    HW126213   3.390   1.718  12.735 -0.3346 -0.0298 -0.0420
 4860SOL    HW226214   3.395   1.597  12.656 -0.4850 -0.2479 -0.0725
 4861SOL     OW26215   2.921   4.360  10.664  0.1878  0.1022 -0.4110
 4861SOL    HW126216   2.915   4.443  10.712  1.9802  1.5881 -2.7491
 4861SOL    HW226217   2.933   4.295  10.733  2.6054  1.0816  0.0763
 4862SOL     OW26218   2.840   0.082   8.983 -0.5588  0.4646  0.0375
 4862SOL    HW126219   2.747   0.096   9.001 -0.5084  0.7428  0.0700
 4862SOL    HW226220   2.870   0.128   9.061 -0.4383 -0.3714  0.4878
 4863SOL     OW26221   4.181   0.369   0.654  0.2110  0.0024 -0.0667
 4863SOL    HW126222   4.253   0.350   0.594 -1.3261  2.8481 -2.7820
 4863SOL    HW226223   4.148   0.281   0.669  2.7846 -0.8844  0.4319
 4864SOL     OW26224   1.277   2.930   8.882  0.0213  0.5094  0.3027
 4864SOL    HW126225   1.183   2.931   8.864  0.4325 -0.4167 -1.8954
 4864SOL    HW226226   1.287   2.868   8.954  2.4165  0.9220  0.3411
 4865SOL     OW26227   2.034   4.391   6.578 -0.3228 -0.4281  0.6342
 4865SOL    HW126228   2.057   4.302   6.607  0.1490 -0.7091 -0.5680
 4865SOL    HW226229   1.943   4.399   6.604 -0.2411 -0.7732  1.0335
 4866SOL     OW26230   1.163   1.904  10.255 -0.5067 -0.0367 -0.2543
 4866SOL    HW126231   1.222   1.861  10.194 -1.9198  0.2013 -1.7902
 4866SOL    HW226232   1.184   1.995  10.235  0.0552  0.6342  3.2605
 4867SOL     OW26233   1.156   0.553  16.805  0.0439 -0.0481  0.4836
 4867SOL    HW126234   1.116   0.567  16.720 -0.4375 -1.2890  0.5016
 4867SOL    HW226235   1.123   0.634  16.843  0.8416  0.5140 -0.0344
 4868SOL     OW26236   3.701   4.119   5.368  0.1711  0.0371  0.0628
 4868SOL    HW126237   3.646   4.166   5.305 -0.2696 -0.3604  0.1447
 4868SOL    HW226238   3.670   4.157   5.450  0.9033  0.9923 -0.1126
 4869SOL     OW26239   2.789   2.907   9.089 -0.2180  0.5262 -0.3733
 4869SOL    HW126240   2.695   2.894   9.103 -0.8965  2.4996 -3.0524
 4869SOL    HW226241   2.788   3.000   9.065  1.6442  0.1339 -1.9568
 4870SOL     OW26242   2.536   4.586   3.081 -0.4771  0.2170 -0.0545
 4870SOL    HW126243   2.455   4.630   3.107 -1.7797 -2.9984  1.3285
 4870SOL    HW226244   2.506   4.496   3.095  1.2893 -0.5848 -1.3566
 4871SOL     OW26245   1.742   3.820  10.896 -0.6284  0.0812 -0.1773
 4871SOL    HW126246   1.678   3.762  10.936 -0.1275  0.0765  0.6330
 4871SOL    HW226247   1.775   3.869  10.971 -1.0215 -2.2216  1.4955
 4872SOL     OW26248   2.514   1.553  16.486 -0.0984  0.1205  0.4764
 4872SOL    HW126249   2.583   1.616  16.470 -1.7896  1.8672  0.0648
 4872SOL    HW226250   2.494   1.585  16.574 -3.5129 -1.4738  0.2849
 4873SOL     OW26251   3.916   1.032  11.815 -0.6922  0.4859 -0.3255
 4873SOL    HW126252   3.891   1.074  11.733 -0.3318  1.6036  0.1358
 4873SOL    HW226253   4.011   1.044  11.815 -0.6618  0.2321 -0.7089
 4874SOL     OW26254   3.256   3.997   7.784 -0.0750 -0.0868 -0.0589
 4874SOL    HW126255   3.280   3.934   7.852  1.3358 -0.7369 -1.1571
 4874SOL    HW226256   3.162   4.013   7.796  0.3169  1.3864  1.1133
 4875SOL     OW26257   2.128   2.300  10.183  0.1750 -0.3989  0.2304
 4875SOL    HW126258   2.039   2.306  10.146 -0.3912 -1.9858  1.3717
 4875SOL    HW226259   2.174   2.275  10.103 -1.7689 -0.0813 -1.0113
 4876SOL     OW26260   1.526   3.668   1.593  0.3656 -0.4788 -0.1960
 4876SOL    HW126261   1.548   3.672   1.686  1.8183 -1.2238 -0.4998
 4876SOL    HW226262   1.612   3.674   1.552  0.3697  2.6285  0.3249
 4877SOL     OW26263   3.130   3.811   0.016  0.1348 -0.5853  0.1204
 4877SOL    HW126264   3.122   3.727  17.716 -1.4747  0.0897 -0.8792
 4877SOL    HW226265   3.068   3.804   0.088 -1.4164 -1.5548 -1.3156
 4878SOL     OW26266   4.614   2.121   6.706 -0.8821  0.1985 -0.3184
 4878SOL    HW126267   4.591   2.032   6.734  0.0147 -0.4303 -1.5767
 4878SOL    HW226268   4.657   2.093   6.625 -5.3720  2.3513 -3.4654
 4879SOL     OW26269   4.319   0.927   8.287 -0.3513 -0.6567  0.0855
 4879SOL    HW126270   4.397   0.874   8.270 -1.2676 -1.5956 -1.1850
 4879SOL    HW226271   4.285   0.883   8.365 -2.8086  0.3826 -0.3932
 4880SOL     OW26272   1.113   1.627   3.591 -0.5977 -0.1778  0.0932
 4880SOL    HW126273   1.029   1.588   3.611 -1.2539  0.1742 -2.0002
 4880SOL    HW226274   1.161   1.547   3.570  0.0478  0.2779 -0.2036
 4881SOL     OW26275   1.801   4.282   1.374 -0.9845  0.5692 -0.1617
 4881SOL    HW126276   1.865   4.256   1.308 -0.9008 -0.2174  0.2309
 4881SOL    HW226277   1.735   4.343   1.342  0.5796  1.8541 -0.9484
 4882SOL     OW26278   1.278   2.491   3.861 -0.2971 -0.2407  0.2369
 4882SOL    HW126279   1.204   2.458   3.810  0.0632 -0.1585 -0.3354
 4882SOL    HW226280   1.335   2.415   3.866  1.7578  1.4648  2.6822
 4883SOL     OW26281   2.762   1.065   7.905  0.0417 -0.0022 -0.3095
 4883SOL    HW126282   2.793   0.984   7.944 -1.3918  0.3756  1.6094
 4883SOL    HW226283   2.836   1.078   7.845 -1.7445  3.3424 -1.8038
 4884SOL     OW26284   0.002   3.834   6.035 -0.5405  0.1749  0.2956
 4884SOL    HW126285   4.722   3.907   5.976  0.4031  0.9257  0.9509
 4884SOL    HW226286   4.661   3.778   6.035  0.2129 -0.8688  0.9324
 4885SOL     OW26287   2.436   0.124   5.286 -0.7051  0.2669 -0.2458
 4885SOL    HW126288   2.492   0.202   5.296 -1.1372  0.1986  2.7318
 4885SOL    HW226289   2.353   0.168   5.269 -2.4736 -1.9711  2.6276
 4886SOL     OW26290   4.304   4.329  16.789 -0.1808 -0.3081  0.3231
 4886SOL    HW126291   4.210   4.312  16.780 -0.1321 -0.8187  0.7808
 4886SOL    HW226292   4.314   4.273  16.866  2.3619 -0.8591 -0.4315
 4887SOL     OW26293   4.630   0.310  11.750  0.0366 -0.5192  0.6112
 4887SOL    HW126294   4.667   0.289  11.836 -1.1470  0.6251  1.3849
 4887SOL    HW226295   4.705   0.299  11.691 -0.1299  1.4528  0.0641
 4888SOL     OW26296   2.209   0.894   5.824 -0.3023 -0.8466 -0.0432
 4888SOL    HW126297   2.299   0.901   5.790 -0.0982  1.4842  0.9439
 4888SOL    HW226298   2.168   0.897   5.737  3.2609  1.8115 -1.6496
 4889SOL     OW26299   4.569   3.730  15.344  0.8917 -0.1624 -0.2919
 4889SOL    HW126300   4.641   3.692  15.394 -0.1666  0.8745  2.0021
 4889SOL    HW226301   4.555   3.664  15.276 -1.0984 -1.9051  1.8046
 4890SOL     OW26302   3.646   3.292   8.322 -0.8329  0.3767  0.2941
 4890SOL    HW126303   3.656   3.374   8.369 -0.2711  0.0781  0.7026
 4890SOL    HW226304   3.614   3.329   8.240 -1.6001 -0.5144  0.1944
 4891SOL     OW26305   1.523   2.871  12.443 -0.1589  0.1316  0.0633
 4891SOL    HW126306   1.604   2.884  12.491 -1.1652 -0.2806  1.8850
 4891SOL    HW226307   1.459   2.880  12.514  0.6397 -1.5256  0.9726
 4892SOL     OW26308   2.953   3.510   3.891  0.4372  0.7829  0.7389
 4892SOL    HW126309   2.916   3.563   3.821 -1.8371 -0.8439  0.6760
 4892SOL    HW226310   2.943   3.563   3.970 -1.3219  1.5426  0.0252
 4893SOL     OW26311   4.596   3.414   8.143 -0.3233 -0.0911  0.1723
 4893SOL    HW126312   4.691   3.420   8.155 -0.1414 -2.0884 -0.3232
 4893SOL    HW226313   4.592   3.319   8.142  1.2975 -0.1390 -0.8474
 4894SOL     OW26314   0.403   3.125   2.194 -0.5239  0.2826 -0.3919
 4894SOL    HW126315   0.429   3.033   2.200 -0.7857  0.3815  2.2830
 4894SOL    HW226316   0.345   3.126   2.117  1.0634  0.5388 -1.5869
 4895SOL     OW26317   2.896   1.305   9.342 -0.1577 -0.1435  0.0120
 4895SOL    HW126318   2.853   1.368   9.399 -1.3554 -0.8236 -0.1412
 4895SOL    HW226319   2.848   1.321   9.261 -0.3632  0.8609  0.3406
 4896SOL     OW26320   3.916   2.412   7.093 -0.7910 -0.0114 -0.2155
 4896SOL    HW126321   3.983   2.362   7.046  0.3386  1.0634  0.2504
 4896SOL    HW226322   3.852   2.343   7.104 -4.0220  2.7964 -1.5661
 4897SOL     OW26323   3.674   0.993  16.798 -0.3060  0.1570  0.1147
 4897SOL    HW126324   3.611   0.977  16.727 -0.2591 -0.1361  0.1409
 4897SOL    HW226325   3.632   1.069  16.839 -0.6867 -0.7287  1.3676
 4898SOL     OW26326   0.399   2.178   5.258  0.4320  0.4418 -0.3038
 4898SOL    HW126327   0.427   2.145   5.343 -0.1730  1.9920  0.4876
 4898SOL    HW226328   0.323   2.231   5.283  0.5007  0.9746 -1.2273
 4899SOL     OW26329   3.285   1.837   9.224  0.4207  0.1446  0.1859
 4899SOL    HW126330   3.305   1.808   9.135  1.4496 -0.0846  0.4882
 4899SOL    HW226331   3.361   1.891   9.245 -1.0141  2.0938  0.2923
 4900SOL     OW26332   0.403   4.279   8.511 -0.0350 -0.0589  0.3782
 4900SOL    HW126333   0.400   4.184   8.500  0.0525 -0.4588  3.6682
 4900SOL    HW226334   0.330   4.289   8.572 -1.7420 -1.9083 -1.3592
 4901SOL     OW26335   0.459   0.545   4.025  0.0519 -0.3154 -0.3536
 4901SOL    HW126336   0.535   0.494   3.998 -0.8776 -1.4721 -0.7688
 4901SOL    HW226337   0.495   0.633   4.037  0.7853 -0.3601 -2.1489
 4902SOL     OW26338   0.261   1.908   8.547 -0.2274 -0.2375  0.3159
 4902SOL    HW126339   0.352   1.882   8.538 -0.0754  0.1011  0.9292
 4902SOL    HW226340   0.225   1.879   8.463 -1.2532  0.9628  0.3406
 4903SOL     OW26341   3.543   0.019   2.525  0.2601 -0.0593  0.3037
 4903SOL    HW126342   3.474   0.025   2.459  2.2087  0.6662 -1.6563
 4903SOL    HW226343   3.622   0.018   2.471 -0.4628  1.0228 -0.7831
 4904SOL     OW26344   2.158   2.912   2.063 -0.5842  0.0388  0.5392
 4904SOL    HW126345   2.182   2.968   2.138  1.2961  0.6527 -0.5042
 4904SOL    HW226346   2.189   2.826   2.091 -0.6776 -0.0917  0.2392
 4905SOL     OW26347   0.719   1.115   2.289 -0.1799  0.5264 -0.3399
 4905SOL    HW126348   0.627   1.092   2.298 -0.3195  1.8238  1.5938
 4905SOL    HW226349   0.760   1.065   2.359 -0.1681  1.5690  0.4089
 4906SOL     OW26350   2.031   3.454  16.784  0.3282 -0.3860 -0.1968
 4906SOL    HW126351   1.960   3.407  16.827 -1.0921  0.7736 -1.2748
 4906SOL    HW226352   2.105   3.394  16.797  0.4147 -0.3011 -0.3005
 4907SOL     OW26353   0.845   3.639   7.131 -0.1783 -0.1006 -0.1470
 4907SOL    HW126354   0.770   3.671   7.081  0.6115  1.0670 -0.5693
 4907SOL    HW226355   0.910   3.631   7.061 -0.8426  0.0736 -0.7808
 4908SOL     OW26356   1.031   3.763   5.894 -0.3827 -0.5831  0.4957
 4908SOL    HW126357   1.061   3.699   5.959  1.1882  1.2251  1.5679
 4908SOL    HW226358   1.072   3.843   5.930  1.0604 -1.4566  0.8023
 4909SOL     OW26359   3.556   0.969   3.005  0.0575  0.3383 -0.1675
 4909SOL    HW126360   3.470   0.933   2.983  1.9186 -3.6804 -0.8507
 4909SOL    HW226361   3.540   1.043   3.063  1.1547  1.9302 -1.8841
 4910SOL     OW26362   3.681   1.322   9.355 -0.0581  0.0038  0.1546
 4910SOL    HW126363   3.753   1.282   9.306 -0.4498  1.6134 -1.7547
 4910SOL    HW226364   3.629   1.358   9.283  1.7664 -2.5206 -2.4135
 4911SOL     OW26365   1.878   1.876   4.821 -0.6008  0.1381 -0.0228
 4911SOL    HW126366   1.795   1.922   4.835  0.2896  2.0715 -1.0618
 4911SOL    HW226367   1.860   1.787   4.851 -1.2421  0.2708 -0.0197
 4912SOL     OW26368   4.224   0.553   8.305  0.1462  0.2561  0.5206
 4912SOL    HW126369   4.312   0.516   8.312 -0.1784 -0.4706  0.6723
 4912SOL    HW226370   4.182   0.477   8.267 -0.9873  0.7561  0.7671
 4913SOL     OW26371   3.104   2.251  10.761 -0.3677  0.1623  0.2596
 4913SOL    HW126372   3.018   2.231  10.726 -0.1880 -1.1515  0.5480
 4913SOL    HW226373   3.133   2.334  10.724 -0.6907  0.0261 -0.2952
 4914SOL     OW26374   0.504   2.458   4.177  0.2512  0.4320 -0.1559
 4914SOL    HW126375   0.526   2.365   4.187  1.8179  0.8509  0.2897
 4914SOL    HW226376   0.485   2.466   4.083 -0.9354  1.6178  0.1876
 4915SOL     OW26377   1.183   3.241   9.373 -0.3380  0.3015  0.1818
 4915SOL    HW126378   1.088   3.258   9.369 -0.4143 -0.1496  0.1005
 4915SOL    HW226379   1.199   3.264   9.465 -1.2983 -0.7729  0.6243
 4916SOL     OW26380   3.824   4.496   0.155  0.4654 -0.4379 -0.1020
 4916SOL    HW126381   3.908   4.530   0.183  0.4064 -0.3838  0.0072
 4916SOL    HW226382   3.797   4.450   0.234  0.2576  0.1398  0.1622
 4917SOL     OW26383   4.643   3.312   5.021 -0.2885 -0.4310 -0.4113
 4917SOL    HW126384   4.610   3.394   4.985 -2.0886 -1.5359 -1.2476
 4917SOL    HW226385   4.736   3.331   5.007 -0.4625 -0.3121 -1.3725
 4918SOL     OW26386   0.036   0.675   4.575 -0.4091  0.1645 -0.0437
 4918SOL    HW126387   0.048   0.754   4.522 -1.5195 -0.4109 -1.1675
 4918SOL    HW226388   0.104   0.620   4.536  0.3880  1.8438 -1.0507
 4919SOL     OW26389   1.071   3.621   2.958  0.1668 -0.9190  0.4236
 4919SOL    HW126390   1.133   3.589   2.893 -3.3175 -0.7887 -3.0056
 4919SOL    HW226391   1.052   3.706   2.919  1.5935 -0.4004  0.8724
 4920SOL     OW26392   2.874   4.232   2.079  0.1240 -0.2925  0.3464
 4920SOL    HW126393   2.910   4.315   2.048  1.3416  0.1623  2.9788
 4920SOL    HW226394   2.787   4.218   2.042  0.2677 -1.4313  0.4437
 4921SOL     OW26395   3.035   3.817   5.650 -0.2831  0.7027 -0.2561
 4921SOL    HW126396   3.042   3.906   5.615  0.8551  1.1572  1.1267
 4921SOL    HW226397   3.082   3.823   5.733  2.0005  0.8044 -1.5406
 4922SOL     OW26398   0.300   4.033   2.845 -0.0853 -0.4186  0.9491
 4922SOL    HW126399   0.294   3.938   2.855  1.1041 -0.6368 -0.3210
 4922SOL    HW226400   0.376   4.045   2.787  0.3808  3.1753  2.3207
 4923SOL     OW26401   3.198   0.747  11.160  0.3746 -0.1968  0.3950
 4923SOL    HW126402   3.260   0.819  11.175  0.5453 -0.1455 -0.5964
 4923SOL    HW226403   3.257   0.673  11.173  1.2098  0.3919 -0.0860
 4924SOL     OW26404   0.231   1.097  11.622  0.3957  0.2052  0.0358
 4924SOL    HW126405   0.296   1.032  11.647  0.1578 -1.1279 -2.8685
 4924SOL    HW226406   0.156   1.064  11.671  1.3862 -1.6000  0.3521
 4925SOL     OW26407   3.083   3.051   6.352  0.2560  0.2523 -0.0005
 4925SOL    HW126408   3.110   3.053   6.260 -3.2514 -2.8322 -1.0764
 4925SOL    HW226409   3.035   3.134   6.357 -0.5944 -0.1786 -1.0821
 4926SOL     OW26410   0.188   2.903   7.328  0.0612  0.1795 -0.2540
 4926SOL    HW126411   0.143   2.895   7.412  0.5616 -4.1346 -0.3926
 4926SOL    HW226412   0.278   2.889   7.356  0.8548  5.3125 -0.2802
 4927SOL     OW26413   2.984   2.590   8.822 -0.1179 -0.3731 -0.0476
 4927SOL    HW126414   3.019   2.663   8.772  0.4956 -2.7893 -3.1595
 4927SOL    HW226415   3.045   2.522   8.793  0.6276  0.5000 -0.5072
 4928SOL     OW26416   1.082   0.447  12.124  0.4095  0.2185 -0.1562
 4928SOL    HW126417   1.110   0.502  12.052  1.2235 -1.4627 -1.1160
 4928SOL    HW226418   1.119   0.493  12.199  0.5165  0.2459 -0.2259
 4929SOL     OW26419   3.083   3.898   8.926  0.4958 -0.0727 -0.3937
 4929SOL    HW126420   3.057   3.842   8.998 -0.4090  0.9844  0.0881
 4929SOL    HW226421   3.171   3.917   8.958 -0.2537  1.5232  0.6614
 4930SOL     OW26422   4.031   1.065  14.828  0.4957  0.4272 -0.0200
 4930SOL    HW126423   3.999   1.009  14.899 -0.8713  1.9577  0.5700
 4930SOL    HW226424   3.942   1.095  14.810  0.7510 -0.2835 -2.5052
 4931SOL     OW26425   1.617   4.215   5.189 -0.0570  0.3968  0.1196
 4931SOL    HW126426   1.610   4.290   5.248  0.7021  1.1092 -0.6945
 4931SOL    HW226427   1.637   4.144   5.249 -0.0147  0.0904 -0.2555
 4932SOL     OW26428   2.490   0.126  16.996  0.1053  0.5475  0.0591
 4932SOL    HW126429   2.451   0.057  16.942  0.4432 -1.2716  2.1045
 4932SOL    HW226430   2.512   0.199  16.938  1.0676  0.0399 -0.2157
 4933SOL     OW26431   1.616   2.404  14.751 -0.2302  0.6346 -0.7840
 4933SOL    HW126432   1.701   2.365  14.733 -0.6359  0.2248 -1.7960
 4933SOL    HW226433   1.628   2.499  14.751  0.1919  0.5828 -3.1010
 4934SOL     OW26434   3.566   4.261   1.373 -0.2356 -0.5703  0.5153
 4934SOL    HW126435   3.558   4.226   1.462  0.4231 -0.1027  0.7598
 4934SOL    HW226436   3.472   4.253   1.354  0.3148 -0.2093 -2.3695
 4935SOL     OW26437   2.857   4.081   8.311 -0.0087 -0.2702  0.2130
 4935SOL    HW126438   2.873   4.016   8.379 -0.5942 -1.5018 -0.8192
 4935SOL    HW226439   2.885   4.167   8.343 -0.0575 -0.3356  0.4274
 4936SOL     OW26440   2.983   3.187   7.510  0.2046  0.3571  0.4065
 4936SOL    HW126441   2.973   3.239   7.430  0.9478 -2.3558 -1.4212
 4936SOL    HW226442   3.073   3.218   7.524  0.9653 -1.6485 -0.0572
 4937SOL     OW26443   0.637   0.365   1.095 -0.0348 -0.3303 -0.5679
 4937SOL    HW126444   0.722   0.323   1.078  0.6650  0.8717 -0.0572
 4937SOL    HW226445   0.652   0.378   1.189 -1.1418 -1.5607 -0.2226
 4938SOL     OW26446   0.074   4.622   3.838  0.2183 -0.0559 -1.1773
 4938SOL    HW126447   0.028   4.554   3.887 -0.6154  1.4362  0.1282
 4938SOL    HW226448   0.007   4.690   3.840 -0.4695 -0.7693 -0.0125
 4939SOL     OW26449   1.550   2.458  17.087  0.2245  0.8820 -0.6503
 4939SOL    HW126450   1.550   2.511  17.167  1.7683 -0.3608  0.1725
 4939SOL    HW226451   1.494   2.384  17.111  1.3272 -0.0752 -1.0043
 4940SOL     OW26452   4.232   1.713   4.633  0.2727 -0.7229  0.0805
 4940SOL    HW126453   4.214   1.803   4.662  2.1494 -0.7641  1.3898
 4940SOL    HW226454   4.210   1.715   4.540  1.7839 -0.3062 -0.2643
 4941SOL     OW26455   0.139   2.026   5.132 -0.2708 -0.3769 -0.1318
 4941SOL    HW126456   0.157   2.010   5.039 -1.7122  1.5656 -0.7480
 4941SOL    HW226457   0.221   2.066   5.163  1.1164 -1.4674 -2.3666
 4942SOL     OW26458   2.622   2.542   0.452 -0.1818  0.7073 -0.1954
 4942SOL    HW126459   2.530   2.547   0.478 -0.0167 -0.8171  0.6915
 4942SOL    HW226460   2.639   2.451   0.477 -2.6687  0.0425 -0.9261
 4943SOL     OW26461   0.080   0.504   1.234  0.1605  0.3506 -0.0321
 4943SOL    HW126462   0.135   0.484   1.159  2.1282  0.7541  1.3148
 4943SOL    HW226463   0.086   0.599   1.244 -0.1862  0.2308  1.4386
 4944SOL     OW26464   2.318   2.184  10.012 -0.1998 -0.6537  0.0748
 4944SOL    HW126465   2.316   2.172   9.917  0.6474  2.7074 -0.3611
 4944SOL    HW226466   2.388   2.249  10.024 -0.4709 -0.3751  0.1414
 4945SOL     OW26467   3.115   0.341   3.519 -0.2197  0.0941  0.2496
 4945SOL    HW126468   3.155   0.269   3.568 -0.3289  0.0213  0.2322
 4945SOL    HW226469   3.178   0.340   3.447  0.8803 -1.8810  1.2426
 4946SOL     OW26470   1.857   2.734   4.710  0.3112  0.7379 -0.0054
 4946SOL    HW126471   1.818   2.758   4.794 -1.0301 -1.3510 -0.0341
 4946SOL    HW226472   1.852   2.820   4.668 -0.5267  1.0396  0.7154
 4947SOL     OW26473   0.464   4.241   4.009  0.3146  0.4751 -0.1366
 4947SOL    HW126474   0.401   4.296   4.055 -0.2107  0.4503 -0.8201
 4947SOL    HW226475   0.454   4.266   3.917  2.3324  0.5459 -0.3280
 4948SOL     OW26476   0.064   3.390  15.777  0.0825 -0.0528 -0.3692
 4948SOL    HW126477   0.034   3.481  15.781 -2.2496 -0.6920 -3.3851
 4948SOL    HW226478   0.132   3.395  15.710  1.4161 -0.4062  0.9330
 4949SOL     OW26479   3.778   2.777   5.996  0.0189 -0.3788  0.0276
 4949SOL    HW126480   3.797   2.865   5.964 -1.5044 -0.2873 -0.6163
 4949SOL    HW226481   3.794   2.794   6.089 -0.7051 -3.4444  0.7354
 4950SOL     OW26482   4.579   2.744  12.242 -0.1178  0.2241  0.0359
 4950SOL    HW126483   4.579   2.724  12.336  0.9687 -0.2576 -0.0655
 4950SOL    HW226484   4.502   2.690  12.221 -1.4925  1.6446  1.4021
 4951SOL     OW26485   3.012   0.487   6.825  0.5501 -0.0392 -0.4682
 4951SOL    HW126486   2.925   0.522   6.802 -0.0273 -2.2068 -1.5619
 4951SOL    HW226487   3.063   0.507   6.746  0.1593  1.9130 -0.2424
 4952SOL     OW26488   4.370   1.869   7.870 -0.3218  0.2746  0.3428
 4952SOL    HW126489   4.427   1.846   7.796 -0.9980  1.0674 -0.4268
 4952SOL    HW226490   4.412   1.946   7.907 -0.1859  0.3847 -0.0312
 4953SOL     OW26491   0.526   0.983   3.909 -0.0521  0.8020  0.1906
 4953SOL    HW126492   0.433   0.966   3.921 -0.0376  0.9262  0.4626
 4953SOL    HW226493   0.558   0.908   3.959  0.8034  0.7067 -0.4993
 4954SOL     OW26494   2.540   3.808   5.508  0.2119  0.6183 -0.6882
 4954SOL    HW126495   2.531   3.793   5.414  0.1120  3.5161 -1.1487
 4954SOL    HW226496   2.500   3.735   5.555  0.5396  0.8241 -0.0831
 4955SOL     OW26497   2.146   2.491   3.791 -0.2714  0.4649 -0.4382
 4955SOL    HW126498   2.217   2.451   3.842 -1.2136 -0.6689 -0.0076
 4955SOL    HW226499   2.095   2.414   3.767 -0.4295  0.9080 -1.5347
 4956SOL     OW26500   2.127   0.327   6.795  0.3004 -0.0678 -0.5140
 4956SOL    HW126501   2.111   0.286   6.710 -0.3346 -0.9191  0.0209
 4956SOL    HW226502   2.097   0.255   6.851 -0.7897  1.8822  1.4009
 4957SOL     OW26503   4.234   3.513  12.694  0.5199 -0.5727 -0.0944
 4957SOL    HW126504   4.250   3.607  12.691  0.6129 -0.5429  1.2075
 4957SOL    HW226505   4.317   3.486  12.735 -1.3734  0.0112  4.0547
 4958SOL     OW26506   0.025   4.035   0.881  0.3747 -0.5180 -0.1573
 4958SOL    HW126507   4.687   4.073   0.928  0.8232  0.1829  0.0012
 4958SOL    HW226508   0.074   4.013   0.960  0.2517 -2.6252 -0.6926
 4959SOL     OW26509   4.725   1.889  11.457  1.0280 -0.3223  0.3946
 4959SOL    HW126510   0.026   1.969  11.420 -0.3630  0.1709  0.0413
 4959SOL    HW226511   0.012   1.830  11.385 -1.2371 -0.9343  0.1642
 4960SOL     OW26512   0.221   0.851   2.310  0.3570  0.0376 -0.3691
 4960SOL    HW126513   0.231   0.936   2.353  0.0196 -0.5607  0.9134
 4960SOL    HW226514   0.312   0.823   2.318  1.1414  2.2537 -1.7187
 4961SOL     OW26515   2.424   1.487   6.562  0.4600  0.0627  0.1133
 4961SOL    HW126516   2.488   1.516   6.626  0.8831  0.1240 -0.3399
 4961SOL    HW226517   2.382   1.567   6.529  0.7898  0.1678 -0.0526
 4962SOL     OW26518   1.388   2.528   2.332 -0.4251  0.1701 -0.4411
 4962SOL    HW126519   1.385   2.459   2.265  2.0687  0.5141 -0.9045
 4962SOL    HW226520   1.426   2.605   2.290  0.5083  0.6385  1.2681
 4963SOL     OW26521   3.653   4.282   2.739  0.1828 -0.6073  0.0404
 4963SOL    HW126522   3.692   4.249   2.658  3.7610 -0.5735  1.7326
 4963SOL    HW226523   3.703   4.249   2.814 -1.3074 -0.4189  1.1257
 4964SOL     OW26524   0.465   2.430   6.519 -0.7075 -0.0288 -0.0526
 4964SOL    HW126525   0.440   2.339   6.500  0.0520 -0.3875  0.6707
 4964SOL    HW226526   0.510   2.410   6.601  0.2238 -0.1065 -0.5830
 4965SOL     OW26527   1.727   1.860   3.147 -0.2549  0.1351 -0.4515
 4965SOL    HW126528   1.642   1.886   3.112 -0.4616 -0.6668 -0.5337
 4965SOL    HW226529   1.781   1.936   3.123  1.6847 -0.2882  2.5823
 4966SOL     OW26530   3.243   4.607   6.432  0.2187  0.3195  0.2047
 4966SOL    HW126531   3.309   4.597   6.500  1.5349 -0.1146 -1.1407
 4966SOL    HW226532   3.210   4.695   6.451 -1.8471 -0.3946 -0.0671
 4967SOL     OW26533   3.182   4.012   3.157 -0.0640  0.6964 -0.3706
 4967SOL    HW126534   3.273   3.998   3.182  0.1740  2.4673 -0.2305
 4967SOL    HW226535   3.137   3.976   3.233 -0.4010 -0.6221 -1.1985
 4968SOL     OW26536   3.699   0.350   4.523  0.0538  0.6917 -0.3638
 4968SOL    HW126537   3.645   0.323   4.597  0.0597  2.7773  0.3924
 4968SOL    HW226538   3.728   0.268   4.484 -0.2881 -0.9697  2.9003
 4969SOL     OW26539   0.232   0.851   5.488 -0.3639  0.0496 -0.0944
 4969SOL    HW126540   0.273   0.895   5.563 -0.2205 -1.8194  0.9263
 4969SOL    HW226541   0.264   0.890   5.406 -0.7045 -2.1923 -1.2895
 4970SOL     OW26542   0.348   2.834  11.135  0.5135 -0.6906 -0.1925
 4970SOL    HW126543   0.314   2.851  11.223  2.4371 -0.2441  0.4533
 4970SOL    HW226544   0.440   2.852  11.154  0.0859  3.4011 -1.8534
 4971SOL     OW26545   2.983   1.989   5.050 -0.3660 -0.0784  0.2352
 4971SOL    HW126546   2.997   2.081   5.074  1.1603  0.0652 -1.2279
 4971SOL    HW226547   3.040   1.955   5.119  1.5077  0.7723 -0.9004
 4972SOL     OW26548   1.583   3.892  13.833 -0.0670 -0.2876 -0.1557
 4972SOL    HW126549   1.499   3.856  13.861  0.0177  0.9144  1.6675
 4972SOL    HW226550   1.581   3.878  13.739  1.7128  0.9247 -0.3694
 4973SOL     OW26551   1.697   4.385   2.014 -0.4457  0.5542 -0.2118
 4973SOL    HW126552   1.646   4.417   1.939  1.0098  0.9828 -1.0097
 4973SOL    HW226553   1.655   4.299   2.021  1.7515 -0.4637  0.3786
 4974SOL     OW26554   3.332   3.189   8.663  0.3016  0.6171  0.2677
 4974SOL    HW126555   3.406   3.165   8.607 -0.5784 -0.1525 -0.5953
 4974SOL    HW226556   3.278   3.245   8.607 -0.3614  1.1864  1.4852
 4975SOL     OW26557   0.599   1.115   7.782 -0.6276  0.1993  0.1411
 4975SOL    HW126558   0.586   1.162   7.700 -1.9252 -0.3931  0.0030
 4975SOL    HW226559   0.618   1.027   7.748  2.3940  2.4732 -4.1306
 4976SOL     OW26560   3.242   1.931   8.402 -0.3957 -0.0732  0.6309
 4976SOL    HW126561   3.186   1.907   8.476  0.7318 -3.9549  0.1878
 4976SOL    HW226562   3.288   1.849   8.385 -0.9500 -0.0383 -1.0444
 4977SOL     OW26563   3.178   2.671   7.257 -0.1829  0.2973  0.4586
 4977SOL    HW126564   3.241   2.732   7.218 -0.1192  1.3886  2.2812
 4977SOL    HW226565   3.211   2.680   7.346  0.6706  0.2581  0.1476
 4978SOL     OW26566   2.334   0.532   1.785  0.2672  0.3385 -0.5953
 4978SOL    HW126567   2.387   0.613   1.788 -0.5749  0.8171  1.4482
 4978SOL    HW226568   2.253   0.570   1.751 -0.4777 -0.0880  0.6917
 4979SOL     OW26569   3.828   3.678   6.621  0.1859 -0.1015 -0.0915
 4979SOL    HW126570   3.809   3.595   6.665  1.2155 -0.7051 -0.7852
 4979SOL    HW226571   3.895   3.710   6.682 -1.2975  0.9279  0.9724
 4980SOL     OW26572   2.145   2.525   4.297  0.5185 -0.7436 -0.1236
 4980SOL    HW126573   2.117   2.570   4.377 -0.1724 -0.6591 -0.4209
 4980SOL    HW226574   2.141   2.599   4.236 -1.1339 -0.7984 -0.0797
 4981SOL     OW26575   2.071   2.419   4.788 -0.9937 -0.2586  0.2913
 4981SOL    HW126576   2.051   2.342   4.841 -1.2244  0.6901  1.5918
 4981SOL    HW226577   2.167   2.419   4.791 -0.8847  0.8283 -3.4274
 4982SOL     OW26578   2.274   2.687   7.846 -1.3932 -0.8551  0.4453
 4982SOL    HW126579   2.197   2.742   7.834 -0.3866  0.6725  0.9461
 4982SOL    HW226580   2.236   2.602   7.866  0.2601 -1.6001  0.4684
 4983SOL     OW26581   3.235   2.853   6.474  0.0816 -0.2642  0.3935
 4983SOL    HW126582   3.314   2.906   6.485  0.2549 -0.1750 -1.1918
 4983SOL    HW226583   3.183   2.924   6.436 -1.0848 -0.6011  1.3881
 4984SOL     OW26584   1.523   1.203   1.925 -0.2231  0.6631 -0.4662
 4984SOL    HW126585   1.458   1.152   1.876 -1.2426 -1.2659  2.9358
 4984SOL    HW226586   1.498   1.205   2.017  0.2182 -1.5585 -0.2987
 4985SOL     OW26587   2.452   2.741   1.877  0.4070  0.1561  0.4754
 4985SOL    HW126588   2.431   2.819   1.826  1.8401 -0.7446 -1.4820
 4985SOL    HW226589   2.388   2.767   1.943 -1.4172 -2.4085 -0.2749
 4986SOL     OW26590   2.953   1.593  17.068  0.3773 -0.4110  0.8190
 4986SOL    HW126591   2.906   1.565  16.990 -0.7018  1.2703  0.8819
 4986SOL    HW226592   2.965   1.686  17.050 -0.2892 -0.2383  1.2561
 4987SOL     OW26593   3.966   0.110   0.577 -0.0363 -0.1011  0.8999
 4987SOL    HW126594   4.044   0.076   0.621  0.6974  0.5420  0.0797
 4987SOL    HW226595   4.000   0.116   0.488  1.1793  0.3749  1.3871
 4988SOL     OW26596   3.691   1.286   2.600  0.1418  0.2313  0.1873
 4988SOL    HW126597   3.607   1.261   2.637  0.7062 -1.3542  0.4139
 4988SOL    HW226598   3.668   1.364   2.550 -1.4604 -0.4041 -0.0507
 4989SOL     OW26599   3.439   0.738   6.535  0.1714 -0.5289 -0.0928
 4989SOL    HW126600   3.506   0.797   6.569  0.4991 -0.5914 -0.6410
 4989SOL    HW226601   3.487   0.656   6.528  0.5247 -0.4077  0.8654
 4990SOL     OW26602   3.841   1.635   8.684  0.3408  0.5632 -0.8931
 4990SOL    HW126603   3.812   1.602   8.769  0.7261  0.4597 -0.8011
 4990SOL    HW226604   3.935   1.623   8.697  0.0511 -1.7394 -0.9674
 4991SOL     OW26605   4.635   3.130   2.245  0.4815  0.1075 -0.5198
 4991SOL    HW126606   4.588   3.053   2.213  2.3220 -0.7325 -1.1748
 4991SOL    HW226607   4.563   3.181   2.284  0.9267 -0.2050  0.7010
 4992SOL     OW26608   4.620   4.382  17.250 -0.2048  0.1963  0.0540
 4992SOL    HW126609   4.560   4.447  17.287  0.1564  0.3475  0.3695
 4992SOL    HW226610   4.697   4.439  17.257  1.2950 -1.9168  0.9292
 4993SOL     OW26611   4.164   2.836   4.990 -0.1749 -0.1740  0.3621
 4993SOL    HW126612   4.074   2.839   5.023  0.6180 -0.5576  2.6018
 4993SOL    HW226613   4.164   2.822   4.896  1.3265 -2.4176  0.6870
 4994SOL     OW26614   0.450   4.156   8.818 -0.1217  0.0228  0.1487
 4994SOL    HW126615   0.461   4.250   8.802 -0.0355 -0.2694 -1.5504
 4994SOL    HW226616   0.457   4.148   8.913  1.8967 -0.9754 -0.0872
 4995SOL     OW26617   2.819   0.463   4.090  0.0523  0.0318 -0.3142
 4995SOL    HW126618   2.809   0.456   3.995  0.7536 -0.5308 -0.3513
 4995SOL    HW226619   2.791   0.554   4.104 -0.9539 -0.4119  0.5969
 4996SOL     OW26620   3.017   4.415   6.571  0.3748  0.2314 -0.5373
 4996SOL    HW126621   3.021   4.389   6.479 -0.2907 -0.4857 -0.3641
 4996SOL    HW226622   2.943   4.476   6.579 -0.6611 -1.0249 -0.4656
 4997SOL     OW26623   0.155   2.716  15.069  0.5183  0.4217  0.1400
 4997SOL    HW126624   0.115   2.800  15.049 -2.1194 -1.1661 -1.1105
 4997SOL    HW226625   0.243   2.713  15.030  0.7904  2.2959  0.5865
 4998SOL     OW26626   1.051   1.509  14.687 -0.0525  0.3868  0.0108
 4998SOL    HW126627   1.046   1.415  14.700 -1.2493  0.4028 -0.3134
 4998SOL    HW226628   1.102   1.538  14.763 -0.7509 -0.0065  0.6286
 4999SOL     OW26629   1.568   3.565  16.842  0.1697 -0.6081  0.0700
 4999SOL    HW126630   1.526   3.651  16.851 -1.9101 -1.7090  0.9359
 4999SOL    HW226631   1.490   3.510  16.850 -1.3124  1.7266  1.7305
 5000SOL     OW26632   3.933   1.767   6.860 -0.1380 -0.4326  0.1530
 5000SOL    HW126633   3.887   1.737   6.938 -1.7029  1.1185 -0.1839
 5000SOL    HW226634   3.942   1.858   6.886  0.2004 -0.2987 -0.4486
 5001SOL     OW26635   2.358   1.997   5.131  0.1801  0.4447  0.1102
 5001SOL    HW126636   2.291   1.950   5.180 -0.6303  2.6653  1.1636
 5001SOL    HW226637   2.412   2.032   5.202 -0.6206  1.9485 -0.0280
 5002SOL     OW26638   0.831   2.870  15.849 -0.0647 -0.4348 -0.0762
 5002SOL    HW126639   0.741   2.853  15.821 -0.1701  3.0948 -1.9794
 5002SOL    HW226640   0.873   2.854  15.765 -2.0247  0.3243 -1.1904
 5003SOL     OW26641   4.052   3.711   8.166 -0.2089 -0.2713  0.1308
 5003SOL    HW126642   4.107   3.789   8.159 -2.2618  1.0541 -1.4170
 5003SOL    HW226643   4.070   3.671   8.251 -1.8200 -0.1843  0.5273
 5004SOL     OW26644   2.020   1.207  10.339  0.3615  0.7822 -0.4543
 5004SOL    HW126645   2.037   1.280  10.399  1.8654  0.0320  0.0183
 5004SOL    HW226646   2.069   1.231  10.261  1.9412 -1.5358 -0.1545
 5005SOL     OW26647   0.490   2.183   4.125 -0.0019  0.3866  0.0235
 5005SOL    HW126648   0.552   2.139   4.066 -0.8221  0.7619 -1.0989
 5005SOL    HW226649   0.410   2.185   4.074  0.6354  0.0557 -0.9865
 5006SOL     OW26650   2.389   0.378   3.334 -0.5068 -0.0949  0.2470
 5006SOL    HW126651   2.481   0.354   3.339 -0.3575 -0.0024 -2.1485
 5006SOL    HW226652   2.390   0.455   3.391 -1.9592 -0.0177  0.1587
 5007SOL     OW26653   1.719   4.294   5.955 -0.7416  0.3990 -0.1362
 5007SOL    HW126654   1.703   4.328   5.867 -0.0376 -1.0016 -0.8146
 5007SOL    HW226655   1.804   4.253   5.936 -0.6234  0.4079  0.3697
 5008SOL     OW26656   2.343   1.631   4.600  0.1292 -0.3005 -0.6043
 5008SOL    HW126657   2.387   1.702   4.554 -0.3748  0.8734  0.7580
 5008SOL    HW226658   2.256   1.622   4.562 -0.1835  1.6504 -0.3445
 5009SOL     OW26659   1.744   3.596   8.101 -0.3791  0.2337  0.0240
 5009SOL    HW126660   1.731   3.557   8.187 -1.8234  1.6392  0.4351
 5009SOL    HW226661   1.799   3.671   8.125  0.8340 -0.7643  0.3734
 5010SOL     OW26662   0.941   1.299   2.926  0.4126  0.3427 -0.0697
 5010SOL    HW126663   0.927   1.309   2.832 -0.5598  2.0902  0.2615
 5010SOL    HW226664   0.854   1.324   2.955  0.1244 -2.2588  1.2976
 5011SOL     OW26665   4.537   4.475   6.337 -0.0950 -0.0816  0.1554
 5011SOL    HW126666   4.590   4.396   6.351 -0.0675  0.2053  1.6798
 5011SOL    HW226667   4.590   4.517   6.269 -1.9679  0.6358 -0.8401
 5012SOL     OW26668   2.174   1.018   4.233  0.1277 -0.3180 -0.2503
 5012SOL    HW126669   2.230   0.957   4.282  0.0376 -0.0071  0.2483
 5012SOL    HW226670   2.135   0.966   4.163  1.5397  0.7294 -1.8082
 5013SOL     OW26671   4.088   0.302  12.637  0.7711  0.1393 -0.5753
 5013SOL    HW126672   4.080   0.396  12.617  0.4707  0.0300 -0.9601
 5013SOL    HW226673   4.180   0.301  12.663  1.2601  0.0877 -2.2752
 5014SOL     OW26674   3.560   3.214   2.103 -0.6269 -0.0502 -0.1302
 5014SOL    HW126675   3.632   3.166   2.063  0.1872  0.6969  0.4427
 5014SOL    HW226676   3.514   3.138   2.139 -0.6019 -0.0636 -0.1265
 5015SOL     OW26677   4.608   2.533   4.176 -0.1204 -0.0981 -0.0337
 5015SOL    HW126678   4.513   2.522   4.162 -0.2083 -1.1847  1.5170
 5015SOL    HW226679   4.602   2.603   4.241  1.1436  0.5169 -0.5850
 5016SOL     OW26680   4.430   4.226  14.460  0.4326 -0.2352 -1.0931
 5016SOL    HW126681   4.391   4.285  14.525  0.9985  0.4012 -1.3310
 5016SOL    HW226682   4.367   4.154  14.452 -1.0697  1.0704 -0.9909
 5017SOL     OW26683   4.444   4.604   3.911  0.2324  0.0831  0.3030
 5017SOL    HW126684   4.403   4.602   3.825 -0.5250 -2.4037  0.7104
 5017SOL    HW226685   4.515   4.661   3.883  0.2322  0.5826  1.3145
 5018SOL     OW26686   2.398   3.779   3.137  0.2991  0.1877 -0.1533
 5018SOL    HW126687   2.363   3.805   3.052 -0.5150  0.8742  0.3855
 5018SOL    HW226688   2.328   3.813   3.194  0.4098 -0.0759  0.1429
 5019SOL     OW26689   2.046   1.816   7.829  0.2090 -0.1854 -0.6454
 5019SOL    HW126690   2.044   1.876   7.903 -1.5967 -1.4661  0.3401
 5019SOL    HW226691   2.139   1.795   7.828  0.7732  2.2877 -2.5859
 5020SOL     OW26692   3.015   2.192   6.595 -0.0775 -0.1855 -0.2699
 5020SOL    HW126693   2.971   2.144   6.665  2.0435 -0.2264  1.0348
 5020SOL    HW226694   3.071   2.249   6.648  0.3657 -0.3824 -0.5359
 5021SOL     OW26695   3.302   4.459   9.610  0.0525  0.1677  0.2178
 5021SOL    HW126696   3.304   4.365   9.629 -0.6562 -0.4112 -2.5007
 5021SOL    HW226697   3.327   4.492   9.696  0.0198 -0.4605  0.4665
 5022SOL     OW26698   1.452   0.958   8.367  0.4470  0.3654 -0.3376
 5022SOL    HW126699   1.367   0.950   8.409  0.9874  0.8348  0.8678
 5022SOL    HW226700   1.441   1.020   8.294  2.7779  1.3751  0.1446
 5023SOL     OW26701   1.355   4.090  13.255 -0.3061  0.7716  0.0317
 5023SOL    HW126702   1.364   4.116  13.347 -0.3718  1.2014 -0.0851
 5023SOL    HW226703   1.399   4.155  13.201  1.3394 -0.5779 -0.2460
 5024SOL     OW26704   4.049   0.400   6.244 -0.2156  0.5424 -0.3451
 5024SOL    HW126705   4.102   0.466   6.290  0.5628 -1.0048  0.9963
 5024SOL    HW226706   4.031   0.347   6.322 -2.1850  0.5444 -0.7833
 5025SOL     OW26707   3.830   1.771  15.053  0.0634  0.1909  0.0534
 5025SOL    HW126708   3.893   1.781  14.982 -0.1052  0.8108 -0.0063
 5025SOL    HW226709   3.850   1.857  15.091  1.1590  0.6148 -1.5271
 5026SOL     OW26710   4.575   3.275   9.010 -0.4766 -0.1451  0.0507
 5026SOL    HW126711   4.551   3.356   8.966 -0.1246  0.5695  1.1736
 5026SOL    HW226712   4.638   3.248   8.943  0.0795  1.1524  0.0611
 5027SOL     OW26713   1.202   2.396   8.699  0.1358 -0.4193 -0.1469
 5027SOL    HW126714   1.115   2.372   8.667  0.1843 -1.3225  0.4241
 5027SOL    HW226715   1.212   2.340   8.775 -2.2059 -0.1048  0.3928
 5028SOL     OW26716   2.685   3.637   4.364 -0.4369  0.3319 -0.0270
 5028SOL    HW126717   2.683   3.624   4.459 -2.6843  0.8647  0.0143
 5028SOL    HW226718   2.714   3.552   4.332  1.0067  0.8676 -0.1550
 5029SOL     OW26719   2.619   1.324   9.899  0.0119  0.4331  0.0794
 5029SOL    HW126720   2.533   1.302   9.862 -0.0266  2.9840 -1.3673
 5029SOL    HW226721   2.670   1.243   9.896 -2.1849 -0.9889  1.4939
 5030SOL     OW26722   0.999   4.379  15.713  0.1725  0.1003 -0.1646
 5030SOL    HW126723   1.040   4.365  15.628  1.2112  1.3221  0.1413
 5030SOL    HW226724   0.910   4.343  15.715  0.4254 -0.3484  2.6077
 5031SOL     OW26725   1.372   4.312   6.854 -0.5803  0.2432  0.1245
 5031SOL    HW126726   1.464   4.289   6.861 -0.0326  2.8041  1.2368
 5031SOL    HW226727   1.341   4.297   6.944 -0.0891  1.1248  0.4426
 5032SOL     OW26728   2.925   0.121   1.661  0.3870  0.1437 -0.3937
 5032SOL    HW126729   3.007   0.161   1.692  0.5831 -2.0495  1.9530
 5032SOL    HW226730   2.864   0.138   1.733  0.4516 -2.7508  0.3544
 5033SOL     OW26731   4.507   1.669  11.216 -0.6740 -0.3179 -0.2052
 5033SOL    HW126732   4.425   1.684  11.169 -0.1918 -0.1685 -1.0082
 5033SOL    HW226733   4.573   1.713  11.163  0.4085  0.1100  1.5000
 5034SOL     OW26734   2.019   0.466   3.358 -0.0679 -0.5005 -0.3453
 5034SOL    HW126735   1.943   0.462   3.299 -1.9401  0.0937  2.0511
 5034SOL    HW226736   2.007   0.392   3.417 -1.5753  0.7939  0.9582
 5035SOL     OW26737   0.163   2.339   5.250 -0.2762 -0.4822  0.3425
 5035SOL    HW126738   0.068   2.347   5.237 -0.3731  0.2359  1.4644
 5035SOL    HW226739   0.187   2.394   5.175 -2.5021  1.2606  0.8825
 5036SOL     OW26740   3.393   1.944   7.897  0.3728  0.9490 -0.2832
 5036SOL    HW126741   3.420   1.979   7.982  0.5658  3.1944 -1.2615
 5036SOL    HW226742   3.306   1.984   7.892  0.1953  0.6842  0.6436
 5037SOL     OW26743   4.557   1.904   5.916  0.0915  0.8614 -0.3260
 5037SOL    HW126744   4.545   1.994   5.947  0.5220  0.4482  1.0333
 5037SOL    HW226745   4.572   1.918   5.822  3.1113 -1.3587 -0.1399
 5038SOL     OW26746   1.866   4.022   2.516 -0.1945  0.0819 -0.1557
 5038SOL    HW126747   1.808   4.079   2.466  2.0672  0.6748 -2.0996
 5038SOL    HW226748   1.930   4.087   2.545  0.6080 -0.2377 -1.2203
 5039SOL     OW26749   2.680   2.599   2.437 -0.0044 -0.3816 -0.1890
 5039SOL    HW126750   2.695   2.634   2.350 -0.4675  0.3503  0.0274
 5039SOL    HW226751   2.589   2.570   2.431 -0.6562  1.2992  1.5821
 5040SOL     OW26752   1.417   1.363   3.276  0.1565  0.1918  0.3149
 5040SOL    HW126753   1.493   1.416   3.251  0.8088 -0.5925  0.6534
 5040SOL    HW226754   1.417   1.290   3.215 -2.5000  0.8579 -0.5090
 5041SOL     OW26755   4.708   3.061  14.181 -0.6749 -0.3067  0.0600
 5041SOL    HW126756   4.705   3.126  14.111 -1.3481  0.2303  0.5904
 5041SOL    HW226757   4.619   3.072  14.213  0.4733  0.5941  2.8957
 5042SOL     OW26758   4.042   0.994   1.395  0.4292  0.2697  0.4506
 5042SOL    HW126759   4.066   0.932   1.326 -1.8337 -1.0999  0.8797
 5042SOL    HW226760   3.947   1.003   1.394  0.2692 -1.2964  1.5863
 5043SOL     OW26761   2.416   1.753   5.956 -0.2350 -0.3898  0.2543
 5043SOL    HW126762   2.488   1.810   5.929 -0.3808  0.2679  1.2573
 5043SOL    HW226763   2.410   1.763   6.051 -0.1585  1.0463  0.1073
 5044SOL     OW26764   3.938   2.189   3.194 -0.6200  0.3937  0.0079
 5044SOL    HW126765   3.946   2.244   3.115  0.2275  1.1274  0.6022
 5044SOL    HW226766   3.944   2.098   3.167 -0.8370  0.4920 -0.3726
 5045SOL     OW26767   2.594   2.941   8.497  0.5315  0.3375 -0.4124
 5045SOL    HW126768   2.617   2.848   8.489 -2.4055 -0.4657  0.4151
 5045SOL    HW226769   2.577   2.975   8.409 -0.3359  0.3906 -0.2303
 5046SOL     OW26770   1.901   2.970   5.557 -0.1871  0.6379 -0.5767
 5046SOL    HW126771   1.992   2.972   5.586 -0.1692 -1.4590 -0.4456
 5046SOL    HW226772   1.865   3.043   5.607  1.5617  0.3960  1.0339
 5047SOL     OW26773   3.360   2.304   4.962  0.5912  0.5761 -0.1747
 5047SOL    HW126774   3.306   2.362   5.017  1.8277  1.5044  0.0637
 5047SOL    HW226775   3.438   2.359   4.948  0.9413  0.5473  1.6663
 5048SOL     OW26776   1.539   2.721  11.253  0.4967  0.0913 -0.2166
 5048SOL    HW126777   1.555   2.671  11.332 -3.2776 -0.1430  0.3572
 5048SOL    HW226778   1.494   2.655  11.200 -0.4269 -0.2449  1.0111
 5049SOL     OW26779   0.276   0.355   1.752 -0.9091 -0.1739 -0.5258
 5049SOL    HW126780   0.224   0.390   1.679 -1.8375 -0.4066  0.0186
 5049SOL    HW226781   0.271   0.434   1.806  0.4272 -1.6844  1.8356
 5050SOL     OW26782   1.014   0.854   9.544 -0.5887 -0.8114  0.4991
 5050SOL    HW126783   1.104   0.865   9.515 -1.1109 -0.0351 -0.7877
 5050SOL    HW226784   1.014   0.913   9.620 -0.9914 -1.8282  1.2953
 5051SOL     OW26785   2.056   4.424   7.495  0.3214  0.4952  0.0688
 5051SOL    HW126786   2.026   4.375   7.572  1.3667 -1.0821 -0.5455
 5051SOL    HW226787   2.085   4.499   7.547 -0.7894  0.1209  1.2351
 5052SOL     OW26788   3.627   4.163   7.377 -0.1636 -0.1788 -0.3760
 5052SOL    HW126789   3.657   4.145   7.288  1.9110 -0.3961  0.3648
 5052SOL    HW226790   3.565   4.235   7.364  2.1385  2.0378  0.6650
 5053SOL     OW26791   1.927   4.656   4.194 -0.0577 -0.1213 -0.1366
 5053SOL    HW126792   1.853   4.711   4.166  1.5520  2.1816  0.0877
 5053SOL    HW226793   1.895   4.613   4.273 -0.1838  1.8350  0.8650
 5054SOL     OW26794   4.460   3.732   6.026 -1.0992  0.4049  0.1201
 5054SOL    HW126795   4.422   3.660   6.077 -1.2201 -1.1348 -2.1455
 5054SOL    HW226796   4.401   3.805   6.044 -1.4145 -0.0747  1.0107
 5055SOL     OW26797   2.553   4.259  17.355 -0.0509 -0.2788 -0.4804
 5055SOL    HW126798   2.469   4.249  17.311 -0.3131 -1.2498  0.2411
 5055SOL    HW226799   2.531   4.273  17.447 -0.9692 -1.2889 -0.5437
 5056SOL     OW26800   0.831   1.986   3.788 -0.0258 -0.6231  0.5789
 5056SOL    HW126801   0.911   1.938   3.768 -0.5492 -2.1661  2.1582
 5056SOL    HW226802   0.766   1.920   3.764 -0.7602  0.1847  0.3128
 5057SOL     OW26803   3.901   3.851   2.227 -0.0024 -0.5217 -0.0105
 5057SOL    HW126804   3.869   3.762   2.215  1.9931 -1.4698  1.6699
 5057SOL    HW226805   3.984   3.829   2.271 -0.4447  1.0426  1.6184
 5058SOL     OW26806   4.662   4.464   9.055 -0.0252 -0.0440  0.4591
 5058SOL    HW126807   4.698   4.420   9.133 -0.9183  1.1757  1.5558
 5058SOL    HW226808   4.577   4.473   9.098 -1.6100 -0.1542 -2.6472
 5059SOL     OW26809   3.838   0.335   1.529 -0.2690  0.0105  0.5096
 5059SOL    HW126810   3.864   0.424   1.507 -2.2713  0.2114 -1.0428
 5059SOL    HW226811   3.796   0.320   1.444  1.4866  1.0511 -0.5102
 5060SOL     OW26812   2.294   3.475   8.102  0.3535 -0.5042 -0.4362
 5060SOL    HW126813   2.362   3.473   8.034  0.8727  1.7595  0.0364
 5060SOL    HW226814   2.269   3.383   8.091 -0.2986 -0.5274  1.2516
 5061SOL     OW26815   2.947   1.801   8.096  0.3956 -0.4036 -0.1426
 5061SOL    HW126816   3.033   1.790   8.057 -0.3352  1.1205 -2.1897
 5061SOL    HW226817   2.913   1.868   8.036  0.6477 -0.5349 -0.4335
 5062SOL     OW26818   4.574   0.132   0.885 -0.1161 -0.3964  0.0152
 5062SOL    HW126819   4.606   0.140   0.795  0.1530 -1.9735 -0.0294
 5062SOL    HW226820   4.488   0.103   0.855 -0.1091  0.4337 -0.8476
 5063SOL     OW26821   2.195   1.712   1.855  0.2076 -0.1984 -0.4202
 5063SOL    HW126822   2.219   1.805   1.852 -2.1206  0.3683 -1.5367
 5063SOL    HW226823   2.182   1.697   1.762 -0.9692 -0.4548 -0.2163
 5064SOL     OW26824   2.963   0.460   0.030 -0.6621 -0.2630 -0.0422
 5064SOL    HW126825   2.959   0.513  17.696 -1.4262 -0.3759 -0.0774
 5064SOL    HW226826   2.869   0.447   0.039 -0.3921 -1.6616  0.7655
 5065SOL     OW26827   2.102   0.838   2.496 -0.6637 -0.0481 -0.0663
 5065SOL    HW126828   2.069   0.895   2.426 -1.5447 -0.2873  0.1567
 5065SOL    HW226829   2.138   0.908   2.552 -1.7503  2.4356 -2.4682
 5066SOL     OW26830   3.180   2.339   2.649 -0.2132 -0.1458  0.2951
 5066SOL    HW126831   3.164   2.381   2.734  0.6974 -0.2339  0.5086
 5066SOL    HW226832   3.133   2.401   2.592  0.1376 -0.1486  0.0057
 5067SOL     OW26833   3.867   2.974   5.732  0.2958  0.1000  0.1563
 5067SOL    HW126834   3.853   3.029   5.809  0.3224 -2.3120  1.8552
 5067SOL    HW226835   3.952   2.931   5.738 -0.7777 -1.8821  0.9068
 5068SOL     OW26836   2.576   0.302   2.052  0.5751 -0.4075 -0.0669
 5068SOL    HW126837   2.502   0.363   2.047  0.6276 -0.4082 -0.9225
 5068SOL    HW226838   2.618   0.335   2.131  1.1559  0.8320 -0.8803
 5069SOL     OW26839   2.777   1.503   3.337 -0.1229  0.2278 -0.0893
 5069SOL    HW126840   2.821   1.527   3.419 -2.1043 -0.5483  1.2149
 5069SOL    HW226841   2.854   1.499   3.280  0.0725  1.5426  0.0873
 5070SOL     OW26842   1.424   0.329   2.125 -0.3347 -0.2670  0.2206
 5070SOL    HW126843   1.508   0.284   2.133 -0.0031  0.3920  0.4554
 5070SOL    HW226844   1.362   0.256   2.130  1.4631 -1.8044  0.2286
 5071SOL     OW26845   1.007   4.209   2.203 -0.0288 -0.3226  0.7945
 5071SOL    HW126846   0.940   4.272   2.229 -1.3999 -0.9409 -1.3358
 5071SOL    HW226847   0.959   4.151   2.145 -1.8786 -0.2535  2.2584
 5072SOL     OW26848   2.111   1.516   2.267  0.1547 -0.1002  0.1411
 5072SOL    HW126849   2.033   1.461   2.262  0.2458 -0.1750 -0.4795
 5072SOL    HW226850   2.070   1.602   2.263 -1.7805 -1.2176 -4.1382
 5073SOL     OW26851   1.669   3.576   7.294  0.5427 -0.2209  0.4260
 5073SOL    HW126852   1.728   3.627   7.349  0.6214  0.8091 -0.6202
 5073SOL    HW226853   1.619   3.532   7.363 -0.5458  0.9843  0.4017
 5074SOL     OW26854   3.875   1.000  13.694  0.8772 -0.4622 -0.0092
 5074SOL    HW126855   3.872   0.908  13.667 -1.1260 -0.6634  0.9300
 5074SOL    HW226856   3.970   1.001  13.702  0.8697  0.4134 -0.0711
 5075SOL     OW26857   4.571   1.192   7.715  0.4414  0.0989 -0.0619
 5075SOL    HW126858   4.478   1.206   7.699  0.3448 -0.3873  0.0581
 5075SOL    HW226859   4.577   1.218   7.807  1.3037 -1.3128  0.2909
 5076SOL     OW26860   2.292   2.260   9.083 -0.8159  0.6846  0.5156
 5076SOL    HW126861   2.207   2.298   9.060 -0.5727  1.0834  0.2609
 5076SOL    HW226862   2.281   2.231   9.173 -1.8610 -0.1633  0.1142
 5077SOL     OW26863   2.911   1.426   6.179 -0.1601 -0.6728  0.1073
 5077SOL    HW126864   2.999   1.460   6.165 -0.3510  0.1175  0.8684
 5077SOL    HW226865   2.903   1.372   6.100 -0.0286 -1.1337  0.4086
 5078SOL     OW26866   1.101   3.456   5.195 -0.0807  0.5353 -0.0598
 5078SOL    HW126867   1.055   3.488   5.117  0.8452  0.1620 -0.7612
 5078SOL    HW226868   1.039   3.459   5.269 -2.7680  1.5176 -2.3308
 5079SOL     OW26869   2.800   1.479   6.483  0.5295  0.2097  0.1294
 5079SOL    HW126870   2.877   1.430   6.452  1.0145  1.2773 -0.3729
 5079SOL    HW226871   2.740   1.460   6.411  0.6486 -1.1769  0.3938
 5080SOL     OW26872   4.142   0.317   7.413  0.5060  0.0083  0.4636
 5080SOL    HW126873   4.068   0.258   7.398  1.2984 -0.9086  0.1047
 5080SOL    HW226874   4.108   0.361   7.490  0.2376 -0.1957  0.4651
 5081SOL     OW26875   0.356   3.400   3.509  0.2287 -0.0477  0.4947
 5081SOL    HW126876   0.272   3.400   3.463 -0.2043 -1.6284  1.2963
 5081SOL    HW226877   0.369   3.494   3.520  1.2655 -0.2319  0.8318
 5082SOL     OW26878   1.464   0.777  15.520  0.9180  0.0374 -1.1481
 5082SOL    HW126879   1.420   0.692  15.523  0.9400  0.0859  1.0040
 5082SOL    HW226880   1.511   0.777  15.604  0.1750  1.3274 -0.7220
 5083SOL     OW26881   3.686   1.111  17.424 -0.0563  0.0332 -0.2633
 5083SOL    HW126882   3.744   1.055  17.475  0.6252  0.1903 -0.8531
 5083SOL    HW226883   3.611   1.094  17.480  0.2286 -0.9227 -0.1621
 5084SOL     OW26884   1.982   0.124   0.359  0.2335 -0.6785  0.1232
 5084SOL    HW126885   1.896   0.148   0.326  0.2985  0.7287  0.9835
 5084SOL    HW226886   1.966   0.115   0.453  2.9267 -0.1344  0.6550
 5085SOL     OW26887   1.520   0.491  12.906 -0.0200 -0.1387 -0.1207
 5085SOL    HW126888   1.500   0.520  12.818  0.4217 -0.9880 -0.5096
 5085SOL    HW226889   1.526   0.567  12.963  0.8763  0.7381 -1.3953
 5086SOL     OW26890   0.849   2.359   6.870  0.1809  0.0025 -0.7756
 5086SOL    HW126891   0.772   2.357   6.813 -0.6132 -3.0344  0.4187
 5086SOL    HW226892   0.867   2.453   6.862  0.1915 -0.0186 -1.0229
 5087SOL     OW26893   1.460   0.750  11.076  0.3724  0.1793 -0.1825
 5087SOL    HW126894   1.462   0.722  10.984  0.6973 -1.2628  0.2568
 5087SOL    HW226895   1.525   0.821  11.076 -0.0647  0.5761  1.1869
 5088SOL     OW26896   2.924   3.702   6.941 -0.1724  0.4956  0.2706
 5088SOL    HW126897   3.006   3.689   6.893  0.9748  0.6455  2.1532
 5088SOL    HW226898   2.963   3.734   7.023 -2.4903  1.4505  0.9908
 5089SOL     OW26899   0.391   1.594   4.394  0.1132 -0.3489  0.2262
 5089SOL    HW126900   0.445   1.645   4.454  0.8219 -0.2293 -0.5245
 5089SOL    HW226901   0.416   1.638   4.313  0.4617  1.7164  1.4595
 5090SOL     OW26902   2.131   1.370  10.719  0.7032  0.0024  0.0166
 5090SOL    HW126903   2.101   1.317  10.794 -1.2577  2.3144  0.8497
 5090SOL    HW226904   2.059   1.361  10.656  1.2401 -1.6848 -0.3487
 5091SOL     OW26905   3.613   1.415   6.511  0.6053 -0.5671  0.5873
 5091SOL    HW126906   3.529   1.381   6.482  1.4804  0.9328 -3.7355
 5091SOL    HW226907   3.661   1.333   6.505  3.0618  0.9657 -0.8043
 5092SOL     OW26908   3.847   3.127   5.518  0.3945  0.0552 -0.1188
 5092SOL    HW126909   3.902   3.067   5.568  0.2804 -1.3337 -1.6568
 5092SOL    HW226910   3.766   3.111   5.566  0.4835 -0.5010 -0.1569
 5093SOL     OW26911   3.627   2.372  15.957 -0.5176  0.5214  0.0060
 5093SOL    HW126912   3.692   2.434  15.926  0.1475 -0.6529 -0.9510
 5093SOL    HW226913   3.583   2.332  15.882  0.5604  1.6290 -1.2118
 5094SOL     OW26914   2.524   0.587   4.406 -0.0759  0.4363  0.4668
 5094SOL    HW126915   2.584   0.533   4.355 -0.9589 -1.2931  1.2903
 5094SOL    HW226916   2.538   0.549   4.492  0.3261 -3.5879 -1.3991
 5095SOL     OW26917   2.831   0.284   7.449 -0.1190  0.1973 -0.6823
 5095SOL    HW126918   2.753   0.284   7.503 -0.8403 -1.5774 -1.6975
 5095SOL    HW226919   2.806   0.346   7.381  0.7376  0.9107 -0.3431
 5096SOL     OW26920   0.363   0.426   5.423 -0.1190  0.0289  0.3056
 5096SOL    HW126921   0.417   0.447   5.346  0.9600 -1.1324  0.7268
 5096SOL    HW226922   0.419   0.354   5.453  1.0668  1.1826  0.8276
 5097SOL     OW26923   2.757   2.436   9.592 -0.0071 -0.0710  0.0752
 5097SOL    HW126924   2.842   2.408   9.558 -0.9472 -1.7047 -0.9133
 5097SOL    HW226925   2.781   2.527   9.612 -1.6631  0.4469 -0.3797
 5098SOL     OW26926   1.697   3.326  17.640 -0.6414 -0.4581  0.0493
 5098SOL    HW126927   1.717   3.234  17.656 -0.8299  0.0316  3.2313
 5098SOL    HW226928   1.718   3.361  17.727  0.6583  0.7741 -0.7697
 5099SOL     OW26929   3.940   2.256   5.803 -0.0064 -0.4169  0.2920
 5099SOL    HW126930   3.882   2.232   5.875 -2.1643  1.6038 -0.7875
 5099SOL    HW226931   3.961   2.341   5.841 -3.4205  0.8358 -0.6231
 5100SOL     OW26932   3.033   0.292   4.991 -0.0383 -0.3152 -0.0888
 5100SOL    HW126933   2.997   0.238   5.061  2.0947 -0.4621  0.8704
 5100SOL    HW226934   2.953   0.325   4.950 -0.2792 -0.4938  0.2373
 5101SOL     OW26935   1.118   2.401   7.167 -0.5609 -0.2379 -0.2573
 5101SOL    HW126936   1.111   2.483   7.216 -0.7998 -0.4773  0.1086
 5101SOL    HW226937   1.186   2.351   7.211 -0.4111  1.4436  1.4063
 5102SOL     OW26938   4.649   3.304   7.496  0.0610  0.6027  0.4515
 5102SOL    HW126939   4.733   3.267   7.473 -1.2153 -0.5416 -2.3168
 5102SOL    HW226940   4.681   3.378   7.548  2.1679 -0.8359  1.1847
 5103SOL     OW26941   3.063   0.209   6.932  0.3868 -0.1214  0.1253
 5103SOL    HW126942   3.029   0.266   6.864 -1.4807 -2.2913 -0.7444
 5103SOL    HW226943   3.152   0.192   6.901  0.1060 -1.2788 -0.0456
 5104SOL     OW26944   4.094   0.145   0.336  0.6703 -0.0714 -0.1636
 5104SOL    HW126945   4.047   0.228   0.324  0.1975 -0.1936  0.7866
 5104SOL    HW226946   4.184   0.168   0.358  0.2275  1.7241 -0.2748
 5105SOL     OW26947   4.486   1.640   5.010  0.0378  0.2937  0.5226
 5105SOL    HW126948   4.463   1.688   5.089  1.3516 -0.0544  1.1007
 5105SOL    HW226949   4.520   1.564   5.057 -0.6202 -1.1982 -1.3749
 5106SOL     OW26950   2.103   3.632   4.409 -0.3406 -0.5455 -0.1917
 5106SOL    HW126951   2.043   3.700   4.379  0.2999 -0.5846 -1.5626
 5106SOL    HW226952   2.065   3.619   4.496  1.1424  0.7806  0.6391
 5107SOL     OW26953   2.654   1.854   7.105  0.2468  0.1210 -0.1897
 5107SOL    HW126954   2.728   1.793   7.105  0.8409  0.8298 -2.0741
 5107SOL    HW226955   2.583   1.790   7.100  0.0871  0.2489  0.4774
 5108SOL     OW26956   0.925   1.017   2.513  0.3606  0.1433 -0.1439
 5108SOL    HW126957   0.955   1.081   2.578 -1.6441  0.4274  0.4975
 5108SOL    HW226958   1.012   0.988   2.484  0.9787  2.6948 -0.8326
 5109SOL     OW26959   1.971   3.968  10.433 -0.0122 -1.0755  0.4383
 5109SOL    HW126960   2.036   3.997  10.496 -1.4366  2.1576  0.4257
 5109SOL    HW226961   1.907   3.930  10.493 -1.7251  0.5243 -0.3612
 5110SOL     OW26962   3.141   3.601   2.728 -0.7579 -0.2068  1.0239
 5110SOL    HW126963   3.085   3.586   2.804 -1.3086 -1.7272  0.3077
 5110SOL    HW226964   3.069   3.606   2.665 -1.5121 -4.8051  1.5712
 5111SOL     OW26965   3.022   3.270   3.478 -0.5235  0.6706  1.1416
 5111SOL    HW126966   3.105   3.244   3.438 -1.5177 -0.9749  0.1670
 5111SOL    HW226967   2.962   3.204   3.444  1.2513  0.3293 -1.3630
 5112SOL     OW26968   0.603   0.687   8.347 -0.4278  0.3492  0.2172
 5112SOL    HW126969   0.546   0.689   8.424 -0.4808 -0.1078  0.1893
 5112SOL    HW226970   0.595   0.779   8.321  1.1925  0.2533 -0.5633
 5113SOL     OW26971   1.626   1.377   4.869  0.2556  0.2030  0.0324
 5113SOL    HW126972   1.576   1.445   4.915  0.1749 -0.1930  0.5400
 5113SOL    HW226973   1.569   1.372   4.792 -1.3792  0.3484  1.2103
 5114SOL     OW26974   1.748   2.529   1.376 -0.1262  0.3077  0.1022
 5114SOL    HW126975   1.811   2.465   1.346 -1.6393 -0.6133 -1.1281
 5114SOL    HW226976   1.717   2.564   1.292 -0.7423 -3.6228 -1.3134
 5115SOL     OW26977   3.331   0.879  17.091  0.2139 -0.2924 -0.0012
 5115SOL    HW126978   3.330   0.935  17.014 -1.3916  0.9138  0.8957
 5115SOL    HW226979   3.238   0.856  17.101  0.7316 -1.0124  3.2731
 5116SOL     OW26980   3.323   0.493  14.329  0.0532  0.5714  0.4861
 5116SOL    HW126981   3.352   0.444  14.252 -1.8496 -2.9453  1.9956
 5116SOL    HW226982   3.233   0.516  14.308  1.2955  3.0878 -2.0956
 5117SOL     OW26983   4.728   4.112   5.985  0.6052 -0.1617  0.1180
 5117SOL    HW126984   4.669   4.184   6.006  0.2242  0.6246 -3.6135
 5117SOL    HW226985   0.076   4.156   5.987  0.8641 -0.7203  1.6838
 5118SOL     OW26986   3.636   3.400   8.076  0.3391  0.1733 -0.0189
 5118SOL    HW126987   3.722   3.433   8.102  0.3635  0.7076 -0.7794
 5118SOL    HW226988   3.659   3.379   7.985 -2.5771 -1.1458 -0.4532
 5119SOL     OW26989   3.864   3.216   6.832 -0.2529 -0.8793  0.2158
 5119SOL    HW126990   3.779   3.179   6.809  0.4954 -1.7580 -1.1566
 5119SOL    HW226991   3.881   3.191   6.923 -1.3542 -1.2582  0.3163
 5120SOL     OW26992   3.762   3.974  14.867  0.4473  0.1761 -0.9302
 5120SOL    HW126993   3.748   3.880  14.874  0.9965  0.1583 -0.0706
 5120SOL    HW226994   3.780   3.984  14.773 -2.2671  2.5434 -1.1996
 5121SOL     OW26995   2.470   1.124  16.751  0.0846  0.0425  0.6138
 5121SOL    HW126996   2.409   1.066  16.706 -1.1151  2.5966 -1.0535
 5121SOL    HW226997   2.539   1.132  16.686  1.0411  2.9135  1.9878
 5122SOL     OW26998   2.609   0.767   2.699 -0.5967  0.3932 -0.4717
 5122SOL    HW126999   2.588   0.852   2.659  0.1717  0.7895 -0.0491
 5122SOL    HW227000   2.523   0.726   2.695 -1.2693  1.5067  2.0440
 5123SOL     OW27001   0.087   1.097   7.637 -0.2851  0.6469 -0.5198
 5123SOL    HW127002   4.734   1.125   7.652  0.5249  3.7242 -1.4540
 5123SOL    HW227003   0.075   1.034   7.566  0.6367 -0.7397  0.5423
 5124SOL     OW27004   3.938   1.875  16.476  0.5759 -1.0764 -0.4834
 5124SOL    HW127005   3.954   1.940  16.408  1.4375 -1.1596 -0.3624
 5124SOL    HW227006   4.023   1.850  16.513  0.1408  1.0354  1.8782
 5125SOL     OW27007   2.899   0.244  17.198 -0.1180 -0.4780 -0.6832
 5125SOL    HW127008   2.885   0.238  17.292 -1.5206  0.4595 -0.8292
 5125SOL    HW227009   2.994   0.240  17.183  0.1232  2.1987  0.0279
 5126SOL     OW27010   3.889   2.412   0.873 -0.0334  0.2326 -0.6361
 5126SOL    HW127011   3.899   2.344   0.940  0.6140  2.5520  1.6118
 5126SOL    HW227012   3.926   2.367   0.797  1.8806  0.1220  0.3533
 5127SOL     OW27013   3.038   2.203   2.999 -0.3665  0.0094  0.0571
 5127SOL    HW127014   3.132   2.197   3.015 -0.0512  0.9171 -1.3767
 5127SOL    HW227015   2.993   2.179   3.080 -1.7090 -1.9127 -1.2557
 5128SOL     OW27016   3.909   4.278   8.595 -0.3601 -0.2384  0.0248
 5128SOL    HW127017   3.890   4.285   8.501  0.5782 -2.5198 -0.3419
 5128SOL    HW227018   3.988   4.331   8.590 -0.9245  0.6132  0.2404
 5129SOL     OW27019   0.072   0.846  13.691  0.9559 -0.6572  0.2387
 5129SOL    HW127020   0.017   0.888  13.757 -0.0079  0.6729 -1.4146
 5129SOL    HW227021   0.046   0.885  13.608 -0.0289  0.0748  0.9019
 5130SOL     OW27022   2.972   1.660  11.210 -0.2393 -0.1280  0.3141
 5130SOL    HW127023   3.058   1.631  11.241 -0.2824  0.3523  0.8817
 5130SOL    HW227024   2.981   1.681  11.117  1.7171 -1.5995  0.1752
 5131SOL     OW27025   3.380   0.465   4.459 -0.1106  0.1453  0.4971
 5131SOL    HW127026   3.323   0.426   4.393 -1.5545 -0.8043  2.3142
 5131SOL    HW227027   3.459   0.419   4.430 -0.4095  1.4846 -2.4021
 5132SOL     OW27028   4.187   2.048  13.994  0.0853 -0.4494  0.1276
 5132SOL    HW127029   4.197   2.132  14.039 -1.9722  0.1060 -0.4465
 5132SOL    HW227030   4.111   2.013  14.041 -1.6760  0.6668 -1.8648
 5133SOL     OW27031   1.300   2.133   7.287  0.4221  0.3212 -0.5665
 5133SOL    HW127032   1.344   2.200   7.235 -0.6702  1.7647  0.3775
 5133SOL    HW227033   1.206   2.147   7.276 -0.0762 -1.1232  1.7305
 5134SOL     OW27034   2.595   3.412   1.924 -1.0935 -0.0209  0.0964
 5134SOL    HW127035   2.664   3.425   1.988 -1.2538 -0.2356  0.3121
 5134SOL    HW227036   2.587   3.499   1.886 -1.0533  0.0187  0.1793
 5135SOL     OW27037   3.051   0.377   7.963  0.3521  0.4408 -0.5045
 5135SOL    HW127038   2.972   0.324   7.954  1.6496 -1.6413  0.4532
 5135SOL    HW227039   3.123   0.322   7.932  1.2544  0.0903  2.2084
 5136SOL     OW27040   1.320   1.585   8.196 -0.1739  0.5412 -0.8873
 5136SOL    HW127041   1.404   1.573   8.240  1.0058  1.6411 -2.8524
 5136SOL    HW227042   1.351   1.570   8.107  3.4691  1.1867  0.2880
 5137SOL     OW27043   0.639   0.903   8.911  0.6367  0.4687  0.2389
 5137SOL    HW127044   0.634   0.842   8.985  1.9338  2.1143  1.7002
 5137SOL    HW227045   0.655   0.840   8.841 -0.7342  1.2374 -0.7654
 5138SOL     OW27046   1.282   2.815   1.051 -0.3413 -0.5800 -0.2683
 5138SOL    HW127047   1.257   2.907   1.042 -0.4319 -0.6755 -0.9938
 5138SOL    HW227048   1.350   2.821   1.117 -0.3242 -0.0926 -0.3284
 5139SOL     OW27049   3.577   0.104  17.220  0.5506  0.2097 -0.2725
 5139SOL    HW127050   3.493   0.149  17.218  1.3329  1.6240 -1.1618
 5139SOL    HW227051   3.601   0.118  17.128 -1.2209  2.1784 -0.4187
 5140SOL     OW27052   4.613   0.130   4.458 -0.0651 -0.2615 -0.0682
 5140SOL    HW127053   4.665   0.055   4.428  4.0086  1.9659  1.3523
 5140SOL    HW227054   4.680   0.177   4.508 -0.4081 -0.2448  0.3763
 5141SOL     OW27055   0.398   1.412   6.170 -0.1039  0.2902  0.1785
 5141SOL    HW127056   0.386   1.349   6.242  0.2267  0.0279  0.0071
 5141SOL    HW227057   0.328   1.471   6.196 -0.4832 -0.5641  1.0997
 5142SOL     OW27058   0.810   3.981   9.065  0.7101 -0.6778 -0.0470
 5142SOL    HW127059   0.754   4.056   9.047  1.5351 -0.4379 -1.6191
 5142SOL    HW227060   0.773   3.904   9.022 -2.1928 -0.7223  2.5764
 5143SOL     OW27061   4.460   0.242   4.931 -0.0832 -0.5025 -0.2094
 5143SOL    HW127062   4.455   0.261   5.025 -1.0372  1.3001 -0.6389
 5143SOL    HW227063   4.546   0.279   4.909  0.2434  0.5818  2.8586
 5144SOL     OW27064   4.550   2.482   3.389 -0.4830 -0.5340  0.4012
 5144SOL    HW127065   4.532   2.573   3.412  3.2551 -0.0099  1.2529
 5144SOL    HW227066   4.506   2.430   3.457 -1.7666  0.0842  0.0464
 5145SOL     OW27067   0.543   3.204   4.795  0.4004  0.6429 -0.0837
 5145SOL    HW127068   0.483   3.147   4.747 -1.5674  1.6010  1.2478
 5145SOL    HW227069   0.543   3.154   4.876 -3.0463  1.3934  0.3839
 5146SOL     OW27070   1.341   0.006   1.034  0.0767 -0.6356  0.3900
 5146SOL    HW127071   1.372   4.702   1.115  0.2381 -2.4590 -0.5901
 5146SOL    HW227072   1.325   4.664   0.982 -1.0822  0.2899 -0.6567
 5147SOL     OW27073   3.264   2.247   3.535 -0.2308 -0.5823  0.7056
 5147SOL    HW127074   3.201   2.228   3.605 -0.0182 -0.0764  1.0233
 5147SOL    HW227075   3.212   2.215   3.461 -0.8899  1.9550  0.0845
 5148SOL     OW27076   3.110   1.920  16.958 -0.4882 -0.0545 -0.2228
 5148SOL    HW127077   3.091   1.862  16.884 -1.2351  0.9037 -0.7846
 5148SOL    HW227078   3.158   1.988  16.911  2.6484 -1.5365  0.8420
 5149SOL     OW27079   2.672   4.695   5.301  0.0573 -0.1748 -0.3181
 5149SOL    HW127080   2.638   4.718   5.387 -1.6169 -0.4817 -0.9018
 5149SOL    HW227081   2.593   4.690   5.248  0.3071 -0.4216 -0.6650
 5150SOL     OW27082   1.863   3.835   7.220 -0.0035  0.1185  0.1629
 5150SOL    HW127083   1.788   3.857   7.274  0.2942  0.1115  0.5760
 5150SOL    HW227084   1.872   3.744   7.249  1.7160  0.4927  0.7970
 5151SOL     OW27085   0.496   2.696   2.426  0.6145  0.0153 -0.4886
 5151SOL    HW127086   0.466   2.726   2.340 -1.9412 -2.1559 -0.3514
 5151SOL    HW227087   0.592   2.699   2.423  0.7407 -1.3973  1.8080
 5152SOL     OW27088   3.510   2.217   7.769  0.1065 -0.4302  0.1728
 5152SOL    HW127089   3.573   2.186   7.834 -2.2233  1.9534  3.5677
 5152SOL    HW227090   3.436   2.234   7.827  0.4679  0.6396  0.3289
 5153SOL     OW27091   3.068   0.574   5.904  0.3179 -0.5018 -0.0283
 5153SOL    HW127092   3.085   0.669   5.902  1.9880 -0.8109 -0.9112
 5153SOL    HW227093   2.973   0.571   5.894 -0.0217  1.3241  2.5515
 5154SOL     OW27094   0.325   0.425   7.497  0.1836  0.1157 -0.2585
 5154SOL    HW127095   0.277   0.411   7.579 -1.2816 -0.9418 -1.2808
 5154SOL    HW227096   0.341   0.519   7.500  2.8702 -0.3876  0.6383
 5155SOL     OW27097   3.513   1.657  10.926  0.2462 -0.2529 -0.4203
 5155SOL    HW127098   3.440   1.606  10.892 -1.1844 -0.2050  2.5636
 5155SOL    HW227099   3.516   1.728  10.862 -0.0549  1.8643  1.9091
 5156SOL     OW27100   3.212   1.791   2.997 -0.5012 -0.5578  0.0692
 5156SOL    HW127101   3.287   1.846   2.972 -0.0999 -1.2035 -0.1536
 5156SOL    HW227102   3.135   1.846   2.980 -0.4095 -0.1611  0.9646
 5157SOL     OW27103   1.547   1.711   6.428  0.2518 -0.1519 -0.0126
 5157SOL    HW127104   1.472   1.755   6.388  1.6075  2.2357  0.0354
 5157SOL    HW227105   1.500   1.656   6.490 -1.8854  0.8925 -0.7065
 5158SOL     OW27106   3.149   3.666   7.538 -0.0665 -0.2209  0.0324
 5158SOL    HW127107   3.137   3.604   7.467 -0.0795 -1.4566  1.1306
 5158SOL    HW227108   3.116   3.631   7.620  2.5689  1.0075  1.6585
 5159SOL     OW27109   3.698   3.548   8.965 -0.6358  0.1282 -0.6469
 5159SOL    HW127110   3.619   3.591   8.932  0.0316  0.7679 -1.3786
 5159SOL    HW227111   3.661   3.517   9.048 -0.6188  0.3563 -0.5522
 5160SOL     OW27112   1.077   1.881   3.665 -0.0495  0.0367 -0.2770
 5160SOL    HW127113   1.117   1.797   3.642 -0.2011 -0.2816  0.6159
 5160SOL    HW227114   1.057   1.917   3.578  1.4087  3.0340  0.6375
 5161SOL     OW27115   3.235   4.476   1.201 -0.2636  0.3167  0.1330
 5161SOL    HW127116   3.289   4.436   1.269 -0.0689  0.9192  0.3301
 5161SOL    HW227117   3.281   4.438   1.126 -0.9424  0.9920 -0.6199
 5162SOL     OW27118   4.463   4.483   2.264 -0.4196 -0.0450  0.1724
 5162SOL    HW127119   4.482   4.576   2.252 -0.9337  0.0892  0.3657
 5162SOL    HW227120   4.543   4.458   2.311 -2.9429 -4.1597  2.3360
 5163SOL     OW27121   0.964   4.187  10.089  0.0219  0.3468 -0.1304
 5163SOL    HW127122   1.004   4.181  10.003  0.6118  1.1914  0.0813
 5163SOL    HW227123   1.007   4.126  10.149 -1.8976  1.6734  2.5829
 5164SOL     OW27124   1.073   2.813   2.597  0.2044 -0.4233 -0.4104
 5164SOL    HW127125   1.119   2.729   2.607 -0.1214 -0.4523  0.7956
 5164SOL    HW227126   1.103   2.840   2.510 -0.6684  0.1815 -0.5216
 5165SOL     OW27127   0.193   0.959   9.188 -0.8051 -0.2240  0.0051
 5165SOL    HW127128   0.107   0.974   9.228 -0.5354 -1.7949  1.1834
 5165SOL    HW227129   0.250   0.981   9.261  0.6692 -3.3505 -0.2056
 5166SOL     OW27130   2.835   1.081  14.251  0.1890  0.1127  0.4300
 5166SOL    HW127131   2.880   1.008  14.209 -0.4765 -0.0496 -0.0044
 5166SOL    HW227132   2.865   1.064  14.340  1.8228 -3.9962 -0.9164
 5167SOL     OW27133   2.996   0.450   1.510  0.6489 -0.0413 -0.2026
 5167SOL    HW127134   2.944   0.375   1.479 -0.8842  1.6061 -1.6179
 5167SOL    HW227135   2.927   0.500   1.554 -0.5175  0.1681 -2.2573
 5168SOL     OW27136   4.326   0.708   3.508  0.0440  0.0152 -0.0802
 5168SOL    HW127137   4.255   0.770   3.521  0.5552  0.3805  0.9571
 5168SOL    HW227138   4.308   0.640   3.573  1.1678 -0.1721  0.0437
 5169SOL     OW27139   2.832   3.413   2.378 -0.3895  0.1401  0.6432
 5169SOL    HW127140   2.887   3.344   2.418  1.0512  1.0839  0.3013
 5169SOL    HW227141   2.773   3.436   2.450 -1.7354 -0.6279 -0.2167
 5170SOL     OW27142   2.110   1.821  10.129  0.0432  0.3549 -0.2254
 5170SOL    HW127143   2.124   1.744  10.073  0.3878 -0.2763  0.7457
 5170SOL    HW227144   2.198   1.859  10.128  0.8638 -1.5600 -0.7782
 5171SOL     OW27145   1.605   2.870   1.020 -0.0875 -0.3170 -0.0844
 5171SOL    HW127146   1.532   2.912   0.975  1.4781  2.2958 -0.1372
 5171SOL    HW227147   1.612   2.944   1.080  1.2421  0.4330 -1.1840
 5172SOL     OW27148   1.214   0.114   6.384  0.6234 -0.3847 -0.3068
 5172SOL    HW127149   1.220   0.092   6.291 -3.8657 -0.7045 -0.5381
 5172SOL    HW227150   1.173   0.034   6.416  0.0302  0.2951  0.6344
 5173SOL     OW27151   2.560   3.124   3.386 -0.0376  0.0323 -0.0801
 5173SOL    HW127152   2.495   3.066   3.426 -1.1401  0.9334 -0.5585
 5173SOL    HW227153   2.516   3.143   3.304 -0.3669 -0.8448 -0.1065
 5174SOL     OW27154   4.531   1.598   6.347 -0.5426 -0.0150 -0.6612
 5174SOL    HW127155   4.519   1.513   6.304  1.8039 -0.8907  0.4060
 5174SOL    HW227156   4.467   1.596   6.418 -0.2230 -0.3731 -0.3825
 5175SOL     OW27157   0.241   3.207   2.419 -0.6642  0.5810  0.5687
 5175SOL    HW127158   0.185   3.133   2.443  0.9095 -0.5356  0.7859
 5175SOL    HW227159   0.330   3.174   2.408 -0.4124  0.4752  3.0681
 5176SOL     OW27160   4.694   1.680   6.135 -0.3156  0.3060 -0.3028
 5176SOL    HW127161   4.618   1.722   6.095  0.7474  0.6016 -2.0028
 5176SOL    HW227162   4.651   1.638   6.210  0.9263 -1.7405 -0.7211
 5177SOL     OW27163   0.779   3.201  12.222 -0.4151 -0.4047 -0.2408
 5177SOL    HW127164   0.720   3.243  12.285 -2.9541 -1.1310 -2.0971
 5177SOL    HW227165   0.774   3.255  12.143  0.2462  1.7054  1.1630
 5178SOL     OW27166   4.099   0.881   3.535  0.0679  0.1944  0.1032
 5178SOL    HW127167   4.050   0.872   3.617  2.5072  0.1942  1.5458
 5178SOL    HW227168   4.116   0.975   3.541 -0.1591  0.2953 -0.8902
 5179SOL     OW27169   4.443   1.260   4.812  0.3030  0.6202 -0.4073
 5179SOL    HW127170   4.371   1.199   4.793 -0.2261  0.5501  1.8103
 5179SOL    HW227171   4.388   1.338   4.806 -0.1076  0.2828 -1.0206
 5180SOL     OW27172   0.581   1.316   7.559  0.2212  0.0115 -0.2377
 5180SOL    HW127173   0.572   1.249   7.492  2.1315 -0.9133  0.4272
 5180SOL    HW227174   0.578   1.399   7.512 -1.6269 -0.5031 -1.0169
 5181SOL     OW27175   4.309   2.476   8.941  0.0076  0.2030 -0.2268
 5181SOL    HW127176   4.348   2.439   8.862 -2.1034 -1.3873 -0.5428
 5181SOL    HW227177   4.312   2.570   8.926 -2.2217  0.6046  1.8215
 5182SOL     OW27178   2.557   4.387   4.412  0.4265  0.2617  0.4822
 5182SOL    HW127179   2.566   4.292   4.399  1.4820  0.1793  1.7486
 5182SOL    HW227180   2.527   4.394   4.503 -1.1921 -0.0480 -0.0282
 5183SOL     OW27181   3.988   2.356  11.780  0.0750  0.0138  0.4768
 5183SOL    HW127182   4.042   2.370  11.857  0.8448  1.9844 -0.4274
 5183SOL    HW227183   3.922   2.300  11.821 -1.6261  1.4631 -0.2749
 5184SOL     OW27184   0.650   0.870   7.720 -0.2119  0.2528 -0.2437
 5184SOL    HW127185   0.596   0.792   7.734  0.5697 -0.3562 -0.6488
 5184SOL    HW227186   0.708   0.863   7.795 -2.3780 -0.5243  1.3683
 5185SOL     OW27187   3.754   1.181  14.807  0.1799 -0.3709  0.0676
 5185SOL    HW127188   3.774   1.148  14.719  0.3928 -0.2353  0.0672
 5185SOL    HW227189   3.697   1.249  14.771 -0.8759 -1.6080 -0.5973
 5186SOL     OW27190   3.915   1.581   6.284 -0.0929 -0.0063  0.1666
 5186SOL    HW127191   3.856   1.607   6.214 -0.1485  0.9158  0.5573
 5186SOL    HW227192   4.001   1.618   6.265 -0.5525  1.9287  1.8621
 5187SOL     OW27193   3.701   2.502   6.252 -0.1354 -0.6649 -0.0791
 5187SOL    HW127194   3.698   2.561   6.177 -1.5281  0.7042  1.0482
 5187SOL    HW227195   3.757   2.545   6.317  1.0003  1.8927 -2.7969
 5188SOL     OW27196   2.983   4.261   3.853 -0.1047  0.0908  0.0518
 5188SOL    HW127197   2.956   4.264   3.761 -3.1385 -0.7794  0.8958
 5188SOL    HW227198   2.987   4.354   3.874  0.8613  0.1766 -0.5085
 5189SOL     OW27199   1.877   0.760   7.717 -0.3622 -0.1610 -0.2316
 5189SOL    HW127200   1.966   0.760   7.752 -0.4610 -0.4954  0.0257
 5189SOL    HW227201   1.893   0.703   7.642  0.3847 -2.9593  2.0615
 5190SOL     OW27202   4.135   4.473   0.757  0.0913 -0.0635  0.2951
 5190SOL    HW127203   4.050   4.468   0.800  0.7856 -1.8786  1.4447
 5190SOL    HW227204   4.177   4.546   0.802 -1.3490  1.6294 -1.1197
 5191SOL     OW27205   3.787   4.089   8.279  0.1424 -0.1535  0.1520
 5191SOL    HW127206   3.820   4.005   8.246  1.8131  0.6560 -0.2289
 5191SOL    HW227207   3.730   4.112   8.206 -1.0062  0.3823  1.2239
 5192SOL     OW27208   0.517   3.051  11.951 -0.8952 -0.0046 -0.9008
 5192SOL    HW127209   0.548   2.991  12.019  0.0347 -1.6123 -2.7581
 5192SOL    HW227210   0.517   2.991  11.876 -0.0142 -1.4001  0.2247
 5193SOL     OW27211   0.974   4.044   2.637 -0.1402  0.1647 -0.0709
 5193SOL    HW127212   1.067   4.037   2.658  0.0508  0.3988 -0.8335
 5193SOL    HW227213   0.947   4.130   2.669 -1.7743  0.1666 -1.4578
 5194SOL     OW27214   0.905   1.423   9.504  0.1850 -0.3297 -0.4070
 5194SOL    HW127215   0.857   1.504   9.487 -1.8852 -1.5690 -0.4987
 5194SOL    HW227216   0.875   1.368   9.432  0.9256  0.1349 -1.0596
 5195SOL     OW27217   2.000   0.163   9.864  0.0019 -0.4001  0.5214
 5195SOL    HW127218   1.988   0.073   9.836  3.8802 -1.2342  1.4622
 5195SOL    HW227219   1.977   0.219   9.790 -0.2750 -0.1953  0.7638
 5196SOL     OW27220   2.327   4.432   8.002 -0.1140 -0.2017 -0.0893
 5196SOL    HW127221   2.248   4.386   7.974 -0.6760  0.8430 -0.2283
 5196SOL    HW227222   2.389   4.360   7.991  0.0092 -0.3017  1.2314
 5197SOL     OW27223   4.536   4.519  13.948 -0.3347  0.2726 -0.3356
 5197SOL    HW127224   4.478   4.516  13.872  2.1457 -1.8042 -2.1451
 5197SOL    HW227225   4.607   4.570  13.911  1.5583  0.2641  3.2959
 5198SOL     OW27226   3.458   2.344   5.684 -0.8067 -0.2231  0.4579
 5198SOL    HW127227   3.439   2.413   5.747 -0.1991 -0.6627  1.1078
 5198SOL    HW227228   3.372   2.302   5.672 -1.4652  1.4192 -0.5722
 5199SOL     OW27229   3.266   4.272  16.885 -0.0634  0.0625 -0.5496
 5199SOL    HW127230   3.228   4.324  16.956  0.8305  0.1142 -0.1160
 5199SOL    HW227231   3.284   4.187  16.924 -2.1470  0.8324  2.0566
 5200SOL     OW27232   2.783   3.633  11.744 -0.2036 -0.4671 -0.2482
 5200SOL    HW127233   2.858   3.691  11.734 -1.1719  0.2318 -3.4560
 5200SOL    HW227234   2.773   3.637  11.839 -1.8393 -1.6820 -0.3554
 5201SOL     OW27235   3.163   4.193   1.684 -0.0851  0.1588  0.1572
 5201SOL    HW127236   3.070   4.168   1.689  0.0814 -0.6838 -1.0579
 5201SOL    HW227237   3.194   4.130   1.750  1.6489  0.9191  0.0449
 5202SOL     OW27238   0.087   2.187  10.352 -0.4806 -0.0009 -0.0042
 5202SOL    HW127239   0.127   2.149  10.274 -0.9295 -2.4693  0.9681
 5202SOL    HW227240   0.052   2.264  10.306 -1.7059 -0.6787 -0.2012
 5203SOL     OW27241   0.559   1.700   7.859 -0.8224  0.1154 -0.2216
 5203SOL    HW127242   0.646   1.674   7.890 -1.2086 -1.6177 -0.6079
 5203SOL    HW227243   0.533   1.756   7.932  1.3782  0.8161  0.0581
 5204SOL     OW27244   0.086   0.735   9.940  0.0548  0.4008 -0.2906
 5204SOL    HW127245   0.135   0.817   9.932 -0.8294  0.9423 -0.1194
 5204SOL    HW227246   0.099   0.723  10.034  0.8463  2.3049 -0.1641
 5205SOL     OW27247   1.331   2.703   2.781 -0.3680  0.3071  0.7578
 5205SOL    HW127248   1.261   2.652   2.743  0.3585 -0.1820  0.0744
 5205SOL    HW227249   1.409   2.672   2.734 -0.9164  2.1154 -1.3087
 5206SOL     OW27250   3.773   4.670  12.184  0.0036  0.1893 -0.5333
 5206SOL    HW127251   3.719   4.730  12.236 -0.3991 -1.3850  0.8692
 5206SOL    HW227252   3.742   4.580  12.194  0.7105 -0.0836 -0.8024
 5207SOL     OW27253   3.308   3.336   7.060  0.2717  0.0021  0.8442
 5207SOL    HW127254   3.252   3.372   6.990  0.6918 -0.6047  0.1929
 5207SOL    HW227255   3.283   3.385   7.138  2.4760 -0.1280  1.6268
 5208SOL     OW27256   2.314   4.513   4.290 -0.2370  0.2456  0.3564
 5208SOL    HW127257   2.405   4.490   4.268 -0.8440 -1.0937 -0.7460
 5208SOL    HW227258   2.301   4.591   4.236 -3.8701  0.5786  1.7288
 5209SOL     OW27259   3.140   1.889   5.288 -0.2682  0.3227  0.0856
 5209SOL    HW127260   3.214   1.939   5.321 -0.8440  1.1462  0.1206
 5209SOL    HW227261   3.187   1.806   5.281  0.1694  0.4360  1.7532
 5210SOL     OW27262   1.223   2.114   3.447  0.3973 -0.0434 -0.1497
 5210SOL    HW127263   1.137   2.076   3.463  0.2610  1.0533  1.7625
 5210SOL    HW227264   1.222   2.178   3.376 -0.5117 -0.0511 -0.1416
 5211SOL     OW27265   1.340   0.829   6.309 -0.3408 -0.4508 -0.1019
 5211SOL    HW127266   1.293   0.746   6.307 -1.2473  0.1125 -2.3451
 5211SOL    HW227267   1.373   0.822   6.219  2.2055  0.4981  0.7469
 5212SOL     OW27268   2.184   1.418  10.446 -0.1079 -0.2102  0.1430
 5212SOL    HW127269   2.190   1.380  10.533 -0.4353 -0.4697  0.0492
 5212SOL    HW227270   2.120   1.490  10.447 -0.5517 -0.6092  0.2423
 5213SOL     OW27271   2.291   2.574  14.039  0.3015 -0.7565 -0.3546
 5213SOL    HW127272   2.200   2.547  14.045  0.5023 -1.2526  0.4248
 5213SOL    HW227273   2.276   2.631  13.964 -0.8175  1.5796  1.6335
 5214SOL     OW27274   4.724   3.765   3.989 -0.6031 -0.1966  0.0481
 5214SOL    HW127275   0.074   3.733   4.015  0.0949  0.6315 -1.2835
 5214SOL    HW227276   4.668   3.732   4.060 -0.3703  1.6628  1.1162
 5215SOL     OW27277   2.356   4.535  11.507 -0.3140  0.5009 -0.2229
 5215SOL    HW127278   2.262   4.518  11.501 -0.1752  0.1986 -1.6663
 5215SOL    HW227279   2.385   4.444  11.516  0.5927  0.7567 -0.5631
 5216SOL     OW27280   1.910   1.318   4.081  0.2154 -0.0929 -0.5051
 5216SOL    HW127281   1.825   1.336   4.122  0.2193 -2.3428  0.5195
 5216SOL    HW227282   1.970   1.323   4.155  0.7677 -2.4974 -0.7998
 5217SOL     OW27283   3.940   3.763   7.633  0.1503 -0.6332 -0.2317
 5217SOL    HW127284   3.855   3.740   7.595  0.7566 -0.1347 -1.8706
 5217SOL    HW227285   3.994   3.727   7.563 -0.7073 -0.2052 -1.1031
 5218SOL     OW27286   4.669   2.896   7.911 -0.8659 -0.3899  0.1347
 5218SOL    HW127287   4.630   2.830   7.852  2.3670 -2.2361  0.0765
 5218SOL    HW227288   4.644   2.971   7.857  3.5559 -0.0171 -1.3796
 5219SOL     OW27289   3.040   4.668  17.266 -0.1215 -0.4900  0.2648
 5219SOL    HW127290   3.019   4.647  17.175  0.1733  0.6441 -0.0633
 5219SOL    HW227291   3.108   4.734  17.250  0.5911 -0.6482  2.5442
 5220SOL     OW27292   1.937   4.227   3.772  0.1694  0.1970  0.0079
 5220SOL    HW127293   1.944   4.219   3.677 -0.0677  1.2396 -0.0941
 5220SOL    HW227294   1.883   4.305   3.787  0.3541  0.0221  1.5839
 5221SOL     OW27295   2.017   2.021  10.276 -0.3404 -0.1016 -0.0985
 5221SOL    HW127296   2.093   2.079  10.267 -0.5090  0.3237  1.3015
 5221SOL    HW227297   2.036   1.945  10.220  0.7752 -0.8774  1.3508
 5222SOL     OW27298   4.525   3.615   5.529  0.2228 -0.5883  0.1343
 5222SOL    HW127299   4.450   3.649   5.482 -1.2521 -2.7845  0.9143
 5222SOL    HW227300   4.550   3.682   5.593 -0.3886 -0.9983  0.7931
 5223SOL     OW27301   1.428   2.024   6.202 -0.8085 -0.4141 -0.4329
 5223SOL    HW127302   1.514   1.983   6.196 -2.3095 -3.5742 -0.4057
 5223SOL    HW227303   1.445   2.114   6.172  4.2843 -2.0318 -2.3613
 5224SOL     OW27304   1.353   4.213  10.333 -0.1320  0.1442  0.4326
 5224SOL    HW127305   1.311   4.242  10.414  1.6427  1.7887  0.7635
 5224SOL    HW227306   1.350   4.119  10.347 -1.0262 -0.3667 -3.1962
 5225SOL     OW27307   4.701   3.885   6.745  0.8269  0.2208  0.2938
 5225SOL    HW127308   0.017   3.877   6.665 -3.0955  0.5809 -2.3189
 5225SOL    HW227309   4.707   3.980   6.759 -2.8524  0.5264 -0.3897
 5226SOL     OW27310   3.634   3.552   1.735 -0.2439  0.3698  0.6584
 5226SOL    HW127311   3.667   3.575   1.648 -0.0657  2.6328  1.3392
 5226SOL    HW227312   3.713   3.549   1.789  1.0279  1.0030 -1.1506
 5227SOL     OW27313   3.074   1.140  16.483  0.2842 -0.2551  0.1509
 5227SOL    HW127314   2.995   1.194  16.484 -0.3897 -1.2786  1.5670
 5227SOL    HW227315   3.086   1.128  16.389  1.5845 -2.7443  0.6514
 5228SOL     OW27316   3.247   3.233   7.523 -0.3354  0.6647  0.4527
 5228SOL    HW127317   3.297   3.315   7.527  2.6077 -1.1311  0.2687
 5228SOL    HW227318   3.297   3.182   7.586  2.1780 -0.8760 -2.7532
 5229SOL     OW27319   1.751   4.390  16.283  0.8510  0.3100 -0.0207
 5229SOL    HW127320   1.756   4.382  16.378  0.5067  0.5751  0.0189
 5229SOL    HW227321   1.656   4.395  16.273  0.8169  0.3379  0.3292
 5230SOL     OW27322   0.674   3.758   5.566  0.2182 -0.5090  0.3211
 5230SOL    HW127323   0.634   3.741   5.480  0.3415 -0.1766  0.1986
 5230SOL    HW227324   0.602   3.748   5.628  1.1225  3.4905  1.9746
 5231SOL     OW27325   0.399   2.621   7.908 -0.2072  0.5950  0.0660
 5231SOL    HW127326   0.327   2.678   7.880  0.3185  1.7433  1.0191
 5231SOL    HW227327   0.372   2.531   7.893 -3.3959  1.5273  0.2888
 5232SOL     OW27328   0.043   4.040   9.029  0.5012 -0.2646  0.0066
 5232SOL    HW127329   0.134   4.069   9.025  0.5877 -0.0946  3.1492
 5232SOL    HW227330   0.028   3.993   9.111  0.1544 -0.6977 -0.3108
 5233SOL     OW27331   2.217   4.480   3.827  0.2412  0.1549 -0.2181
 5233SOL    HW127332   2.197   4.522   3.743  0.9931  0.7819 -0.0807
 5233SOL    HW227333   2.147   4.513   3.884  0.2508  0.9076 -0.6431
 5234SOL     OW27334   1.511   4.649   9.487 -0.7473 -0.0344  0.3923
 5234SOL    HW127335   1.570   4.681   9.419  1.1691 -0.5635  1.7973
 5234SOL    HW227336   1.551   4.569   9.521 -2.0501 -0.8176  0.0705
 5235SOL     OW27337   3.397   3.461   7.523  0.2843  0.4986  0.0074
 5235SOL    HW127338   3.424   3.538   7.475  1.6800 -0.3904 -0.6250
 5235SOL    HW227339   3.444   3.474   7.606  1.1801  0.2452 -0.4630
 5236SOL     OW27340   2.765   2.539   6.817  0.1273  0.1943 -0.3548
 5236SOL    HW127341   2.773   2.484   6.740  1.7322 -0.0612 -0.0064
 5236SOL    HW227342   2.853   2.531   6.854 -0.4720 -2.1615  0.5627
 5237SOL     OW27343   2.628   1.038   0.053 -0.1206 -1.0134  0.1971
 5237SOL    HW127344   2.700   1.092   0.020 -0.7131 -1.3586 -1.6968
 5237SOL    HW227345   2.681   0.963   0.081 -1.6830 -1.7128  1.2842
 5238SOL     OW27346   1.936   0.978   8.294 -0.2807  0.1574  0.0025
 5238SOL    HW127347   1.930   0.888   8.327  1.0091  0.0978  0.0913
 5238SOL    HW227348   1.893   0.973   8.209 -3.6089 -0.7526  1.7691
 5239SOL     OW27349   3.031   3.518   2.991  0.4337 -0.6553 -0.5491
 5239SOL    HW127350   3.086   3.570   3.050  0.6356 -2.0336  0.4777
 5239SOL    HW227351   3.073   3.432   2.986 -3.9519 -2.9447  1.6690
 5240SOL     OW27352   2.379   4.372   5.005 -0.4550  0.2891 -0.2882
 5240SOL    HW127353   2.293   4.389   4.966 -0.2983 -1.0429 -1.1931
 5240SOL    HW227354   2.413   4.460   5.022 -1.3566  0.6721 -0.4235
 5241SOL     OW27355   3.084   0.980  12.502 -0.6469  0.9449 -0.2063
 5241SOL    HW127356   3.012   1.004  12.443  0.3625 -1.7548 -2.5296
 5241SOL    HW227357   3.141   0.931  12.442 -0.1304  0.1939  0.9054
 5242SOL     OW27358   3.402   4.018  17.258 -0.2118  0.3604  0.2433
 5242SOL    HW127359   3.367   4.098  17.220 -0.4317  0.9124  1.5913
 5242SOL    HW227360   3.326   3.962  17.244  0.4547 -0.3988 -0.3314
 5243SOL     OW27361   3.119   1.670  17.280  0.1625 -0.4470  0.0374
 5243SOL    HW127362   3.090   1.603  17.219 -1.2768 -1.3521  1.7239
 5243SOL    HW227363   3.051   1.676  17.347  0.5475 -1.3714  0.5308
 5244SOL     OW27364   0.671   0.237   3.190  0.5602  0.0782 -0.0152
 5244SOL    HW127365   0.679   0.252   3.096 -0.6730 -1.8192 -0.4057
 5244SOL    HW227366   0.764   0.235   3.210  0.4335  0.9582  0.7115
 5245SOL     OW27367   3.228   3.681  13.933  0.6507  0.2436 -0.0779
 5245SOL    HW127368   3.243   3.721  13.847  1.3701  2.7444  1.2322
 5245SOL    HW227369   3.142   3.719  13.952 -0.5586 -3.0121  1.1197
 5246SOL     OW27370   3.842   1.986  13.306 -0.0129  0.3129 -0.0018
 5246SOL    HW127371   3.779   1.929  13.350  0.6512  1.6070  2.6414
 5246SOL    HW227372   3.920   1.931  13.311 -1.2581 -0.9003  5.3535
 5247SOL     OW27373   2.486   1.623   3.498 -0.3284 -0.7230 -0.0027
 5247SOL    HW127374   2.508   1.532   3.513 -0.5316 -0.9764 -1.2390
 5247SOL    HW227375   2.555   1.670   3.545  0.5965 -1.8040 -0.3051
 5248SOL     OW27376   2.362   4.186   2.419  0.4699  0.4092 -0.8015
 5248SOL    HW127377   2.389   4.268   2.460 -0.5155  0.9358 -1.1875
 5248SOL    HW227378   2.386   4.124   2.487  0.2184  0.7454 -0.4072
 5249SOL     OW27379   4.410   0.148  11.847  0.5771 -0.3705 -0.0526
 5249SOL    HW127380   4.471   0.162  11.775  0.1857  0.3798 -0.2427
 5249SOL    HW227381   4.328   0.168  11.802  0.0012 -0.3036  1.0282
 5250SOL     OW27382   3.314   1.212  15.659  0.6367 -0.2855 -0.2188
 5250SOL    HW127383   3.382   1.187  15.597  1.5902  0.4861  0.5191
 5250SOL    HW227384   3.251   1.249  15.597 -0.3893 -0.7642  0.5356
 5251SOL     OW27385   0.948   4.581  10.890 -0.1529 -0.1506 -0.0092
 5251SOL    HW127386   0.940   4.506  10.948  1.8506 -0.5703 -0.2680
 5251SOL    HW227387   1.022   4.632  10.923  0.2440  1.2072 -2.9836
 5252SOL     OW27388   1.355   3.431   4.117 -0.2627 -0.2152 -0.4102
 5252SOL    HW127389   1.280   3.377   4.093 -1.8008  2.4512 -1.4471
 5252SOL    HW227390   1.374   3.489   4.044 -0.1422 -0.3334 -0.4734
 5253SOL     OW27391   3.574   0.721  13.240 -0.3260 -0.0868  0.5369
 5253SOL    HW127392   3.650   0.679  13.201  0.1256  1.9486 -0.7406
 5253SOL    HW227393   3.623   0.776  13.301  1.7274 -2.7786  1.3281
 5254SOL     OW27394   1.427   2.523  11.134 -0.1814  0.2672 -0.4296
 5254SOL    HW127395   1.376   2.536  11.054  2.4121  2.0075 -1.8090
 5254SOL    HW227396   1.516   2.507  11.101  0.0198 -2.1759  1.2823
 5255SOL     OW27397   0.346   3.295   6.852  0.4892  0.0996 -0.1533
 5255SOL    HW127398   0.272   3.311   6.794  0.9671  2.0921 -0.2185
 5255SOL    HW227399   0.400   3.235   6.800 -2.7891 -0.3632 -2.9960
 5256SOL     OW27400   2.785   0.090   4.005 -0.2769  0.0657 -0.0281
 5256SOL    HW127401   2.807   0.157   4.070  0.5677 -0.5320  0.2933
 5256SOL    HW227402   2.816   0.010   4.047  0.3228  1.5860  2.4034
 5257SOL     OW27403   2.636   4.296  10.684  0.4664  0.4896  0.0423
 5257SOL    HW127404   2.731   4.293  10.688  0.2069 -1.6728  4.2551
 5257SOL    HW227405   2.604   4.310  10.773 -0.3811 -0.4998 -0.1006
 5258SOL     OW27406   3.582   1.794   7.759 -0.2321 -0.3560  0.2288
 5258SOL    HW127407   3.645   1.814   7.828  0.4605  1.2938 -0.8757
 5258SOL    HW227408   3.511   1.856   7.779 -0.3076 -0.2615 -0.3313
 5259SOL     OW27409   1.969   3.218   6.692 -0.6152  0.1045 -0.2340
 5259SOL    HW127410   2.028   3.221   6.616 -1.0208  1.0579 -0.5085
 5259SOL    HW227411   1.942   3.127   6.681  0.4112 -0.3041  0.5868
 5260SOL     OW27412   0.291   3.398   6.176 -0.2637 -0.2288 -0.0742
 5260SOL    HW127413   0.258   3.360   6.094 -2.4038 -0.7435  1.0169
 5260SOL    HW227414   0.254   3.334   6.238 -1.6940 -0.7849 -1.4815
 5261SOL     OW27415   0.060   2.781   5.217 -0.0302 -0.5651 -0.0156
 5261SOL    HW127416   0.123   2.758   5.285  1.6239  0.5382 -1.1770
 5261SOL    HW227417   0.023   2.867   5.233 -1.1406 -0.4245 -3.3109
 5262SOL     OW27418   4.347   4.277   3.842 -0.3852  0.5344  0.5835
 5262SOL    HW127419   4.401   4.352   3.863  0.3158  0.3027 -0.3598
 5262SOL    HW227420   4.395   4.230   3.773 -0.1665 -1.2577  1.9466
 5263SOL     OW27421   4.083   2.700   9.371 -0.1602  0.2994 -0.0093
 5263SOL    HW127422   4.008   2.687   9.313 -0.6137 -1.1798  0.9182
 5263SOL    HW227423   4.065   2.785   9.411  0.7288  1.3337 -1.7936
 5264SOL     OW27424   2.233   1.742   8.969  0.1383  0.5053  0.0419
 5264SOL    HW127425   2.181   1.821   8.984 -0.1502 -0.0699  2.1114
 5264SOL    HW227426   2.285   1.755   9.048  1.2701 -0.3359 -0.5692
 5265SOL     OW27427   3.910   0.854  12.424 -0.9808 -0.2019  0.4587
 5265SOL    HW127428   3.849   0.923  12.447  1.1724  2.0503 -0.5302
 5265SOL    HW227429   3.971   0.872  12.495 -0.3446  0.7504 -0.3233
 5266SOL     OW27430   2.937   0.447   2.852 -0.4490 -0.1513 -0.2319
 5266SOL    HW127431   2.962   0.394   2.928 -0.6399 -0.7058 -0.5563
 5266SOL    HW227432   2.877   0.384   2.812  1.0216 -0.1557 -2.4409
 5267SOL     OW27433   1.047   1.242   6.932  0.1353  0.0210 -0.2346
 5267SOL    HW127434   1.112   1.311   6.946 -0.1070  0.1358  0.3243
 5267SOL    HW227435   1.015   1.273   6.848 -1.9765 -0.4967  0.3940
 5268SOL     OW27436   0.018   0.754   5.729 -0.0473  0.2846  0.1357
 5268SOL    HW127437   0.056   0.701   5.799  2.0848 -0.1673 -1.3692
 5268SOL    HW227438   0.101   0.786   5.693 -0.0825 -0.3283 -0.4929
 5269SOL     OW27439   2.549   2.154   4.038  0.1870  0.5689  0.5115
 5269SOL    HW127440   2.500   2.073   4.042 -1.3177  1.4549 -0.0426
 5269SOL    HW227441   2.639   2.125   4.020 -0.1194 -0.7783  1.1532
 5270SOL     OW27442   3.033   3.767   2.057 -0.0563  0.5419 -0.3181
 5270SOL    HW127443   2.958   3.823   2.038  0.0780  0.4099 -1.2210
 5270SOL    HW227444   3.034   3.705   1.984 -0.4478  0.8728 -0.6062
 5271SOL     OW27445   0.386   0.870   0.169  0.0968  0.3829  0.2588
 5271SOL    HW127446   0.321   0.800   0.156 -1.3570  1.7490  0.1235
 5271SOL    HW227447   0.347   0.923   0.239  0.5581  0.8866  0.1309
 5272SOL     OW27448   2.476   3.843   8.415 -0.2014  0.3072 -0.3670
 5272SOL    HW127449   2.511   3.894   8.341  1.3430  0.2399  0.3231
 5272SOL    HW227450   2.466   3.757   8.375 -1.4154  1.1488 -1.8435
 5273SOL     OW27451   3.189   1.850   7.575 -0.2023 -0.3455 -0.0658
 5273SOL    HW127452   3.228   1.935   7.596 -1.1691 -0.3862  1.9509
 5273SOL    HW227453   3.102   1.868   7.541 -0.7697 -0.3588  1.3579
 5274SOL     OW27454   3.702   1.086   9.632  0.1577  0.3488  0.1635
 5274SOL    HW127455   3.643   1.155   9.602 -0.0711  0.5061  0.9889
 5274SOL    HW227456   3.648   1.067   9.709  2.7648  0.0410  1.8851
 5275SOL     OW27457   3.941   1.463   9.063 -0.1522  0.4738  0.1940
 5275SOL    HW127458   4.033   1.446   9.085 -0.0404  0.3234 -0.3848
 5275SOL    HW227459   3.902   1.408   9.130  0.3832  0.7416  0.7283
 5276SOL     OW27460   3.304   1.028  15.844  0.2324  0.1414  0.7932
 5276SOL    HW127461   3.309   0.943  15.800  1.3083  0.7007 -0.1593
 5276SOL    HW227462   3.262   1.077  15.773  2.0297 -0.2302 -0.5293
 5277SOL     OW27463   2.511   3.894   4.551 -0.0794 -0.0248  0.0954
 5277SOL    HW127464   2.577   3.908   4.619  1.2913  0.9861 -1.4283
 5277SOL    HW227465   2.498   3.800   4.557  0.9468 -0.0965  1.2273
 5278SOL     OW27466   1.887   3.825   7.915  0.5756 -0.7167 -0.1031
 5278SOL    HW127467   1.968   3.835   7.965  0.8080  0.1274 -0.6575
 5278SOL    HW227468   1.922   3.785   7.835  0.5153 -1.4185  0.2217
 5279SOL     OW27469   2.422   0.071   0.253  0.1937 -0.3796  0.1074
 5279SOL    HW127470   2.484   0.032   0.313  2.1878  0.8294 -1.1570
 5279SOL    HW227471   2.363   0.001   0.222  0.7419  0.1135 -2.0909
 5280SOL     OW27472   3.380   0.028   4.494 -0.3281 -0.0860 -0.3483
 5280SOL    HW127473   3.416   4.718   4.418 -0.6704 -0.8470 -0.0393
 5280SOL    HW227474   3.288   0.035   4.469 -0.4008  1.3933  0.3096
 5281SOL     OW27475   4.548   2.588   6.391 -0.0888  0.6764 -0.4128
 5281SOL    HW127476   4.485   2.580   6.462  1.1821  1.5850  0.8313
 5281SOL    HW227477   4.559   2.683   6.396  1.6206  0.4249  0.6262
 5282SOL     OW27478   2.349   1.141   6.939 -0.5663 -0.0070  0.1320
 5282SOL    HW127479   2.266   1.100   6.961  0.3086 -2.3457 -0.9034
 5282SOL    HW227480   2.364   1.113   6.849  0.3706  1.7670 -0.2588
 5283SOL     OW27481   3.294   0.279   1.447  0.0985 -0.0970  0.5296
 5283SOL    HW127482   3.229   0.218   1.413  0.7699 -1.5156  1.7921
 5283SOL    HW227483   3.249   0.336   1.509  0.8845  2.7181 -1.4617
 5284SOL     OW27484   2.153   2.384  12.135  0.1628  0.1600  0.3811
 5284SOL    HW127485   2.146   2.290  12.150 -0.3329 -0.0005 -0.8326
 5284SOL    HW227486   2.147   2.426  12.220 -2.4504  1.2590 -0.3339
 5285SOL     OW27487   3.563   4.439   5.486  1.0230 -0.0382  0.0016
 5285SOL    HW127488   3.529   4.524   5.513 -1.5795 -0.5069 -1.7123
 5285SOL    HW227489   3.593   4.458   5.397  0.1614 -0.2234 -0.3359
 5286SOL     OW27490   3.965   0.670   1.742  0.3398  0.0900  0.2399
 5286SOL    HW127491   3.941   0.751   1.787 -1.0149  0.8203 -1.7931
 5286SOL    HW227492   3.933   0.603   1.803 -1.9871  0.8351 -0.1981
 5287SOL     OW27493   1.708   0.183   3.836 -0.5035 -0.5034  0.4543
 5287SOL    HW127494   1.673   0.269   3.812  0.4534  0.1489  1.4509
 5287SOL    HW227495   1.801   0.198   3.845 -0.4736  2.5758 -4.8450
 5288SOL     OW27496   1.914   4.453  14.025  0.2293  0.3456  0.3794
 5288SOL    HW127497   1.900   4.507  14.103  0.5069  0.8997  0.0509
 5288SOL    HW227498   1.881   4.507  13.954 -0.3134  1.3869  1.4198
 5289SOL     OW27499   3.325   3.585   4.398  0.7915 -0.2750 -0.0437
 5289SOL    HW127500   3.260   3.518   4.423  0.2688 -0.2436 -1.3228
 5289SOL    HW227501   3.270   3.618   4.327 -0.2907 -2.1742 -0.1026
 5290SOL     OW27502   1.135   0.957  16.760  0.3345  0.4917 -0.0756
 5290SOL    HW127503   1.103   0.968  16.671 -0.2193 -1.1730 -0.0874
 5290SOL    HW227504   1.221   0.998  16.762  0.7807 -0.5355  2.8792
 5291SOL     OW27505   4.609   3.402  13.716 -0.7918  0.3667 -0.2363
 5291SOL    HW127506   4.525   3.413  13.761 -1.6368  1.6485 -2.1575
 5291SOL    HW227507   4.612   3.475  13.654 -1.8370  0.7830  0.2008
 5292SOL     OW27508   4.729   3.722   2.650 -0.1472  0.6010  0.4000
 5292SOL    HW127509   4.660   3.739   2.585 -0.0688 -1.6445 -0.2591
 5292SOL    HW227510   0.014   3.814   2.666  0.5569  0.2941  1.1812
 5293SOL     OW27511   0.543   1.447   0.472 -0.0887 -0.1682 -0.2749
 5293SOL    HW127512   0.543   1.518   0.408  0.5482  2.5633  2.7780
 5293SOL    HW227513   0.625   1.455   0.520 -0.0925  0.9677 -0.4467
 5294SOL     OW27514   2.491   3.428   5.267  0.1704  0.0283 -0.2149
 5294SOL    HW127515   2.502   3.423   5.172  1.0512  1.5905 -0.1965
 5294SOL    HW227516   2.466   3.337   5.284  1.5276 -0.9312 -3.3684
 5295SOL     OW27517   1.998   1.784   2.291 -0.0181  0.0803 -0.2305
 5295SOL    HW127518   1.975   1.788   2.384 -0.3613 -1.8425 -0.2338
 5295SOL    HW227519   1.912   1.785   2.249 -0.1095 -3.3812 -0.1398
 5296SOL     OW27520   3.530   4.717   0.769 -0.4045 -0.1245  0.5272
 5296SOL    HW127521   3.616   4.708   0.727 -1.5270 -0.9972 -1.5929
 5296SOL    HW227522   3.476   4.682   0.698 -0.2322  2.2016 -0.7295
 5297SOL     OW27523   2.900   0.501  10.318  0.2156 -0.0344  0.3554
 5297SOL    HW127524   2.921   0.427  10.262  0.1803  0.9125 -0.9162
 5297SOL    HW227525   2.899   0.460  10.404 -0.5072  1.3984  1.0408
 5298SOL     OW27526   2.235   0.276   3.651 -0.0560  0.0893 -0.1420
 5298SOL    HW127527   2.284   0.260   3.571  0.7322 -0.0313  0.3664
 5298SOL    HW227528   2.146   0.298   3.624 -0.3715 -0.2354  0.6433
 5299SOL     OW27529   2.411   0.040   8.091  0.4196  0.4070  0.7424
 5299SOL    HW127530   2.489   0.094   8.075  0.8179 -0.4876 -0.2890
 5299SOL    HW227531   2.365   0.048   8.007 -0.9769 -1.4251  1.3433
 5300SOL     OW27532   2.294   1.786   3.397 -0.3121 -0.5207 -0.2701
 5300SOL    HW127533   2.296   1.855   3.463  0.8262 -0.7746 -0.0383
 5300SOL    HW227534   2.360   1.729   3.436 -0.3590  0.8863  1.8327
 5301SOL     OW27535   2.346   2.072   8.160 -0.2980 -0.3461  0.0610
 5301SOL    HW127536   2.417   2.009   8.162  0.7994  0.8759 -0.3423
 5301SOL    HW227537   2.376   2.142   8.102 -0.5305 -0.0002  0.3578
 5302SOL     OW27538   1.085   1.270   2.009 -0.4594 -0.3625 -0.1989
 5302SOL    HW127539   1.072   1.215   1.933 -1.3057  0.6552 -0.7927
 5302SOL    HW227540   1.101   1.200   2.072 -0.6423 -0.4710 -0.2743
 5303SOL     OW27541   0.010   1.843   7.287  0.0449 -0.0871 -0.2176
 5303SOL    HW127542   0.087   1.798   7.252 -0.5814 -1.4776  0.2055
 5303SOL    HW227543   4.688   1.836   7.212 -0.9868  2.6889  0.3172
 5304SOL     OW27544   2.800   1.283  14.455 -0.3212  0.1240 -0.4745
 5304SOL    HW127545   2.716   1.287  14.501  0.5070 -0.9982  1.1041
 5304SOL    HW227546   2.837   1.206  14.497 -1.0472  0.1172  0.1484
 5305SOL     OW27547   2.943   1.753   3.937  0.2426  0.3307  0.4430
 5305SOL    HW127548   2.911   1.702   3.863  0.5355  2.1229 -0.8944
 5305SOL    HW227549   2.982   1.688   3.997 -1.2079 -0.5500  0.4260
 5306SOL     OW27550   1.777   0.515   8.808  0.1958 -0.5741 -0.2675
 5306SOL    HW127551   1.808   0.465   8.884 -0.7449  1.0026  1.1805
 5306SOL    HW227552   1.845   0.502   8.742  1.9730 -0.4489  1.5285
 5307SOL     OW27553   0.930   3.177   9.394 -0.4811 -0.6512 -0.1805
 5307SOL    HW127554   0.862   3.242   9.408  1.0636  1.5790 -2.8607
 5307SOL    HW227555   0.880   3.096   9.394  0.0912 -1.0105 -1.5088
 5308SOL     OW27556   0.069   3.120  10.666  0.0020  0.2884 -0.0050
 5308SOL    HW127557   0.013   3.061  10.615  1.4956 -0.7255 -0.4760
 5308SOL    HW227558   0.050   3.089  10.755 -2.5589  2.2254  0.0903
 5309SOL     OW27559   2.356   1.661   3.972  0.1129  0.3104 -0.1733
 5309SOL    HW127560   2.389   1.593   4.031 -3.7712 -2.2059 -0.8876
 5309SOL    HW227561   2.263   1.640   3.969  0.1018  0.5228 -1.3762
 5310SOL     OW27562   1.333   3.956   7.019 -0.1793  0.6194 -0.1779
 5310SOL    HW127563   1.342   4.048   7.045  0.1795  0.1121  1.4788
 5310SOL    HW227564   1.360   3.908   7.097 -0.7544  0.5084 -0.0501
 5311SOL     OW27565   0.268   3.499   7.417 -0.1655 -0.0739 -0.3905
 5311SOL    HW127566   0.336   3.467   7.358  2.0731  0.7931  1.7354
 5311SOL    HW227567   0.225   3.555   7.352  1.6073  1.8113  0.0460
 5312SOL     OW27568   1.156   0.506   3.960  0.4984 -0.2738  0.1632
 5312SOL    HW127569   1.123   0.574   3.901  2.2832  0.4594 -0.0054
 5312SOL    HW227570   1.250   0.523   3.951 -0.0995  2.3277 -1.1897
 5313SOL     OW27571   4.119   0.192   8.708 -0.4374 -0.1227  0.4714
 5313SOL    HW127572   4.189   0.129   8.690 -2.0645 -2.0098  0.6672
 5313SOL    HW227573   4.148   0.275   8.669 -1.2550 -0.4817 -0.9316
 5314SOL     OW27574   1.639   3.238   8.079  0.2977  0.3442 -0.4468
 5314SOL    HW127575   1.601   3.315   8.038 -0.0060  0.3144 -0.2199
 5314SOL    HW227576   1.730   3.242   8.050  0.4231 -2.3547 -0.5117
 5315SOL     OW27577   1.514   0.813   4.837 -0.4600 -0.2347  0.2054
 5315SOL    HW127578   1.526   0.894   4.787  3.1185 -0.0882  1.2812
 5315SOL    HW227579   1.470   0.848   4.914  0.2838  0.7537  0.1805
 5316SOL     OW27580   2.064   4.721  11.678 -0.7021  0.1523  0.1828
 5316SOL    HW127581   2.099   0.045  11.613  0.1480 -2.2114 -1.5326
 5316SOL    HW227582   2.040   0.041  11.751  2.0243 -1.7568  2.5680
 5317SOL     OW27583   2.119   4.700   4.959 -0.4693 -0.5147 -0.2883
 5317SOL    HW127584   2.090   4.685   5.049  0.0578 -2.0437 -0.3595
 5317SOL    HW227585   2.098   4.619   4.913 -0.3449 -0.4340 -0.4865
 5318SOL     OW27586   1.533   0.793   3.126 -0.3973  0.1995 -0.6081
 5318SOL    HW127587   1.547   0.887   3.112  0.0219 -0.0005 -1.4614
 5318SOL    HW227588   1.442   0.792   3.095 -1.1524 -1.0197  1.6359
 5319SOL     OW27589   2.648   2.583   7.188  0.8554  0.2774  0.5549
 5319SOL    HW127590   2.736   2.546   7.198  1.4261  1.1272 -1.3966
 5319SOL    HW227591   2.615   2.546   7.271 -2.6566 -0.0347 -1.0019
 5320SOL     OW27592   4.523   0.290   1.960  0.3401 -0.1567 -0.7520
 5320SOL    HW127593   4.487   0.323   2.042  1.9151 -1.0346  0.2719
 5320SOL    HW227594   4.483   0.346   1.892  1.0080  1.7805  0.4522
 5321SOL     OW27595   0.662   0.122   3.999 -0.5701 -0.5968  0.5334
 5321SOL    HW127596   0.752   0.139   4.027 -0.1801  1.5232 -2.0350
 5321SOL    HW227597   0.625   0.100   4.085  1.7287 -0.7600  1.4660
 5322SOL     OW27598   4.315   1.204   2.661  0.9075 -0.0584 -0.0294
 5322SOL    HW127599   4.327   1.137   2.594  2.2718  0.3782 -0.2356
 5322SOL    HW227600   4.401   1.234   2.692  0.3556  0.8778  0.6023
 5323SOL     OW27601   1.735   1.859   5.442  0.0576  0.1029 -0.8789
 5323SOL    HW127602   1.666   1.795   5.422  0.1853 -0.5049  0.6888
 5323SOL    HW227603   1.735   1.896   5.353  0.6340  1.8400 -0.1537
 5324SOL     OW27604   1.738   3.938   6.747  0.0821 -0.0000 -0.4766
 5324SOL    HW127605   1.642   3.944   6.751  0.0963 -1.3534  1.8568
 5324SOL    HW227606   1.767   3.965   6.834  0.4142  0.0646 -0.6095
 5325SOL     OW27607   4.639   0.372   7.352 -0.6463 -0.2338  0.6642
 5325SOL    HW127608   4.655   0.462   7.323 -0.1072 -0.6733 -0.4020
 5325SOL    HW227609   4.571   0.384   7.419 -1.3017  2.1311 -0.4132
 5326SOL     OW27610   0.237   2.262   3.644 -0.1468  0.1842  0.2718
 5326SOL    HW127611   0.250   2.246   3.550  2.6619  0.9716  0.5338
 5326SOL    HW227612   0.171   2.331   3.644  0.3396  0.6405  0.2980
 5327SOL     OW27613   1.060   2.744   4.779  0.0462  0.4167 -0.1544
 5327SOL    HW127614   0.967   2.761   4.792  0.2705  1.1551  0.5140
 5327SOL    HW227615   1.087   2.834   4.760  1.3074  0.1793  0.5140
 5328SOL     OW27616   3.323   3.828   8.435  0.1725  0.4775 -0.3231
 5328SOL    HW127617   3.238   3.867   8.414 -0.4570 -0.0263  1.3087
 5328SOL    HW227618   3.376   3.862   8.362  1.5774  3.6300  2.1554
 5329SOL     OW27619   0.142   1.208  14.986 -0.5049  0.3701  0.0636
 5329SOL    HW127620   0.080   1.219  15.059  0.8395  2.4140  0.9061
 5329SOL    HW227621   0.131   1.115  14.970  2.5483 -0.0778  0.4981
 5330SOL     OW27622   1.023   2.992   1.064  0.1801 -0.0951  0.4930
 5330SOL    HW127623   1.039   2.916   1.121  0.4783  0.8999  1.7283
 5330SOL    HW227624   0.950   3.034   1.110  0.0094  0.7945 -0.5929
 5331SOL     OW27625   0.637   3.248   3.219 -0.1095 -0.2917  0.4884
 5331SOL    HW127626   0.595   3.319   3.171  0.3779 -0.3756 -0.0652
 5331SOL    HW227627   0.580   3.228   3.293  2.0461 -2.5964  1.5273
 5332SOL     OW27628   1.456   1.461   9.539 -0.0996  0.5620  0.1756
 5332SOL    HW127629   1.422   1.394   9.598  0.2624 -0.7194 -1.0868
 5332SOL    HW227630   1.549   1.457   9.560 -0.2611 -0.5330  0.6924
 5333SOL     OW27631   2.666   1.574   0.430 -0.2539  0.0430  0.5622
 5333SOL    HW127632   2.679   1.480   0.429 -0.6344 -0.0133  0.6050
 5333SOL    HW227633   2.696   1.598   0.517 -1.0966  0.7084  0.6772
 5334SOL     OW27634   3.466   1.964  10.965 -0.6448 -0.1844 -0.1820
 5334SOL    HW127635   3.389   1.932  10.919  0.4327 -1.1989 -1.2863
 5334SOL    HW227636   3.534   1.956  10.898 -1.4256 -2.1744 -0.7366
 5335SOL     OW27637   1.586   2.814   2.483  0.1384 -0.0582 -0.6755
 5335SOL    HW127638   1.504   2.764   2.477 -1.3004  2.1494  0.3604
 5335SOL    HW227639   1.554   2.905   2.480 -0.2435 -0.2446 -2.4262
 5336SOL     OW27640   1.517   0.134   5.488 -0.0610  0.7754  0.2026
 5336SOL    HW127641   1.456   0.074   5.445 -1.8925  1.7035  1.5086
 5336SOL    HW227642   1.536   0.199   5.421  0.7912  2.2227  1.8392
 5337SOL     OW27643   3.389   3.651   5.817  0.5627  0.2689  0.1916
 5337SOL    HW127644   3.334   3.724   5.791  1.3333  1.0168  0.6407
 5337SOL    HW227645   3.477   3.689   5.812  0.2488  0.7914 -1.1622
 5338SOL     OW27646   1.614   0.183   8.921  0.2131  0.0373 -0.3649
 5338SOL    HW127647   1.535   0.129   8.933  0.7869 -1.2461 -2.4546
 5338SOL    HW227648   1.601   0.211   8.830  2.4259  1.8608 -0.1193
 5339SOL     OW27649   0.897   3.017   5.704 -0.0325  0.0128 -0.6998
 5339SOL    HW127650   0.914   3.088   5.642  0.3772  0.8784  0.4207
 5339SOL    HW227651   0.886   3.063   5.787 -0.5408  0.5303 -1.0551
 5340SOL     OW27652   2.991   3.974   7.551  0.4491  0.2522 -0.2027
 5340SOL    HW127653   3.045   3.896   7.537  1.2995  0.8925 -0.5467
 5340SOL    HW227654   2.999   4.000   7.643 -0.6732 -1.2908  0.3229
 5341SOL     OW27655   1.309   2.897  11.198  0.2161  0.2612  0.0344
 5341SOL    HW127656   1.284   2.944  11.278 -1.8808 -0.4017 -0.2151
 5341SOL    HW227657   1.360   2.827  11.239 -1.2237  0.2337  1.8045
 5342SOL     OW27658   0.061   2.326  13.606 -0.5568  0.1102 -0.0658
 5342SOL    HW127659   0.059   2.245  13.554  0.2825 -0.9295  1.5142
 5342SOL    HW227660   4.719   2.315  13.659  0.6245  0.5895  1.7679
 5343SOL     OW27661   3.854   4.206   7.814  0.2496 -0.6866  0.4619
 5343SOL    HW127662   3.759   4.195   7.821  0.1469 -1.1815 -1.8513
 5343SOL    HW227663   3.879   4.285   7.862 -3.1204 -0.4478  1.8453
 5344SOL     OW27664   0.896   0.624   6.414 -0.3204  0.3996 -0.2108
 5344SOL    HW127665   0.896   0.656   6.504 -2.2250  1.1982 -0.4801
 5344SOL    HW227666   0.840   0.690   6.372 -0.3129  0.9589  0.6523
 5345SOL     OW27667   4.473   3.582  13.539  0.8889  0.0794  0.1488
 5345SOL    HW127668   4.515   3.544  13.462  1.0269  3.8495 -1.6332
 5345SOL    HW227669   4.388   3.590  13.496  0.5559  0.2432  0.8363
 5346SOL     OW27670   3.239   0.092  11.401 -0.7893  0.2615 -0.4562
 5346SOL    HW127671   3.164   0.081  11.342 -1.9641  1.0709  0.9054
 5346SOL    HW227672   3.296   0.026  11.361 -0.5536 -1.0291  2.0047
 5347SOL     OW27673   2.075   4.186   2.570  0.1314 -0.1004  0.0409
 5347SOL    HW127674   2.137   4.159   2.638 -0.6330 -0.0430  0.7621
 5347SOL    HW227675   2.138   4.220   2.506 -1.1259 -1.1895 -1.7827
 5348SOL     OW27676   0.981   0.084   3.993  0.4035  0.1422  0.6075
 5348SOL    HW127677   0.937   0.091   3.908 -0.7483 -1.6383  1.0471
 5348SOL    HW227678   1.019   4.733   3.986  0.5983  0.2778 -0.0455
 5349SOL     OW27679   1.016   2.210   3.171  0.0195  0.4397 -0.6115
 5349SOL    HW127680   0.946   2.149   3.148 -2.0933  1.5361  2.8625
 5349SOL    HW227681   1.078   2.173   3.109  1.3887  0.0776  0.9689
 5350SOL     OW27682   3.628   1.793  17.500  0.2886 -0.0242  0.1425
 5350SOL    HW127683   3.606   1.740  17.424  2.0264  0.3141 -0.5792
 5350SOL    HW227684   3.611   1.732  17.572 -2.7267 -0.1708 -0.6843
 5351SOL     OW27685   2.558   1.838  13.832 -0.4300 -0.1053 -0.1804
 5351SOL    HW127686   2.586   1.758  13.788  0.8476 -0.2298  0.8422
 5351SOL    HW227687   2.470   1.837  13.795  0.3851 -0.3496 -2.0820
 5352SOL     OW27688   1.453   4.511   9.135  0.1415 -0.0594  0.0842
 5352SOL    HW127689   1.456   4.529   9.041  0.6447 -1.5644 -0.1956
 5352SOL    HW227690   1.541   4.473   9.145 -0.4307 -1.0099  1.5121
 5353SOL     OW27691   4.113   1.929   8.570  0.0933 -0.2458  0.2151
 5353SOL    HW127692   4.152   1.872   8.637  0.0529  0.9893  1.2801
 5353SOL    HW227693   4.053   1.982   8.622 -1.1768 -1.3284 -0.1538
 5354SOL     OW27694   3.199   1.586   1.862  0.8184 -0.1397  0.7017
 5354SOL    HW127695   3.155   1.517   1.911  0.4790  1.2009  2.2878
 5354SOL    HW227696   3.190   1.560   1.771  0.6267 -0.5401  0.8339
 5355SOL     OW27697   2.955   1.024   4.046  0.0163 -0.1419 -0.1330
 5355SOL    HW127698   3.044   1.032   4.013 -0.0566  0.9652 -0.0549
 5355SOL    HW227699   2.976   1.050   4.135 -1.8373  1.4679 -0.1844
 5356SOL     OW27700   0.954   0.631   5.401 -0.1019 -0.4154  0.3281
 5356SOL    HW127701   1.020   0.637   5.332  0.0540 -1.1604  0.4167
 5356SOL    HW227702   0.999   0.594   5.478  0.6996  1.3128  0.6891
 5357SOL     OW27703   2.092   1.347   3.432 -0.6059  0.3635  0.0290
 5357SOL    HW127704   2.151   1.402   3.484  1.0932 -0.8834 -0.5814
 5357SOL    HW227705   2.013   1.350   3.485  0.3536 -1.1093  1.5273
 5358SOL     OW27706   4.286   0.249   5.493  0.1331  0.2484 -0.2513
 5358SOL    HW127707   4.206   0.205   5.462 -0.6729  0.6604  1.2572
 5358SOL    HW227708   4.264   0.341   5.483 -0.1572 -0.1295 -3.2490
 5359SOL     OW27709   0.830   2.820   8.264 -0.2287 -0.1088  0.5380
 5359SOL    HW127710   0.909   2.777   8.231  0.0418  0.2196  0.7608
 5359SOL    HW227711   0.868   2.886   8.322 -0.1954  0.4725 -0.1561
 5360SOL     OW27712   2.728   2.699   0.147  0.4977 -0.3923 -0.0888
 5360SOL    HW127713   2.721   2.774   0.088 -1.1643 -0.0120  0.6166
 5360SOL    HW227714   2.748   2.732   0.235  0.3923  0.9322 -0.5772
 5361SOL     OW27715   0.146   3.309   0.949  0.1333  0.2520 -0.1363
 5361SOL    HW127716   0.124   3.401   0.935 -1.0024 -0.2077 -1.3470
 5361SOL    HW227717   0.184   3.318   1.036 -0.3260  0.5723  0.0333
 5362SOL     OW27718   3.961   0.698   0.621 -0.4551  0.4086 -0.2101
 5362SOL    HW127719   4.049   0.662   0.622 -0.8703 -0.6150 -0.3180
 5362SOL    HW227720   3.914   0.623   0.583 -0.8609 -0.1657  1.4270
 5363SOL     OW27721   1.931   4.358  10.355 -0.3888  0.6050 -0.0695
 5363SOL    HW127722   1.918   4.289  10.420 -1.1032 -2.5009 -3.4460
 5363SOL    HW227723   2.024   4.375  10.340 -0.2397  1.0155  1.4054
 5364SOL     OW27724   4.614   1.019  11.954 -0.0945 -0.5299  0.1282
 5364SOL    HW127725   4.624   1.070  12.034  1.3574  0.9721 -1.0151
 5364SOL    HW227726   4.519   1.027  11.951  0.1964  2.8778  0.4703
 5365SOL     OW27727   1.553   0.189   8.058 -0.4420 -0.3530  0.3911
 5365SOL    HW127728   1.564   0.281   8.085 -1.5049 -0.2140  0.3618
 5365SOL    HW227729   1.495   0.161   8.129  1.4143 -2.2520  1.1705
 5366SOL     OW27730   2.250   2.988   5.343  0.1114 -0.3505 -0.0427
 5366SOL    HW127731   2.226   2.981   5.435 -1.9444  0.1644 -0.5548
 5366SOL    HW227732   2.263   2.896   5.319 -5.3708 -0.5172 -2.4024
 5367SOL     OW27733   2.687   0.041   2.189 -0.0788  0.2310  0.0657
 5367SOL    HW127734   2.687   4.711   2.120  1.0732  1.3775 -1.0431
 5367SOL    HW227735   2.657   0.120   2.143 -1.2354 -0.0668  0.3003
 5368SOL     OW27736   4.131   0.592   1.039 -0.2548  0.2438  0.3402
 5368SOL    HW127737   4.160   0.568   1.128  2.9908  0.5889 -0.6234
 5368SOL    HW227738   4.122   0.687   1.049 -0.9203  0.0774  1.4029
 5369SOL     OW27739   3.754   3.256   4.189 -0.4033  0.3324  0.5253
 5369SOL    HW127740   3.773   3.164   4.209 -0.3733  0.8123  2.6508
 5369SOL    HW227741   3.663   3.245   4.163 -0.2643 -3.2713  1.5301
 5370SOL     OW27742   0.332   2.175   2.269  0.1105 -0.6696 -0.1375
 5370SOL    HW127743   0.401   2.234   2.239  1.4700 -1.3026  1.7840
 5370SOL    HW227744   0.255   2.231   2.259 -0.6384 -2.0113 -1.9840
 5371SOL     OW27745   0.586   4.313  13.534 -0.6136  1.0979 -0.2866
 5371SOL    HW127746   0.538   4.332  13.453 -1.6872  1.4820  0.4339
 5371SOL    HW227747   0.569   4.219  13.536  0.3982  0.9199  0.0896
 5372SOL     OW27748   4.404   2.583   6.068 -0.1660 -0.2526  0.3014
 5372SOL    HW127749   4.382   2.628   6.149  0.4921  3.0455 -1.3488
 5372SOL    HW227750   4.321   2.536   6.057  0.5290 -1.7216  1.3548
 5373SOL     OW27751   2.804   1.068   6.333 -0.7487 -0.1235 -0.3898
 5373SOL    HW127752   2.866   1.075   6.261  0.0808 -1.4507  0.1949
 5373SOL    HW227753   2.721   1.075   6.286  0.2813 -0.8594 -2.3029
 5374SOL     OW27754   3.193   3.388   8.555  0.1136  0.5575  0.1507
 5374SOL    HW127755   3.236   3.473   8.564  0.8525  0.3560 -1.4320
 5374SOL    HW227756   3.106   3.399   8.595  0.0085 -0.9964  0.3401
 5375SOL     OW27757   0.628   0.820   6.883  0.2507  0.4205  0.0354
 5375SOL    HW127758   0.560   0.831   6.950  2.3474 -0.5602  2.3472
 5375SOL    HW227759   0.697   0.785   6.940 -0.1222  0.3361  0.4344
 5376SOL     OW27760   0.564   1.686   4.596  0.0211 -0.3969 -0.1296
 5376SOL    HW127761   0.550   1.760   4.655  1.9065 -0.7412  0.7525
 5376SOL    HW227762   0.629   1.640   4.649 -1.7154 -2.0635  0.5612
 5377SOL     OW27763   3.304   0.664   6.312 -0.4264  0.1087 -0.2461
 5377SOL    HW127764   3.320   0.688   6.403  1.3917 -1.2409 -0.2267
 5377SOL    HW227765   3.211   0.684   6.300  0.1942  0.5726 -4.4488
 5378SOL     OW27766   4.248   3.910   8.715  0.7914 -0.0038  0.4086
 5378SOL    HW127767   4.255   4.002   8.737  1.3010  0.0660 -0.0347
 5378SOL    HW227768   4.233   3.911   8.620  0.3397  1.3028  0.5072
 5379SOL     OW27769   1.538   3.809   1.184 -0.1244  0.2312  0.7353
 5379SOL    HW127770   1.616   3.858   1.208  1.0968 -1.7977  0.9153
 5379SOL    HW227771   1.584   3.741   1.135 -1.3964 -0.1795  0.0890
 5380SOL     OW27772   3.177   2.528   2.197 -0.1792 -0.2816 -0.0374
 5380SOL    HW127773   3.134   2.578   2.128 -0.3311  1.2432  1.1714
 5380SOL    HW227774   3.226   2.463   2.146 -2.6537 -1.9926 -0.2518
 5381SOL     OW27775   3.839   3.012   3.755 -0.0526 -0.0239  0.3204
 5381SOL    HW127776   3.768   2.965   3.711 -0.3273 -1.0827  1.9125
 5381SOL    HW227777   3.785   3.079   3.797  0.4815 -0.2545  1.3705
 5382SOL     OW27778   3.103   4.454   7.275  0.6712 -0.6400 -0.1708
 5382SOL    HW127779   3.190   4.457   7.313  0.7853  0.9290 -0.5334
 5382SOL    HW227780   3.070   4.366   7.291 -0.2127 -0.3948 -0.6609
 5383SOL     OW27781   4.002   0.512  12.315 -0.0677  0.6262  0.0176
 5383SOL    HW127782   4.009   0.417  12.308  1.2850  0.8263 -1.4401
 5383SOL    HW227783   3.979   0.535  12.405  0.3009 -1.6177  0.6855
 5384SOL     OW27784   1.964   2.755   1.293  0.1155 -0.0440 -0.5023
 5384SOL    HW127785   1.951   2.680   1.351  0.3369  0.3649  0.0694
 5384SOL    HW227786   1.937   2.711   1.212  1.2697 -1.4336 -0.1238
 5385SOL     OW27787   1.576   0.128   3.196  0.1344 -0.0258  0.3428
 5385SOL    HW127788   1.613   0.136   3.108 -3.9111 -0.4980 -1.3701
 5385SOL    HW227789   1.481   0.135   3.184  0.0599  1.0567  1.6041
 5386SOL     OW27790   2.830   3.482   5.846 -0.1321 -0.2314 -0.3756
 5386SOL    HW127791   2.868   3.508   5.930  2.4985 -1.9492 -1.0102
 5386SOL    HW227792   2.909   3.479   5.792 -0.4458 -0.3101 -0.8297
 5387SOL     OW27793   3.539   0.999   6.583 -0.5906 -0.2317  0.1958
 5387SOL    HW127794   3.623   1.035   6.612  0.1880 -2.9712  1.3946
 5387SOL    HW227795   3.517   1.069   6.521  0.3118  2.0800  2.5089
 5388SOL     OW27796   4.076   4.098   3.340 -0.5495 -0.4301 -0.3150
 5388SOL    HW127797   4.147   4.103   3.404  0.0707 -2.1608 -0.8749
 5388SOL    HW227798   4.114   4.049   3.267  0.4995 -0.9073  0.5402
 5389SOL     OW27799   2.409   4.368  14.476  0.1483 -0.0496  0.0703
 5389SOL    HW127800   2.429   4.318  14.397 -0.4078  1.3404 -0.9513
 5389SOL    HW227801   2.414   4.458  14.445  3.1281 -0.4058 -0.5023
 5390SOL     OW27802   3.450   4.489   5.791  0.2660 -0.2187  0.4036
 5390SOL    HW127803   3.523   4.551   5.793 -0.6380  0.9026 -1.0963
 5390SOL    HW227804   3.399   4.533   5.859 -0.0988  0.6823 -0.4550
 5391SOL     OW27805   0.176   3.274   3.806  0.3574  0.7018 -0.4662
 5391SOL    HW127806   0.175   3.266   3.902 -0.5827  0.0959 -0.5256
 5391SOL    HW227807   0.268   3.297   3.793  0.7988 -0.7430  0.1320
 5392SOL     OW27808   2.268   0.465   3.904 -0.0025 -0.5134 -0.0024
 5392SOL    HW127809   2.236   0.395   3.846  2.0826  0.5977 -2.5011
 5392SOL    HW227810   2.251   0.540   3.848 -1.3506 -0.8517 -0.0471
 5393SOL     OW27811   1.592   3.846  10.247  0.5098 -0.4004 -0.0135
 5393SOL    HW127812   1.626   3.933  10.267 -2.2200  0.9575 -1.2865
 5393SOL    HW227813   1.666   3.793  10.277  0.5087 -0.1491  0.4324
 5394SOL     OW27814   0.715   2.033   4.633  0.0665 -0.4927  0.6339
 5394SOL    HW127815   0.671   2.114   4.660 -2.6992 -1.2468 -1.5481
 5394SOL    HW227816   0.667   1.963   4.677 -2.3554  0.2678 -0.7981
 5395SOL     OW27817   2.292   0.839   2.282 -0.7343 -0.0012 -0.1481
 5395SOL    HW127818   2.207   0.815   2.245 -1.3916  1.3449  0.5043
 5395SOL    HW227819   2.282   0.819   2.375 -0.3234 -1.2211 -0.3649
 5396SOL     OW27820   1.980   1.410  17.315  0.0777 -0.5526  0.5459
 5396SOL    HW127821   1.906   1.434  17.259 -0.9754 -0.4839  1.9789
 5396SOL    HW227822   1.964   1.462  17.393  0.8871 -0.5548  0.7095
 5397SOL     OW27823   0.957   0.264   1.838  0.1642  0.1650 -0.1945
 5397SOL    HW127824   0.977   0.171   1.853 -0.3468  0.2716  1.1985
 5397SOL    HW227825   0.862   0.261   1.849  0.2700  1.9340  1.1852
 5398SOL     OW27826   2.088   1.214   0.499  0.7004 -0.4734  0.0022
 5398SOL    HW127827   2.177   1.187   0.477  0.7755  1.0715 -1.5669
 5398SOL    HW227828   2.105   1.302   0.532  2.0223 -0.0974 -1.6989
 5399SOL     OW27829   1.944   1.559   9.792  0.5120 -0.1304  0.3503
 5399SOL    HW127830   1.995   1.590   9.866 -0.0609  1.5283  0.0399
 5399SOL    HW227831   1.997   1.485   9.762  1.5051  0.8889 -0.4497
 5400SOL     OW27832   4.502   0.988   6.423 -0.7426 -0.2047 -0.8313
 5400SOL    HW127833   4.461   0.904   6.402 -0.8781 -0.6680  1.2495
 5400SOL    HW227834   4.569   1.000   6.356  1.3041 -2.8012  0.7732
 5401SOL     OW27835   2.134   2.659   4.674 -0.0737 -0.2872  0.3467
 5401SOL    HW127836   2.054   2.698   4.707  0.9949  3.5025 -1.5153
 5401SOL    HW227837   2.122   2.574   4.715 -0.0579  0.4998  1.9990
 5402SOL     OW27838   4.346   3.201   4.207 -0.4812 -0.1872  0.1094
 5402SOL    HW127839   4.331   3.191   4.301 -1.2997 -0.9349 -0.0902
 5402SOL    HW227840   4.258   3.223   4.177 -0.4967  0.2178  0.4599
 5403SOL     OW27841   4.247   1.733  17.700  0.1267  0.0699 -0.5212
 5403SOL    HW127842   4.250   1.641  17.674  0.4048  0.3888 -1.6187
 5403SOL    HW227843   4.165   1.735   0.004  1.3068  1.3171  1.3634
 5404SOL     OW27844   4.714   4.360  11.842 -0.2998 -0.3858 -0.3479
 5404SOL    HW127845   4.671   4.374  11.927  1.0164 -1.3006  0.4723
 5404SOL    HW227846   4.658   4.415  11.788 -0.8391 -0.0270  0.5622
 5405SOL     OW27847   0.392   3.437   4.468  0.3543  0.0051  0.2461
 5405SOL    HW127848   0.371   3.365   4.408  0.0256 -0.8654  1.3898
 5405SOL    HW227849   0.463   3.389   4.511  0.8819  1.7252  1.3004
 5406SOL     OW27850   4.271   4.735   1.984  0.4459  0.2833 -1.1029
 5406SOL    HW127851   4.347   4.722   1.928 -0.0198  1.5043 -2.0224
 5406SOL    HW227852   4.199   4.727   1.922 -0.4363 -1.7993  0.1919
 5407SOL     OW27853   1.788   2.717   1.832  0.1199  0.3165 -0.1974
 5407SOL    HW127854   1.777   2.719   1.737  2.0289 -0.4962 -0.4261
 5407SOL    HW227855   1.751   2.630   1.851  0.2006  0.2112 -0.5261
 5408SOL     OW27856   3.723   2.774   7.871 -0.0428 -0.0277 -0.1941
 5408SOL    HW127857   3.777   2.696   7.857  0.0312 -0.2695  1.3848
 5408SOL    HW227858   3.685   2.790   7.785 -0.0143  0.1916 -0.1639
 5409SOL     OW27859   1.396   0.743   2.749  0.1542  0.3210  0.2489
 5409SOL    HW127860   1.468   0.783   2.700  0.3920 -0.3507  0.0452
 5409SOL    HW227861   1.334   0.751   2.676  1.5160  0.7850 -0.8413
 5410SOL     OW27862   4.638   4.015   3.926  0.3255 -0.0299  0.1971
 5410SOL    HW127863   4.615   3.928   3.960 -0.5426  0.1040 -0.0651
 5410SOL    HW227864   4.573   4.030   3.857 -0.8412 -3.2495  0.5670
 5411SOL     OW27865   3.594   3.754   7.982 -0.5856 -0.0754  0.3546
 5411SOL    HW127866   3.537   3.819   8.023  1.9493  1.7804  0.9223
 5411SOL    HW227867   3.625   3.790   7.899  0.8346 -0.6772  0.6260
 5412SOL     OW27868   0.879   3.193   1.296  0.4037 -0.8086  0.1617
 5412SOL    HW127869   0.877   3.264   1.360 -2.3444 -0.8772  0.1544
 5412SOL    HW227870   0.868   3.127   1.364  1.3238 -0.7429  0.3804
 5413SOL     OW27871   0.869   4.412   6.181 -0.2937  0.8029  0.0513
 5413SOL    HW127872   0.936   4.478   6.195  2.9038 -2.6010  0.9039
 5413SOL    HW227873   0.795   4.456   6.222 -0.6257  1.3634 -1.1468
 5414SOL     OW27874   0.689   1.627   8.446  0.1064  0.5733  0.5248
 5414SOL    HW127875   0.704   1.609   8.353  0.3256  0.6477  0.5455
 5414SOL    HW227876   0.768   1.677   8.467 -0.0318  1.4242 -0.9761
 5415SOL     OW27877   3.861   1.369   8.783  0.2288 -0.0649 -0.5287
 5415SOL    HW127878   3.907   1.374   8.700  0.3065  1.4372 -0.3933
 5415SOL    HW227879   3.920   1.430   8.827 -0.4944  0.0458  0.3004
 5416SOL     OW27880   0.214   0.301   3.817  0.5373 -0.0650 -0.4324
 5416SOL    HW127881   0.122   0.289   3.837 -0.0174  0.2186 -2.8350
 5416SOL    HW227882   0.254   0.261   3.894 -0.0405 -1.2775 -0.7560
 5417SOL     OW27883   4.240   3.163   5.293  0.3375 -0.1470  0.4236
 5417SOL    HW127884   4.313   3.223   5.279  1.4002 -0.9997  2.2033
 5417SOL    HW227885   4.286   3.107   5.356  2.0176  0.5968 -0.1432
 5418SOL     OW27886   0.540   1.646   9.348 -0.0819 -0.3673 -0.1996
 5418SOL    HW127887   0.495   1.673   9.427  0.9690  1.0143 -0.0768
 5418SOL    HW227888   0.466   1.628   9.291 -1.1327  1.3921  0.6148
 5419SOL     OW27889   3.212   1.151  16.257  0.0347 -0.0271 -0.0191
 5419SOL    HW127890   3.203   1.208  16.180  1.2368 -0.8840 -0.7801
 5419SOL    HW227891   3.274   1.199  16.312 -0.3927  0.0604  0.3920
 5420SOL     OW27892   4.687   3.821   9.244 -0.4841 -0.1606 -0.4839
 5420SOL    HW127893   4.662   3.796   9.155  0.1766 -2.6081  0.0227
 5420SOL    HW227894   4.657   3.742   9.288 -0.0327  0.9160  1.7388
 5421SOL     OW27895   0.050   2.821   6.697 -0.3637 -0.0304  0.5446
 5421SOL    HW127896   0.071   2.759   6.627  0.2062 -0.2596  0.9168
 5421SOL    HW227897   0.015   2.897   6.650  0.3882 -0.9851 -1.5686
 5422SOL     OW27898   4.384   0.377   8.449  0.7747 -0.2871  0.2697
 5422SOL    HW127899   4.415   0.298   8.493  0.8332 -0.8047 -0.7044
 5422SOL    HW227900   4.450   0.432   8.490 -2.7733  2.3778  2.4718
 5423SOL     OW27901   1.695   3.270   7.426  0.1937 -0.3281 -0.4881
 5423SOL    HW127902   1.646   3.325   7.487 -0.8333  1.7944 -3.2015
 5423SOL    HW227903   1.691   3.191   7.480  0.8961 -0.5140 -0.7104
 5424SOL     OW27904   3.316   4.234   7.399 -0.3877 -0.2499  0.1830
 5424SOL    HW127905   3.264   4.251   7.478  0.2820  3.0118 -0.0608
 5424SOL    HW227906   3.376   4.309   7.393 -1.2256  0.5027  1.0435
 5425SOL     OW27907   0.903   2.107   6.578  0.2465 -0.7071 -0.3735
 5425SOL    HW127908   0.901   2.089   6.672 -1.2554 -1.9325 -0.6441
 5425SOL    HW227909   0.811   2.097   6.556 -0.4002  0.6443  1.7166
 5426SOL     OW27910   3.541   1.461   4.642  0.9370  0.0014  0.5642
 5426SOL    HW127911   3.490   1.475   4.722  1.8870  0.4649  1.0972
 5426SOL    HW227912   3.630   1.449   4.674  0.5568 -0.0262  1.6071
 5427SOL     OW27913   1.964   1.768  16.051 -0.0399  0.4424  0.1224
 5427SOL    HW127914   1.875   1.745  16.079  0.0460 -0.3760 -0.2853
 5427SOL    HW227915   1.940   1.861  16.049 -2.1952 -0.1014  0.7112
 5428SOL     OW27916   3.645   0.720   3.044  0.0371  0.2696  0.5062
 5428SOL    HW127917   3.616   0.811   3.040 -3.0769 -0.7445 -0.3777
 5428SOL    HW227918   3.740   0.731   3.044  0.0995 -0.2036 -1.3394
 5429SOL     OW27919   0.627   4.051   2.182 -0.1382  0.1082 -0.1589
 5429SOL    HW127920   0.596   4.081   2.097 -2.0535  2.7059  1.4403
 5429SOL    HW227921   0.697   4.114   2.192 -0.0785 -0.3700  2.4535
 5430SOL     OW27922   2.116   0.116   5.517  0.0133 -0.0764  0.3612
 5430SOL    HW127923   2.116   0.167   5.598 -3.0913 -1.3499  1.1599
 5430SOL    HW227924   2.024   0.130   5.495 -0.2309  0.6744  1.8830
 5431SOL     OW27925   0.479   3.957  11.649 -0.6488 -0.1528 -0.5305
 5431SOL    HW127926   0.560   3.992  11.688 -0.7450 -1.1476  0.5259
 5431SOL    HW227927   0.439   3.904  11.717  1.7471 -2.0303 -0.5803
 5432SOL     OW27928   0.823   1.330   2.148 -0.3048  0.1656  0.0324
 5432SOL    HW127929   0.885   1.306   2.079 -1.6991 -1.2886 -0.7301
 5432SOL    HW227930   0.792   1.240   2.159 -1.6309  0.5444 -0.6539
 5433SOL     OW27931   3.351   2.141  15.132  0.0861  0.6955  0.1222
 5433SOL    HW127932   3.353   2.066  15.192 -0.4510  1.0673  0.6045
 5433SOL    HW227933   3.310   2.205  15.191 -3.3562  0.7791 -2.4046
 5434SOL     OW27934   1.170   1.813   7.680 -0.6122 -0.7492  0.2483
 5434SOL    HW127935   1.083   1.776   7.694 -1.1862  0.5230  0.0107
 5434SOL    HW227936   1.157   1.873   7.607  0.1734 -0.5185  0.2977
 5435SOL     OW27937   3.322   0.535  17.556 -0.0946  0.4715  0.2786
 5435SOL    HW127938   3.248   0.475  17.545 -0.9039  1.3356  1.0627
 5435SOL    HW227939   3.401   0.487  17.579 -0.4319 -0.1664  0.1093
 5436SOL     OW27940   1.170   2.651   7.276 -0.6740  0.5035 -0.4390
 5436SOL    HW127941   1.193   2.737   7.240  0.6356  0.4862  0.3344
 5436SOL    HW227942   1.246   2.633   7.332  1.2760  0.4477 -3.1226
 5437SOL     OW27943   2.396   1.462   5.897 -0.3765 -0.4480  0.1782
 5437SOL    HW127944   2.393   1.485   5.804  1.9220 -0.6706  0.0415
 5437SOL    HW227945   2.335   1.524   5.938 -1.7871 -2.6567  1.4136
 5438SOL     OW27946   1.846   4.482   3.512 -1.0072  0.0668  0.2487
 5438SOL    HW127947   1.845   4.538   3.590 -1.6830 -2.2677  1.9240
 5438SOL    HW227948   1.891   4.531   3.443 -0.6341 -0.8712 -0.1723
 5439SOL     OW27949   3.552   0.608  14.620  0.3871 -0.3351  0.1102
 5439SOL    HW127950   3.526   0.517  14.633  0.0460 -0.3487 -0.6433
 5439SOL    HW227951   3.521   0.642  14.704 -1.0804 -2.5154  0.4420
 5440SOL     OW27952   3.492   1.701   1.356 -0.3014 -0.5192 -0.3008
 5440SOL    HW127953   3.407   1.658   1.354 -0.4938 -0.1403 -0.2842
 5440SOL    HW227954   3.459   1.787   1.381  2.6820  0.0025  1.8642
 5441SOL     OW27955   1.660   0.178   2.176 -0.1052 -0.1650  0.3312
 5441SOL    HW127956   1.721   0.151   2.245  0.7374  2.2459  0.5202
 5441SOL    HW227957   1.611   0.096   2.178 -4.0408  2.2405  1.3314
 5442SOL     OW27958   3.062   4.533  14.063  0.8307 -0.1777 -0.2399
 5442SOL    HW127959   3.106   4.523  13.979  0.1198  2.0111 -0.8768
 5442SOL    HW227960   3.013   4.615  14.053  0.1885 -0.5597 -0.2396
 5443SOL     OW27961   3.498   4.608   9.106 -0.1575  0.2421 -0.1488
 5443SOL    HW127962   3.450   4.648   9.179  0.1298  0.2726  0.0224
 5443SOL    HW227963   3.564   4.555   9.149 -0.4548 -0.4121 -0.5018
 5444SOL     OW27964   2.765   1.474  13.294 -0.3864 -0.3459 -0.8912
 5444SOL    HW127965   2.830   1.473  13.223 -0.8795 -1.3688 -1.3401
 5444SOL    HW227966   2.815   1.441  13.368  1.0467  0.3986 -1.5345
 5445SOL     OW27967   1.692   3.251   3.697  0.0959  0.6136  0.0129
 5445SOL    HW127968   1.669   3.317   3.762 -0.8032  0.6979 -0.3932
 5445SOL    HW227969   1.745   3.197   3.756  2.3978  1.0760 -1.6636
 5446SOL     OW27970   3.855   3.847   5.338  0.3046 -0.2579 -0.1072
 5446SOL    HW127971   3.852   3.772   5.280  0.6447  0.6113 -1.2532
 5446SOL    HW227972   3.773   3.892   5.317  1.5004  0.9348 -2.1754
 5447SOL     OW27973   1.884   3.642   1.387 -0.0735  0.1335 -0.0736
 5447SOL    HW127974   1.976   3.636   1.411 -0.0381  1.2805  0.0443
 5447SOL    HW227975   1.855   3.660   1.476  0.8769 -0.7401  0.4146
 5448SOL     OW27976   4.249   3.152  13.151 -0.7314 -0.3644  0.0534
 5448SOL    HW127977   4.191   3.079  13.130  0.1248 -0.9007 -0.4568
 5448SOL    HW227978   4.213   3.184  13.233  2.0571  1.8797  0.4089
 5449SOL     OW27979   0.127   1.584   5.949  0.1039 -0.0460 -0.0534
 5449SOL    HW127980   0.068   1.523   5.904  0.1380 -0.8739  1.0083
 5449SOL    HW227981   0.074   1.613   6.024  1.1915  0.4369  0.5184
 5450SOL     OW27982   1.215   1.582  11.552  0.7090  0.2215 -0.5460
 5450SOL    HW127983   1.299   1.600  11.508  1.4535  0.6650  1.0657
 5450SOL    HW227984   1.223   1.637  11.630 -0.5563 -0.0071 -0.2650
 5451SOL     OW27985   2.239   3.543   2.380 -0.1654  0.1492 -0.0661
 5451SOL    HW127986   2.171   3.577   2.438 -0.9190  0.7366 -1.2761
 5451SOL    HW227987   2.284   3.623   2.351 -1.7783  1.4835  1.1303
 5452SOL     OW27988   2.112   0.944   7.564  0.4169  0.7174 -0.0200
 5452SOL    HW127989   2.113   0.890   7.643  0.3649 -0.5422 -0.8842
 5452SOL    HW227990   2.150   1.027   7.594 -0.6568  0.2238  2.6437
 5453SOL     OW27991   0.703   4.552   6.776 -0.5983 -0.4456 -0.0320
 5453SOL    HW127992   0.677   4.583   6.863  2.0299  1.1913  0.1734
 5453SOL    HW227993   0.798   4.541   6.777 -0.5414  0.2301  2.4347
 5454SOL     OW27994   1.416   4.729   4.577  0.5562  0.1898  0.6349
 5454SOL    HW127995   1.409   0.088   4.572 -1.5338 -0.0054 -0.1949
 5454SOL    HW227996   1.330   4.718   4.619  0.1995 -2.0994 -0.6697
 5455SOL     OW27997   4.517   1.294   9.950 -0.1071 -0.0250 -0.1486
 5455SOL    HW127998   4.508   1.253  10.036  0.7721  1.6785  0.7560
 5455SOL    HW227999   4.427   1.292   9.919 -0.5459  2.5491  0.9436
 5456SOL     OW28000   1.235   0.332   4.985 -0.1002  0.1920 -0.2908
 5456SOL    HW128001   1.142   0.320   5.005  0.3763 -0.8438  1.3233
 5456SOL    HW228002   1.246   0.422   5.018 -0.0633 -0.1626  0.6686
 5457SOL     OW28003   3.155   3.585   7.973  0.8199 -0.1982 -0.8242
 5457SOL    HW128004   3.222   3.517   7.964  0.0137 -1.1415  0.4712
 5457SOL    HW228005   3.117   3.575   8.060 -0.2766 -2.7156 -1.6070
 5458SOL     OW28006   2.181   3.779   8.165  0.1345  0.1018 -0.0247
 5458SOL    HW128007   2.237   3.850   8.134 -1.1629  0.1648 -2.1808
 5458SOL    HW228008   2.224   3.701   8.129  0.5555  0.6008 -0.6086
 5459SOL     OW28009   1.024   1.940  12.078 -0.2782  0.7755 -0.6116
 5459SOL    HW128010   0.969   2.011  12.046  0.5869  1.5642 -0.3320
 5459SOL    HW228011   1.075   1.932  11.997 -0.6045 -2.3370 -0.5460
 5460SOL     OW28012   4.627   2.565   7.795 -0.1260  0.5878  0.5579
 5460SOL    HW128013   4.668   2.509   7.861  2.2385  1.9948  0.2911
 5460SOL    HW228014   4.548   2.516   7.771  1.7546 -3.0876  1.8411
 5461SOL     OW28015   4.511   2.853   7.573  0.8163  0.5379 -0.0140
 5461SOL    HW128016   4.430   2.825   7.530  0.9394 -0.3766  0.3564
 5461SOL    HW228017   4.477   2.899   7.649 -0.2788 -0.0858 -0.1163
 5462SOL     OW28018   2.441   1.639   2.946 -0.1656  0.0939 -0.1015
 5462SOL    HW128019   2.513   1.699   2.964 -2.4665  2.8781 -0.2701
 5462SOL    HW228020   2.377   1.688   2.997  0.6239 -0.5868  1.5478
 5463SOL     OW28021   4.373   2.178   4.254 -0.5868  0.3007  0.4767
 5463SOL    HW128022   4.304   2.201   4.316  0.8731  1.6677  1.6034
 5463SOL    HW228023   4.317   2.116   4.207  0.5754 -0.0946 -0.4032
 5464SOL     OW28024   2.360   4.509   4.580  0.1501 -0.0595  0.0093
 5464SOL    HW128025   2.330   4.510   4.489 -1.6848 -0.4345  0.6153
 5464SOL    HW228026   2.388   4.599   4.596  1.7738 -0.4886 -0.4287
 5465SOL     OW28027   3.815   0.896  10.023  0.4703 -0.3422 -0.2251
 5465SOL    HW128028   3.774   0.810  10.035 -0.0253 -0.2723 -1.3981
 5465SOL    HW228029   3.893   0.880  10.076 -2.1492 -2.5545  2.8941
 5466SOL     OW28030   3.636   0.497   7.485 -0.2482  0.3376  0.2227
 5466SOL    HW128031   3.554   0.526   7.446  0.0905  1.4210  0.3229
 5466SOL    HW228032   3.702   0.545   7.434  0.6714 -0.3536  0.7454
 5467SOL     OW28033   2.257   2.423   2.269  0.0421 -0.0242  0.2302
 5467SOL    HW128034   2.268   2.427   2.174 -0.6282 -0.5515  0.1299
 5467SOL    HW228035   2.222   2.334   2.276  1.9926 -0.7019  1.7227
 5468SOL     OW28036   2.118   3.345  16.067  0.5513  0.1784  0.2442
 5468SOL    HW128037   2.079   3.377  15.986 -0.6956  0.5113  0.9725
 5468SOL    HW228038   2.203   3.387  16.056 -0.1900  1.4662 -0.4709
 5469SOL     OW28039   3.501   4.175   5.554 -0.5628 -0.4369  0.1862
 5469SOL    HW128040   3.440   4.139   5.490 -1.9588 -0.6284  1.6129
 5469SOL    HW228041   3.473   4.266   5.548 -1.2586 -0.6879 -0.3235
 5470SOL     OW28042   4.571   3.369   9.250 -0.0482 -0.1801  0.2610
 5470SOL    HW128043   4.659   3.399   9.227 -0.3022 -0.7512 -1.4859
 5470SOL    HW228044   4.557   3.318   9.170  1.4325  1.1034 -0.8428
 5471SOL     OW28045   0.317   2.835   5.578  0.1057 -0.0634  0.0868
 5471SOL    HW128046   0.389   2.870   5.630  0.7849  0.6310 -1.3336
 5471SOL    HW228047   0.274   2.917   5.555  2.4148  0.7545 -1.3148
 5472SOL     OW28048   1.941   1.012   6.770  0.6911 -0.1365  0.4902
 5472SOL    HW128049   1.864   1.064   6.793  0.6365 -0.1973  0.4427
 5472SOL    HW228050   1.909   0.930   6.734  0.7226  0.5843 -1.1976
 5473SOL     OW28051   4.095   3.981   6.778  0.4733  0.1847  0.0276
 5473SOL    HW128052   4.027   3.922   6.810 -1.6142  1.3907 -2.3096
 5473SOL    HW228053   4.164   3.944   6.834  0.5815  0.0631 -0.1851
 5474SOL     OW28054   2.484   0.763   5.484  0.1258 -0.4154 -0.6616
 5474SOL    HW128055   2.562   0.758   5.429  0.0538  1.5095 -0.9506
 5474SOL    HW228056   2.442   0.691   5.438 -1.8223 -0.2058  0.7866
 5475SOL     OW28057   2.344   3.990   8.103  0.1482  0.0964  0.1956
 5475SOL    HW128058   2.437   3.982   8.125  0.0456 -1.0467  0.2340
 5475SOL    HW228059   2.347   4.050   8.028  2.0074  1.3431  1.2548
 5476SOL     OW28060   2.367   2.122  16.810  0.1314 -0.4311 -0.3609
 5476SOL    HW128061   2.361   2.153  16.900  1.9385  2.5893 -1.3166
 5476SOL    HW228062   2.290   2.167  16.776  0.7186  1.7132  1.1611
 5477SOL     OW28063   2.890   4.513   4.564  0.2771  0.4040  0.5054
 5477SOL    HW128064   2.918   4.460   4.489 -0.2710 -1.5533  1.6694
 5477SOL    HW228065   2.813   4.472   4.604  0.3075  0.6862  0.8461
 5478SOL     OW28066   2.608   2.356   6.254  0.4628  0.1576 -0.4309
 5478SOL    HW128067   2.676   2.423   6.243  0.9461 -0.2499  0.0602
 5478SOL    HW228068   2.659   2.307   6.319  0.5212  1.1470  0.2766
 5479SOL     OW28069   4.054   0.974   4.078  0.3673 -0.1664 -0.2314
 5479SOL    HW128070   4.113   0.900   4.094  0.3183 -0.4707 -1.4086
 5479SOL    HW228071   4.054   1.030   4.155 -1.5700 -0.5490  0.0433
 5480SOL     OW28072   1.007   2.599  14.459 -0.7013 -0.1360  0.2916
 5480SOL    HW128073   0.976   2.509  14.454  0.3437 -0.5357  0.9045
 5480SOL    HW228074   1.034   2.629  14.372 -0.0165  2.6163  1.4465
 5481SOL     OW28075   1.343   3.214   4.590 -0.1694  0.0771 -0.0308
 5481SOL    HW128076   1.402   3.234   4.517  2.8304 -1.4896  2.0274
 5481SOL    HW228077   1.377   3.261   4.665 -0.8252 -0.7935  0.8131
 5482SOL     OW28078   3.002   1.818   4.832 -0.2012 -0.0418  0.2158
 5482SOL    HW128079   2.912   1.787   4.830 -0.6349  1.2214  0.3297
 5482SOL    HW228080   3.003   1.864   4.915 -1.4537 -1.2573  0.9024
 5483SOL     OW28081   2.068   0.563   2.396  0.1777  0.2998  0.1928
 5483SOL    HW128082   2.121   0.623   2.447 -0.2098 -0.4081  1.4164
 5483SOL    HW228083   2.056   0.608   2.312  1.1048  1.0540  0.4739
 5484SOL     OW28084   4.131   0.482   3.635 -0.0857  0.7751  0.4504
 5484SOL    HW128085   4.057   0.442   3.681  1.5253 -2.1363  0.4690
 5484SOL    HW228086   4.179   0.402   3.615  1.4003  1.7266  0.2470
 5485SOL     OW28087   1.885   1.189   0.307 -0.0921  0.1276 -0.0129
 5485SOL    HW128088   1.951   1.190   0.239 -0.0586  0.9459  0.0367
 5485SOL    HW228089   1.937   1.171   0.385  1.9366  0.9199 -1.2004
 5486SOL     OW28090   1.535   2.136   5.622  0.4102 -0.5163 -0.2061
 5486SOL    HW128091   1.559   2.218   5.579  1.3589 -0.9282 -0.4755
 5486SOL    HW228092   1.470   2.101   5.560  0.9643  0.2557 -1.2193
 5487SOL     OW28093   0.255   0.694   9.658  0.2294  0.6501  0.0947
 5487SOL    HW128094   0.174   0.696   9.709  0.2822 -2.5565  0.2768
 5487SOL    HW228095   0.268   0.789   9.658  0.9440  0.5502 -0.9117
 5488SOL     OW28096   0.400   1.968  10.027 -0.1238 -0.4929  0.1050
 5488SOL    HW128097   0.417   1.893   9.970  2.0501  0.5915 -0.7042
 5488SOL    HW228098   0.448   1.936  10.104  0.5939 -0.0314 -0.1429
 5489SOL     OW28099   0.274   2.916  10.890  0.5220 -0.1512 -0.0071
 5489SOL    HW128100   0.332   2.993  10.893  0.6730 -0.1736 -2.2437
 5489SOL    HW228101   0.280   2.889  10.982  1.4797 -1.9519 -0.6073
 5490SOL     OW28102   3.600   3.569   6.051 -0.1994  0.7764 -0.0294
 5490SOL    HW128103   3.571   3.609   5.969 -3.2077  0.7979  1.0760
 5490SOL    HW228104   3.599   3.646   6.107 -3.5948  0.0145  0.9359
 5491SOL     OW28105   2.864   3.812   6.340 -0.3415  0.5621 -0.1019
 5491SOL    HW128106   2.831   3.898   6.315 -1.3555  0.5848  1.3305
 5491SOL    HW228107   2.878   3.827   6.433  1.7584 -0.8645 -0.1873
 5492SOL     OW28108   1.976   0.290   8.595 -0.3349  0.4298 -0.0183
 5492SOL    HW128109   1.999   0.236   8.520 -0.8719  2.8376 -1.9367
 5492SOL    HW228110   1.979   0.225   8.666  3.1833 -1.2353 -1.7051
 5493SOL     OW28111   2.835   0.879   2.453 -0.1189 -0.1582 -0.6171
 5493SOL    HW128112   2.765   0.836   2.405 -1.6496 -0.2063  1.6298
 5493SOL    HW228113   2.857   0.956   2.401 -0.4403  0.6830  0.4873
 5494SOL     OW28114   1.598   1.370   8.563  0.5139 -0.0384 -0.1478
 5494SOL    HW128115   1.647   1.296   8.527 -0.8984 -1.9509  1.7997
 5494SOL    HW228116   1.598   1.347   8.656  1.1356 -0.1549 -0.1767
 5495SOL     OW28117   2.531   1.570   4.343 -0.0590  0.3177 -0.6274
 5495SOL    HW128118   2.585   1.629   4.396  0.8307 -1.8182  0.8534
 5495SOL    HW228119   2.560   1.487   4.380 -1.2723  0.6001  0.9855
 5496SOL     OW28120   2.621   1.768   4.526 -0.4478  0.0205 -0.1096
 5496SOL    HW128121   2.586   1.857   4.518  0.0099  0.1430 -0.7596
 5496SOL    HW228122   2.677   1.785   4.601 -0.6918  1.9210 -0.3573
 5497SOL     OW28123   2.146   0.915  15.005 -0.5080  0.0357 -0.2496
 5497SOL    HW128124   2.177   0.998  15.041 -1.5033 -0.2806  1.2982
 5497SOL    HW228125   2.161   0.858  15.080 -2.3935 -1.9069 -1.3592
 5498SOL     OW28126   2.840   0.313   8.737 -0.0486 -0.1019  0.1671
 5498SOL    HW128127   2.748   0.324   8.758  0.3617  4.2091 -0.3184
 5498SOL    HW228128   2.829   0.218   8.743 -0.0758 -0.0202  1.4060
 5499SOL     OW28129   2.635   1.564   6.795 -0.5412 -0.4713 -0.3228
 5499SOL    HW128130   2.723   1.588   6.764 -0.6737 -0.9225 -1.0371
 5499SOL    HW228131   2.655   1.493   6.856  4.5414 -0.1012 -1.4836
 5500SOL     OW28132   4.647   0.312   8.324  0.2913 -0.5769 -0.5219
 5500SOL    HW128133   4.716   0.374   8.349 -1.0879  0.4986  0.6222
 5500SOL    HW228134   4.676   0.279   8.239 -1.3472  1.9792 -2.0928
 5501SOL     OW28135   2.189   4.410   8.649  0.3801  0.3285  0.4186
 5501SOL    HW128136   2.210   4.332   8.597  1.5418 -0.3720  1.9296
 5501SOL    HW228137   2.266   4.465   8.636  1.0286  0.1103  3.1744
 5502SOL     OW28138   2.123   2.615   1.893  0.5825  0.1028 -0.1223
 5502SOL    HW128139   2.046   2.573   1.929  1.3471  0.8643  2.3987
 5502SOL    HW228140   2.186   2.575   1.952  1.2499 -0.1311 -0.9805
 5503SOL     OW28141   1.231   2.478   9.452 -0.1159  0.0484  0.5027
 5503SOL    HW128142   1.157   2.524   9.493 -1.0210 -1.7176  0.8679
 5503SOL    HW228143   1.295   2.527   9.504  3.3611 -2.1233 -1.7212
 5504SOL     OW28144   4.553   1.166  13.904 -0.0605 -0.6504 -0.0493
 5504SOL    HW128145   4.545   1.111  13.826 -2.7809  1.8876 -1.5599
 5504SOL    HW228146   4.527   1.105  13.973 -2.2667  1.6199  1.1211
 5505SOL     OW28147   1.689   4.165   4.305  0.1068 -0.2012  0.2331
 5505SOL    HW128148   1.759   4.224   4.335  0.1612 -0.3471  0.3921
 5505SOL    HW228149   1.623   4.233   4.294 -0.8565 -1.5392 -2.0303
 5506SOL     OW28150   3.921   4.158   0.301 -0.3325 -0.4039  0.2307
 5506SOL    HW128151   4.017   4.163   0.301 -0.2235 -2.2127  1.8699
 5506SOL    HW228152   3.900   4.154   0.208 -0.9383 -1.1896  0.4037
 5507SOL     OW28153   1.745   0.489   5.433 -0.8888 -0.5344 -0.3501
 5507SOL    HW128154   1.809   0.558   5.419  2.2264 -2.9070  2.2970
 5507SOL    HW228155   1.714   0.511   5.521 -0.1193  0.3098 -0.2928
 5508SOL     OW28156   2.484   3.050   2.677  0.8242  0.3563  0.2252
 5508SOL    HW128157   2.522   3.095   2.752  0.4548 -0.7998  1.1038
 5508SOL    HW228158   2.454   3.115   2.613  0.5055 -0.2073 -0.2049
 5509SOL     OW28159   1.499   0.934   7.196  0.0772 -0.0328 -0.4865
 5509SOL    HW128160   1.474   0.935   7.103  0.1764 -3.1187 -0.5469
 5509SOL    HW228161   1.555   0.860   7.220 -0.3648  0.0996  0.9029
 5510SOL     OW28162   0.830   1.218   1.224 -0.5192 -0.1965 -0.2035
 5510SOL    HW128163   0.792   1.304   1.242 -0.4417 -0.4664  1.1948
 5510SOL    HW228164   0.868   1.249   1.141  1.3442  0.8745  1.0594
 5511SOL     OW28165   1.693   3.021   4.343  0.2656 -0.5496 -0.1620
 5511SOL    HW128166   1.728   2.960   4.277 -1.5632 -2.8692  0.9873
 5511SOL    HW228167   1.772   3.071   4.361 -1.1116  2.0213 -1.2703
 5512SOL     OW28168   3.473   4.242   9.390  0.2358 -0.1932 -0.1179
 5512SOL    HW128169   3.505   4.175   9.330 -3.0704 -1.1952 -0.7930
 5512SOL    HW228170   3.382   4.247   9.359  0.3801 -0.9619 -0.6775
 5513SOL     OW28171   3.492   4.400  13.410  0.6683  0.4520 -0.2802
 5513SOL    HW128172   3.582   4.429  13.427  0.2552  1.3883  0.3302
 5513SOL    HW228173   3.451   4.476  13.368  2.8177  1.8568  0.1547
 5514SOL     OW28174   3.514   4.376  16.754  0.5522 -0.2221  0.0581
 5514SOL    HW128175   3.436   4.329  16.785 -0.7225  1.7441 -0.1542
 5514SOL    HW228176   3.557   4.410  16.833 -1.3433 -0.3665  1.1618
 5515SOL     OW28177   3.581   1.309   6.800  0.3677 -0.5473 -0.0825
 5515SOL    HW128178   3.661   1.286   6.753  2.0869  0.9599  2.1181
 5515SOL    HW228179   3.577   1.398   6.765 -1.5017 -0.5790  0.0447
 5516SOL     OW28180   3.039   3.925   3.380  0.0903  0.2350 -0.4152
 5516SOL    HW128181   3.033   3.830   3.388  0.5383  0.2047 -0.4779
 5516SOL    HW228182   2.957   3.953   3.422  0.9392  2.5107 -0.2619
 5517SOL     OW28183   4.104   3.002  10.984 -0.0553 -0.0807 -0.0910
 5517SOL    HW128184   4.114   3.076  11.044 -0.3363  1.5495 -2.0900
 5517SOL    HW228185   4.144   3.045  10.909 -0.5815 -0.6199 -0.6878
 5518SOL     OW28186   2.551   3.046  11.297 -1.1460  0.1991 -0.3598
 5518SOL    HW128187   2.499   3.016  11.222 -0.6107  5.2957 -2.8124
 5518SOL    HW228188   2.542   3.141  11.298 -0.6808  0.2269  0.6342
 5519SOL     OW28189   4.538   3.732   3.706 -0.0702  0.1729 -0.0079
 5519SOL    HW128190   4.604   3.777   3.651  2.3489 -2.2710  0.8949
 5519SOL    HW228191   4.592   3.740   3.784  2.3884  0.7958 -1.7558
 5520SOL     OW28192   2.424   2.653   2.999 -0.4933  0.2197 -0.3084
 5520SOL    HW128193   2.467   2.728   2.959 -0.3220  0.1808 -0.1942
 5520SOL    HW228194   2.473   2.653   3.080 -1.6809  1.2188  0.4142
 5521SOL     OW28195   3.118   1.206   1.477  0.2260 -0.0340 -0.7591
 5521SOL    HW128196   3.069   1.135   1.435 -0.2134 -0.4329  0.4185
 5521SOL    HW228197   3.207   1.170   1.485  0.0987 -0.6768 -2.1652
 5522SOL     OW28198   1.081   4.633   8.546  0.4465 -0.2269 -0.7101
 5522SOL    HW128199   1.124   4.576   8.609 -1.8978 -0.6210  0.5457
 5522SOL    HW228200   1.080   4.713   8.598 -0.3951 -1.6394  1.4748
 5523SOL     OW28201   1.237   3.828  15.395 -0.1381 -0.2491  0.1806
 5523SOL    HW128202   1.158   3.805  15.345  1.2471 -1.7671 -1.3245
 5523SOL    HW228203   1.250   3.920  15.371  1.5778 -0.3115  0.8606
 5524SOL     OW28204   2.653   0.900   5.311 -0.5510 -0.2033 -0.7327
 5524SOL    HW128205   2.590   0.972   5.314  0.0700  0.3751 -1.7946
 5524SOL    HW228206   2.660   0.872   5.220 -0.9352 -1.2621 -0.4416
 5525SOL     OW28207   3.571   0.054   6.777 -0.3680  0.8280 -0.2011
 5525SOL    HW128208   3.600   4.720   6.834 -1.5679  1.3220  1.0074
 5525SOL    HW228209   3.566   0.009   6.692  0.6741 -2.4014  1.4533
 5526SOL     OW28210   4.058   0.958   9.680 -0.2946 -0.1263  0.4963
 5526SOL    HW128211   4.024   0.868   9.679  1.4748 -0.7683 -1.2903
 5526SOL    HW228212   3.984   1.013   9.707 -0.5942 -0.2009 -0.1690
 5527SOL     OW28213   2.826   4.694  14.380  0.3213 -0.6672 -0.2627
 5527SOL    HW128214   2.785   0.019  14.441 -0.4330  1.2138 -2.6618
 5527SOL    HW228215   2.791   4.732  14.299 -2.0606 -1.0237  0.5880
 5528SOL     OW28216   1.723   4.535   3.183 -0.4254  0.5481  0.2094
 5528SOL    HW128217   1.712   4.599   3.113 -2.2957  0.2486  0.2363
 5528SOL    HW228218   1.634   4.514   3.213 -0.6784  1.3262  0.0138
 5529SOL     OW28219   3.745   3.869   2.012  0.1760 -0.3227  0.3003
 5529SOL    HW128220   3.672   3.820   2.049  0.3625  0.0303  1.1521
 5529SOL    HW228221   3.802   3.885   2.088 -0.2613  0.4286  0.4670
 5530SOL     OW28222   2.934   4.299   5.093 -0.4120 -0.0375 -0.3161
 5530SOL    HW128223   2.953   4.386   5.057 -0.2444 -0.0401 -0.2314
 5530SOL    HW228224   2.838   4.295   5.099 -0.3719  1.8647  1.6188
 5531SOL     OW28225   2.211   0.629   8.041  0.5473 -0.2722 -0.3749
 5531SOL    HW128226   2.301   0.653   8.063  0.6038  0.9082 -1.8970
 5531SOL    HW228227   2.231   0.536   8.031 -2.0145 -0.5583 -2.9294
 5532SOL     OW28228   1.094   4.217  11.144  0.5479  0.0277  0.3797
 5532SOL    HW128229   1.159   4.169  11.195 -0.8091 -2.5113 -0.2809
 5532SOL    HW228230   1.024   4.153  11.132  0.8222 -0.3220  0.6398
 5533SOL     OW28231   0.635   3.753   8.507  0.1904  0.0220  0.0833
 5533SOL    HW128232   0.651   3.826   8.567 -5.1816 -0.3661  1.9287
 5533SOL    HW228233   0.679   3.782   8.427  0.1849 -2.0237 -0.6643
 5534SOL     OW28234   4.388   0.385   7.120 -0.7893 -0.4788 -0.5386
 5534SOL    HW128235   4.419   0.316   7.179 -1.4959  0.3469  0.8113
 5534SOL    HW228236   4.300   0.351   7.105 -0.8879 -1.2406  1.8438
 5535SOL     OW28237   4.524   1.047   5.198 -0.5026 -0.4580  0.6972
 5535SOL    HW128238   4.587   1.019   5.265  2.3544 -1.0265 -2.2546
 5535SOL    HW228239   4.444   1.058   5.250 -0.7290  1.3806 -0.0433
 5536SOL     OW28240   3.755   1.118   5.804 -0.0649  0.5464  0.3602
 5536SOL    HW128241   3.781   1.099   5.895  0.2400  0.2560  0.2120
 5536SOL    HW228242   3.808   1.051   5.761  0.5404  0.2707  1.5300
 5537SOL     OW28243   0.718   4.005   4.930  0.0348  0.0491 -0.0145
 5537SOL    HW128244   0.733   3.923   4.976  2.2943 -0.9577 -2.5819
 5537SOL    HW228245   0.805   4.044   4.926  0.4074 -0.8690 -0.7774
 5538SOL     OW28246   1.578   4.113   7.542 -0.2496  0.1611  0.1820
 5538SOL    HW128247   1.560   4.082   7.630 -2.9468  0.7931 -0.1529
 5538SOL    HW228248   1.620   4.198   7.558  1.0193  0.0550 -2.5686
 5539SOL     OW28249   1.091   4.161  12.311 -0.3408  0.1671 -0.1998
 5539SOL    HW128250   1.104   4.224  12.382  1.4465 -2.5365  1.8729
 5539SOL    HW228251   1.000   4.181  12.291 -0.0432 -0.4828 -2.1961
 5540SOL     OW28252   0.275   1.911   2.203 -0.2202 -0.3567  0.0426
 5540SOL    HW128253   0.182   1.897   2.222  0.6588 -2.2195  2.7877
 5540SOL    HW228254   0.287   2.000   2.237 -1.2494 -0.3514  0.3971
 5541SOL     OW28255   1.910   3.650  13.241  0.1988 -0.0359 -0.2214
 5541SOL    HW128256   1.955   3.566  13.248 -0.5469 -0.3617  0.6803
 5541SOL    HW228257   1.960   3.698  13.306  0.0376  1.3806 -1.1405
 5542SOL     OW28258   1.584   2.859  12.179  0.5526  0.4412 -0.2443
 5542SOL    HW128259   1.574   2.845  12.273 -3.6017 -0.5876 -0.8308
 5542SOL    HW228260   1.516   2.797  12.153  0.8154 -0.6021  1.6056
 5543SOL     OW28261   0.548   4.504   8.980  0.0246 -0.1966 -0.0985
 5543SOL    HW128262   0.514   4.581   9.025 -2.4460 -0.2315 -1.8783
 5543SOL    HW228263   0.624   4.490   9.036  1.8656 -0.0939 -2.5905
 5544SOL     OW28264   1.875   3.885  14.292 -0.5370  0.3130  0.0083
 5544SOL    HW128265   1.822   3.893  14.213  0.5027 -1.3945 -0.8706
 5544SOL    HW228266   1.903   3.974  14.312  1.1329 -0.5071  1.3493
 5545SOL     OW28267   0.550   3.504   6.810  0.2761 -0.2152 -0.2303
 5545SOL    HW128268   0.604   3.583   6.816 -0.2802  0.2568 -1.3613
 5545SOL    HW228269   0.563   3.460   6.893 -0.4055 -2.3797 -1.2854
 5546SOL     OW28270   4.489   2.878  15.765  0.3435  0.4614  0.2299
 5546SOL    HW128271   4.541   2.904  15.688  0.4417 -0.7472 -0.1100
 5546SOL    HW228272   4.452   2.800  15.725  0.4574  0.0170  0.9992
 5547SOL     OW28273   2.794   1.439   0.158 -0.7490 -0.3308 -0.2560
 5547SOL    HW128274   2.772   1.381   0.231  0.0267  0.6779  0.7880
 5547SOL    HW228275   2.808   1.378   0.087 -1.5050  0.3327 -0.9783
 5548SOL     OW28276   3.062   3.691   3.578 -0.4806  0.0921 -0.3251
 5548SOL    HW128277   3.064   3.734   3.664 -0.9589 -0.5546  0.0001
 5548SOL    HW228278   3.132   3.627   3.588  0.4368  1.2449  0.5672
 5549SOL     OW28279   2.453   1.258   6.051 -0.1240 -0.0285  0.5665
 5549SOL    HW128280   2.431   1.344   6.014  2.3055  1.4380  2.5580
 5549SOL    HW228281   2.370   1.211   6.043  0.7433 -1.3660 -0.6846
 5550SOL     OW28282   0.796   4.262  15.068 -0.2176 -0.1973  0.3874
 5550SOL    HW128283   0.881   4.302  15.049 -0.9033  1.0638 -0.0368
 5550SOL    HW228284   0.795   4.181  15.017  1.0788  1.7334 -2.6833
 5551SOL     OW28285   2.657   4.126   9.412  0.4774  0.5471 -0.1674
 5551SOL    HW128286   2.606   4.077   9.476  0.7730  0.4867  0.0191
 5551SOL    HW228287   2.695   4.199   9.461  2.7899  0.1260 -1.3565
 5552SOL     OW28288   4.617   3.673   4.549  0.1025 -0.0584  0.1247
 5552SOL    HW128289   4.541   3.728   4.527  0.7203  0.4109 -0.8461
 5552SOL    HW228290   4.595   3.598   4.493  1.0199 -0.9093  0.9143
 5553SOL     OW28291   3.237   2.175   6.437  0.6335  0.0239 -0.3468
 5553SOL    HW128292   3.299   2.173   6.510  0.8426  0.2005 -0.5200
 5553SOL    HW228293   3.152   2.160   6.478  0.0462  0.2745 -1.4901
 5554SOL     OW28294   0.826   4.506   2.874  0.4792  0.1399  0.4954
 5554SOL    HW128295   0.730   4.505   2.871  0.4879  1.5426  0.0714
 5554SOL    HW228296   0.831   4.539   2.964  1.1134 -2.3029  1.3646
 5555SOL     OW28297   2.681   0.776   3.822  0.4384  0.3231  0.1306
 5555SOL    HW128298   2.698   0.738   3.908 -1.3358  0.3097  0.4533
 5555SOL    HW228299   2.768   0.788   3.782 -0.4776  1.3478 -1.5514
 5556SOL     OW28300   2.038   3.252  10.820 -0.3056 -0.1841 -0.0437
 5556SOL    HW128301   1.994   3.238  10.904  3.4917 -0.6177  1.8769
 5556SOL    HW228302   2.004   3.335  10.787 -0.4597 -1.0415 -2.0385
 5557SOL     OW28303   1.680   2.505   8.260 -0.5964  0.1093 -0.1643
 5557SOL    HW128304   1.645   2.582   8.216  0.7682  0.9030  0.1411
 5557SOL    HW228305   1.676   2.443   8.187  2.0623  3.3100 -2.9810
 5558SOL     OW28306   4.391   3.836   0.790 -0.2183 -0.0798  0.2178
 5558SOL    HW128307   4.323   3.804   0.849  2.4602 -0.7119  2.9447
 5558SOL    HW228308   4.382   3.780   0.713 -0.0074 -0.5941  0.5719
 5559SOL     OW28309   0.153   4.681  13.027 -0.0825 -0.5124 -0.0540
 5559SOL    HW128310   0.167   4.644  12.940 -1.1933  2.4009 -1.4913
 5559SOL    HW228311   0.085   4.623  13.061 -0.3635  0.3592  0.8821
 5560SOL     OW28312   3.716   0.185  12.338  0.1390 -0.6054  0.2022
 5560SOL    HW128313   3.807   0.217  12.334 -0.8262  2.1918  0.2367
 5560SOL    HW228314   3.674   0.240  12.272  0.1854 -2.2201 -1.1799
 5561SOL     OW28315   2.825   4.608   2.503  0.2448 -0.5339  0.4518
 5561SOL    HW128316   2.746   4.599   2.450  1.2246 -0.9434 -0.9480
 5561SOL    HW228317   2.820   4.520   2.542 -1.0043 -0.3606  0.6823
 5562SOL     OW28318   3.471   2.174  14.283  0.0096 -0.1070  0.3138
 5562SOL    HW128319   3.466   2.082  14.255 -0.9492 -0.1491  0.6263
 5562SOL    HW228320   3.538   2.208  14.224  0.0630  2.0269  1.6242
 5563SOL     OW28321   0.944   4.387  13.678  0.0972  0.3180  0.1878
 5563SOL    HW128322   0.891   4.372  13.599  0.5661  0.1909 -0.1010
 5563SOL    HW228323   0.956   4.482  13.680 -2.5243  0.6756 -0.9192
 5564SOL     OW28324   2.803   2.357   2.402  0.2905 -0.1293 -0.6091
 5564SOL    HW128325   2.730   2.415   2.421 -0.7085 -1.3156 -0.7843
 5564SOL    HW228326   2.849   2.418   2.344  0.8001 -1.0867 -1.2326
 5565SOL     OW28327   1.050   4.468  11.742 -0.1887 -0.5048  0.5053
 5565SOL    HW128328   1.127   4.519  11.768 -1.2504  2.3726 -2.0600
 5565SOL    HW228329   1.045   4.503  11.654 -1.6488 -0.3021  0.6692
 5566SOL     OW28330   3.180   4.234   9.279 -0.0013  0.0279 -0.1462
 5566SOL    HW128331   3.117   4.210   9.348  1.8698  2.2675  2.3241
 5566SOL    HW228332   3.194   4.155   9.228  4.0759  0.1422  0.7971
 5567SOL     OW28333   1.854   4.136   8.422 -0.0889  0.8056  0.3561
 5567SOL    HW128334   1.935   4.087   8.412 -0.6110  0.2970 -1.3942
 5567SOL    HW228335   1.866   4.162   8.513 -0.6981  3.1897 -0.2444
 5568SOL     OW28336   3.409   3.656   6.364  0.2543 -0.0147  0.5614
 5568SOL    HW128337   3.414   3.721   6.435 -0.6425  1.3626 -0.6192
 5568SOL    HW228338   3.473   3.696   6.306 -0.7319 -0.7685 -1.0497
 5569SOL     OW28339   1.829   0.226   2.924 -0.3661  0.1794 -0.0001
 5569SOL    HW128340   1.868   0.234   2.838 -0.2311  1.4675  0.1771
 5569SOL    HW228341   1.807   0.132   2.926 -0.8875  0.2964 -0.0512
 5570SOL     OW28342   2.548   1.011   7.545  0.3129  0.4014  0.4280
 5570SOL    HW128343   2.629   1.062   7.543  0.9280 -0.5932 -0.1759
 5570SOL    HW228344   2.484   1.076   7.514  1.2590  0.7297 -0.8568
 5571SOL     OW28345   0.093   1.546   9.082 -0.1279  0.0688  0.0244
 5571SOL    HW128346   0.095   1.510   8.994  0.3463  0.3070 -0.0600
 5571SOL    HW228347   0.001   1.569   9.094 -0.5032 -1.5211  0.2795
 5572SOL     OW28348   0.220   0.019   7.689 -0.2203  0.3553 -0.0849
 5572SOL    HW128349   0.239   0.085   7.756 -1.2127 -0.3238  0.8630
 5572SOL    HW228350   0.298   4.702   7.686 -0.9360 -0.6725 -0.2865
 5573SOL     OW28351   3.453   2.443   7.555 -0.0432  0.1324 -0.7112
 5573SOL    HW128352   3.395   2.474   7.624 -0.6395 -0.4370 -0.9606
 5573SOL    HW228353   3.466   2.354   7.586 -2.4375 -0.7223 -2.2311
 5574SOL     OW28354   1.749   1.751   3.824  0.5221 -0.2525 -0.1470
 5574SOL    HW128355   1.792   1.668   3.843  1.3248  0.3306  0.5591
 5574SOL    HW228356   1.784   1.808   3.892 -0.6454  0.6226 -0.2773
 5575SOL     OW28357   3.258   1.544  16.014 -0.6213 -0.3699  0.1304
 5575SOL    HW128358   3.232   1.511  15.928  0.3364  0.1174 -0.3373
 5575SOL    HW228359   3.194   1.502  16.072  0.8927 -1.4928  0.9775
 5576SOL     OW28360   3.897   4.150   0.042  0.8389 -0.0196  0.8260
 5576SOL    HW128361   3.870   4.074  17.736  1.6541  0.7361 -0.7109
 5576SOL    HW228362   3.875   4.220  17.727 -1.2687 -2.3438 -1.1049
 5577SOL     OW28363   3.470   4.511  17.216  0.3704 -0.5184  0.3650
 5577SOL    HW128364   3.444   4.600  17.194  0.5739 -0.8029 -0.9970
 5577SOL    HW228365   3.456   4.500  17.310 -1.3606 -1.9884 -0.0657
 5578SOL     OW28366   0.580   2.962   1.827 -0.2207  0.0458 -0.3440
 5578SOL    HW128367   0.543   3.044   1.861 -0.1652  0.1857 -0.6167
 5578SOL    HW228368   0.593   2.913   1.908 -1.2890 -0.3433 -0.4080
 5579SOL     OW28369   0.171   4.598  12.781  0.5171 -0.2304 -0.3544
 5579SOL    HW128370   0.183   4.506  12.761  0.3608 -0.2681 -0.2751
 5579SOL    HW228371   0.240   4.649  12.737  1.2375 -1.2874 -0.4588
 5580SOL     OW28372   0.685   3.842  12.182 -0.5397 -0.0601  0.6908
 5580SOL    HW128373   0.775   3.856  12.211 -0.5227 -0.3849  0.7869
 5580SOL    HW228374   0.704   3.827  12.089 -0.1025 -0.6831  0.8807
 5581SOL     OW28375   3.366   2.406   2.933 -0.4622 -0.4712 -0.3313
 5581SOL    HW128376   3.330   2.495   2.937  0.6865  0.0171 -0.5912
 5581SOL    HW228377   3.421   2.400   2.855  3.1675 -3.4507  2.4381
 5582SOL     OW28378   2.125   2.541  12.358 -0.0459  0.4496 -0.0547
 5582SOL    HW128379   2.120   2.631  12.390  0.2365 -0.2180  1.8312
 5582SOL    HW228380   2.042   2.502  12.387 -0.3684  1.0257 -0.2109
 5583SOL     OW28381   2.580   2.405  17.550 -0.5980 -0.0756  0.1579
 5583SOL    HW128382   2.597   2.454  17.630  1.8411  1.5660 -1.3600
 5583SOL    HW228383   2.485   2.396  17.553 -0.6243  0.6447  1.7187
 5584SOL     OW28384   3.531   0.976   4.715  0.4714 -0.4443 -0.0018
 5584SOL    HW128385   3.458   1.029   4.750  0.0956 -1.0573  0.1441
 5584SOL    HW228386   3.477   0.911   4.671  0.0143  1.0831 -1.6980
 5585SOL     OW28387   2.093   1.973   8.961  0.6524  0.0419 -0.3023
 5585SOL    HW128388   2.068   2.049   9.015 -1.1956 -1.6666  1.2492
 5585SOL    HW228389   2.034   1.976   8.886  1.0236  1.6539 -0.5436
 5586SOL     OW28390   4.044   2.340  10.337  0.3273  0.5580  0.2277
 5586SOL    HW128391   4.055   2.409  10.402 -0.1669  0.1297  0.7652
 5586SOL    HW228392   4.110   2.374  10.277  0.4945  0.6488  0.4657
 5587SOL     OW28393   2.408   4.468   6.070  0.1245 -0.2479  0.1621
 5587SOL    HW128394   2.489   4.489   6.117 -0.4027  2.1570 -0.0144
 5587SOL    HW228395   2.372   4.403   6.130  1.4633 -1.4419 -0.3304
 5588SOL     OW28396   0.578   4.611  16.873  0.1129  0.0043 -0.1099
 5588SOL    HW128397   0.638   4.537  16.885 -1.5356 -0.7496  3.4932
 5588SOL    HW228398   0.645   4.677  16.889 -0.0693  0.1638 -0.0150
 5589SOL     OW28399   1.234   2.763   7.641 -0.0029  0.1638  0.7961
 5589SOL    HW128400   1.198   2.843   7.603 -1.0332 -1.3435 -1.4131
 5589SOL    HW228401   1.259   2.782   7.732 -1.3277  1.1849  0.9411
 5590SOL     OW28402   0.812   2.822   7.180  0.0090 -0.2869 -0.3559
 5590SOL    HW128403   0.717   2.810   7.179 -0.1404  0.7768  1.3058
 5590SOL    HW228404   0.819   2.911   7.146  0.3752 -0.5779 -1.0479
 5591SOL     OW28405   2.222   3.440  11.318 -0.4671 -0.3292  0.2724
 5591SOL    HW128406   2.273   3.384  11.376 -0.4747  0.4347  1.0228
 5591SOL    HW228407   2.218   3.376  11.246  0.7999  2.6153 -2.4157
 5592SOL     OW28408   4.231   4.573   1.008  0.1219  0.4269 -0.2594
 5592SOL    HW128409   4.145   4.553   1.043  0.2098  0.6848  0.1011
 5592SOL    HW228410   4.246   4.658   1.050 -1.4547  0.3283  0.4846
 5593SOL     OW28411   2.483   3.302  13.401 -0.1088  0.1677 -0.3940
 5593SOL    HW128412   2.552   3.236  13.395 -0.0531  0.3024 -1.2513
 5593SOL    HW228413   2.463   3.296  13.495  1.3831 -3.3047 -0.2852
 5594SOL     OW28414   2.892   1.053  12.312 -0.5083  0.2227  0.5152
 5594SOL    HW128415   2.880   1.148  12.314  0.5808  0.3363  1.7833
 5594SOL    HW228416   2.809   1.017  12.342 -1.5287  1.1407 -1.1360
 5595SOL     OW28417   4.120   2.818   4.720 -0.3824  0.0921 -0.5512
 5595SOL    HW128418   4.209   2.836   4.688  0.0389 -0.5275  0.2764
 5595SOL    HW228419   4.094   2.746   4.662 -3.5946 -0.5449  1.6950
 5596SOL     OW28420   2.929   1.166   8.847 -0.4272 -0.3393 -0.1947
 5596SOL    HW128421   2.953   1.086   8.801  0.9627 -0.4466  0.6950
 5596SOL    HW228422   2.867   1.140   8.915  0.8500 -2.6324  0.0903
 5597SOL     OW28423   0.749   3.356  11.622 -0.2679  0.3860  0.0343
 5597SOL    HW128424   0.707   3.305  11.691 -2.4278 -0.2541 -1.7256
 5597SOL    HW228425   0.829   3.386  11.665  0.5843  0.6682 -1.7377
 5598SOL     OW28426   3.936   2.015   8.106  0.2188 -0.6465  0.1924
 5598SOL    HW128427   3.865   2.075   8.082  1.3552 -0.6037 -3.0668
 5598SOL    HW228428   3.971   2.056   8.185 -1.7148 -1.9454  1.7305
 5599SOL     OW28429   2.066   3.854   2.561  0.0734  0.2346  0.6526
 5599SOL    HW128430   1.999   3.914   2.529 -0.0317 -0.1584  0.1371
 5599SOL    HW228431   2.132   3.910   2.602  0.4559  0.9441 -0.9234
 5600SOL     OW28432   0.299   1.467  12.095 -0.3886  0.2483 -0.3404
 5600SOL    HW128433   0.253   1.548  12.072  0.3683  1.1657  1.3942
 5600SOL    HW228434   0.265   1.398  12.037 -0.3043  0.3587 -0.5204
 5601SOL     OW28435   3.283   1.098   1.113 -0.3247 -0.5990  0.3030
 5601SOL    HW128436   3.268   1.011   1.151 -2.1338 -1.4972 -2.4275
 5601SOL    HW228437   3.360   1.128   1.162 -1.0935  1.1247  0.4246
 5602SOL     OW28438   0.841   0.910   0.972 -0.5273 -0.4901  0.0350
 5602SOL    HW128439   0.908   0.973   0.947  0.3103 -1.0696  0.8126
 5602SOL    HW228440   0.882   0.824   0.964  0.1070 -0.4447  2.8083
 5603SOL     OW28441   0.136   0.570   5.424  0.4356 -0.0624  0.1008
 5603SOL    HW128442   0.208   0.515   5.390  1.1220  0.9856 -0.1368
 5603SOL    HW228443   0.173   0.656   5.443 -0.4400  0.0234  1.3770
 5604SOL     OW28444   1.435   0.761  10.814 -0.5417  0.1790 -0.3934
 5604SOL    HW128445   1.461   0.792  10.727 -0.3828  0.5857 -0.2039
 5604SOL    HW228446   1.379   0.832  10.845 -3.1371 -1.4095 -1.4340
 5605SOL     OW28447   3.850   3.629   2.784  0.8736  0.0637  0.1510
 5605SOL    HW128448   3.849   3.666   2.696 -2.3360 -0.5157 -0.0527
 5605SOL    HW228449   3.800   3.550   2.765 -0.9459  0.7417  2.1444
 5606SOL     OW28450   1.798   2.695   9.471 -0.2539 -0.1693 -0.0063
 5606SOL    HW128451   1.761   2.672   9.385  0.3707  2.9005 -1.0936
 5606SOL    HW228452   1.799   2.616   9.524 -0.6961  0.6375  1.2084
 5607SOL     OW28453   2.277   3.672  12.762  0.5335 -0.0485  0.3856
 5607SOL    HW128454   2.302   3.748  12.709 -1.4992  1.0674  1.0340
 5607SOL    HW228455   2.223   3.635  12.692 -0.1149  3.7694 -1.1076
 5608SOL     OW28456   3.729   1.655   2.908 -0.4652  0.1756 -0.2565
 5608SOL    HW128457   3.735   1.728   2.846 -0.4024  0.2929 -0.1124
 5608SOL    HW228458   3.637   1.633   2.894 -1.0347  2.0598  0.5031
 5609SOL     OW28459   3.566   0.555  16.891 -0.0002  0.3412 -0.2730
 5609SOL    HW128460   3.630   0.542  16.822  0.1317  0.3374 -0.1497
 5609SOL    HW228461   3.581   0.638  16.936 -1.2874  0.3959  0.0635
 5610SOL     OW28462   2.188   0.633  11.343 -0.5643 -0.1822 -0.8394
 5610SOL    HW128463   2.243   0.569  11.299  0.2241  0.3333 -0.6048
 5610SOL    HW228464   2.163   0.689  11.269  0.2261  0.6057 -0.5049
 5611SOL     OW28465   3.677   2.126  11.327  0.1760 -0.3318  0.5516
 5611SOL    HW128466   3.615   2.053  11.322 -0.3306  0.0525  1.0977
 5611SOL    HW228467   3.615   2.200  11.325 -1.0660 -1.4584 -2.0972
 5612SOL     OW28468   0.343   4.050   4.238  0.2631  0.6016 -0.3096
 5612SOL    HW128469   0.341   4.141   4.268 -0.8674 -0.0925  1.7711
 5612SOL    HW228470   0.421   4.022   4.288  1.3444  2.6135 -0.8767
 5613SOL     OW28471   0.643   2.942   8.093 -0.0667 -0.1106  0.0218
 5613SOL    HW128472   0.674   3.019   8.141  1.4865  0.2474 -1.5664
 5613SOL    HW228473   0.687   2.871   8.139 -0.2333 -0.4135 -0.2840
 5614SOL     OW28474   3.188   1.486   1.574  0.3389 -0.4238 -0.2892
 5614SOL    HW128475   3.283   1.490   1.585  0.4246  0.2866 -1.3348
 5614SOL    HW228476   3.183   1.394   1.550  1.2188 -0.0235 -1.9738
 5615SOL     OW28477   1.581   4.461   5.490  0.2278 -0.3236  0.0832
 5615SOL    HW128478   1.507   4.507   5.452 -0.3999 -1.3292  0.0701
 5615SOL    HW228479   1.653   4.488   5.433  0.5528 -0.3735  0.4732
 5616SOL     OW28480   1.160   3.678   1.430  0.5485 -0.2186  0.0232
 5616SOL    HW128481   1.242   3.657   1.384  1.0230  1.7768 -0.0353
 5616SOL    HW228482   1.176   3.650   1.520 -0.4210 -3.5248 -0.8241
 5617SOL     OW28483   1.208   3.771   4.963  0.0079 -0.2550 -0.4992
 5617SOL    HW128484   1.145   3.700   4.963  0.6951 -0.8629 -0.8777
 5617SOL    HW228485   1.286   3.730   4.925  0.7771  1.7917 -1.1240
 5618SOL     OW28486   0.253   4.665   6.203 -0.3926 -0.2369 -0.2529
 5618SOL    HW128487   0.277   4.575   6.224 -0.4809 -0.0582  0.6157
 5618SOL    HW228488   0.324   4.713   6.246  0.2406 -1.9192  0.5802
 5619SOL     OW28489   4.136   1.441   2.619 -0.0171  0.6366  0.4220
 5619SOL    HW128490   4.183   1.358   2.629 -1.4677 -0.1824  0.4537
 5619SOL    HW228491   4.066   1.433   2.683 -0.0220 -0.7852  0.2398
 5620SOL     OW28492   3.981   0.018  12.035 -0.0872  0.3392  0.3487
 5620SOL    HW128493   3.897   4.732  12.076 -0.8229  3.0558  0.3983
 5620SOL    HW228494   3.983   0.114  12.028 -0.7424  0.3092 -0.3050
 5621SOL     OW28495   2.118   2.478  17.327  0.6535  0.0110  0.1193
 5621SOL    HW128496   2.028   2.508  17.342  0.8603  0.5198  0.3260
 5621SOL    HW228497   2.167   2.560  17.334 -0.1147  0.4127  0.9369
 5622SOL     OW28498   4.303   0.593   2.169  0.2522  0.0569 -0.4587
 5622SOL    HW128499   4.319   0.636   2.085  3.5086 -0.0635  0.1137
 5622SOL    HW228500   4.297   0.501   2.146 -0.0990  0.1424 -0.7097
 5623SOL     OW28501   0.205   0.986   6.966  0.3763 -0.3617  0.0737
 5623SOL    HW128502   0.203   1.067   7.017 -1.7376 -0.4820  0.2162
 5623SOL    HW228503   0.119   0.947   6.982 -0.0091 -0.0432 -1.1821
 5624SOL     OW28504   4.475   4.277  16.501  0.1148 -0.6778  0.1115
 5624SOL    HW128505   4.515   4.307  16.419  0.0956  2.8691  1.3804
 5624SOL    HW228506   4.492   4.183  16.491 -2.1311 -1.1628  0.9162
 5625SOL     OW28507   4.181   2.451   9.378 -0.0293 -0.5841  0.1092
 5625SOL    HW128508   4.161   2.422   9.289 -0.0614  1.4828 -0.5498
 5625SOL    HW228509   4.139   2.537   9.384  1.1793  0.1525 -2.2433
 5626SOL     OW28510   2.023   4.570  15.495 -0.5396  0.2061 -0.2197
 5626SOL    HW128511   2.009   4.513  15.420  1.0712 -0.6974  0.1668
 5626SOL    HW228512   2.010   4.658  15.459 -0.7801 -1.1889 -3.5662
 5627SOL     OW28513   0.597   3.967   8.673 -0.9311 -0.1848  0.3409
 5627SOL    HW128514   0.661   4.036   8.653 -0.6967  0.2543  2.5309
 5627SOL    HW228515   0.539   4.007   8.738  0.4030  0.3960  1.1681
 5628SOL     OW28516   1.966   4.053   8.946  0.3424  0.0433  0.0414
 5628SOL    HW128517   1.936   4.000   9.020 -1.9129  0.6777 -0.4136
 5628SOL    HW228518   2.050   4.007   8.944  1.0636  1.4085 -0.8753
 5629SOL     OW28519   4.186   0.112   3.166  0.7598 -0.0330  0.2278
 5629SOL    HW128520   4.194   0.164   3.087 -4.6593  0.9194  0.3098
 5629SOL    HW228521   4.150   0.030   3.131 -0.6940  1.1980 -1.0879
 5630SOL     OW28522   0.704   0.451  12.087  0.1044 -0.1859  0.1884
 5630SOL    HW128523   0.732   0.455  11.995 -0.3795  0.5761  0.0746
 5630SOL    HW228524   0.661   0.365  12.086  0.7072 -0.4903  0.6823
 5631SOL     OW28525   0.527   3.944  10.083  0.5322 -0.5333  0.5771
 5631SOL    HW128526   0.465   3.904  10.145  0.2891  1.8037  1.8359
 5631SOL    HW228527   0.613   3.937  10.126  1.0165 -0.8583 -0.4543
 5632SOL     OW28528   3.628   4.487   4.077  0.4314  0.1092 -0.2533
 5632SOL    HW128529   3.588   4.405   4.106 -1.2940  0.4934 -1.5894
 5632SOL    HW228530   3.722   4.470   4.089 -0.1527 -3.6737 -1.0179
 5633SOL     OW28531   1.331   2.801   0.448  0.2971  0.0984 -0.0902
 5633SOL    HW128532   1.238   2.805   0.470 -0.1261 -1.9122 -1.4402
 5633SOL    HW228533   1.370   2.758   0.524  0.0382  0.3782  0.1998
 5634SOL     OW28534   1.485   3.548   0.917  0.0222  0.1770 -0.2521
 5634SOL    HW128535   1.423   3.525   0.986  2.1820  0.0690  1.6363
 5634SOL    HW228536   1.568   3.549   0.965 -1.3442 -0.8013  2.0968
 5635SOL     OW28537   3.643   3.194   3.856 -0.1989  0.1885 -0.3865
 5635SOL    HW128538   3.612   3.148   3.778 -0.9429 -1.0845  0.6525
 5635SOL    HW228539   3.565   3.180   3.910  0.9256  0.8647  1.3948
 5636SOL     OW28540   0.820   3.775   5.098  0.5157  0.1020 -0.3317
 5636SOL    HW128541   0.735   3.773   5.143  1.7215  1.9744  2.0686
 5636SOL    HW228542   0.881   3.795   5.169  0.5940  1.2661 -0.7219
 5637SOL     OW28543   3.576   3.640   2.433  0.2189  0.7400  0.1280
 5637SOL    HW128544   3.570   3.650   2.338 -0.5745 -0.2025  0.0774
 5637SOL    HW228545   3.485   3.650   2.463  0.0784 -1.6733  0.5691
 5638SOL     OW28546   2.822   1.245  17.718 -0.8701 -0.2443 -0.0019
 5638SOL    HW128547   2.903   1.199  17.696 -0.3865  0.6997 -0.1814
 5638SOL    HW228548   2.799   1.279  17.632 -1.7174 -0.2222  0.2360
 5639SOL     OW28549   3.980   2.282   0.664  0.3857 -0.6323  0.4281
 5639SOL    HW128550   3.903   2.244   0.622  0.4885  1.4658 -1.6156
 5639SOL    HW228551   4.045   2.213   0.678  0.4193 -0.8307 -0.7075
 5640SOL     OW28552   2.217   3.940   4.620 -0.3292 -0.8459  0.1457
 5640SOL    HW128553   2.191   3.861   4.573  1.7076 -0.6721 -1.2544
 5640SOL    HW228554   2.310   3.934   4.599  0.0550  1.6348  1.1826
 5641SOL     OW28555   1.314   3.419   1.156  0.1580 -0.5355 -0.0773
 5641SOL    HW128556   1.367   3.455   1.227 -2.4485 -0.0447  1.6239
 5641SOL    HW228557   1.235   3.396   1.205  0.1208  1.1082  0.6203
 5642SOL     OW28558   3.206   3.909   5.187  0.3535  0.6111  0.1418
 5642SOL    HW128559   3.226   3.839   5.125  0.2574 -0.1728  0.9954
 5642SOL    HW228560   3.111   3.917   5.177  0.4078  2.2283  0.8215
 5643SOL     OW28561   2.254   0.962   5.336 -0.0040  0.5314 -0.2665
 5643SOL    HW128562   2.328   0.996   5.387  0.1677 -0.8623  0.4149
 5643SOL    HW228563   2.248   1.035   5.275  0.2959 -0.9267 -2.0337
 5644SOL     OW28564   3.235   1.819   4.116 -0.0217 -0.8496 -0.6387
 5644SOL    HW128565   3.205   1.884   4.179  1.8606 -1.5820  1.0299
 5644SOL    HW228566   3.229   1.737   4.166 -2.2121  0.7414  1.7321
 5645SOL     OW28567   2.546   0.873   4.673 -0.1304 -0.3885 -0.2540
 5645SOL    HW128568   2.613   0.909   4.616  0.1268  0.8231  0.8221
 5645SOL    HW228569   2.588   0.793   4.706  0.6199 -0.1350 -0.5979
 5646SOL     OW28570   2.769   0.598   1.561  0.0925  0.1662  0.1067
 5646SOL    HW128571   2.720   0.672   1.596 -0.3495 -0.6064  1.1109
 5646SOL    HW228572   2.714   0.530   1.599  1.3074 -1.7229 -1.5253
 5647SOL     OW28573   0.144   1.525  13.469 -0.5800 -0.3751 -0.4791
 5647SOL    HW128574   0.121   1.434  13.453  1.6319 -0.7958 -1.2599
 5647SOL    HW228575   0.130   1.521  13.564  0.6844  1.2962 -0.2170
 5648SOL     OW28576   2.887   3.994   9.317  0.3981  0.8835 -0.6600
 5648SOL    HW128577   2.852   3.958   9.236  3.3426 -0.3000 -1.3728
 5648SOL    HW228578   2.806   4.026   9.358 -0.6108  0.3840 -2.2763
 5649SOL     OW28579   2.065   0.223  12.999  0.5907  0.2484  0.0964
 5649SOL    HW128580   2.054   0.250  13.090 -0.1770 -1.0758  0.3969
 5649SOL    HW228581   2.069   0.128  13.013  0.2752  0.3219  0.6775
 5650SOL     OW28582   0.117   0.248  13.845 -0.0200 -0.3368  0.1246
 5650SOL    HW128583   0.176   0.305  13.897 -2.9403  1.3529  1.5772
 5650SOL    HW228584   0.034   0.289  13.868 -0.7750 -1.7590 -0.1373
 5651SOL     OW28585   3.279   2.246   2.358  0.2511 -0.0600  0.0588
 5651SOL    HW128586   3.274   2.306   2.284 -0.2713 -1.3047 -0.9073
 5651SOL    HW228587   3.189   2.228   2.384  0.8320 -0.9491  1.4647
 5652SOL     OW28588   0.660   2.582   0.906  0.6940  0.1752 -0.9237
 5652SOL    HW128589   0.691   2.642   0.839 -1.5144  0.6114 -1.5384
 5652SOL    HW228590   0.657   2.641   0.982 -1.2362  0.3215 -1.1100
 5653SOL     OW28591   3.927   2.906   1.773  0.4058 -0.0571 -0.1378
 5653SOL    HW128592   3.891   2.820   1.794  0.1154  0.1539  0.2284
 5653SOL    HW228593   4.016   2.880   1.749  0.8731  0.7650  0.7008
 5654SOL     OW28594   0.621   2.034   5.805  0.1081 -0.2409 -0.0371
 5654SOL    HW128595   0.661   1.964   5.754  0.1211 -2.2867  2.7545
 5654SOL    HW228596   0.670   2.038   5.887  1.4438 -1.5296 -0.7696
 5655SOL     OW28597   3.789   4.336   9.432  0.4300 -0.4291 -0.0639
 5655SOL    HW128598   3.806   4.338   9.338  1.5685  2.1827  0.1940
 5655SOL    HW228599   3.850   4.267   9.460 -1.7423 -2.4976 -0.4051
 5656SOL     OW28600   1.424   4.541   9.939  0.3484  0.1983 -0.2802
 5656SOL    HW128601   1.397   4.462   9.986 -1.4057  0.2072 -1.2719
 5656SOL    HW228602   1.518   4.527   9.936  0.2508 -0.2259 -1.5537
 5657SOL     OW28603   3.583   3.869   5.524  0.5897 -1.0865 -0.4567
 5657SOL    HW128604   3.496   3.886   5.487  1.3994 -0.4657 -2.0877
 5657SOL    HW228605   3.603   3.961   5.544 -2.4043 -0.7453  0.9177
 5658SOL     OW28606   3.784   0.024   6.095  0.0481 -0.7618 -0.1666
 5658SOL    HW128607   3.849   4.697   6.065  1.3110  0.5262 -0.1753
 5658SOL    HW228608   3.793   0.040   6.189 -0.2391 -0.8609 -0.1243
 5659SOL     OW28609   2.719   4.128   6.521 -0.1638  0.2023  0.4974
 5659SOL    HW128610   2.797   4.137   6.466  0.1708 -2.2695  0.5650
 5659SOL    HW228611   2.761   4.100   6.602  1.7418  0.1813 -0.4897
 5660SOL     OW28612   3.295   4.472   0.339  0.5654  0.9245  0.3389
 5660SOL    HW128613   3.238   4.548   0.348  2.7026  2.2784  2.1240
 5660SOL    HW228614   3.240   4.410   0.290  2.2606 -0.8530  0.6859
 5661SOL     OW28615   3.708   3.975  13.082 -0.4059  0.1040 -0.4339
 5661SOL    HW128616   3.654   3.898  13.065 -0.2959  0.2890 -1.6402
 5661SOL    HW228617   3.671   4.003  13.165  0.9779  0.4184  0.0881
 5662SOL     OW28618   2.076   1.600   8.321  0.2837 -0.0205  0.2359
 5662SOL    HW128619   2.081   1.522   8.377 -2.0040 -0.0689  0.3703
 5662SOL    HW228620   2.168   1.615   8.298 -0.2253 -1.0366 -2.4307
 5663SOL     OW28621   3.297   0.320  14.098  0.1740 -0.5853  0.3933
 5663SOL    HW128622   3.245   0.396  14.071 -0.6887 -1.9448 -1.7549
 5663SOL    HW228623   3.226   0.262  14.072 -1.4772  0.9182  1.5900
 5664SOL     OW28624   3.851   3.689   9.496  0.0296 -0.1611 -0.1344
 5664SOL    HW128625   3.835   3.605   9.539 -1.3183 -0.8263 -1.9138
 5664SOL    HW228626   3.928   3.710   9.549  0.7378 -0.6339 -0.9800
 5665SOL     OW28627   0.471   4.495   7.369  0.1841 -0.0734  0.4122
 5665SOL    HW128628   0.466   4.564   7.436 -2.1009 -0.6791  0.8642
 5665SOL    HW228629   0.565   4.502   7.351 -0.1689  0.4979 -1.2103
 5666SOL     OW28630   2.343   3.982   2.153 -0.0768 -0.5037  0.2259
 5666SOL    HW128631   2.387   4.019   2.229 -0.7917 -1.0816  0.9207
 5666SOL    HW228632   2.253   3.975   2.185  0.4251 -2.8503  1.1555
 5667SOL     OW28633   1.884   1.834   6.978 -0.2137 -0.1841 -0.1296
 5667SOL    HW128634   1.928   1.885   6.910 -0.7484 -0.9428 -1.0481
 5667SOL    HW228635   1.955   1.834   7.042  0.9083 -1.1789 -1.3684
 5668SOL     OW28636   3.215   3.908   1.859 -0.7101  0.0155  0.1996
 5668SOL    HW128637   3.305   3.896   1.891 -0.3934  3.3434  0.4851
 5668SOL    HW228638   3.197   3.982   1.916  0.9452  0.7070 -0.1683
 5669SOL     OW28639   1.738   3.251   1.660  0.7689 -0.3762 -0.4303
 5669SOL    HW128640   1.708   3.329   1.707  1.5255  1.4535 -2.9719
 5669SOL    HW228641   1.760   3.192   1.732 -0.5745 -3.2129 -2.3577
 5670SOL     OW28642   3.336   1.360  12.197  0.0158  0.1765  1.0556
 5670SOL    HW128643   3.305   1.448  12.220 -0.6083  0.1511  0.3106
 5670SOL    HW228644   3.397   1.383  12.126 -0.2891 -0.8142  0.4816
 5671SOL     OW28645   3.784   2.634   5.731  0.1443 -0.0635  0.2066
 5671SOL    HW128646   3.827   2.565   5.783 -0.0322 -0.7512 -0.5638
 5671SOL    HW228647   3.824   2.707   5.778  0.2277 -0.9734  1.5824
 5672SOL     OW28648   4.014   4.400  16.989 -0.3708 -0.0352  0.5714
 5672SOL    HW128649   4.080   4.391  17.058  0.2646  1.5851  0.1725
 5672SOL    HW228650   3.944   4.440  17.042  1.5300  1.2778  2.0956
 5673SOL     OW28651   0.932   1.414   6.734 -0.0650  0.3782 -0.5630
 5673SOL    HW128652   0.860   1.464   6.695 -0.6866  0.0849  0.2222
 5673SOL    HW228653   0.990   1.486   6.761  1.2279 -0.3011 -1.5035
 5674SOL     OW28654   0.362   2.687  11.979 -0.3886 -0.3714  0.4806
 5674SOL    HW128655   0.320   2.773  11.985 -2.0496 -1.0991 -0.8167
 5674SOL    HW228656   0.283   2.635  11.994  0.9287 -2.7687 -0.9003
 5675SOL     OW28657   1.475   2.799   1.295 -0.1167  0.1487 -0.0114
 5675SOL    HW128658   1.557   2.845   1.279  0.4253 -0.0509  2.1247
 5675SOL    HW228659   1.477   2.777   1.388 -3.2423  2.0162  0.5236
 5676SOL     OW28660   0.693   3.756   4.277  0.3821  0.1168 -0.2595
 5676SOL    HW128661   0.627   3.787   4.215  0.0567 -1.7166 -0.8209
 5676SOL    HW228662   0.689   3.829   4.339  0.8144  1.3422 -1.6577
 5677SOL     OW28663   3.340   1.333  16.433  0.0501  0.2292  0.6841
 5677SOL    HW128664   3.414   1.367  16.383 -0.3260  0.8398  0.5452
 5677SOL    HW228665   3.384   1.311  16.515 -0.4424  0.5170  1.0209
 5678SOL     OW28666   3.562   4.072  13.288 -0.0875 -0.1803 -0.1856
 5678SOL    HW128667   3.631   4.092  13.352 -0.4267 -1.6679  0.6448
 5678SOL    HW228668   3.517   4.154  13.269 -2.6126 -1.0589  2.1357
 5679SOL     OW28669   2.241   3.511   9.484  0.3394 -0.5633  0.0110
 5679SOL    HW128670   2.168   3.542   9.538  1.0934 -0.7137  1.1162
 5679SOL    HW228671   2.193   3.509   9.401 -0.6892 -1.1490  0.6104
 5680SOL     OW28672   3.145   4.025  17.545 -0.1411  0.5465 -0.1472
 5680SOL    HW128673   3.079   3.991  17.484 -0.6493  1.3783 -0.0572
 5680SOL    HW228674   3.151   3.956  17.611  0.1498  1.2493  0.5585
 5681SOL     OW28675   0.116   3.964   4.791 -0.4619  0.9273 -0.6375
 5681SOL    HW128676   0.029   3.926   4.784 -0.1430  0.1895 -0.6389
 5681SOL    HW228677   0.161   3.893   4.745  1.9236  0.9721  1.5718
 5682SOL     OW28678   0.841   2.650  11.454 -0.0885 -0.0049  0.2371
 5682SOL    HW128679   0.924   2.695  11.436  0.4476 -1.1867 -0.2492
 5682SOL    HW228680   0.832   2.599  11.374 -1.2763  3.0025 -1.5364
 5683SOL     OW28681   4.404   3.480  13.848 -0.9387  0.0861  0.3771
 5683SOL    HW128682   4.355   3.559  13.824 -0.1386  0.4090 -0.1811
 5683SOL    HW228683   4.463   3.526  13.908 -0.7491  1.2571 -0.7039
 5684SOL     OW28684   3.672   4.436   8.015 -0.4078  0.4531 -0.1487
 5684SOL    HW128685   3.636   4.515   8.055 -1.2797 -0.3548  0.6576
 5684SOL    HW228686   3.727   4.478   7.949  0.3453 -1.7243 -0.9120
 5685SOL     OW28687   0.947   2.837   9.476  0.5124  0.4357  0.4326
 5685SOL    HW128688   0.897   2.756   9.465 -1.1529  1.3432  1.2385
 5685SOL    HW228689   0.875   2.900   9.482  0.1835  0.1230 -0.0888
 5686SOL     OW28690   1.967   3.486   8.378  0.3054 -0.6081  0.5405
 5686SOL    HW128691   1.871   3.489   8.371  0.2153 -0.7033  1.7164
 5686SOL    HW228692   1.991   3.573   8.347 -1.9091 -0.3234 -0.3812
 5687SOL     OW28693   2.689   4.734   7.233  0.3636 -0.0575 -0.1572
 5687SOL    HW128694   2.647   4.657   7.271 -0.8096  0.8301  0.3572
 5687SOL    HW228695   2.779   4.703   7.227  0.5562  1.0657 -3.0634
 5688SOL     OW28696   2.715   2.130  13.254  0.1669 -0.4292  0.5296
 5688SOL    HW128697   2.646   2.166  13.199  0.9465 -0.7034 -0.6252
 5688SOL    HW228698   2.714   2.041  13.219  1.0918 -0.3296  0.2415
 5689SOL     OW28699   4.164   1.852   0.458  0.0200  0.4700 -0.0313
 5689SOL    HW128700   4.213   1.858   0.376 -1.0544  3.1920 -0.4445
 5689SOL    HW228701   4.220   1.903   0.516  1.4024 -0.0615 -0.8880
 5690SOL     OW28702   1.754   3.386   4.862  1.2041 -0.6429 -1.2155
 5690SOL    HW128703   1.720   3.363   4.948 -1.5074 -0.4589 -2.2441
 5690SOL    HW228704   1.774   3.480   4.864 -0.8695 -0.2115 -0.8516
 5691SOL     OW28705   0.862   0.246  16.030 -0.2936  0.1808  0.6282
 5691SOL    HW128706   0.939   0.257  16.086 -0.6916  1.3123  0.9479
 5691SOL    HW228707   0.902   0.220  15.947 -2.0500 -1.5410  0.3207
 5692SOL     OW28708   2.555   1.389   3.568 -0.1731  0.9056 -0.0586
 5692SOL    HW128709   2.501   1.337   3.628 -0.4209 -0.1245 -1.1914
 5692SOL    HW228710   2.626   1.327   3.552 -0.3169  0.6245  0.3751
 5693SOL     OW28711   4.486   4.031   5.031 -0.2300 -0.4668 -0.0890
 5693SOL    HW128712   4.455   3.942   5.013  2.9178 -1.9318  1.7678
 5693SOL    HW228713   4.545   4.038   4.956 -1.4403  3.0879 -0.7044
 5694SOL     OW28714   0.741   1.810   3.301 -0.2116  0.2321  0.0742
 5694SOL    HW128715   0.814   1.851   3.255 -0.2417  0.7426  0.4871
 5694SOL    HW228716   0.790   1.741   3.345  0.0262  1.2238  1.3650
 5695SOL     OW28717   0.344   2.320  15.306  0.1211 -0.4807 -0.3617
 5695SOL    HW128718   0.323   2.236  15.346  0.1398  0.1806  1.0202
 5695SOL    HW228719   0.384   2.286  15.226 -0.1772 -1.7901  0.0505
 5696SOL     OW28720   0.779   4.539  12.727 -0.5208  0.1282 -0.0959
 5696SOL    HW128721   0.704   4.599  12.729  0.7595  1.8163 -2.6161
 5696SOL    HW228722   0.771   4.498  12.813  1.2321  0.7056  0.3541
 5697SOL     OW28723   3.213   4.402   4.942 -0.3441 -0.1269 -0.2141
 5697SOL    HW128724   3.196   4.320   4.988  1.0903 -0.2117  0.1738
 5697SOL    HW228725   3.226   4.462   5.015  0.2180  1.6237 -1.7543
 5698SOL     OW28726   3.434   1.203   6.411  0.5120  0.0422 -0.4795
 5698SOL    HW128727   3.345   1.212   6.444  0.5657  0.1454 -0.3586
 5698SOL    HW228728   3.422   1.199   6.316 -1.7631 -3.4452 -0.0521
 5699SOL     OW28729   0.459   3.699   5.121  0.3410  0.5501 -0.5177
 5699SOL    HW128730   0.404   3.663   5.191 -2.3342  1.3380 -2.2240
 5699SOL    HW228731   0.502   3.769   5.171 -0.8190 -0.9231  2.6002
 5700SOL     OW28732   1.241   0.565   9.448 -0.7629  0.6671 -0.3673
 5700SOL    HW128733   1.188   0.486   9.461  1.2365 -0.4792  0.7705
 5700SOL    HW228734   1.259   0.563   9.354 -0.3507 -1.6599 -0.2261
 5701SOL     OW28735   2.665   3.679   6.864 -0.1015  0.1261  0.0031
 5701SOL    HW128736   2.756   3.693   6.889  0.0469 -0.6046 -0.1325
 5701SOL    HW228737   2.688   3.657   6.774  0.4422  1.1542 -0.1160
 5702SOL     OW28738   0.348   3.406   7.893  0.3813  0.0300 -0.4023
 5702SOL    HW128739   0.330   3.313   7.885  0.1636  0.1503 -1.2036
 5702SOL    HW228740   0.415   3.405   7.962  0.1119 -0.4045 -0.1505
 5703SOL     OW28741   0.674   3.357  13.283  0.2476 -0.0975 -0.3192
 5703SOL    HW128742   0.725   3.308  13.348  0.0061  0.8410  0.5763
 5703SOL    HW228743   0.722   3.324  13.208 -0.0223  0.3600 -0.6930
 5704SOL     OW28744   2.387   3.178   9.014  0.5551  0.8720 -0.2966
 5704SOL    HW128745   2.323   3.234   9.058 -0.1930 -0.1696 -0.0582
 5704SOL    HW228746   2.331   3.115   8.969 -0.2738 -0.1678  2.2446
 5705SOL     OW28747   1.612   1.821  10.073 -0.2403  0.0738  0.3489
 5705SOL    HW128748   1.649   1.909  10.078 -0.7113  0.2330  0.8978
 5705SOL    HW228749   1.692   1.767  10.071  0.0320  0.4109  2.8060
 5706SOL     OW28750   3.519   3.060   6.464  0.0689  0.5483  0.3487
 5706SOL    HW128751   3.449   3.106   6.510  0.2264  1.4300 -0.3036
 5706SOL    HW228752   3.603   3.102   6.483 -0.8142  2.0803  0.8589
 5707SOL     OW28753   3.536   2.704   6.680 -0.1605  0.2875 -0.1422
 5707SOL    HW128754   3.499   2.777   6.728 -2.7920 -1.8346  1.0996
 5707SOL    HW228755   3.569   2.660   6.758  0.7836 -1.0657 -1.2933
 5708SOL     OW28756   0.565   0.469   9.199  0.4036  0.1818 -0.2485
 5708SOL    HW128757   0.566   0.377   9.173  0.3528  0.1958 -0.3025
 5708SOL    HW228758   0.618   0.474   9.278 -1.3603 -1.6854  1.0629
 5709SOL     OW28759   4.546   3.160   8.152 -0.4778 -0.0177  0.0777
 5709SOL    HW128760   4.489   3.115   8.088 -0.8636 -1.0190  1.1248
 5709SOL    HW228761   4.614   3.095   8.167 -0.1298 -0.0009 -1.3995
 5710SOL     OW28762   0.185   0.129   5.874 -0.2222 -0.1339  0.2076
 5710SOL    HW128763   0.142   0.213   5.861  0.3819  0.2941  0.9553
 5710SOL    HW228764   0.113   0.068   5.858 -0.4243  0.1622 -0.0073
 5711SOL     OW28765   0.579   4.489  11.391  0.8857 -0.0888  0.1495
 5711SOL    HW128766   0.544   4.443  11.468  3.2508 -0.2007  1.1566
 5711SOL    HW228767   0.623   4.562  11.434  1.0648  0.4624 -0.9701
 5712SOL     OW28768   2.732   1.488  11.029 -0.5603 -0.2762  0.6558
 5712SOL    HW128769   2.712   1.403  10.991  3.0653 -0.3720 -1.0946
 5712SOL    HW228770   2.642   1.519  11.041 -0.0220  0.7991  1.8441
 5713SOL     OW28771   4.544   3.955   4.741  0.1582  0.1046  0.0413
 5713SOL    HW128772   4.576   4.044   4.753 -1.8258  0.7400  0.6308
 5713SOL    HW228773   4.558   3.945   4.647  2.9638 -0.6440  0.5486
 5714SOL     OW28774   3.173   3.728  17.230  0.5161  0.2443 -0.0719
 5714SOL    HW128775   3.252   3.677  17.249  0.0456 -0.6188 -0.4152
 5714SOL    HW228776   3.199   3.796  17.168 -0.6873  0.1521 -0.6866
 5715SOL     OW28777   2.309   2.312   6.298  0.0160 -0.3209  0.0811
 5715SOL    HW128778   2.281   2.221   6.298  1.3443 -0.7299 -1.3347
 5715SOL    HW228779   2.402   2.311   6.275  0.2336 -1.3893  1.0545
 5716SOL     OW28780   3.001   2.588  10.156  0.4414 -0.0843  0.5056
 5716SOL    HW128781   3.032   2.548  10.238 -1.1158 -0.5525  0.8563
 5716SOL    HW228782   2.923   2.635  10.184  0.7226  0.6288  0.0864
 5717SOL     OW28783   2.735   1.916   4.043  0.2450 -0.1240  0.3781
 5717SOL    HW128784   2.800   1.857   4.006  0.2901 -2.3329  3.9569
 5717SOL    HW228785   2.744   1.908   4.138  0.6530 -0.8438  0.2768
 5718SOL     OW28786   0.200   1.934   0.165  0.3129 -0.5602  0.7514
 5718SOL    HW128787   0.217   2.027   0.149 -2.9043 -0.0453  0.3361
 5718SOL    HW228788   0.182   1.944   0.259  1.3059 -1.2637  1.0180
 5719SOL     OW28789   0.060   2.980   2.510  0.1897 -0.7876  0.2982
 5719SOL    HW128790   0.063   3.009   2.602 -1.5783  5.4725 -1.5896
 5719SOL    HW228791   4.711   2.938   2.516 -0.7750  1.2390  0.7809
 5720SOL     OW28792   2.568   2.405   3.665 -0.0750  0.1924  0.2620
 5720SOL    HW128793   2.653   2.364   3.683  0.3150 -0.0148 -2.1439
 5720SOL    HW228794   2.509   2.349   3.716 -1.8179  3.1675  1.4619
 5721SOL     OW28795   4.583   0.422   0.598 -0.4342  0.1753 -0.4353
 5721SOL    HW128796   4.612   0.496   0.545 -2.6756  0.3004 -1.4664
 5721SOL    HW228797   4.527   0.479   0.651 -0.3205  1.0417 -1.2510
 5722SOL     OW28798   2.454   3.287   2.142  0.4352  0.5479  0.3921
 5722SOL    HW128799   2.495   3.344   2.077  0.1351  2.3108  1.7272
 5722SOL    HW228800   2.372   3.272   2.096  0.7054 -0.0958  0.1255
 5723SOL     OW28801   1.113   4.030  16.192  0.1537 -0.1830 -0.2079
 5723SOL    HW128802   1.105   4.123  16.214  0.3435  0.0899 -1.2737
 5723SOL    HW228803   1.170   3.999  16.262  1.0320  2.0415  0.0691
 5724SOL     OW28804   0.443   0.512   8.089  0.1362 -0.4767 -0.3733
 5724SOL    HW128805   0.409   0.553   8.010 -0.3677 -0.0918  0.0482
 5724SOL    HW228806   0.441   0.582   8.154  2.5515  0.0506 -0.8542
 5725SOL     OW28807   3.207   0.598   7.838  0.1338  0.0385 -0.4772
 5725SOL    HW128808   3.152   0.663   7.881  0.8605 -0.0979  0.6605
 5725SOL    HW228809   3.184   0.521   7.890 -0.4026  1.1711  0.9453
 5726SOL     OW28810   3.302   4.505   1.821  0.1762  0.3850 -0.9183
 5726SOL    HW128811   3.328   4.440   1.755 -3.0761  0.2712 -2.1098
 5726SOL    HW228812   3.222   4.538   1.781  1.1056  1.3113 -2.0143
 5727SOL     OW28813   0.756   3.523   6.414 -0.1015 -0.0588 -0.0304
 5727SOL    HW128814   0.819   3.518   6.343  1.9095  1.4843  1.6492
 5727SOL    HW228815   0.675   3.545   6.369  0.8464  2.2319 -0.5756
 5728SOL     OW28816   2.907   1.476   3.020 -0.2775  0.2282 -0.5586
 5728SOL    HW128817   3.002   1.474   3.009 -0.2168  0.8430 -0.1422
 5728SOL    HW228818   2.891   1.384   3.044  0.0272  0.3403  0.0644
 5729SOL     OW28819   0.564   2.756  17.727 -0.0661 -0.0420 -0.0367
 5729SOL    HW128820   0.617   2.677  17.737 -0.5819 -0.4439 -0.4931
 5729SOL    HW228821   0.600   2.815   0.048  1.0948  1.0101 -1.5952
 5730SOL     OW28822   1.418   1.959   7.461  0.5665  0.1536  0.8160
 5730SOL    HW128823   1.337   1.910   7.453 -0.9820  2.6424  1.2002
 5730SOL    HW228824   1.393   2.033   7.405 -0.8250 -0.2614  0.8990
 5731SOL     OW28825   0.612   2.016   3.426  0.3976 -0.3140  0.0694
 5731SOL    HW128826   0.646   1.930   3.401 -2.2540 -0.9399 -1.4680
 5731SOL    HW228827   0.518   2.008   3.409  0.3318 -3.0310  1.8691
 5732SOL     OW28828   3.944   3.467  16.517 -0.0051 -0.3404 -0.4562
 5732SOL    HW128829   3.976   3.399  16.577  0.7887 -0.0852 -0.5853
 5732SOL    HW228830   3.850   3.461  16.532  0.0725 -0.9956 -0.2281
 5733SOL     OW28831   2.720   1.269   1.102 -0.0508  0.5448 -0.2517
 5733SOL    HW128832   2.707   1.302   1.192  0.9579 -3.1250  1.2133
 5733SOL    HW228833   2.650   1.203   1.101  0.6047 -0.0985 -2.8946
 5734SOL     OW28834   3.263   3.181  13.784  0.4542 -0.0436 -0.5196
 5734SOL    HW128835   3.182   3.191  13.834  0.2035  1.1714 -1.1496
 5734SOL    HW228836   3.325   3.148  13.849 -1.9025 -2.5760  0.4043
 5735SOL     OW28837   0.875   3.840  14.492 -0.1204  0.2163  0.5099
 5735SOL    HW128838   0.899   3.918  14.541  0.1070  1.0364 -0.9103
 5735SOL    HW228839   0.945   3.780  14.517  0.1926  0.5603  0.4590
 5736SOL     OW28840   4.304   2.481  16.701 -0.4451 -0.4507 -0.4100
 5736SOL    HW128841   4.263   2.421  16.764 -0.4549  0.8386  0.8330
 5736SOL    HW228842   4.351   2.541  16.759  0.5418 -1.9062  0.2854
 5737SOL     OW28843   1.266   3.117   0.564  0.1237  0.2077  0.2657
 5737SOL    HW128844   1.293   3.181   0.498 -1.1996  2.2676  1.7069
 5737SOL    HW228845   1.176   3.148   0.573  0.7320  1.2573  2.8500
 5738SOL     OW28846   4.389   2.208   6.468 -0.5390 -0.2394 -0.7208
 5738SOL    HW128847   4.467   2.254   6.499 -1.2631  0.4532  0.0420
 5738SOL    HW228848   4.422   2.118   6.470  1.7763  0.5185 -3.7133
 5739SOL     OW28849   1.990   2.942   9.866 -0.5416 -0.7166  0.1597
 5739SOL    HW128850   1.897   2.961   9.876 -0.4184  0.0707 -0.2168
 5739SOL    HW228851   1.981   2.880   9.793 -0.0776  0.2879 -0.7602
 5740SOL     OW28852   3.928   2.716  10.771 -0.3473 -0.5370  0.8109
 5740SOL    HW128853   3.935   2.787  10.707  0.0276 -1.7065 -0.4597
 5740SOL    HW228854   3.857   2.668  10.727  1.0912 -2.4678  0.5660
 5741SOL     OW28855   1.323   1.295   6.616  0.1608 -0.3017 -0.1608
 5741SOL    HW128856   1.269   1.243   6.556 -0.0089 -1.2903  0.8520
 5741SOL    HW228857   1.316   1.239   6.693 -0.1250  1.5566  1.1717
 5742SOL     OW28858   4.130   2.878  11.247  0.2427  0.5990 -0.7479
 5742SOL    HW128859   4.163   2.842  11.165  0.6569 -0.4181 -0.1366
 5742SOL    HW228860   4.050   2.920  11.215 -1.0433  0.0466  1.7388
 5743SOL     OW28861   0.381   1.471   3.021 -0.4449 -0.2116  0.1674
 5743SOL    HW128862   0.412   1.543   3.076 -0.0563 -0.5203  0.3575
 5743SOL    HW228863   0.378   1.393   3.076 -1.8353  0.4108  0.9482
 5744SOL     OW28864   2.527   4.600  12.619  0.1848 -0.2885  0.1967
 5744SOL    HW128865   2.474   4.678  12.604 -1.5699 -1.5865 -0.4197
 5744SOL    HW228866   2.477   4.557  12.688  1.6935 -0.9119  0.9021
 5745SOL     OW28867   3.631   2.780   3.059  0.2169  0.0110 -0.1203
 5745SOL    HW128868   3.598   2.754   2.973 -0.1072  2.6475 -0.7798
 5745SOL    HW228869   3.670   2.697   3.089  0.3326 -0.0345 -0.3987
 5746SOL     OW28870   3.977   4.413   9.082  0.7146 -0.7165  0.0578
 5746SOL    HW128871   4.034   4.336   9.077 -0.7192 -1.8447  0.9597
 5746SOL    HW228872   4.040   4.481   9.057  0.8738 -2.1719 -3.4171
 5747SOL     OW28873   4.663   0.225   7.786  0.4418  0.6883 -0.3252
 5747SOL    HW128874   4.589   0.264   7.741 -0.2060  0.5116  0.5991
 5747SOL    HW228875   0.001   0.268   7.744 -0.2628 -0.1485 -2.4423
 5748SOL     OW28876   0.940   3.747   0.619  0.0086  0.0466  0.4968
 5748SOL    HW128877   1.013   3.686   0.624 -1.5233 -1.6030  2.5543
 5748SOL    HW228878   0.868   3.690   0.592  0.1983  0.0116  0.0640
 5749SOL     OW28879   1.335   1.734  12.080 -0.0050 -0.6045  0.2693
 5749SOL    HW128880   1.355   1.773  11.995  2.4966  0.5408  1.3986
 5749SOL    HW228881   1.344   1.807  12.141  1.1016  0.4324 -1.1344
 5750SOL     OW28882   0.748   4.511   4.883 -0.4508  0.1133 -0.6486
 5750SOL    HW128883   0.750   4.473   4.795  0.6867 -0.4381 -0.3847
 5750SOL    HW228884   0.719   4.439   4.939 -0.5617  0.0657 -0.7669
 5751SOL     OW28885   2.924   1.869   3.247  0.6997  0.1669  0.3700
 5751SOL    HW128886   2.991   1.936   3.232  0.4992  0.4119  0.5724
 5751SOL    HW228887   2.961   1.815   3.317 -0.2435 -2.9924 -1.5600
 5752SOL     OW28888   3.535   2.431   1.289  0.3863 -0.1693  0.6577
 5752SOL    HW128889   3.614   2.407   1.338  0.4686 -1.1679  0.0367
 5752SOL    HW228890   3.551   2.381   1.208 -2.1558 -2.4495  1.5878
 5753SOL     OW28891   4.043   4.196   6.612 -0.4786 -0.4025  0.3095
 5753SOL    HW128892   4.109   4.244   6.662 -0.0444 -0.4129 -0.2551
 5753SOL    HW228893   4.052   4.124   6.674  1.1639 -2.4672 -2.3377
 5754SOL     OW28894   2.465   0.264   9.230  0.3255 -0.0769  0.2873
 5754SOL    HW128895   2.464   0.346   9.280  0.4612 -0.4322  0.8693
 5754SOL    HW228896   2.527   0.208   9.276  1.5407 -0.0894 -1.3433
 5755SOL     OW28897   4.721   2.127   9.277  0.1586 -0.2895  0.3754
 5755SOL    HW128898   4.706   2.212   9.233  1.4332 -0.7289 -0.9118
 5755SOL    HW228899   4.716   2.058   9.211 -2.9520  1.8437 -1.6278
 5756SOL     OW28900   1.643   4.478   8.275  0.6273 -0.2667 -0.3802
 5756SOL    HW128901   1.716   4.518   8.322  1.6275 -1.9802 -0.4893
 5756SOL    HW228902   1.589   4.450   8.348  0.7342  0.7865  0.0931
 5757SOL     OW28903   1.859   3.994   9.199 -0.4736  0.1176 -0.2706
 5757SOL    HW128904   1.910   4.045   9.261 -1.7490 -0.5095  1.2900
 5757SOL    HW228905   1.769   3.996   9.233 -0.2073 -1.1791  0.5051
 5758SOL     OW28906   3.112   1.409   6.459 -0.2490  0.1567 -0.3920
 5758SOL    HW128907   3.084   1.321   6.485  0.4659 -0.0287 -0.2414
 5758SOL    HW228908   3.159   1.444   6.535  0.3558  0.7320 -1.0331
 5759SOL     OW28909   3.212   0.757   7.229  0.3980 -0.1778 -0.5299
 5759SOL    HW128910   3.160   0.696   7.177  1.3112  0.9329 -2.7525
 5759SOL    HW228911   3.266   0.800   7.162 -1.5743  1.1705 -1.2523
 5760SOL     OW28912   3.509   4.493   0.501  0.2041  0.2149 -0.2223
 5760SOL    HW128913   3.435   4.495   0.440 -0.6532 -0.5232  0.7877
 5760SOL    HW228914   3.454   4.493   0.579  1.9521  0.2021  0.9974
 5761SOL     OW28915   3.702   3.117  10.285 -0.1906  0.1053  0.5401
 5761SOL    HW128916   3.728   3.044  10.341  2.4998 -0.1081 -0.9629
 5761SOL    HW228917   3.763   3.101  10.213 -1.1872  1.2157 -0.5415
 5762SOL     OW28918   2.803   0.569   2.518 -0.8669  0.1394  0.1620
 5762SOL    HW128919   2.891   0.547   2.550 -2.4744 -1.9489  3.1533
 5762SOL    HW228920   2.780   0.653   2.557  0.8732 -0.5181  2.6524
 5763SOL     OW28921   4.386   1.149  11.678 -0.2335  0.6358  0.2843
 5763SOL    HW128922   4.364   1.142  11.585 -0.1019  0.3697  0.2714
 5763SOL    HW228923   4.481   1.159  11.669 -0.3147 -0.7119 -2.0510
 5764SOL     OW28924   2.133   1.247   7.580 -0.0028 -0.1055  0.3776
 5764SOL    HW128925   2.186   1.254   7.660 -0.5716 -3.1037  0.9920
 5764SOL    HW228926   2.049   1.284   7.606  0.6808  0.5180  1.6825
 5765SOL     OW28927   1.862   0.688   6.230  0.4487  0.2040 -0.0453
 5765SOL    HW128928   1.904   0.723   6.151 -0.3566  1.5393  0.1269
 5765SOL    HW228929   1.929   0.700   6.297  1.4820 -0.3490 -0.9672
 5766SOL     OW28930   0.518   3.720   7.843 -0.4219 -0.6075 -0.2296
 5766SOL    HW128931   0.471   3.659   7.787 -0.1723 -0.1705 -0.9231
 5766SOL    HW228932   0.439   3.765   7.874  0.2101 -0.2658  0.8982
 5767SOL     OW28933   2.259   1.564  11.703  0.1760  0.2712 -0.3995
 5767SOL    HW128934   2.280   1.515  11.782 -0.9302 -1.8659 -1.4328
 5767SOL    HW228935   2.220   1.496  11.648 -0.2588 -0.8930  1.3556
 5768SOL     OW28936   2.279   2.039   6.257  0.1512 -0.1799 -0.2454
 5768SOL    HW128937   2.220   2.016   6.186 -0.1620  0.2038 -0.1087
 5768SOL    HW228938   2.354   1.981   6.241  0.0560 -0.3263 -0.1560
 5769SOL     OW28939   4.435   0.811   8.669  0.3864  0.4177  0.5883
 5769SOL    HW128940   4.367   0.790   8.733  1.0860 -1.0692  0.8361
 5769SOL    HW228941   4.404   0.766   8.590 -2.5490  0.8967  1.4725
 5770SOL     OW28942   3.894   4.060   3.945  0.4299 -0.2701 -0.6937
 5770SOL    HW128943   3.965   4.083   3.885  2.0913 -1.4025  0.8392
 5770SOL    HW228944   3.820   4.059   3.884  0.8479  0.6394 -1.2176
 5771SOL     OW28945   4.720   4.296  13.874  0.2765 -0.6096  0.0647
 5771SOL    HW128946   4.639   4.342  13.893  0.2254 -0.0524 -1.4477
 5771SOL    HW228947   0.052   4.347  13.917  0.4007 -1.5196  0.9275
 5772SOL     OW28948   4.679   1.229   5.966  0.0353  0.3892 -0.3421
 5772SOL    HW128949   4.669   1.273   5.882  2.1460  0.9975 -0.2653
 5772SOL    HW228950   0.036   1.212   5.967 -0.3680 -1.8225  2.1649
 5773SOL     OW28951   2.831   1.221   2.026 -0.7593 -0.2170  0.7513
 5773SOL    HW128952   2.884   1.166   2.084 -0.8431 -1.7037 -0.5920
 5773SOL    HW228953   2.751   1.214   2.078 -2.6162 -0.1521 -2.0856
 5774SOL     OW28954   2.606   1.610  14.212 -0.2481 -0.3573  0.2661
 5774SOL    HW128955   2.561   1.563  14.282  0.0200  1.2374  1.5210
 5774SOL    HW228956   2.536   1.611  14.148  0.0284 -1.3116 -0.0410
 5775SOL     OW28957   4.402   4.040   7.309 -0.8223  0.6519  0.4667
 5775SOL    HW128958   4.341   4.084   7.250 -2.1265  0.2919  1.5611
 5775SOL    HW228959   4.384   4.096   7.384  0.1276  0.9565  0.4636
 5776SOL     OW28960   2.347   1.397   2.880  0.3636 -0.4297 -0.6736
 5776SOL    HW128961   2.257   1.406   2.910 -0.3753 -0.6623 -2.8308
 5776SOL    HW228962   2.388   1.480   2.907 -0.2297  0.2698 -1.9392
 5777SOL     OW28963   2.658   3.842  14.967  0.6787 -0.1853 -0.0954
 5777SOL    HW128964   2.599   3.844  14.892 -0.4762 -0.2746  0.8157
 5777SOL    HW228965   2.746   3.865  14.937 -0.0319 -0.8415 -2.6233
 5778SOL     OW28966   2.140   4.548   5.818  0.1571  0.1713  0.2122
 5778SOL    HW128967   2.163   4.512   5.903  0.1231 -3.7596 -1.4312
 5778SOL    HW228968   2.224   4.592   5.805 -0.1345  1.1542  1.7209
 5779SOL     OW28969   4.716   4.638   8.190  0.0028  0.0357  0.1106
 5779SOL    HW128970   0.035   4.644   8.112 -0.3396  2.5145  0.0855
 5779SOL    HW228971   4.684   4.549   8.173 -0.9219  0.2587  0.7213
 5780SOL     OW28972   2.437   2.332   8.495  0.6991 -0.3306  0.9105
 5780SOL    HW128973   2.486   2.267   8.546 -0.0231 -1.5683  0.0437
 5780SOL    HW228974   2.346   2.322   8.525  0.9599  1.1116  2.1548
 5781SOL     OW28975   1.277   0.611   4.994  0.4847  0.3125  0.6646
 5781SOL    HW128976   1.206   0.646   4.940 -0.3788 -1.3582  0.7318
 5781SOL    HW228977   1.327   0.690   5.016  0.7566  0.9850 -2.3966
 5782SOL     OW28978   4.460   2.382   1.981 -0.1813 -0.2469 -0.3131
 5782SOL    HW128979   4.449   2.420   1.894 -0.1170  1.4070  0.4024
 5782SOL    HW228980   4.440   2.290   1.969 -0.3751  0.0574 -2.4077
 5783SOL     OW28981   1.108   2.997  16.201  0.2061 -0.3459  0.3863
 5783SOL    HW128982   1.187   3.029  16.158 -0.8773  0.8021 -0.7295
 5783SOL    HW228983   1.137   3.003  16.292 -2.8718 -1.9793  1.4832
 5784SOL     OW28984   4.398   3.391   7.452  0.6719 -0.2319 -0.4687
 5784SOL    HW128985   4.363   3.314   7.407  0.9592 -1.1422  0.8293
 5784SOL    HW228986   4.488   3.362   7.469  0.8067  0.0549 -0.7072
 5785SOL     OW28987   2.437   2.289   1.157 -0.6156  0.1431 -0.4972
 5785SOL    HW128988   2.394   2.373   1.140  0.0837  0.4367 -0.8033
 5785SOL    HW228989   2.469   2.264   1.070  1.2549 -0.6927  0.4425
 5786SOL     OW28990   3.529   2.060   5.786  0.3473 -0.8639  0.3383
 5786SOL    HW128991   3.458   1.997   5.797 -0.7583  0.4513  0.7491
 5786SOL    HW228992   3.499   2.131   5.843 -0.3755 -0.0795 -1.0092
 5787SOL     OW28993   4.179   3.900   4.986  0.8728  0.1242 -0.0502
 5787SOL    HW128994   4.151   3.979   4.940 -0.9372  0.8753  2.3077
 5787SOL    HW228995   4.158   3.835   4.919  0.6280 -1.0411  1.1612
 5788SOL     OW28996   2.588   1.466   7.430  0.5822 -0.3311  0.4976
 5788SOL    HW128997   2.502   1.455   7.470  0.5266 -1.5783  0.0143
 5788SOL    HW228998   2.625   1.552   7.451 -0.1398 -0.4319  2.1707
 5789SOL     OW28999   1.376   2.988   0.809  0.0701  0.5264  0.5805
 5789SOL    HW129000   1.348   3.040   0.734  0.3098 -1.4443 -0.8703
 5789SOL    HW229001   1.359   3.050   0.881 -1.8579 -1.3081  1.6983
 5790SOL     OW29002   0.657   3.236  11.855  0.0131  0.0601 -0.3647
 5790SOL    HW129003   0.670   3.284  11.937  0.3506 -0.0069 -0.3812
 5790SOL    HW229004   0.592   3.172  11.885 -1.6328  1.8646 -0.0643
 5791SOL     OW29005   2.871   3.305   7.789  0.0288 -0.0933 -0.1680
 5791SOL    HW129006   2.812   3.261   7.850  1.6326 -1.0423  0.7122
 5791SOL    HW229007   2.877   3.237   7.722 -0.7303  0.8926 -1.2530
 5792SOL     OW29008   3.422   0.411   6.322  0.2171  0.0994 -0.0735
 5792SOL    HW129009   3.459   0.451   6.400  1.6407 -0.1721 -0.6141
 5792SOL    HW229010   3.382   0.488   6.282  0.5197 -1.0627 -2.6200
 5793SOL     OW29011   3.724   0.149   4.024 -0.2892  0.3198 -0.4341
 5793SOL    HW129012   3.643   0.109   3.993 -0.5415  0.4314  0.0668
 5793SOL    HW229013   3.768   0.142   3.940 -0.3317  0.8573 -0.5010
 5794SOL     OW29014   1.339   1.271   0.117  0.7736 -0.2911  0.1841
 5794SOL    HW129015   1.292   1.352   0.099  2.4189  1.1549  2.3710
 5794SOL    HW229016   1.302   1.250   0.203  2.6753  1.4076  1.4132
 5795SOL     OW29017   0.146   0.228   5.545  0.3897 -0.5477  0.3123
 5795SOL    HW129018   0.220   0.170   5.558 -0.8214 -2.1341  0.1577
 5795SOL    HW229019   0.181   0.295   5.487 -0.7952 -1.0636 -0.9911
 5796SOL     OW29020   4.112   1.632   9.754 -0.0465  0.3601 -0.8421
 5796SOL    HW129021   4.054   1.556   9.745 -1.5610  1.5691 -1.2976
 5796SOL    HW229022   4.170   1.622   9.679 -0.7704 -1.5255 -1.1730
 5797SOL     OW29023   0.133   4.186   0.687 -0.0929  0.3912 -0.6199
 5797SOL    HW129024   0.086   4.269   0.702 -0.5248  0.3892 -1.9286
 5797SOL    HW229025   0.097   4.137   0.760  0.3584  0.8192 -0.1105
 5798SOL     OW29026   3.511   3.680  15.954 -0.0816  0.0234  0.2526
 5798SOL    HW129027   3.533   3.763  15.997  0.4164  0.9998 -1.9184
 5798SOL    HW229028   3.593   3.631  15.955  0.5354  1.0449 -0.3610
 5799SOL     OW29029   3.753   1.389   8.321 -0.0250  0.4932  0.2108
 5799SOL    HW129030   3.803   1.319   8.364 -0.7189 -0.9349 -1.3283
 5799SOL    HW229031   3.791   1.469   8.357 -0.3577  0.0826  1.4901
 5800SOL     OW29032   0.012   3.673  13.060 -0.3552 -0.5677 -0.2443
 5800SOL    HW129033   0.061   3.593  13.041  0.6232  0.1462 -0.6775
 5800SOL    HW229034   4.729   3.707  12.973 -2.6378 -2.5789 -0.5138
 5801SOL     OW29035   2.088   3.883   1.831  0.1774  0.3040  0.2022
 5801SOL    HW129036   2.078   3.957   1.891 -1.0341  1.9528 -2.0358
 5801SOL    HW229037   2.048   3.810   1.878 -0.3792  1.9258  2.2291
 5802SOL     OW29038   1.345   1.358  16.181  0.1046  0.3348 -0.4964
 5802SOL    HW129039   1.351   1.372  16.275 -0.7687 -1.7302 -0.1370
 5802SOL    HW229040   1.308   1.270  16.179 -2.2908  1.3727 -1.8175
 5803SOL     OW29041   2.369   0.065  17.626  0.0064 -0.2932 -0.1278
 5803SOL    HW129042   2.292   0.119  17.645 -1.1287 -2.5306  1.6655
 5803SOL    HW229043   2.443   0.125  17.619  0.6767 -1.2126 -0.9168
 5804SOL     OW29044   1.077   3.911   4.527  0.3009  0.3953 -0.1042
 5804SOL    HW129045   1.154   3.875   4.570  0.6783  0.3576 -0.8113
 5804SOL    HW229046   1.120   3.934   4.444 -2.7497 -0.8460 -2.0614
 5805SOL     OW29047   1.220   3.080   8.272  0.3243 -0.5836 -0.2255
 5805SOL    HW129048   1.216   3.037   8.357  1.5071 -2.6290 -1.1742
 5805SOL    HW229049   1.148   3.142   8.266  0.0760 -0.8645 -0.1198
 5806SOL     OW29050   2.797   2.173   7.185  0.5989 -0.0540 -0.2307
 5806SOL    HW129051   2.847   2.254   7.196  0.5660 -0.1221  0.4125
 5806SOL    HW229052   2.849   2.109   7.235  1.2404  0.1773 -0.6045
 5807SOL     OW29053   4.024   2.337  13.900 -0.0892 -0.5181 -0.1151
 5807SOL    HW129054   4.010   2.293  13.984  0.9596 -1.2546 -0.3338
 5807SOL    HW229055   4.027   2.429  13.929 -0.0774 -0.8527  0.9548
 5808SOL     OW29056   0.834   4.314  11.675  0.2884 -0.4796 -0.7548
 5808SOL    HW129057   0.841   4.339  11.583  0.3131 -0.0347 -0.6312
 5808SOL    HW229058   0.922   4.330  11.708  0.2858 -0.3033 -0.8357
 5809SOL     OW29059   4.304   0.657  15.891  0.8472 -0.5160 -0.5699
 5809SOL    HW129060   4.322   0.684  15.981 -1.9297  1.0561 -0.4917
 5809SOL    HW229061   4.220   0.613  15.902  0.2596  0.0585 -2.8821
 5810SOL     OW29062   1.963   3.787   3.451 -0.2029 -0.5345 -0.0062
 5810SOL    HW129063   1.963   3.876   3.485  1.0029 -0.6805  0.3680
 5810SOL    HW229064   1.882   3.754   3.490  0.0855  0.1535  1.1480
 5811SOL     OW29065   2.347   4.113   7.569 -0.2434  0.8138  0.0100
 5811SOL    HW129066   2.287   4.100   7.496 -2.6321  1.5406  1.8620
 5811SOL    HW229067   2.385   4.026   7.584  0.1499  0.5631 -2.3168
 5812SOL     OW29068   4.099   4.055  17.427  0.2286 -0.4247  0.3027
 5812SOL    HW129069   4.031   4.023  17.487 -0.1328  0.5263  0.4117
 5812SOL    HW229070   4.165   4.097  17.483  1.6974 -0.7455 -1.1861
 5813SOL     OW29071   1.543   1.622   7.628 -0.0106  0.3370 -0.3759
 5813SOL    HW129072   1.598   1.686   7.672  0.6464  0.7209 -1.7546
 5813SOL    HW229073   1.581   1.623   7.540 -1.8784  0.6294 -1.1646
 5814SOL     OW29074   2.407   1.928   7.787 -0.5594  0.1340  0.3124
 5814SOL    HW129075   2.364   2.012   7.801  0.6331  0.2899  3.0319
 5814SOL    HW229076   2.365   1.861   7.841 -0.1624  0.0592  0.5333
 5815SOL     OW29077   4.730   3.282   8.802  0.6001  0.3930 -0.4880
 5815SOL    HW129078   0.083   3.314   8.794  1.1073 -1.2558 -1.5155
 5815SOL    HW229079   4.697   3.288   8.712  1.6000 -0.9507 -0.9332
 5816SOL     OW29080   1.113   4.617  11.220  0.4400  0.2547 -0.2232
 5816SOL    HW129081   1.065   4.686  11.264 -0.2197 -0.5913  0.3885
 5816SOL    HW229082   1.145   4.559  11.290 -1.8752  0.3229  0.8835
 5817SOL     OW29083   3.064   3.310   2.520  0.1014  0.4707 -0.6628
 5817SOL    HW129084   3.067   3.406   2.522 -1.5895  0.5158 -0.0016
 5817SOL    HW229085   3.118   3.289   2.597  2.7274  3.7166 -1.6279
 5818SOL     OW29086   1.678   3.377   5.901 -0.3211  0.4453  0.1258
 5818SOL    HW129087   1.647   3.434   5.831 -1.8602  1.0633  1.3094
 5818SOL    HW229088   1.596   3.336   5.927  0.1691 -0.7725 -0.2125
 5819SOL     OW29089   0.330   4.651   3.934 -0.0817  0.4410  0.3496
 5819SOL    HW129090   0.274   4.628   3.860  2.2145 -2.6068 -0.4330
 5819SOL    HW229091   0.272   4.640   4.009  0.7917 -0.3132  0.9126
 5820SOL     OW29092   1.977   0.241   3.534  0.8909 -0.6312  0.0797
 5820SOL    HW129093   1.912   0.309   3.554  1.6287 -0.5322  2.1414
 5820SOL    HW229094   1.932   0.198   3.462  1.0292 -3.2931  1.5654
 5821SOL     OW29095   0.822   2.946   6.503 -0.5672 -0.2996 -0.1087
 5821SOL    HW129096   0.873   3.027   6.491 -1.3705  0.0148 -1.3936
 5821SOL    HW229097   0.865   2.922   6.585 -2.3132 -1.6592  0.3987
 5822SOL     OW29098   4.724   0.227   4.754  0.5878  0.6292  0.2057
 5822SOL    HW129099   0.056   0.273   4.707  0.6140  0.3661 -0.0188
 5822SOL    HW229100   0.025   0.212   4.841  0.0078 -2.3382 -0.0270
 5823SOL     OW29101   2.562   2.569  14.250 -0.1384  0.1736 -0.1836
 5823SOL    HW129102   2.565   2.656  14.210  0.9076 -0.6590 -1.8954
 5823SOL    HW229103   2.467   2.553  14.245 -0.1915  0.6325 -0.6072
 5824SOL     OW29104   3.052   3.318   4.819  0.1360  0.3013 -0.0304
 5824SOL    HW129105   2.969   3.277   4.842 -0.7338  0.9393 -2.0752
 5824SOL    HW229106   3.078   3.236   4.778 -1.1766  0.6049 -1.4224
 5825SOL     OW29107   1.960   3.754   9.233 -0.2543  0.5117  0.4802
 5825SOL    HW129108   1.933   3.842   9.208 -2.1381  0.1037  1.0579
 5825SOL    HW229109   2.013   3.731   9.157 -0.2713 -1.6889  1.1437
 5826SOL     OW29110   3.236   2.981   6.970  0.4890  1.2205 -0.3896
 5826SOL    HW129111   3.149   2.951   6.996  1.0098 -0.7931 -1.0170
 5826SOL    HW229112   3.240   3.073   6.998  1.9603  0.4033  2.0328
 5827SOL     OW29113   4.146   2.282  11.569  0.0324 -0.1784  0.1448
 5827SOL    HW129114   4.099   2.307  11.649  1.3097  0.8879  0.5680
 5827SOL    HW229115   4.141   2.186  11.568  1.3551 -0.2595  0.2459
 5828SOL     OW29116   1.104   4.080   7.173 -0.6185  0.1075  0.0093
 5828SOL    HW129117   1.126   3.988   7.187  0.3982  0.5176  1.1163
 5828SOL    HW229118   1.055   4.066   7.091  0.5706  1.0156 -0.8616
 5829SOL     OW29119   2.223   1.942  14.120  0.4803 -0.3295  0.3662
 5829SOL    HW129120   2.208   1.892  14.039  0.5202  1.2893 -0.6297
 5829SOL    HW229121   2.223   2.030  14.082  1.1310 -1.0425 -1.2923
 5830SOL     OW29122   0.305   1.598  10.783  0.0673  0.7773 -0.1198
 5830SOL    HW129123   0.344   1.512  10.766  2.2039  1.5851  0.6441
 5830SOL    HW229124   0.341   1.618  10.869  0.4384 -0.5182  0.0196
 5831SOL     OW29125   1.753   2.482   8.508  0.0812 -0.0533  0.4816
 5831SOL    HW129126   1.716   2.396   8.528  2.6105 -0.7302  2.2744
 5831SOL    HW229127   1.729   2.477   8.415  0.2252  1.6016  0.3611
 5832SOL     OW29128   2.802   1.431  11.277  0.8525 -0.0756  0.0131
 5832SOL    HW129129   2.801   1.444  11.182 -0.0868 -0.3040 -0.0027
 5832SOL    HW229130   2.753   1.507  11.308 -1.4168 -1.4705 -0.1924
 5833SOL     OW29131   2.858   4.449   0.339 -0.4469  0.0859  0.3422
 5833SOL    HW129132   2.912   4.464   0.262  0.2539 -0.5761  0.7058
 5833SOL    HW229133   2.913   4.381   0.377  0.3694 -0.1958 -1.3503
 5834SOL     OW29134   3.144   3.410   5.320  0.1309 -0.0193  1.2273
 5834SOL    HW129135   3.198   3.420   5.242 -1.3846 -0.0967  0.1798
 5834SOL    HW229136   3.179   3.479   5.376  0.8875  2.2672 -2.1322
 5835SOL     OW29137   0.430   3.326   3.764  0.1280 -0.0532 -0.1955
 5835SOL    HW129138   0.489   3.252   3.779  0.2248  0.4278  1.8132
 5835SOL    HW229139   0.425   3.338   3.670  2.0351 -0.2181 -0.3112
 5836SOL     OW29140   2.892   0.221   2.294 -0.4017  0.3415 -0.0713
 5836SOL    HW129141   2.814   0.168   2.313 -0.0360 -0.4099 -0.6654
 5836SOL    HW229142   2.939   0.211   2.377 -0.3631 -0.0637 -0.1426
 5837SOL     OW29143   1.177   4.573   2.916  0.6489 -0.4857 -0.3406
 5837SOL    HW129144   1.252   4.631   2.929 -0.6483  1.0790  0.1196
 5837SOL    HW229145   1.146   4.565   3.006  1.5810  1.1087  0.1209
 5838SOL     OW29146   4.559   1.085   3.554 -0.0992  0.0555  0.7349
 5838SOL    HW129147   4.611   1.165   3.564 -1.9603  1.3005  0.5070
 5838SOL    HW229148   4.480   1.122   3.514 -1.4862 -0.9260  2.5687
 5839SOL     OW29149   0.717   3.532   6.058  0.2883 -0.6394  0.3486
 5839SOL    HW129150   0.739   3.625   6.062  2.5844 -1.1374 -0.9132
 5839SOL    HW229151   0.647   3.525   6.123 -1.3991  1.5984 -1.2159
 5840SOL     OW29152   1.578   2.149   3.382  0.2344 -0.1690  0.1248
 5840SOL    HW129153   1.493   2.186   3.358 -1.4121 -1.6639  3.7748
 5840SOL    HW229154   1.554   2.058   3.365 -0.7766  0.2083 -0.4942
 5841SOL     OW29155   2.793   1.758  16.385 -0.2990 -0.4352 -0.0867
 5841SOL    HW129156   2.849   1.785  16.312  1.9023 -0.9657  1.3718
 5841SOL    HW229157   2.740   1.835  16.407 -0.0254 -0.5128  0.8579
 5842SOL     OW29158   4.408   0.643  13.246  0.2295 -0.1302  0.1903
 5842SOL    HW129159   4.438   0.559  13.212  2.7544  0.6166  0.5369
 5842SOL    HW229160   4.325   0.614  13.283  0.0065 -0.1626 -0.3486
 5843SOL     OW29161   2.053   1.738  16.879  0.1174 -0.4744 -0.2656
 5843SOL    HW129162   2.117   1.747  16.949 -0.2377  1.0732 -0.1206
 5843SOL    HW229163   2.098   1.790  16.812  0.3575  0.8523  0.9236
 5844SOL     OW29164   0.471   1.491   9.749 -0.8118 -0.3997 -0.0816
 5844SOL    HW129165   0.414   1.546   9.696  0.3127  1.2329  0.4245
 5844SOL    HW229166   0.413   1.432   9.797  0.8202  0.8638  3.4445
 5845SOL     OW29167   4.376   1.257   3.419  0.3704 -0.3643 -0.2410
 5845SOL    HW129168   4.351   1.235   3.329 -0.0305 -1.0388  0.0402
 5845SOL    HW229169   4.294   1.269   3.467  0.1759  1.3845 -0.9927
 5846SOL     OW29170   2.139   2.545  16.360  0.1740 -0.4395  0.3704
 5846SOL    HW129171   2.111   2.585  16.278  0.5770  0.6828  0.7922
 5846SOL    HW229172   2.209   2.604  16.387  1.9349 -1.7914 -1.2340
 5847SOL     OW29173   1.057   3.558   9.666  0.5292 -0.0202 -0.0753
 5847SOL    HW129174   1.084   3.647   9.645 -0.1122  0.1244 -0.2840
 5847SOL    HW229175   1.025   3.556   9.756  0.0958 -0.4486 -0.2359
 5848SOL     OW29176   2.822   1.529   5.492 -0.1757 -0.1185  0.1661
 5848SOL    HW129177   2.753   1.573   5.543  1.3780  0.5768  1.6832
 5848SOL    HW229178   2.886   1.600   5.497  0.1336 -0.4406  0.8982
 5849SOL     OW29179   2.310   1.950  13.750  0.8097 -0.6238 -0.4547
 5849SOL    HW129180   2.266   1.973  13.668  2.3319 -0.7505 -1.2882
 5849SOL    HW229181   2.293   2.022  13.811  2.0878 -0.5577 -0.1800
 5850SOL     OW29182   1.173   3.012   4.714 -0.0546 -0.2872 -0.2150
 5850SOL    HW129183   1.119   3.091   4.723  0.2909 -0.3043  2.0791
 5850SOL    HW229184   1.245   3.054   4.668 -0.5654  0.0727 -0.6808
 5851SOL     OW29185   1.976   4.089   9.460  0.1183 -0.3260  0.5612
 5851SOL    HW129186   1.947   4.005   9.496  1.0347 -0.3543  1.2059
 5851SOL    HW229187   1.992   4.142   9.537  0.9214  1.0973 -0.5848
 5852SOL     OW29188   2.928   3.785   6.647  0.2827 -0.4510 -0.0521
 5852SOL    HW129189   2.842   3.742   6.638  0.4705 -0.9916  0.7239
 5852SOL    HW229190   2.983   3.711   6.622  0.1083  0.1851 -2.3284
 5853SOL     OW29191   1.561   2.726   8.106  0.4204 -0.7156 -0.3208
 5853SOL    HW129192   1.575   2.815   8.137 -4.9404  0.0985 -0.1749
 5853SOL    HW229193   1.555   2.732   8.011  0.1639 -0.6514 -0.2999
 5854SOL     OW29194   4.579   3.507   6.603  0.7633  0.5370 -0.2338
 5854SOL    HW129195   4.611   3.592   6.573  0.4633  0.8302  0.2887
 5854SOL    HW229196   4.578   3.527   6.697  0.2583 -1.2767  0.1426
 5855SOL     OW29197   2.732   0.246  11.400  0.0643 -0.0652  0.2129
 5855SOL    HW129198   2.763   0.334  11.380  0.2910 -0.5703 -1.6627
 5855SOL    HW229199   2.638   0.262  11.390  0.2434  0.2494 -0.8823
 5856SOL     OW29200   0.063   1.148   4.977  0.7873 -0.1139  0.1159
 5856SOL    HW129201   4.726   1.204   4.998  0.5408 -0.2633 -0.3534
 5856SOL    HW229202   0.103   1.172   5.060  1.9970 -0.1717 -0.4406
 5857SOL     OW29203   4.673   3.394  15.497  0.3938 -0.1944  0.2028
 5857SOL    HW129204   4.662   3.481  15.536  0.0923  0.2661 -0.9058
 5857SOL    HW229205   0.030   3.387  15.483  0.4602  1.0639  0.0242
 5858SOL     OW29206   2.337   1.453  15.703  0.2264  0.4802 -0.4367
 5858SOL    HW129207   2.387   1.534  15.698 -1.1428  1.3503 -0.1493
 5858SOL    HW229208   2.263   1.496  15.747  0.4513  1.0191 -0.5792
 5859SOL     OW29209   3.517   1.420   3.072  0.0925 -0.1937 -0.6059
 5859SOL    HW129210   3.576   1.446   3.143 -1.1728  1.9260 -0.3338
 5859SOL    HW229211   3.438   1.471   3.092  1.9979  2.2229  0.6892
 5860SOL     OW29212   1.182   0.189   5.781 -0.2204 -0.2710  0.4364
 5860SOL    HW129213   1.101   0.221   5.744  0.2204 -1.1776 -1.3080
 5860SOL    HW229214   1.194   0.100   5.748 -2.7114 -0.3124 -0.3098
 5861SOL     OW29215   0.273   1.061   3.698  0.5315  0.3751 -0.0267
 5861SOL    HW129216   0.359   1.103   3.703  0.3571  0.5869  1.1594
 5861SOL    HW229217   0.248   1.106   3.617 -1.2631  3.6742  2.3545
 5862SOL     OW29218   0.199   3.815  11.657  0.7678 -0.0258  0.6654
 5862SOL    HW129219   0.118   3.830  11.705  0.0240 -0.2884 -0.4978
 5862SOL    HW229220   0.171   3.842  11.569 -0.0190  0.3945  1.0480
 5863SOL     OW29221   4.350   4.504   4.153  0.2840 -0.1504  0.0269
 5863SOL    HW129222   4.424   4.518   4.212 -1.4150 -0.9904  2.3301
 5863SOL    HW229223   4.390   4.508   4.066 -0.7564 -1.0065 -0.4825
 5864SOL     OW29224   2.809   0.544   2.062 -0.1610 -0.3515  0.3655
 5864SOL    HW129225   2.772   0.487   2.130 -0.3319 -0.3236  0.2959
 5864SOL    HW229226   2.897   0.558   2.097  0.2332 -0.9008 -0.4015
 5865SOL     OW29227   0.464   1.953   1.222  0.5875 -0.2109 -0.3769
 5865SOL    HW129228   0.371   1.938   1.204  0.4951 -0.7539  0.5818
 5865SOL    HW229229   0.459   1.986   1.311  0.4206  0.4677 -0.6352
 5866SOL     OW29230   3.744   4.492   9.189 -0.1045 -0.0163 -0.7560
 5866SOL    HW129231   3.695   4.430   9.134 -3.1763  1.6791  0.0403
 5866SOL    HW229232   3.833   4.477   9.159  0.0449  1.1744 -0.9037
 5867SOL     OW29233   2.101   1.620   0.359  0.3471 -0.1114 -0.0106
 5867SOL    HW129234   2.187   1.593   0.392  0.5456 -1.7777 -1.8890
 5867SOL    HW229235   2.119   1.648   0.269 -1.3782 -1.5053 -0.7849
 5868SOL     OW29236   3.035   1.704   3.463  0.6700  0.4357  0.0616
 5868SOL    HW129237   3.130   1.706   3.450  0.4900  0.6284 -1.2323
 5868SOL    HW229238   3.022   1.627   3.518 -6.0376  2.4682  1.3986
 5869SOL     OW29239   0.467   3.847   8.121 -0.1020  0.6000 -0.5405
 5869SOL    HW129240   0.540   3.878   8.067  0.6139  0.8547  0.5770
 5869SOL    HW229241   0.492   3.765   8.163  0.3841  1.8900  1.6783
 5870SOL     OW29242   2.007   2.604   3.072 -0.7359  0.1568 -0.0844
 5870SOL    HW129243   1.916   2.630   3.067 -0.6251  0.3415 -0.9746
 5870SOL    HW229244   2.041   2.685   3.035  0.4569 -0.1434  0.3224
 5871SOL     OW29245   0.431   4.281   3.665 -0.1495 -0.3954 -0.1264
 5871SOL    HW129246   0.378   4.204   3.642 -0.6886  0.1456 -0.6852
 5871SOL    HW229247   0.361   4.337   3.698  2.3773  1.6976  1.6608
 5872SOL     OW29248   0.663   0.247   5.938 -0.1055  0.1177  0.3507
 5872SOL    HW129249   0.633   0.168   5.983  0.3071  1.3925  2.8682
 5872SOL    HW229250   0.588   0.303   5.919  0.2431  0.0714 -1.1269
 5873SOL     OW29251   3.496   1.939   2.005 -0.0693 -0.0886 -0.7210
 5873SOL    HW129252   3.472   1.983   2.086 -0.9527  0.7488 -1.4361
 5873SOL    HW229253   3.592   1.946   2.006 -0.3864  4.1288  0.5250
 5874SOL     OW29254   1.128   1.781  11.387 -0.2374 -0.1285  0.5549
 5874SOL    HW129255   1.054   1.796  11.447  0.8070  1.0353  1.5505
 5874SOL    HW229256   1.156   1.691  11.379 -0.4969 -0.0948 -0.6264
 5875SOL     OW29257   1.935   2.384   2.763  0.2714  0.2470  0.5313
 5875SOL    HW129258   1.957   2.385   2.856  1.5369 -0.2510  0.2431
 5875SOL    HW229259   1.841   2.390   2.775  0.4104  0.6564  1.4022
 5876SOL     OW29260   0.142   0.418   7.718  0.4725 -0.2131  0.1391
 5876SOL    HW129261   0.070   0.467   7.678  0.4303  1.2231  2.0051
 5876SOL    HW229262   0.161   0.473   7.794 -0.2391  1.3854 -0.8647
 5877SOL     OW29263   1.913   1.370   6.373  0.1322 -0.3419 -0.1815
 5877SOL    HW129264   1.947   1.451   6.410  2.3004 -1.2044 -0.3115
 5877SOL    HW229265   1.822   1.388   6.351  0.0894 -1.6427 -1.1204
 5878SOL     OW29266   0.076   0.943   0.065  0.7429  0.4596  0.3908
 5878SOL    HW129267   0.130   1.018   0.041  1.1365  1.3369  4.0460
 5878SOL    HW229268   4.730   0.990   0.050  1.1108  1.0501  0.2140
 5879SOL     OW29269   3.214   4.410   9.095 -0.4453  0.3691  0.0887
 5879SOL    HW129270   3.205   4.344   9.163 -1.0127  0.8814  0.5086
 5879SOL    HW229271   3.251   4.483   9.146  0.9884 -0.3990  0.1476
 5880SOL     OW29272   4.147   3.214   7.120 -0.5805  0.4453  0.0893
 5880SOL    HW129273   4.092   3.137   7.126  0.9007 -0.7150 -1.0833
 5880SOL    HW229274   4.176   3.203   7.029 -1.6190  2.0085 -0.4327
 5881SOL     OW29275   4.251   1.193   2.343  0.2296 -0.5694 -0.1453
 5881SOL    HW129276   4.173   1.231   2.303 -1.9006 -4.3529  0.3289
 5881SOL    HW229277   4.224   1.102   2.355 -3.4362  0.6167  0.6481
 5882SOL     OW29278   4.448   3.271  11.106  0.5193  0.0003  0.0831
 5882SOL    HW129279   4.466   3.232  11.020 -0.0932 -0.0582 -0.0234
 5882SOL    HW229280   4.410   3.198  11.154  1.8235 -1.9527 -1.8662
 5883SOL     OW29281   3.805   0.638   6.720  0.1404 -0.4385  0.1470
 5883SOL    HW129282   3.796   0.717   6.666  0.8084 -1.6214 -1.6963
 5883SOL    HW229283   3.725   0.587   6.706  0.7002 -1.3024  0.1094
 5884SOL     OW29284   1.132   4.539   8.214 -0.1148 -0.3663 -0.5836
 5884SOL    HW129285   1.092   4.489   8.143 -1.8760  0.2686 -0.0415
 5884SOL    HW229286   1.065   4.551   8.281 -1.2518 -2.1644 -1.4063
 5885SOL     OW29287   3.104   2.017   6.993 -0.3483  0.0480 -0.1592
 5885SOL    HW129288   3.086   1.938   6.944 -0.4887  0.2118 -0.3679
 5885SOL    HW229289   3.048   2.073   6.939 -1.1642  1.4548  2.1396
 5886SOL     OW29290   0.215   3.460  16.778 -0.5620 -0.4396 -0.3220
 5886SOL    HW129291   0.194   3.505  16.696 -0.1897  1.2617  0.5009
 5886SOL    HW229292   0.157   3.385  16.781 -1.5669  0.3860  0.9793
 5887SOL     OW29293   1.858   2.627   2.166  0.4564  0.3404  0.0416
 5887SOL    HW129294   1.947   2.636   2.201  1.0202  0.2897 -1.4016
 5887SOL    HW229295   1.882   2.558   2.104  1.2161 -0.1524  0.8826
 5888SOL     OW29296   4.375   4.512   0.505 -0.5454 -0.9511  0.2986
 5888SOL    HW129297   4.454   4.489   0.457 -1.1432  0.6850 -1.4785
 5888SOL    HW229298   4.319   4.509   0.427 -0.0814 -1.7055 -0.0007
 5889SOL     OW29299   1.172   4.252   5.912  0.0593 -0.4302 -0.1884
 5889SOL    HW129300   1.218   4.293   5.839  0.9525  1.5128  1.4650
 5889SOL    HW229301   1.091   4.244   5.862 -1.0426  1.5137  1.3029
 5890SOL     OW29302   2.827   2.202  10.715  0.4538  0.6566  0.2987
 5890SOL    HW129303   2.754   2.261  10.699  0.1282  0.3071  0.4956
 5890SOL    HW229304   2.797   2.171  10.800  3.3577  0.3277  1.2226
 5891SOL     OW29305   1.438   3.499   8.298 -0.0561 -0.0699 -0.8023
 5891SOL    HW129306   1.393   3.578   8.328 -0.5371 -1.1076  1.2545
 5891SOL    HW229307   1.396   3.490   8.212 -2.6517  0.0311  0.4697
 5892SOL     OW29308   1.158   4.307   4.399 -0.4325  0.1319 -0.2111
 5892SOL    HW129309   1.107   4.326   4.320 -0.2713 -0.4947 -0.4662
 5892SOL    HW229310   1.228   4.372   4.390 -1.1575  0.7123 -1.7080
 5893SOL     OW29311   1.582   3.322   9.820 -0.2553 -0.3183 -0.4603
 5893SOL    HW129312   1.625   3.254   9.768  0.2839  0.2693 -0.7887
 5893SOL    HW229313   1.558   3.266   9.893 -0.6533 -0.9665 -1.0887
 5894SOL     OW29314   1.994   2.548   9.831 -0.3220 -0.2869 -0.5167
 5894SOL    HW129315   2.064   2.482   9.833 -0.8829 -0.9687 -3.6837
 5894SOL    HW229316   2.032   2.604   9.899  0.3352 -1.7858  0.3539
 5895SOL     OW29317   3.082   2.166   8.329  0.6144  0.0527 -0.0221
 5895SOL    HW129318   3.100   2.075   8.352 -0.5329 -0.3754 -0.8319
 5895SOL    HW229319   3.160   2.210   8.363  1.5828 -0.6045 -1.4025
 5896SOL     OW29320   4.368   1.813  11.450 -0.6854 -0.1630  0.0569
 5896SOL    HW129321   4.422   1.773  11.381  0.3644 -0.6510  1.1517
 5896SOL    HW229322   4.399   1.776  11.533 -2.1566 -1.3460  0.0709
 5897SOL     OW29323   3.888   3.625  16.797  0.0274  0.2998 -0.4433
 5897SOL    HW129324   3.964   3.641  16.741 -0.9703 -1.0002 -2.1555
 5897SOL    HW229325   3.820   3.595  16.736 -0.7910  1.4479 -0.0977
 5898SOL     OW29326   0.071   4.231   5.063 -0.9064 -0.3603 -0.2156
 5898SOL    HW129327   0.019   4.311   5.057  0.0571  0.2392 -0.6112
 5898SOL    HW229328   0.137   4.229   4.993  0.0600 -2.7849  0.7598
 5899SOL     OW29329   1.085   4.299   4.673  0.1828 -0.1854 -0.1253
 5899SOL    HW129330   1.170   4.333   4.702  0.0445 -0.7364  0.9080
 5899SOL    HW229331   1.106   4.295   4.579 -0.9272  0.0830 -0.3867
 5900SOL     OW29332   1.020   0.582   6.044  0.0496 -0.0634 -0.0428
 5900SOL    HW129333   0.972   0.502   6.067  0.3645 -0.6976 -1.6635
 5900SOL    HW229334   0.959   0.621   5.982  2.0716  0.6523 -1.5786
 5901SOL     OW29335   3.318   4.033   5.972 -0.4532 -0.3665  0.3257
 5901SOL    HW129336   3.392   4.082   5.935 -0.6143  0.1866  0.7431
 5901SOL    HW229337   3.301   3.964   5.908  0.5297 -1.1989  0.9614
 5902SOL     OW29338   0.288   4.719  17.389 -0.3347  0.0642  0.5017
 5902SOL    HW129339   0.271   0.076  17.387  1.2129  0.3078 -1.3795
 5902SOL    HW229340   0.374   4.718  17.347 -1.7323 -2.0383 -2.3052
 5903SOL     OW29341   3.595   3.654   7.238 -0.0744 -0.5894 -0.8287
 5903SOL    HW129342   3.555   3.652   7.326 -0.9038  1.9504 -1.1382
 5903SOL    HW229343   3.519   3.653   7.181 -0.4237 -0.6508 -0.3667
 5904SOL     OW29344   3.578   0.448   2.650  0.5099  1.0392  0.6344
 5904SOL    HW129345   3.510   0.401   2.603 -0.9714  2.6599  1.1458
 5904SOL    HW229346   3.599   0.496   2.569 -2.3331 -2.2586 -2.0309
 5905SOL     OW29347   2.218   1.102   2.616  0.2620 -0.2383  0.2940
 5905SOL    HW129348   2.141   1.136   2.661 -1.4903 -0.7476 -2.3145
 5905SOL    HW229349   2.270   1.182   2.610 -1.6833  0.7902 -2.5398
 5906SOL     OW29350   0.807   4.232   7.274 -0.1033 -0.3880  0.7527
 5906SOL    HW129351   0.717   4.203   7.255  0.0415  0.0090 -0.5860
 5906SOL    HW229352   0.845   4.145   7.263 -0.4928 -0.2550 -1.6459
 5907SOL     OW29353   2.497   3.080  12.347  0.4392  0.3559 -0.5134
 5907SOL    HW129354   2.485   3.032  12.265 -0.4648  1.5210 -1.0493
 5907SOL    HW229355   2.415   3.128  12.358 -0.9109 -1.6837 -1.5314
 5908SOL     OW29356   2.673   3.894   9.118 -0.5963  0.6158  0.3983
 5908SOL    HW129357   2.710   3.807   9.104 -0.8720  0.4330  0.7890
 5908SOL    HW229358   2.585   3.880   9.081 -0.1784 -0.9849  0.0254
 5909SOL     OW29359   0.486   4.197   4.888  0.1868 -0.0101  0.1921
 5909SOL    HW129360   0.413   4.136   4.901  0.0945 -0.3331 -1.8820
 5909SOL    HW229361   0.555   4.137   4.918 -1.9142 -2.9710 -0.8470
 5910SOL     OW29362   2.312   0.525   6.703 -0.7575  0.1589 -0.5297
 5910SOL    HW129363   2.365   0.562   6.774  0.1369 -0.8806 -0.6572
 5910SOL    HW229364   2.255   0.465   6.750 -3.4169  1.4805 -2.0716
 5911SOL     OW29365   2.857   1.828   6.556  0.4554  0.0144 -0.2648
 5911SOL    HW129366   2.879   1.743   6.595  0.0463  0.5642  1.1421
 5911SOL    HW229367   2.922   1.836   6.486  2.6950 -0.3869  1.7634
 5912SOL     OW29368   3.658   3.000   4.302  0.6377 -0.0747  0.0840
 5912SOL    HW129369   3.676   3.061   4.374  0.1603  1.2796 -0.9414
 5912SOL    HW229370   3.599   2.936   4.342  1.3329 -0.0883  1.0793
 5913SOL     OW29371   1.497   4.479  11.840 -0.2167 -0.3124 -0.2727
 5913SOL    HW129372   1.411   4.500  11.802 -0.3689 -2.0470 -0.8596
 5913SOL    HW229373   1.533   4.568  11.840  0.1380 -0.4564  0.5841
 5914SOL     OW29374   4.041   4.425   0.487  0.4098 -0.0696 -0.2300
 5914SOL    HW129375   3.960   4.472   0.468 -0.7496 -1.3290  1.5354
 5914SOL    HW229376   4.060   4.447   0.578 -1.2188  1.1840 -0.1891
 5915SOL     OW29377   1.034   1.395   5.959  0.2980 -0.0095 -0.1933
 5915SOL    HW129378   1.028   1.299   5.960  1.9152 -0.1238 -1.2837
 5915SOL    HW229379   0.978   1.417   5.885  1.8955 -0.4681 -1.5396
 5916SOL     OW29380   1.329   3.313   2.329 -0.4893 -0.4706  0.0822
 5916SOL    HW129381   1.342   3.396   2.282 -0.5756  0.1104  1.0931
 5916SOL    HW229382   1.374   3.253   2.270  0.7231 -0.0276  0.5539
 5917SOL     OW29383   3.469   0.916   0.419 -0.3948  0.4343 -0.1331
 5917SOL    HW129384   3.506   0.835   0.453  0.2307  1.2259  1.0640
 5917SOL    HW229385   3.406   0.935   0.488  0.1059 -0.0999  0.4721
 5918SOL     OW29386   0.326   4.414  17.615 -0.2842 -0.5710 -0.1794
 5918SOL    HW129387   0.285   4.364  17.545 -0.0485 -1.3132  0.2097
 5918SOL    HW229388   0.295   4.501  17.592  0.2336 -0.9280 -2.2563
 5919SOL     OW29389   0.371   1.997  15.208  0.1245  0.1149  1.0505
 5919SOL    HW129390   0.397   2.050  15.133 -3.6514  0.0504 -0.3168
 5919SOL    HW229391   0.278   2.012  15.224  0.1875  0.2315  1.3086
 5920SOL     OW29392   0.971   0.065  14.283 -0.3290  0.6054  0.4693
 5920SOL    HW129393   0.984   0.146  14.234  0.4400 -0.4325 -1.0450
 5920SOL    HW229394   0.927   0.109  14.356 -0.6511  1.5955 -0.3129
 5921SOL     OW29395   4.661   1.157  11.639 -0.7251  0.4542 -0.1906
 5921SOL    HW129396   4.701   1.091  11.696 -0.3686 -0.2816 -1.2829
 5921SOL    HW229397   4.713   1.163  11.559 -0.0330 -0.6621  0.1660
 5922SOL     OW29398   3.687   2.974  11.189 -0.0850  0.1748 -0.2791
 5922SOL    HW129399   3.734   3.015  11.261  0.8623  0.1828 -0.8988
 5922SOL    HW229400   3.757   2.967  11.124  1.8437 -2.6599  2.0945
 5923SOL     OW29401   3.411   3.131   3.711 -0.2997  0.0553  0.0655
 5923SOL    HW129402   3.349   3.060   3.697 -0.7567  0.2565  1.0394
 5923SOL    HW229403   3.449   3.145   3.624  0.4137  2.7681  0.8147
 5924SOL     OW29404   0.375   0.542   5.675  0.0175 -0.6301  0.3354
 5924SOL    HW129405   0.356   0.502   5.590  0.7457  1.1781 -0.6558
 5924SOL    HW229406   0.367   0.634   5.648  0.5243  0.0239  2.4620
 5925SOL     OW29407   0.394   0.764   9.359  0.1793 -0.4029  0.5577
 5925SOL    HW129408   0.387   0.749   9.264  2.0065  0.4256  0.2916
 5925SOL    HW229409   0.418   0.856   9.348 -1.4266 -0.1744 -1.2080
 5926SOL     OW29410   0.508   0.806   6.517 -0.1289 -0.1829  0.9404
 5926SOL    HW129411   0.467   0.738   6.571  0.8006 -0.0594  1.7974
 5926SOL    HW229412   0.447   0.868   6.557  1.3562  0.8197  1.6348
 5927SOL     OW29413   0.557   4.517   2.295  0.4750 -0.5471 -0.0694
 5927SOL    HW129414   0.502   4.439   2.298  0.8213 -0.7424  0.9383
 5927SOL    HW229415   0.510   4.563   2.225  0.5016  0.5777  0.6487
 5928SOL     OW29416   2.169   1.189   8.055 -0.4910 -0.3782  0.1075
 5928SOL    HW129417   2.262   1.210   8.054 -0.2895 -1.3470 -1.1619
 5928SOL    HW229418   2.166   1.160   8.146  1.0765  3.1323  1.2842
 5929SOL     OW29419   2.135   0.474   5.501  0.1475  0.1931  0.1597
 5929SOL    HW129420   2.139   0.475   5.597  0.0150 -0.8906  0.1808
 5929SOL    HW229421   2.058   0.528   5.485 -0.7082 -0.7972  0.8775
 5930SOL     OW29422   0.487   1.856   2.832  0.3736 -0.0000 -0.2938
 5930SOL    HW129423   0.548   1.919   2.869 -0.1295 -0.8132  1.9391
 5930SOL    HW229424   0.505   1.869   2.739 -0.6573  0.3626 -0.4396
 5931SOL     OW29425   2.578   4.030  14.236  0.1328  0.1405  0.2333
 5931SOL    HW129426   2.609   4.015  14.146  0.0378  0.4679  0.1466
 5931SOL    HW229427   2.543   4.118  14.221 -1.3137 -0.2367  1.4858
 5932SOL     OW29428   3.689   2.149   8.927 -0.2768  0.1396  0.5276
 5932SOL    HW129429   3.743   2.202   8.986  0.0105  1.0915 -0.5704
 5932SOL    HW229430   3.720   2.059   8.936  0.6416  0.5259  1.2436
 5933SOL     OW29431   4.258   4.396   9.272 -0.3463  0.1616  0.0224
 5933SOL    HW129432   4.222   4.308   9.274  2.0630 -0.8213 -0.3577
 5933SOL    HW229433   4.232   4.431   9.357 -1.8402 -0.5630 -0.1392
 5934SOL     OW29434   1.634   4.419   9.594 -0.2295 -0.0037  0.4483
 5934SOL    HW129435   1.595   4.377   9.671  0.7443 -0.6538  0.5862
 5934SOL    HW229436   1.721   4.439   9.630  0.1764 -1.0317  0.0254
 5935SOL     OW29437   3.778   0.573  10.839  0.1069 -0.3941  0.4103
 5935SOL    HW129438   3.747   0.577  10.749  0.7552 -2.0704  0.0991
 5935SOL    HW229439   3.709   0.533  10.891 -1.9121  0.2069 -1.8089
 5936SOL     OW29440   1.604   3.911   9.603  0.1347  0.4520  0.1931
 5936SOL    HW129441   1.609   3.920   9.699 -0.2429 -1.8101  0.4379
 5936SOL    HW229442   1.588   3.817   9.595  1.6522  0.2000  0.0806
 5937SOL     OW29443   2.103   2.708   2.314  0.4348 -0.5625  0.3335
 5937SOL    HW129444   2.058   2.686   2.395 -1.4253  1.6148 -0.1305
 5937SOL    HW229445   2.085   2.799   2.291  0.9427 -0.5391  0.0182
 5938SOL     OW29446   2.780   0.796   4.434  0.1096  0.2011 -0.4240
 5938SOL    HW129447   2.871   0.825   4.431  0.3411 -0.2148  2.3428
 5938SOL    HW229448   2.804   0.704   4.423  1.1314  0.1786  1.8434
 5939SOL     OW29449   1.652   3.992   9.348  0.6251  0.4785  0.0975
 5939SOL    HW129450   1.561   3.973   9.325  0.6405 -0.7568  1.0157
 5939SOL    HW229451   1.640   3.965   9.439 -0.9789 -2.0476 -0.8618
 5940SOL     OW29452   2.114   3.258   6.445 -0.1051  0.3070 -0.4771
 5940SOL    HW129453   2.148   3.260   6.356  0.8065 -1.0732 -0.1588
 5940SOL    HW229454   2.094   3.352   6.448 -1.9088 -0.0854  0.0133
 5941SOL     OW29455   2.034   3.114   0.096 -0.2414  0.3070 -0.1891
 5941SOL    HW129456   2.095   3.176   0.056 -1.7499  0.3844 -2.3831
 5941SOL    HW229457   2.025   3.043   0.032 -0.4027  0.4695 -0.3474
 5942SOL     OW29458   1.982   2.904   1.873 -0.6705  0.1770 -0.2692
 5942SOL    HW129459   2.053   2.878   1.932 -1.6535  1.6047  1.5547
 5942SOL    HW229460   1.916   2.838   1.895 -3.1000  3.3035  1.9212
 5943SOL     OW29461   2.847   3.165   7.004  0.2146  0.0592 -0.2588
 5943SOL    HW129462   2.849   3.112   6.924 -2.2009  0.8221 -0.8222
 5943SOL    HW229463   2.867   3.252   6.970  1.5255  0.0365  0.4145
 5944SOL     OW29464   0.355   1.781   2.436 -0.5034  0.2031 -0.0113
 5944SOL    HW129465   0.317   1.824   2.360  0.1544  0.3669 -0.2477
 5944SOL    HW229466   0.292   1.710   2.447  0.7804 -0.8102  0.8175
 5945SOL     OW29467   1.991   0.890   3.099  0.1246  0.0462  0.2977
 5945SOL    HW129468   1.943   0.966   3.131  0.7107 -0.0502  1.3929
 5945SOL    HW229469   2.068   0.941   3.074 -0.4059  0.1774 -1.0836
 5946SOL     OW29470   1.393   4.622   6.086 -0.9563 -0.2354 -0.3114
 5946SOL    HW129471   1.481   4.607   6.053  0.1883  5.1102  0.2226
 5946SOL    HW229472   1.360   4.532   6.082  1.0459 -1.0329  1.5032
 5947SOL     OW29473   2.109   2.185   7.172  0.4147  0.1410 -0.2240
 5947SOL    HW129474   2.132   2.127   7.099  0.5034  0.3089 -0.3298
 5947SOL    HW229475   2.177   2.253   7.162  0.2495  0.4875  0.9873
 5948SOL     OW29476   0.276   2.814   8.857  0.3582  0.3032 -0.2122
 5948SOL    HW129477   0.370   2.810   8.840  0.2263 -1.2643 -0.5453
 5948SOL    HW229478   0.270   2.848   8.947 -1.3573 -1.2288  0.2516
 5949SOL     OW29479   1.999   2.870  11.542 -0.6801  0.2957  0.2202
 5949SOL    HW129480   2.025   2.868  11.450  1.3219  0.0315  0.7797
 5949SOL    HW229481   1.950   2.789  11.557 -0.5057 -0.3819 -2.8701
 5950SOL     OW29482   4.141   2.871  17.173 -0.1089  0.3668 -0.6101
 5950SOL    HW129483   4.136   2.808  17.245  1.7200  0.5094 -0.3648
 5950SOL    HW229484   4.236   2.862  17.162  0.0333  2.7551 -1.2645
 5951SOL     OW29485   4.419   0.942  17.093 -0.4419  0.1704 -0.1641
 5951SOL    HW129486   4.461   0.984  17.017  1.3696 -1.6969 -0.1699
 5951SOL    HW229487   4.402   0.854  17.059 -0.0730 -0.6658  1.8384
 5952SOL     OW29488   1.276   0.823  12.605  0.1858  0.0337 -0.4526
 5952SOL    HW129489   1.282   0.881  12.529 -0.5752  0.7773  0.0603
 5952SOL    HW229490   1.185   0.797  12.591  0.3553 -0.3043 -0.9158
 5953SOL     OW29491   2.080   0.217  11.803 -0.0638 -0.2670 -0.1999
 5953SOL    HW129492   2.085   0.171  11.887  0.3066  0.8919  0.4100
 5953SOL    HW229493   2.029   0.296  11.821 -0.8159 -0.4290 -1.6447
 5954SOL     OW29494   3.577   4.005   2.477 -0.0704  0.1252 -0.2502
 5954SOL    HW129495   3.633   4.080   2.494 -1.5714  0.9756  0.9893
 5954SOL    HW229496   3.622   3.924   2.501 -0.3983 -0.2609 -0.9284
 5955SOL     OW29497   0.380   1.065   7.924 -0.0601 -0.2150  0.0320
 5955SOL    HW129498   0.370   1.153   7.958  1.0300 -0.2826  0.5351
 5955SOL    HW229499   0.469   1.072   7.889 -0.1552  0.5637 -0.0382
 5956SOL     OW29500   4.224   2.538   4.303 -0.4150 -0.2608  0.1649
 5956SOL    HW129501   4.294   2.602   4.316 -1.0480  0.6025 -0.6537
 5956SOL    HW229502   4.244   2.505   4.215 -0.3648 -1.0828  0.4889
 5957SOL     OW29503   3.405   1.617  12.920 -0.2849  0.3750 -0.2356
 5957SOL    HW129504   3.461   1.646  12.991 -0.1472  2.7341 -1.3156
 5957SOL    HW229505   3.370   1.535  12.955 -1.6008  0.7059 -0.7506
 5958SOL     OW29506   3.942   4.108  10.746  0.8628  0.2795  0.7432
 5958SOL    HW129507   3.856   4.084  10.712  0.8058  0.2830  0.8893
 5958SOL    HW229508   3.995   4.029  10.743  1.3336  0.5904  0.7891
 5959SOL     OW29509   0.284   2.695  14.755 -0.2491  0.0431 -0.5825
 5959SOL    HW129510   0.368   2.713  14.798  0.3962 -1.3201 -1.2594
 5959SOL    HW229511   0.298   2.726  14.666  1.0162 -0.1420 -0.4595
 5960SOL     OW29512   1.483   2.902   4.502 -0.1294 -0.3944  0.5110
 5960SOL    HW129513   1.552   2.937   4.445 -0.1862  0.0532  0.7227
 5960SOL    HW229514   1.511   2.954   4.577 -0.9212 -0.8731  1.1383
 5961SOL     OW29515   2.537   0.777  15.602 -0.1993 -0.4096  0.9788
 5961SOL    HW129516   2.536   0.765  15.507  0.9457  1.8337  0.6818
 5961SOL    HW229517   2.551   0.871  15.611 -0.4492 -0.2585 -0.1199
 5962SOL     OW29518   0.461   3.305   7.303 -0.2932 -0.0702 -0.4909
 5962SOL    HW129519   0.532   3.269   7.251 -0.1178 -3.1333  1.8168
 5962SOL    HW229520   0.500   3.301   7.390  0.0809  1.1392 -0.6077
 5963SOL     OW29521   1.653   4.622   8.692 -0.2594  0.1618 -0.8071
 5963SOL    HW129522   1.689   4.593   8.608  3.0848  1.1831  0.2544
 5963SOL    HW229523   1.731   4.633   8.746 -0.6893  2.1488 -0.5733
 5964SOL     OW29524   1.075   3.180   9.739  0.6202 -0.1358 -0.3146
 5964SOL    HW129525   0.987   3.188   9.775  0.5892  0.1775 -0.4551
 5964SOL    HW229526   1.079   3.088   9.713 -0.4701  0.1876 -1.5931
 5965SOL     OW29527   0.290   0.215   7.857 -0.4246  0.2312  0.6713
 5965SOL    HW129528   0.247   0.259   7.784  3.0997 -0.6576 -1.9431
 5965SOL    HW229529   0.382   0.216   7.832 -0.0325 -0.6890  2.0294
 5966SOL     OW29530   1.460   3.781   8.948 -0.0853 -0.6195  0.3975
 5966SOL    HW129531   1.384   3.750   8.899  0.5865 -1.3796 -0.1816
 5966SOL    HW229532   1.508   3.828   8.879 -1.6466 -1.7937 -1.4907
 5967SOL     OW29533   3.046   1.297  16.801  1.0806  0.6223  0.8599
 5967SOL    HW129534   3.010   1.386  16.796  2.7460  1.1302 -2.1861
 5967SOL    HW229535   3.131   1.313  16.759 -0.1734  0.6974 -1.6929
 5968SOL     OW29536   2.102   3.976   7.229  0.2301 -0.1958  0.2478
 5968SOL    HW129537   2.087   4.051   7.286 -0.0110 -0.1944  0.1818
 5968SOL    HW229538   2.021   3.926   7.241  0.9264 -1.8440 -1.8567
 5969SOL     OW29539   4.452   1.330   9.084  0.0743 -0.0783 -0.9799
 5969SOL    HW129540   4.404   1.319   9.002 -2.7122  1.5272  0.4495
 5969SOL    HW229541   4.495   1.415   9.078  0.5296 -0.0727  2.4643
 5970SOL     OW29542   2.683   2.182   2.810 -0.0728  0.2734 -0.1000
 5970SOL    HW129543   2.712   2.093   2.829  0.9527  0.4863 -0.6978
 5970SOL    HW229544   2.748   2.214   2.748 -2.2544 -0.3126 -2.7058
 5971SOL     OW29545   1.009   0.722  12.598  0.4801 -0.1224 -0.2984
 5971SOL    HW129546   0.947   0.674  12.653  0.5932  1.0085  0.8169
 5971SOL    HW229547   0.969   0.809  12.591  2.4257  0.8925  1.1994
 5972SOL     OW29548   0.761   3.517   8.134 -0.2236 -0.3651 -0.0201
 5972SOL    HW129549   0.824   3.498   8.203  0.0464 -3.4479 -1.1217
 5972SOL    HW229550   0.720   3.600   8.156 -1.5555 -0.6368 -1.4783
 5973SOL     OW29551   3.143   1.985   9.762 -0.0353 -0.5186  0.2375
 5973SOL    HW129552   3.099   1.915   9.713  0.0183  0.1336 -0.7549
 5973SOL    HW229553   3.161   1.947   9.848 -2.0458 -1.6800  0.1383
 5974SOL     OW29554   0.582   3.562   9.705 -0.2395  0.1487  0.4252
 5974SOL    HW129555   0.618   3.619   9.772  1.3051  1.0452 -1.1857
 5974SOL    HW229556   0.635   3.579   9.627 -1.6383 -0.0701 -0.5887
 5975SOL     OW29557   0.621   0.066   6.122  0.2618 -0.4536 -0.0786
 5975SOL    HW129558   0.699   0.031   6.164  2.0048  3.3486 -0.1721
 5975SOL    HW229559   0.558   0.089   6.191  1.1811  2.8027 -0.2941
 5976SOL     OW29560   3.147   3.685  14.798 -0.2506  0.2226 -0.0477
 5976SOL    HW129561   3.111   3.635  14.871  0.9417  0.9359  1.0468
 5976SOL    HW229562   3.137   3.616  14.732 -1.5591 -0.1672  0.5653
 5977SOL     OW29563   2.435   3.018   0.700  0.0058  0.3022 -0.0733
 5977SOL    HW129564   2.467   2.931   0.677 -1.1875 -0.3159  0.6086
 5977SOL    HW229565   2.385   3.001   0.780 -1.7104  1.0770 -0.9858
 5978SOL     OW29566   2.412   4.207   0.226 -0.3669 -0.0489 -0.5334
 5978SOL    HW129567   2.412   4.131   0.167  0.0289  2.1127 -3.3088
 5978SOL    HW229568   2.321   4.237   0.221 -0.5410 -0.6045 -0.7535
 5979SOL     OW29569   2.258   3.982   5.573  0.2624 -0.0633  0.2568
 5979SOL    HW129570   2.240   4.075   5.580  0.9745  0.0656  0.3629
 5979SOL    HW229571   2.166   3.956   5.567 -0.1234  1.4644 -0.1920
 5980SOL     OW29572   2.931   3.173   4.446  0.4122  0.2543  0.3602
 5980SOL    HW129573   2.848   3.220   4.454  0.7618  0.4652  2.6304
 5980SOL    HW229574   2.913   3.108   4.378  3.2108 -0.0171 -0.1388
 5981SOL     OW29575   0.264   0.077   0.631 -0.6158 -0.3131 -0.4038
 5981SOL    HW129576   0.248   0.153   0.575 -1.8965 -0.1702  0.1503
 5981SOL    HW229577   0.261   0.004   0.570 -3.6315  0.3484 -1.0745
 5982SOL     OW29578   2.276   3.206   4.259 -0.2058  0.0552  0.2831
 5982SOL    HW129579   2.209   3.274   4.264 -0.0225  0.1346  1.7891
 5982SOL    HW229580   2.304   3.217   4.168 -0.8211  1.3881  0.2646
 5983SOL     OW29581   1.571   1.404  16.895 -0.2730 -0.3170  0.1842
 5983SOL    HW129582   1.658   1.398  16.936 -0.7409 -0.9923  1.0534
 5983SOL    HW229583   1.514   1.433  16.966  1.0797 -0.6207  1.3928
 5984SOL     OW29584   3.631   1.175  15.032  0.3619 -0.4849  0.0026
 5984SOL    HW129585   3.670   1.250  15.076 -0.0725 -0.1165 -0.2442
 5984SOL    HW229586   3.685   1.170  14.953 -1.4821  2.9178 -1.4504
 5985SOL     OW29587   3.359   3.120  14.031 -0.2821 -0.2862 -0.1388
 5985SOL    HW129588   3.284   3.151  14.080  2.0960 -0.7962  3.7885
 5985SOL    HW229589   3.433   3.132  14.090  0.0156 -3.0596  0.0876
 5986SOL     OW29590   1.816   4.546   5.307 -0.1601 -0.4705  0.6638
 5986SOL    HW129591   1.765   4.615   5.266 -0.3503 -1.5127 -0.8496
 5986SOL    HW229592   1.825   4.477   5.241 -2.1768 -0.7119  0.6354
 5987SOL     OW29593   2.446   0.079   4.267  0.1641 -0.2914 -0.5005
 5987SOL    HW129594   2.426   0.073   4.173 -2.1108 -1.8690  0.0895
 5987SOL    HW229595   2.355   0.091   4.294  0.4706  2.1476 -0.5062
 5988SOL     OW29596   1.938   0.819   3.816 -0.3844 -0.0207 -0.3099
 5988SOL    HW129597   1.943   0.734   3.858 -0.5940 -0.3988 -1.0501
 5988SOL    HW229598   1.884   0.868   3.878 -1.2363 -1.4760  0.1008
 5989SOL     OW29599   4.317   1.092   8.866 -0.0321 -0.0906  0.5312
 5989SOL    HW129600   4.225   1.071   8.883  0.6703 -1.0853  3.2837
 5989SOL    HW229601   4.341   1.031   8.797 -1.4817 -1.8602  1.5570
 5990SOL     OW29602   2.018   3.283   3.384 -0.2877  0.7424 -0.1220
 5990SOL    HW129603   2.107   3.316   3.386  0.1968 -0.5514 -0.1696
 5990SOL    HW229604   1.972   3.331   3.315  0.2623 -1.4159 -2.0028
 5991SOL     OW29605   3.621   3.406   5.695  0.6611  0.4988 -0.4544
 5991SOL    HW129606   3.600   3.500   5.702  1.1408  0.6458 -0.9625
 5991SOL    HW229607   3.692   3.402   5.630  0.0537  1.6978 -1.1971
 5992SOL     OW29608   4.152   2.159   7.749 -0.5516 -0.2889  0.1225
 5992SOL    HW129609   4.121   2.247   7.769 -1.4201 -0.7945  1.0195
 5992SOL    HW229610   4.213   2.170   7.677 -1.4571  1.7617 -0.3110
 5993SOL     OW29611   0.443   0.022   2.661  0.2604 -0.0669 -0.0672
 5993SOL    HW129612   0.461   0.096   2.718  0.3141  0.1145 -0.3209
 5993SOL    HW229613   0.356   4.732   2.691  1.1782 -0.7786  1.9421
 5994SOL     OW29614   1.844   0.458  12.564 -0.0996  0.3743  0.9837
 5994SOL    HW129615   1.815   0.370  12.586  0.8339  0.2762  1.8482
 5994SOL    HW229616   1.933   0.465  12.598 -0.0616  0.7316  0.8119
 5995SOL     OW29617   0.939   2.985   1.771  0.1753 -0.2066  0.2164
 5995SOL    HW129618   0.853   2.998   1.732  0.8661 -0.9795 -1.5214
 5995SOL    HW229619   0.950   3.078   1.793  3.1663 -0.5386  0.1960
 5996SOL     OW29620   1.331   4.369   4.791  0.4226  0.8205  0.0552
 5996SOL    HW129621   1.376   4.340   4.871 -0.4349  0.0376  0.2609
 5996SOL    HW229622   1.404   4.403   4.740  0.9273 -2.6453 -1.5135
 5997SOL     OW29623   2.906   2.798   9.931 -0.3860  0.3936 -0.9138
 5997SOL    HW129624   2.839   2.760   9.989  0.4854 -0.7795 -0.6787
 5997SOL    HW229625   2.954   2.717   9.911  0.2601  0.3535  0.8223
 5998SOL     OW29626   2.546   0.586   8.353  0.4186 -0.4031 -0.8318
 5998SOL    HW129627   2.621   0.536   8.321  1.4792  0.7164 -0.1069
 5998SOL    HW229628   2.551   0.664   8.298 -1.0773 -0.1817 -0.6633
 5999SOL     OW29629   0.799   0.991   5.704  0.4638 -0.3332  0.6056
 5999SOL    HW129630   0.801   1.065   5.643 -1.6055 -0.0159  0.9241
 5999SOL    HW229631   0.717   0.946   5.685  1.4710 -2.0140  0.2084
 6000SOL     OW29632   4.199   2.132   3.044  0.0100 -0.3017  0.1788
 6000SOL    HW129633   4.120   2.179   3.016  0.4070 -1.6755 -3.2396
 6000SOL    HW229634   4.243   2.206   3.085 -1.6311  1.8587 -1.9452
 6001SOL     OW29635   2.824   0.004   7.948 -0.3487 -0.0781  0.7448
 6001SOL    HW129636   2.777   4.689   7.883  0.2226 -0.9198  1.0031
 6001SOL    HW229637   2.869   4.666   7.987 -0.8570 -0.5207  0.4665
 6002SOL     OW29638   2.336   0.777   8.492 -0.1564  0.2774 -0.2983
 6002SOL    HW129639   2.314   0.686   8.471  1.6217 -0.7505  2.3102
 6002SOL    HW229640   2.302   0.787   8.581 -1.6046  1.3235 -0.9797
 6003SOL     OW29641   1.878   1.516  10.294 -0.0782 -0.2380  0.2080
 6003SOL    HW129642   1.806   1.496  10.234 -0.7227  1.3743  0.4396
 6003SOL    HW229643   1.855   1.467  10.372 -2.5992  0.4185 -0.1292
 6004SOL     OW29644   1.255   3.659   1.690 -0.1285 -0.5459 -0.7714
 6004SOL    HW129645   1.336   3.642   1.642  0.8036  0.6525  0.3826
 6004SOL    HW229646   1.266   3.748   1.724  2.4336 -1.0980 -0.1401
 6005SOL     OW29647   0.973   0.264   4.605 -0.1466 -0.5030  0.1708
 6005SOL    HW129648   1.012   0.328   4.664  1.2412 -1.3076  0.1163
 6005SOL    HW229649   1.029   0.282   4.530 -1.3252  0.6258 -0.4517
 6006SOL     OW29650   0.930   0.399  14.970  0.4848  0.1281  0.1912
 6006SOL    HW129651   0.989   0.330  15.000 -0.5517 -0.5745  0.6312
 6006SOL    HW229652   0.923   0.456  15.046 -0.0653 -0.1212  0.3313
 6007SOL     OW29653   1.694   1.613  13.346 -0.0766  0.3572 -0.3078
 6007SOL    HW129654   1.771   1.628  13.291  2.3063 -0.8716  2.6637
 6007SOL    HW229655   1.735   1.624  13.433 -1.9415 -0.9187  0.7259
 6008SOL     OW29656   2.875   1.012   6.755  0.1458 -0.2981  0.2574
 6008SOL    HW129657   2.932   0.936   6.744  0.0751 -0.5350  1.4960
 6008SOL    HW229658   2.835   0.995   6.840 -3.1028 -1.8326 -1.5834
 6009SOL     OW29659   0.023   0.888   2.128  0.3974  0.1598  0.3467
 6009SOL    HW129660   0.055   0.857   2.044  0.8771  2.0274 -0.1656
 6009SOL    HW229661   0.101   0.858   2.176  0.4428 -1.1779 -0.5879
 6010SOL     OW29662   1.250   3.274   6.233 -1.1546 -0.3699 -0.0136
 6010SOL    HW129663   1.321   3.337   6.218 -0.2620 -1.2834  0.3447
 6010SOL    HW229664   1.294   3.229   6.306  0.1368  2.9721  1.2726
 6011SOL     OW29665   0.775   3.177   0.029  0.0655 -0.1165 -0.1648
 6011SOL    HW129666   0.770   3.270   0.010  2.2214 -0.1714 -1.0067
 6011SOL    HW229667   0.707   3.170   0.096  0.5204 -2.8574  0.0258
 6012SOL     OW29668   1.812   0.955   4.707 -0.7401 -0.0733 -0.3464
 6012SOL    HW129669   1.900   0.949   4.670 -0.4297 -0.5653  0.4698
 6012SOL    HW229670   1.821   1.035   4.759  0.7867 -0.1565 -0.4824
 6013SOL     OW29671   4.011   2.802   6.666  0.2447  0.0114  0.5930
 6013SOL    HW129672   4.052   2.761   6.742  1.0452 -0.1665  0.0603
 6013SOL    HW229673   3.918   2.787   6.686  0.5723  1.5835  3.3514
 6014SOL     OW29674   3.429   3.826  17.624  0.1434  0.0377 -0.2865
 6014SOL    HW129675   3.471   3.813  17.709 -1.4398  1.4325  0.7215
 6014SOL    HW229676   3.351   3.770  17.633  0.3564  0.0071  1.2705
 6015SOL     OW29677   0.959   0.513   2.774 -0.2832  0.5562 -0.0201
 6015SOL    HW129678   0.872   0.485   2.800 -0.7497 -0.3390 -2.5500
 6015SOL    HW229679   1.008   0.432   2.758 -0.2178  0.2936  1.5997
 6016SOL     OW29680   0.237   2.122   8.725 -0.0403  0.4618 -0.4998
 6016SOL    HW129681   0.280   2.205   8.704  1.9675  0.0184  1.8411
 6016SOL    HW229682   0.231   2.090   8.634  1.8003 -1.7071  0.1266
 6017SOL     OW29683   2.661   0.357   1.555  0.1465 -0.5189 -0.1816
 6017SOL    HW129684   2.733   0.307   1.516  1.1793  1.8176 -1.2768
 6017SOL    HW229685   2.631   0.397   1.473 -0.8114 -0.4282  0.2188
 6018SOL     OW29686   3.302   4.590   4.045 -0.5155 -0.0253  0.1822
 6018SOL    HW129687   3.268   4.593   4.135 -0.3148 -0.5571  0.2742
 6018SOL    HW229688   3.354   4.510   4.045 -0.7242 -0.1584 -1.8815
 6019SOL     OW29689   2.731   4.642  14.086 -0.1284 -0.2894  0.3220
 6019SOL    HW129690   2.749   4.563  14.135  0.3358  2.0968  3.9946
 6019SOL    HW229691   2.817   4.672  14.059 -1.5355  1.9564 -1.6881
 6020SOL     OW29692   4.145   0.271   7.048  0.2112 -0.5282  0.2869
 6020SOL    HW129693   4.071   0.332   7.043  0.7135  0.2146  1.8232
 6020SOL    HW229694   4.106   0.198   7.097 -0.1826 -0.0885  0.6439
 6021SOL     OW29695   4.421   0.719   9.314 -0.3115 -0.8452  0.0630
 6021SOL    HW129696   4.359   0.742   9.385  0.5518  1.6844  0.0016
 6021SOL    HW229697   4.491   0.681   9.366  0.1222 -0.1610 -0.0196
 6022SOL     OW29698   0.036   3.980   2.829  0.3785  0.0555  0.0893
 6022SOL    HW129699   0.124   4.009   2.851  0.5221  0.0212 -0.4378
 6022SOL    HW229700   0.017   4.024   2.746  1.6215 -1.1669 -0.8399
 6023SOL     OW29701   1.716   1.393   0.325 -0.1170  0.6304 -0.1451
 6023SOL    HW129702   1.790   1.425   0.376  0.3787 -1.8353  0.6372
 6023SOL    HW229703   1.749   1.308   0.298 -0.1562  0.9465 -1.1887
 6024SOL     OW29704   3.588   0.821   0.069  0.1286 -0.5464 -0.4692
 6024SOL    HW129705   3.511   0.830   0.126  0.2565 -2.4280  0.0118
 6024SOL    HW229706   3.595   0.726   0.061  2.0956 -0.1910 -2.7780
 6025SOL     OW29707   1.074   3.830  14.041 -0.0499  0.1902 -0.2871
 6025SOL    HW129708   1.056   3.833  14.135 -2.1251  0.9195 -0.7039
 6025SOL    HW229709   0.987   3.848  14.005  0.4087 -0.2939 -1.6413
 6026SOL     OW29710   3.400   2.060  12.332 -0.3102  0.1838  0.5736
 6026SOL    HW129711   3.467   2.045  12.398 -0.5551  1.3745  1.1017
 6026SOL    HW229712   3.440   2.019  12.255 -1.7457  1.9105 -1.1181
 6027SOL     OW29713   2.250   2.802  15.847  0.2943 -0.0765  0.2118
 6027SOL    HW129714   2.292   2.835  15.927 -1.3068 -1.3866  1.5772
 6027SOL    HW229715   2.324   2.807  15.787 -1.4079 -1.7613 -2.0140
 6028SOL     OW29716   1.264   2.763   8.044 -0.7068 -0.1108 -0.1690
 6028SOL    HW129717   1.342   2.717   8.013 -1.7639 -2.0998  0.1118
 6028SOL    HW229718   1.291   2.848   8.079 -0.1714 -0.2547 -0.2284
 6029SOL     OW29719   0.934   4.035   5.601 -0.0058 -0.2997  0.4905
 6029SOL    HW129720   0.916   3.941   5.600  1.4951 -0.5944  1.0586
 6029SOL    HW229721   1.025   4.049   5.572 -0.2371  0.1323 -0.0188
 6030SOL     OW29722   2.383   0.775   5.022  0.2003  0.0013 -0.8125
 6030SOL    HW129723   2.443   0.794   5.094 -1.0446  0.6801  0.0430
 6030SOL    HW229724   2.408   0.682   5.017 -2.5603 -0.9704  3.0643
 6031SOL     OW29725   4.446   4.640  11.976 -0.1134  0.1119 -0.3344
 6031SOL    HW129726   4.453   4.733  11.953 -1.6083  0.3169  0.0692
 6031SOL    HW229727   4.379   4.642  12.045  1.5646 -0.0499  1.3168
 6032SOL     OW29728   1.716   0.852  10.325 -0.1390  0.1611 -0.6073
 6032SOL    HW129729   1.650   0.846  10.255  1.2235 -0.9637 -1.7991
 6032SOL    HW229730   1.740   0.944  10.324 -3.0120  0.9317  0.4261
 6033SOL     OW29731   0.015   1.402   4.562  0.0639 -0.1375  0.0812
 6033SOL    HW129732   4.671   1.449   4.577  0.3511  0.5917 -0.6503
 6033SOL    HW229733   0.047   1.462   4.495  0.1494  1.1176  1.2545
 6034SOL     OW29734   4.464   0.037   2.271 -0.4433  0.8983  0.2470
 6034SOL    HW129735   4.383   0.040   2.221  0.4842  0.8167 -1.2643
 6034SOL    HW229736   4.500   0.122   2.246 -0.1997  1.5105  2.6536
 6035SOL     OW29737   1.951   0.248   5.765 -0.1701 -0.5950 -0.3819
 6035SOL    HW129738   2.017   0.298   5.813  0.6451  0.7754 -2.9410
 6035SOL    HW229739   1.889   0.223   5.834  0.6038  1.0951  0.9142
 6036SOL     OW29740   0.610   2.941   9.777 -0.8071 -0.0758 -0.3638
 6036SOL    HW129741   0.553   3.003   9.823 -0.5362  0.2080 -0.4080
 6036SOL    HW229742   0.691   2.991   9.765 -0.1320 -0.6062  2.1476
 6037SOL     OW29743   2.027   2.575   6.702  0.6404 -0.0373  0.0787
 6037SOL    HW129744   2.073   2.504   6.657  2.8275  0.8611  0.8841
 6037SOL    HW229745   2.035   2.641   6.633  2.5044  1.3273  1.5717
 6038SOL     OW29746   0.442   1.078   2.296  0.2718  0.2240 -0.0527
 6038SOL    HW129747   0.371   1.138   2.273  1.6504  2.0236  0.3227
 6038SOL    HW229748   0.466   1.040   2.212 -2.4958 -2.0905  0.1826
 6039SOL     OW29749   2.812   2.459   5.090  0.5559 -0.9798 -0.1791
 6039SOL    HW129750   2.832   2.384   5.034 -1.9634 -2.1338  0.4649
 6039SOL    HW229751   2.825   2.532   5.030  0.2210 -0.9117 -0.1693
 6040SOL     OW29752   0.433   3.965   0.294 -0.5916 -0.2631 -0.2332
 6040SOL    HW129753   0.392   3.960   0.381 -0.7268  1.0324 -0.2228
 6040SOL    HW229754   0.526   3.979   0.307 -0.7035 -1.1389  1.5872
 6041SOL     OW29755   2.339   1.747  15.175  0.0020 -0.0065  0.2897
 6041SOL    HW129756   2.392   1.669  15.191 -0.7673 -0.3521  1.1533
 6041SOL    HW229757   2.398   1.797  15.119  0.8243 -1.7305 -0.3977
 6042SOL     OW29758   0.714   0.124   5.176 -0.4071  0.3067  0.4937
 6042SOL    HW129759   0.625   0.147   5.151  0.3981  1.2305 -1.5611
 6042SOL    HW229760   0.705   0.036   5.213  0.4339 -1.0647 -2.4767
 6043SOL     OW29761   2.249   2.525  12.786 -0.7532 -0.7560 -0.2267
 6043SOL    HW129762   2.187   2.598  12.787 -1.6736 -1.5765  2.3505
 6043SOL    HW229763   2.230   2.491  12.698  2.5790 -1.3616 -0.7005
 6044SOL     OW29764   2.467   4.564   4.046 -0.6025  0.3710  0.1359
 6044SOL    HW129765   2.427   4.649   4.023 -2.7758 -1.1850 -1.8968
 6044SOL    HW229766   2.533   4.558   3.977 -0.5993 -2.5340  0.4066
 6045SOL     OW29767   2.205   0.629   6.070 -0.0979 -0.3437 -0.4732
 6045SOL    HW129768   2.152   0.604   6.146  0.3107  0.0869 -0.0521
 6045SOL    HW229769   2.141   0.638   5.999  1.4104  2.3769 -1.4587
 6046SOL     OW29770   1.778   4.330  10.126 -0.0194  0.2328  0.2372
 6046SOL    HW129771   1.693   4.353  10.164  0.5130  2.2743  0.1546
 6046SOL    HW229772   1.838   4.342  10.200  0.5129 -3.3337  0.3856
 6047SOL     OW29773   2.633   1.153   2.189 -0.6461 -0.5375  0.2302
 6047SOL    HW129774   2.606   1.185   2.275  0.1521  0.3512  0.1490
 6047SOL    HW229775   2.721   1.132   2.220 -0.8757 -0.3369  1.0042
 6048SOL     OW29776   2.106   3.942   9.886  0.2051 -0.4195  0.0072
 6048SOL    HW129777   2.058   3.862   9.907 -0.1592 -0.1218  0.2930
 6048SOL    HW229778   2.087   3.994   9.964  0.4369 -0.8704  0.3641
 6049SOL     OW29779   4.156   3.563  14.080  0.0248 -0.2720 -0.0784
 6049SOL    HW129780   4.183   3.612  14.157  0.3337  1.2877 -1.1800
 6049SOL    HW229781   4.158   3.629  14.010  0.4383 -0.0563  0.1355
 6050SOL     OW29782   2.949   1.033   1.088  0.2244  0.7040  0.1064
 6050SOL    HW129783   2.992   1.040   1.173 -0.5485 -1.1534  0.6635
 6050SOL    HW229784   2.875   1.094   1.091  0.3725  0.9292 -1.0710
 6051SOL     OW29785   0.494   2.252  10.321 -0.4338  0.0516 -0.0899
 6051SOL    HW129786   0.551   2.286  10.390 -0.9885 -2.0160  1.3868
 6051SOL    HW229787   0.432   2.324  10.310 -0.9449 -0.4789 -0.7159
 6052SOL     OW29788   1.202   3.195   2.922 -0.5314  0.3714  0.2640
 6052SOL    HW129789   1.119   3.198   2.876  0.1316 -2.8615 -1.1986
 6052SOL    HW229790   1.237   3.111   2.892 -0.4023  0.4713  0.1297
 6053SOL     OW29791   4.217   2.110   4.636  0.0760 -0.2148 -0.5943
 6053SOL    HW129792   4.297   2.134   4.682 -0.4954 -0.5471  0.5613
 6053SOL    HW229793   4.204   2.174   4.566  1.2382  2.0707  1.3017
 6054SOL     OW29794   2.095   2.486  11.913  0.6252  1.0139 -0.1962
 6054SOL    HW129795   2.132   2.439  11.988 -2.6967 -0.0538  0.7654
 6054SOL    HW229796   2.120   2.578  11.928 -0.8290  1.3828 -0.0560
 6055SOL     OW29797   4.354   1.453   2.439  0.0441  0.1787  0.0940
 6055SOL    HW129798   4.268   1.477   2.472  0.4253  1.5311  0.0969
 6055SOL    HW229799   4.358   1.358   2.455  1.4009  0.8752  3.7371
 6056SOL     OW29800   1.440   0.925   1.666  0.0063  0.6457  0.3736
 6056SOL    HW129801   1.446   0.847   1.721 -2.0603  0.6475  0.6048
 6056SOL    HW229802   1.511   0.899   1.608  0.2988  1.3837  0.3978
 6057SOL     OW29803   4.308   0.580   5.080 -0.2758  0.4316  0.2181
 6057SOL    HW129804   4.330   0.566   4.988 -0.6448 -0.5793  0.2939
 6057SOL    HW229805   4.311   0.492   5.116 -0.7419  0.2476 -0.2014
 6058SOL     OW29806   0.575   4.027  13.764 -0.4168 -0.1206  0.7747
 6058SOL    HW129807   0.661   3.995  13.740  0.4021  1.7011  1.2543
 6058SOL    HW229808   0.594   4.116  13.795  3.6458 -0.0157 -2.0898
 6059SOL     OW29809   2.417   2.260   3.447  0.1213  0.6000  0.8975
 6059SOL    HW129810   2.447   2.224   3.530  2.7959 -2.6806 -1.4752
 6059SOL    HW229811   2.491   2.269   3.387  0.1246 -0.3171  0.7566
 6060SOL     OW29812   4.230   1.787  13.097  0.0286  0.4642 -0.0098
 6060SOL    HW129813   4.293   1.789  13.025  0.8711  0.7438  0.7364
 6060SOL    HW229814   4.196   1.699  13.081 -0.6448  1.2991 -3.2064
 6061SOL     OW29815   3.154   4.192   2.960  0.1853 -0.4002  0.6500
 6061SOL    HW129816   3.161   4.155   3.048 -0.6118  0.4190  1.0446
 6061SOL    HW229817   3.247   4.191   2.937 -0.3038  0.9565 -1.3830
 6062SOL     OW29818   0.877   3.457   0.451  0.6917 -0.2040  0.3661
 6062SOL    HW129819   0.836   3.533   0.408 -1.2332 -0.2427  2.1203
 6062SOL    HW229820   0.821   3.382   0.430  1.6852 -0.9530  0.4185
 6063SOL     OW29821   4.600   2.620  16.986 -0.1413 -0.1215  0.1118
 6063SOL    HW129822   4.522   2.666  17.017  0.2229  0.6654 -0.1466
 6063SOL    HW229823   4.571   2.529  16.988  1.0405 -0.5039 -0.5557
 6064SOL     OW29824   2.711   3.604   4.956  0.3663  0.7126 -0.0818
 6064SOL    HW129825   2.731   3.584   4.865 -0.1817 -0.9489  0.1608
 6064SOL    HW229826   2.797   3.589   4.996  0.2274  0.4679  0.1259
 6065SOL     OW29827   0.137   0.474   4.390  0.2060 -0.1411 -0.0809
 6065SOL    HW129828   0.094   0.556   4.365 -0.4965 -1.0472 -1.8902
 6065SOL    HW229829   0.166   0.444   4.304  3.3827  0.6188  0.7205
 6066SOL     OW29830   3.409   3.604   8.171 -0.8765 -0.3916 -0.4333
 6066SOL    HW129831   3.456   3.534   8.126 -0.3203 -0.8732  0.9314
 6066SOL    HW229832   3.477   3.668   8.193  1.0797 -2.8744  0.6786
 6067SOL     OW29833   3.373   1.395   3.739  0.0298  0.3820  0.6518
 6067SOL    HW129834   3.410   1.467   3.789 -1.1894  0.0531  2.0167
 6067SOL    HW229835   3.379   1.413   3.645 -0.5563  0.2515  0.5901
 6068SOL     OW29836   2.091   3.018   3.379 -0.7159 -0.0914 -0.0090
 6068SOL    HW129837   2.158   3.031   3.446 -0.7474 -1.5357  0.3063
 6068SOL    HW229838   2.050   3.104   3.384  1.8418  1.1232  0.3575
 6069SOL     OW29839   2.376   0.356   8.042 -0.0162 -0.1186  0.5479
 6069SOL    HW129840   2.465   0.391   8.045 -0.2940  0.7037 -0.6847
 6069SOL    HW229841   2.357   0.337   8.134  0.4235 -2.4086  0.1627
 6070SOL     OW29842   1.782   1.686   3.320 -0.1058  0.6616 -0.1739
 6070SOL    HW129843   1.864   1.713   3.363  0.3914 -0.4515 -0.4327
 6070SOL    HW229844   1.782   1.747   3.246 -2.1726 -0.8337 -1.3957
 6071SOL     OW29845   0.980   2.437   1.169  0.3552  0.2709  0.0772
 6071SOL    HW129846   1.025   2.512   1.132 -0.2253  1.0601  0.9682
 6071SOL    HW229847   0.925   2.404   1.098  1.3800  0.1335 -0.6459
 6072SOL     OW29848   3.635   4.420   8.505 -0.2350 -0.2789 -0.4043
 6072SOL    HW129849   3.696   4.395   8.574  1.8745  1.6091 -1.5829
 6072SOL    HW229850   3.662   4.511   8.502  0.0469 -0.4021 -1.8081
 6073SOL     OW29851   0.473   3.579   6.556  0.4921  0.2288  0.3278
 6073SOL    HW129852   0.464   3.495   6.512 -0.5664  0.2136  0.5811
 6073SOL    HW229853   0.481   3.548   6.646  0.0541  1.5428  0.8247
 6074SOL     OW29854   1.994   4.435   6.919  0.4786  0.7766 -0.2578
 6074SOL    HW129855   1.981   4.482   7.001  1.0231 -2.0565  1.4492
 6074SOL    HW229856   1.904   4.411   6.895  0.8276  0.4658 -1.2686
 6075SOL     OW29857   1.316   2.893   7.195  0.1733  0.2019  0.1739
 6075SOL    HW129858   1.322   2.899   7.100 -1.1679  1.3089  0.1726
 6075SOL    HW229859   1.398   2.846   7.210 -1.2095 -2.1202  0.4254
 6076SOL     OW29860   1.334   0.494  15.810 -0.3915 -0.2449  0.5969
 6076SOL    HW129861   1.288   0.425  15.857 -0.7803 -0.2934  0.1437
 6076SOL    HW229862   1.314   0.572  15.862 -0.1155  0.1966  0.0399
 6077SOL     OW29863   2.879   1.233  12.604 -0.5344 -0.3121  0.4401
 6077SOL    HW129864   2.849   1.322  12.622  1.6015  0.0272  2.2165
 6077SOL    HW229865   2.916   1.237  12.516 -1.9145 -0.0433 -0.1286
 6078SOL     OW29866   3.927   0.264  17.450 -0.1253 -0.0992 -0.0892
 6078SOL    HW129867   4.003   0.273  17.508 -0.6272  0.8034  0.4461
 6078SOL    HW229868   3.934   0.334  17.385  1.7961 -0.5077 -0.3082
 6079SOL     OW29869   0.310   2.401  16.371  0.5321  0.1051  0.2393
 6079SOL    HW129870   0.302   2.497  16.366 -3.5766 -0.2446  0.2060
 6079SOL    HW229871   0.332   2.387  16.463 -0.0891 -0.1445  0.3504
 6080SOL     OW29872   0.336   2.373   8.667 -0.4226 -0.0162  0.3995
 6080SOL    HW129873   0.411   2.385   8.725  1.4868 -2.2804 -1.5913
 6080SOL    HW229874   0.290   2.456   8.682  2.1876  1.2001  1.6162
 6081SOL     OW29875   4.501   2.822   0.518 -0.4317 -0.3025  0.1256
 6081SOL    HW129876   4.427   2.860   0.564 -1.1837  1.6816 -2.7488
 6081SOL    HW229877   4.452   2.787   0.444  0.9984  0.4653 -1.1813
 6082SOL     OW29878   4.494   3.505   2.697 -0.2142  0.0539  0.1542
 6082SOL    HW129879   4.587   3.524   2.702 -0.3204  0.2294  1.5596
 6082SOL    HW229880   4.459   3.549   2.775 -0.8264  1.3318 -0.8446
 6083SOL     OW29881   1.953   2.261   6.592 -0.2323  0.1747 -0.5791
 6083SOL    HW129882   1.888   2.289   6.527 -0.4188 -0.5696 -0.7140
 6083SOL    HW229883   2.030   2.317   6.585 -1.4802  1.7723 -1.6416
 6084SOL     OW29884   3.741   4.124   7.140  0.2983  0.0308  0.2412
 6084SOL    HW129885   3.824   4.172   7.144 -0.4176  1.2498  0.1377
 6084SOL    HW229886   3.769   4.035   7.116  0.1876 -0.1005  0.5917
 6085SOL     OW29887   2.108   2.314   4.079  0.2199 -0.2759  0.3109
 6085SOL    HW129888   2.115   2.391   4.135 -0.1584  0.3213 -0.4580
 6085SOL    HW229889   2.190   2.304   4.029  1.2875  0.7718  1.8642
 6086SOL     OW29890   2.328   4.082  14.522 -0.2180  0.6379  0.1100
 6086SOL    HW129891   2.417   4.091  14.557  0.6681 -1.4431 -1.6836
 6086SOL    HW229892   2.275   4.096  14.601  1.2417  0.5306  1.1079
 6087SOL     OW29893   1.081   3.252  11.947 -0.7850 -0.5103  0.3700
 6087SOL    HW129894   1.171   3.272  11.920 -0.6058 -0.4399  1.0136
 6087SOL    HW229895   1.084   3.252  12.042  0.9311 -0.3616  0.3218
 6088SOL     OW29896   0.791   0.185   9.081 -0.2506  0.8085  0.6068
 6088SOL    HW129897   0.871   0.220   9.121 -0.4437 -0.5942  2.2337
 6088SOL    HW229898   0.783   0.241   9.005 -0.3012  0.7729  0.5856
 6089SOL     OW29899   3.429   3.463  16.100 -0.1544  0.1549 -0.3501
 6089SOL    HW129900   3.520   3.436  16.105 -1.1736 -3.0297  0.6371
 6089SOL    HW229901   3.431   3.526  16.028  1.1742  2.0946  1.3949
 6090SOL     OW29902   0.919   1.773   8.499  0.6908 -0.3605 -0.0854
 6090SOL    HW129903   1.001   1.777   8.450 -0.8720  0.0456 -2.6893
 6090SOL    HW229904   0.888   1.863   8.485  1.9051  0.0793  0.0522
 6091SOL     OW29905   2.721   2.557   8.796 -0.4405 -0.4151  0.2951
 6091SOL    HW129906   2.694   2.492   8.861 -0.7543 -1.3886 -0.8298
 6091SOL    HW229907   2.816   2.548   8.809 -0.3383  0.2358  0.0127
 6092SOL     OW29908   2.679   2.298   3.258  0.4750 -0.2800 -0.0080
 6092SOL    HW129909   2.653   2.296   3.166  2.0712 -4.0350 -0.3974
 6092SOL    HW229910   2.678   2.391   3.283 -1.7178  0.0533 -1.3840
 6093SOL     OW29911   2.564   0.028  15.152  0.5958 -0.4587  0.2950
 6093SOL    HW129912   2.473   0.016  15.125  0.1550 -0.1549  1.6348
 6093SOL    HW229913   2.551   0.015  15.246  2.2710 -0.6837  0.4914
 6094SOL     OW29914   1.781   1.597  16.691  0.1176 -0.6216  0.7382
 6094SOL    HW129915   1.800   1.554  16.775  3.5151  1.6712  1.1243
 6094SOL    HW229916   1.782   1.524  16.628 -2.3730 -0.5086  0.5972
 6095SOL     OW29917   2.686   3.935   3.981  0.3096 -0.6219 -0.1829
 6095SOL    HW129918   2.651   3.948   3.893  2.4476  0.8126 -0.8239
 6095SOL    HW229919   2.647   3.851   4.005  0.2853 -0.6842 -0.4471
 6096SOL     OW29920   0.849   0.175   4.832  0.6584 -0.6110  0.1307
 6096SOL    HW129921   0.907   0.208   4.902  0.2704  0.8509 -0.2430
 6096SOL    HW229922   0.894   0.195   4.750  0.7118  1.3496  0.6296
 6097SOL     OW29923   0.326   1.781   3.658 -0.2056  0.0787  0.2456
 6097SOL    HW129924   0.254   1.811   3.713 -0.5657  0.7662 -0.6028
 6097SOL    HW229925   0.393   1.777   3.727 -1.0623  1.8983  1.1866
 6098SOL     OW29926   0.873   0.796   5.910  0.1912  1.2203  0.0420
 6098SOL    HW129927   0.785   0.785   5.945  0.4963 -1.7159 -0.1010
 6098SOL    HW229928   0.850   0.864   5.846 -1.7943  0.0111 -0.5280
 6099SOL     OW29929   2.054   1.623   6.475 -1.0139  0.1743  0.1603
 6099SOL    HW129930   2.001   1.608   6.553 -0.0604 -2.0473  0.3609
 6099SOL    HW229931   1.989   1.677   6.429 -1.4426  2.1541  3.1091
 6100SOL     OW29932   3.295   0.001   0.458  0.1166  0.1880  0.0455
 6100SOL    HW129933   3.293   0.059   0.534  0.0849 -0.0122  0.1993
 6100SOL    HW229934   3.224   0.038   0.406 -0.6871 -3.5364 -1.5043
 6101SOL     OW29935   3.247   2.472   8.778 -0.5135 -0.2132  0.0483
 6101SOL    HW129936   3.237   2.498   8.687  3.3466 -1.0042 -0.5998
 6101SOL    HW229937   3.311   2.533   8.816  1.7637 -3.0265  0.7586
 6102SOL     OW29938   3.990   3.523  13.768  0.1217  0.2640  0.3935
 6102SOL    HW129939   3.958   3.518  13.858  0.1911 -2.7547  0.2322
 6102SOL    HW229940   4.077   3.562  13.768 -0.9541  2.6667 -2.0462
 6103SOL     OW29941   4.542   2.092  14.002  0.4558  0.2623  1.5587
 6103SOL    HW129942   4.477   2.101  13.932  0.9008 -0.5160  1.0521
 6103SOL    HW229943   4.490   2.037  14.060  0.7964 -0.0835  1.5308
 6104SOL     OW29944   0.518   1.821   5.563  0.0591  0.5612 -0.6254
 6104SOL    HW129945   0.490   1.753   5.624 -0.5954  1.0509 -0.3752
 6104SOL    HW229946   0.608   1.830   5.596 -0.3894  1.1893  0.4388
 6105SOL     OW29947   2.966   1.815   9.600  0.2716 -0.4464  0.2506
 6105SOL    HW129948   2.881   1.813   9.644 -0.5111  1.0179 -1.1787
 6105SOL    HW229949   2.969   1.741   9.539 -1.0942 -0.1252 -0.1989
 6106SOL     OW29950   2.795   4.419  14.285 -0.2041  0.2452  0.1403
 6106SOL    HW129951   2.877   4.375  14.310  0.7810  2.1530  0.2550
 6106SOL    HW229952   2.805   4.506  14.324  0.0044  0.7748 -1.0992
 6107SOL     OW29953   0.633   3.015   6.010 -0.1958 -0.0384 -0.2907
 6107SOL    HW129954   0.720   2.976   6.017 -0.8608 -0.8204  3.5613
 6107SOL    HW229955   0.656   3.097   5.967  0.0273  0.7383  1.2768
 6108SOL     OW29956   3.433   2.709  15.834 -0.4042  0.2506  0.5733
 6108SOL    HW129957   3.444   2.684  15.926 -0.8057 -1.2567  0.2079
 6108SOL    HW229958   3.516   2.755  15.832 -1.3121  2.0382  4.0664
 6109SOL     OW29959   3.415   3.523  13.451  0.7987 -0.0550 -0.1022
 6109SOL    HW129960   3.365   3.452  13.491  0.0788  1.9982  2.6243
 6109SOL    HW229961   3.363   3.600  13.472  0.7522 -0.6594  1.9670
 6110SOL     OW29962   2.210   3.569   6.296  0.1756  0.2265  0.1544
 6110SOL    HW129963   2.260   3.609   6.224 -0.4277  1.5735  0.4769
 6110SOL    HW229964   2.202   3.476   6.277  0.0026 -0.0590  1.6196
 6111SOL     OW29965   2.863   1.986  17.277 -0.3706  0.5922 -0.3127
 6111SOL    HW129966   2.953   2.013  17.294 -1.0565  3.0525 -0.5750
 6111SOL    HW229967   2.820   2.063  17.313  1.1004  1.5554 -0.6341
 6112SOL     OW29968   3.776   1.310   1.767 -0.3873 -0.9249  0.4058
 6112SOL    HW129969   3.768   1.293   1.673  2.0474  2.5872 -0.4570
 6112SOL    HW229970   3.846   1.376   1.762  0.4631 -1.7367  1.4973
 6113SOL     OW29971   0.628   3.437   8.958  0.0166  0.1469 -0.0631
 6113SOL    HW129972   0.553   3.414   9.012  0.1319  1.7134  0.7751
 6113SOL    HW229973   0.629   3.366   8.893 -1.8763 -0.2676  0.3666
 6114SOL     OW29974   1.574   0.609   3.678  0.2283 -0.1765 -0.6631
 6114SOL    HW129975   1.530   0.649   3.753 -1.9641  1.0673 -2.6115
 6114SOL    HW229976   1.534   0.658   3.606 -0.7168  0.5992  0.3858
 6115SOL     OW29977   3.908   2.243   4.260 -0.0252  0.0335 -0.8327
 6115SOL    HW129978   3.875   2.212   4.175  2.4672 -0.5123 -1.6078
 6115SOL    HW229979   3.845   2.312   4.281  0.3735  0.0217  0.3618
 6116SOL     OW29980   1.708   4.549   9.944 -0.5872 -0.0811  0.2776
 6116SOL    HW129981   1.708   4.634   9.988  1.7550 -0.2965  0.7211
 6116SOL    HW229982   1.728   4.494  10.020  1.0039 -1.2313 -0.9722
 6117SOL     OW29983   0.094   3.438   0.455 -0.4330 -0.4719 -0.4744
 6117SOL    HW129984   0.063   3.521   0.493 -0.5366 -1.0316  0.6641
 6117SOL    HW229985   0.049   3.440   0.371  0.5108 -1.1973 -0.9954
 6118SOL     OW29986   2.775   2.480   9.961 -0.5878 -0.0847 -0.1819
 6118SOL    HW129987   2.758   2.556  10.016  3.4509  0.5713  0.1805
 6118SOL    HW229988   2.802   2.529   9.883 -1.2406  1.4611  0.5694
 6119SOL     OW29989   1.243   2.716   4.997  0.3952 -0.1617 -0.4771
 6119SOL    HW129990   1.192   2.713   4.916 -0.4698 -0.8932  0.0921
 6119SOL    HW229991   1.284   2.802   4.996 -2.2016  1.0600  2.2417
 6120SOL     OW29992   1.108   1.424   8.265 -0.6309  0.0251  0.3449
 6120SOL    HW129993   1.165   1.357   8.302 -2.6373 -1.8327  0.1019
 6120SOL    HW229994   1.170   1.488   8.229  1.1089 -1.9631 -0.1367
 6121SOL     OW29995   4.376   1.790  16.158  0.2839  0.8353  0.4125
 6121SOL    HW129996   4.339   1.863  16.209  1.3666  2.3580 -0.9614
 6121SOL    HW229997   4.414   1.833  16.081  1.1363  0.0425  0.3940
 6122SOL     OW29998   0.769   1.199   4.878 -0.1075 -0.5749  0.3517
 6122SOL    HW129999   0.713   1.230   4.807 -0.7436 -0.3469  0.9583
 6122SOL    HW230000   0.719   1.235   4.951  0.3373 -1.7379  1.2246
 6123SOL     OW30001   3.312   4.316   4.417  0.5193  0.3222  0.1591
 6123SOL    HW130002   3.395   4.278   4.389 -0.3035 -1.1537 -0.2639
 6123SOL    HW230003   3.291   4.260   4.492  0.7100  0.3060  0.2005
 6124SOL     OW30004   0.733   4.414  11.182  0.6674  0.3592  0.7686
 6124SOL    HW130005   0.689   4.434  11.264 -0.4449 -0.4967  0.3946
 6124SOL    HW230006   0.699   4.483  11.126 -1.6608 -0.8868  0.6383
 6125SOL     OW30007   3.271   3.442   8.823 -0.2678 -0.6399 -0.9052
 6125SOL    HW130008   3.243   3.421   8.734  0.2876 -1.4788 -0.8772
 6125SOL    HW230009   3.289   3.353   8.852  4.5593  0.8231  0.5929
 6126SOL     OW30010   0.281   1.080  13.116 -0.6228 -0.3377 -0.7378
 6126SOL    HW130011   0.338   1.071  13.040  1.1940 -0.4163  0.6529
 6126SOL    HW230012   0.250   1.166  13.088  0.1167  0.3761  0.6811
 6127SOL     OW30013   0.015   1.135   6.359  0.5843 -0.1036 -0.0935
 6127SOL    HW130014   0.106   1.153   6.340  0.6850 -2.9439 -2.3604
 6127SOL    HW230015   0.036   1.092   6.442  3.1168  1.6058  0.1358
 6128SOL     OW30016   3.444   3.640   8.924  0.4352  0.1902 -0.3167
 6128SOL    HW130017   3.407   3.656   9.011  2.1130  0.2200  0.3734
 6128SOL    HW230018   3.381   3.575   8.891  1.5134 -0.3251 -1.3597
 6129SOL     OW30019   2.425   3.133   5.838 -0.3390 -0.0449 -0.0130
 6129SOL    HW130020   2.471   3.214   5.861 -0.4256  0.4367 -1.5158
 6129SOL    HW230021   2.431   3.084   5.920  0.7108  0.0355 -0.0315
 6130SOL     OW30022   1.449   0.103   4.986  0.5656  0.3692 -0.2734
 6130SOL    HW130023   1.364   0.147   4.993  3.0924  4.6527  3.1218
 6130SOL    HW230024   1.500   0.183   4.975  2.0445 -0.4760  0.5246
 6131SOL     OW30025   2.966   0.077  11.267  0.0767  0.6195 -0.0039
 6131SOL    HW130026   2.958   0.099  11.175 -0.0974 -0.8490 -0.3407
 6131SOL    HW230027   2.892   0.123  11.307 -0.6849 -1.7500  1.3228
 6132SOL     OW30028   3.295   2.438   7.152 -0.1258 -0.7418  0.4890
 6132SOL    HW130029   3.257   2.519   7.184  0.6694  0.3568 -1.3005
 6132SOL    HW230030   3.229   2.396   7.096 -0.0014  0.7272 -0.7560
 6133SOL     OW30031   3.014   3.245   3.809  0.1125 -0.1445  0.4049
 6133SOL    HW130032   3.009   3.338   3.831 -0.8560 -0.4059  1.2613
 6133SOL    HW230033   2.985   3.239   3.718  2.3938 -0.4343 -0.3121
 6134SOL     OW30034   1.087   2.376   4.266 -0.7512 -0.8127  0.3498
 6134SOL    HW130035   1.133   2.294   4.248 -1.4014 -0.5738 -2.4055
 6134SOL    HW230036   1.011   2.366   4.210 -1.6469 -0.7470  1.5473
 6135SOL     OW30037   2.298   2.528   8.802  0.1529 -0.0637  0.1377
 6135SOL    HW130038   2.311   2.599   8.739  0.9187 -0.4644 -0.1589
 6135SOL    HW230039   2.386   2.524   8.839 -0.2827 -0.3135  1.1506
 6136SOL     OW30040   2.603   1.374  11.475 -0.0828 -0.7527  0.2267
 6136SOL    HW130041   2.658   1.336  11.543  2.0335 -0.4622 -1.3054
 6136SOL    HW230042   2.651   1.350  11.396 -1.7001 -0.7399 -0.7627
 6137SOL     OW30043   3.513   4.705   7.496 -0.6421  0.0559 -0.1869
 6137SOL    HW130044   3.573   4.683   7.566  1.0083 -0.2239 -1.6928
 6137SOL    HW230045   3.538   0.058   7.476 -0.0397  0.2434  1.4564
 6138SOL     OW30046   4.243   4.483   5.283  0.1300  0.5031 -0.0175
 6138SOL    HW130047   4.235   4.406   5.340 -1.3208 -0.0589 -0.9740
 6138SOL    HW230048   4.322   4.456   5.237 -0.5627 -2.4057  0.4969
 6139SOL     OW30049   2.291   0.107   8.595 -0.2896  0.6787 -0.6748
 6139SOL    HW130050   2.279   0.041   8.663  1.9149  2.1023  1.0913
 6139SOL    HW230051   2.220   0.082   8.536  0.3659 -0.6678 -0.8939
 6140SOL     OW30052   0.791   4.613  10.292 -1.0588  0.7489 -0.6258
 6140SOL    HW130053   0.703   4.576  10.282 -0.5485 -0.9236  1.0235
 6140SOL    HW230054   0.798   4.672  10.217 -0.4180  1.9458  0.3803
 6141SOL     OW30055   1.091   4.408  12.427  0.5343 -0.4003 -0.5808
 6141SOL    HW130056   1.069   4.461  12.351  2.7098  0.7635 -0.3984
 6141SOL    HW230057   1.114   4.467  12.499 -1.1245 -0.2803 -0.1272
 6142SOL     OW30058   3.835   1.408   7.909  0.6406 -0.3040  0.5945
 6142SOL    HW130059   3.873   1.434   7.992 -1.2452  0.4536  1.2211
 6142SOL    HW230060   3.836   1.494   7.867  0.6098 -1.3757 -1.6388
 6143SOL     OW30061   0.607   4.442  15.023  0.2556  0.2087  0.8809
 6143SOL    HW130062   0.577   4.406  14.940 -1.8592 -1.2749  2.2684
 6143SOL    HW230063   0.673   4.382  15.059  0.7193  0.4239  0.3815
 6144SOL     OW30064   3.903   3.856   3.092  0.4188 -0.1892  0.0487
 6144SOL    HW130065   3.918   3.773   3.046  0.9820  0.6066 -1.2151
 6144SOL    HW230066   3.883   3.834   3.183 -1.3247  2.5024  0.2977
 6145SOL     OW30067   2.002   1.172   3.819 -0.0954 -0.2928 -0.6449
 6145SOL    HW130068   2.094   1.155   3.800 -0.6609 -1.0337 -2.7200
 6145SOL    HW230069   2.003   1.244   3.882 -0.2026  0.0282 -1.0088
 6146SOL     OW30070   1.415   1.618   6.866 -0.0258  0.0218 -0.2155
 6146SOL    HW130071   1.511   1.625   6.863  0.1192 -1.2220  1.7833
 6146SOL    HW230072   1.389   1.559   6.795 -1.0966 -1.5988  1.5181
 6147SOL     OW30073   2.353   3.307   2.809 -0.4082  0.3120 -0.6669
 6147SOL    HW130074   2.272   3.315   2.759 -0.7781 -0.8554 -0.2593
 6147SOL    HW230075   2.350   3.387   2.861  0.3788  0.9292 -1.5602
 6148SOL     OW30076   1.698   4.409   9.174  0.2275  0.0739  0.0797
 6148SOL    HW130077   1.723   4.331   9.125 -0.0091 -0.3738  0.6630
 6148SOL    HW230078   1.654   4.371   9.250  1.2437  0.1264  0.6931
 6149SOL     OW30079   2.295   1.487   7.434 -0.3061 -0.4086 -0.2161
 6149SOL    HW130080   2.288   1.416   7.371 -1.6559  0.9360 -1.5734
 6149SOL    HW230081   2.250   1.449   7.510  0.8991 -0.0549  0.6724
 6150SOL     OW30082   0.690   2.198  12.712  0.2722 -0.0376 -0.1703
 6150SOL    HW130083   0.724   2.133  12.650  0.2134 -0.6317  0.4134
 6150SOL    HW230084   0.717   2.154  12.792 -2.0721 -0.7333  0.2417
 6151SOL     OW30085   1.766   2.378   6.417 -0.2643 -0.2104 -0.5395
 6151SOL    HW130086   1.705   2.411   6.483 -1.2723 -0.2771 -1.4480
 6151SOL    HW230087   1.809   2.461   6.398 -2.0658  0.8034 -0.2086
 6152SOL     OW30088   3.184   0.637  12.261 -0.2318 -0.3693 -0.7769
 6152SOL    HW130089   3.221   0.656  12.347 -0.0425 -0.3180 -0.8710
 6152SOL    HW230090   3.114   0.572  12.268  0.6864 -1.2555  0.1096
 6153SOL     OW30091   0.133   3.416   8.045  0.3019 -0.5338 -0.2206
 6153SOL    HW130092   0.217   3.441   8.006 -0.2682 -0.8824 -1.6796
 6153SOL    HW230093   0.076   3.418   7.968  0.7722  0.4227 -0.5421
 6154SOL     OW30094   4.453   1.803  12.953 -0.1681 -0.7081 -0.4093
 6154SOL    HW130095   4.438   1.787  12.860 -1.2901 -1.3706 -0.1157
 6154SOL    HW230096   4.529   1.861  12.954  0.1381 -1.1425  0.7821
 6155SOL     OW30097   0.591   4.072   7.479  0.1638 -0.3361 -0.4065
 6155SOL    HW130098   0.669   4.073   7.534 -1.0581 -0.6027  1.3330
 6155SOL    HW230099   0.532   4.117   7.540  0.5814 -0.0433 -0.2178
 6156SOL     OW30100   0.569   4.479  11.966 -0.4971  0.3986 -0.1271
 6156SOL    HW130101   0.587   4.399  11.916 -2.6181  0.4308 -0.9593
 6156SOL    HW230102   0.636   4.475  12.034 -0.7402 -0.6752  0.0509
 6157SOL     OW30103   3.336   1.603   6.505  0.2459 -0.3417  0.7427
 6157SOL    HW130104   3.356   1.580   6.595  1.7606 -0.1239  0.4607
 6157SOL    HW230105   3.367   1.693   6.490  0.5214 -0.7821 -1.2688
 6158SOL     OW30106   0.264   2.932   5.968 -0.1113 -0.0691 -0.0236
 6158SOL    HW130107   0.336   2.904   5.912 -0.7962 -0.9753 -0.4669
 6158SOL    HW230108   0.188   2.897   5.920  0.4381  2.3857 -2.6417
 6159SOL     OW30109   4.068   0.699  16.978 -0.0019 -0.2156 -0.0126
 6159SOL    HW130110   4.040   0.754  16.904 -2.1657  0.1654  1.0790
 6159SOL    HW230111   4.016   0.744  17.045  0.1508 -1.3733  0.8686
 6160SOL     OW30112   3.419   1.425   4.912  0.2379  0.5755  0.5454
 6160SOL    HW130113   3.450   1.514   4.926 -0.2622  1.3213 -2.9195
 6160SOL    HW230114   3.413   1.399   5.004 -1.6779 -1.6027 -0.1700
 6161SOL     OW30115   4.047   2.644   8.298  0.1694  0.0303  0.0779
 6161SOL    HW130116   3.955   2.653   8.322 -0.2081 -0.3733 -1.1912
 6161SOL    HW230117   4.041   2.692   8.216  2.6268 -0.6165 -0.4964
 6162SOL     OW30118   2.360   2.318   3.953 -0.1604 -0.4881  0.6392
 6162SOL    HW130119   2.427   2.255   3.978 -0.2023 -0.9119 -0.3605
 6162SOL    HW230120   2.403   2.397   3.987  0.3093 -0.4010 -0.1778
 6163SOL     OW30121   4.483   2.563  17.441 -0.6208 -0.0601  0.0770
 6163SOL    HW130122   4.544   2.631  17.469 -0.2620 -0.8409  1.1912
 6163SOL    HW230123   4.508   2.490  17.497  0.8123  1.1313  1.0106
 6164SOL     OW30124   1.080   0.497   1.798 -0.1089  0.5045 -0.4897
 6164SOL    HW130125   1.161   0.508   1.848 -1.3832  1.9314  1.2573
 6164SOL    HW230126   1.048   0.410   1.824  0.8713  0.7305  1.4287
 6165SOL     OW30127   3.330   1.869   4.710 -0.0905  0.4022 -0.0646
 6165SOL    HW130128   3.420   1.867   4.741 -1.1027 -2.4391  2.6999
 6165SOL    HW230129   3.297   1.949   4.751  1.7402  1.4764 -0.6771
 6166SOL     OW30130   4.654   0.919  15.404 -0.1033  0.4979 -0.4519
 6166SOL    HW130131   4.708   0.945  15.479  0.1670  1.1289 -0.8623
 6166SOL    HW230132   4.571   0.952  15.438 -1.7530 -2.5708 -1.5700
 6167SOL     OW30133   2.626   1.323   4.467 -0.0886  0.3213 -0.5714
 6167SOL    HW130134   2.578   1.241   4.461 -0.8558  0.6905  0.3823
 6167SOL    HW230135   2.701   1.308   4.410  1.1109 -0.7659  1.3185
 6168SOL     OW30136   4.167   1.474   2.940 -0.2070 -0.1796 -0.2407
 6168SOL    HW130137   4.156   1.386   2.903  0.0104 -0.4076  0.2336
 6168SOL    HW230138   4.139   1.456   3.030 -0.9029  1.2979 -0.1669
 6169SOL     OW30139   1.680   2.089   6.865 -0.6808 -0.3942 -0.2495
 6169SOL    HW130140   1.593   2.114   6.897  0.7029  1.8973  1.7865
 6169SOL    HW230141   1.691   2.008   6.915  1.3856  0.5064  0.7616
 6170SOL     OW30142   2.014   3.526  10.952 -0.0782 -0.2814 -0.1423
 6170SOL    HW130143   2.035   3.576  11.031  0.5535  1.9864 -1.7496
 6170SOL    HW230144   2.009   3.439  10.991 -0.0831  0.4519  1.4807
 6171SOL     OW30145   1.900   1.167   7.365  0.3841 -0.3864 -0.0559
 6171SOL    HW130146   1.834   1.100   7.384  0.3832 -0.2067  0.5699
 6171SOL    HW230147   1.943   1.162   7.450  0.1882 -1.6230 -0.0199
 6172SOL     OW30148   3.466   0.632   7.060 -0.5070  0.1365  0.1641
 6172SOL    HW130149   3.445   0.725   7.049 -0.0000  0.2305 -0.0093
 6172SOL    HW230150   3.543   0.637   7.117 -0.2163 -0.3592 -0.1845
 6173SOL     OW30151   2.743   0.674  15.103 -0.5114  0.2378 -0.4304
 6173SOL    HW130152   2.654   0.655  15.072  0.1203  0.4064 -2.3191
 6173SOL    HW230153   2.789   0.604  15.058  0.7287  0.6162  0.2475
 6174SOL     OW30154   2.677   1.037  11.074 -0.2094 -0.2475 -0.2119
 6174SOL    HW130155   2.724   0.965  11.032  0.4880  0.4772 -0.6589
 6174SOL    HW230156   2.695   1.023  11.167 -2.1354  1.2099  0.3872
 6175SOL     OW30157   3.576   4.290   0.955 -0.7801 -0.6497 -0.1851
 6175SOL    HW130158   3.657   4.268   1.001  0.4492  1.1955 -1.4847
 6175SOL    HW230159   3.612   4.335   0.879 -1.1738  0.8333  0.4926
 6176SOL     OW30160   0.024   4.103  13.671  0.1434 -0.3255 -0.0567
 6176SOL    HW130161   0.113   4.117  13.639 -0.5210  2.3608 -0.8196
 6176SOL    HW230162   0.021   4.142  13.758 -2.3315  0.0234 -0.2841
 6177SOL     OW30163   0.006   3.535   9.794  0.6915 -0.2563 -0.1136
 6177SOL    HW130164   0.056   3.537   9.876 -1.2972 -2.3742  1.1659
 6177SOL    HW230165   0.074   3.504   9.735  0.7602  1.7838 -1.0994
 6178SOL     OW30166   2.097   0.759   1.775  0.0044 -0.1507  0.1506
 6178SOL    HW130167   2.020   0.785   1.825  0.6198  0.8635  0.5568
 6178SOL    HW230168   2.071   0.683   1.723 -0.4315  0.2783 -0.2462
 6179SOL     OW30169   2.848   3.332   8.234  0.8817 -0.4071  0.4369
 6179SOL    HW130170   2.873   3.261   8.175  3.3551  0.7777  0.0594
 6179SOL    HW230171   2.882   3.302   8.318 -1.3393 -0.9984  1.1228
 6180SOL     OW30172   3.891   0.306   2.391 -0.0288  0.3010  0.0202
 6180SOL    HW130173   3.807   0.318   2.434 -0.6056  2.1989 -1.6619
 6180SOL    HW230174   3.951   0.338   2.459 -1.2519  0.2309  1.1390
 6181SOL     OW30175   2.636   4.228   9.128  0.1291  0.0506  1.2469
 6181SOL    HW130176   2.645   4.139   9.094 -0.7267  0.7203 -0.7267
 6181SOL    HW230177   2.607   4.217   9.219 -1.2843 -0.7377  0.6994
 6182SOL     OW30178   2.567   1.315   8.613  0.1516 -0.0549  0.5412
 6182SOL    HW130179   2.554   1.228   8.652  0.0451  0.3927  1.5122
 6182SOL    HW230180   2.483   1.322   8.568  0.1374 -1.0891  0.4153
 6183SOL     OW30181   4.269   2.258   7.419  0.0582 -0.2293 -0.5865
 6183SOL    HW130182   4.318   2.238   7.339  1.1184 -0.9883  0.2478
 6183SOL    HW230183   4.203   2.323   7.395  0.9191  0.6345 -0.6308
 6184SOL     OW30184   3.332   0.506   5.862  0.3282  0.3214  0.0660
 6184SOL    HW130185   3.248   0.549   5.849 -1.2611 -2.5877  0.7256
 6184SOL    HW230186   3.367   0.550   5.940  1.5883 -0.5649  0.0157
 6185SOL     OW30187   4.060   3.278  16.657  0.0386  0.2903  0.5750
 6185SOL    HW130188   4.155   3.277  16.665  0.1223 -1.6999 -0.8403
 6185SOL    HW230189   4.036   3.297  16.747 -0.7538 -0.1093  0.4482
 6186SOL     OW30190   3.821   2.296   5.113 -0.1756 -0.6846 -0.1700
 6186SOL    HW130191   3.885   2.284   5.183 -2.2608 -1.7511  1.5086
 6186SOL    HW230192   3.859   2.365   5.058  1.9858 -0.5558  1.4813
 6187SOL     OW30193   4.694   4.406   6.999 -0.5487  0.0733 -0.0773
 6187SOL    HW130194   4.626   4.340   7.005  1.8950 -2.5340 -1.1503
 6187SOL    HW230195   0.032   4.347   7.005 -0.6560  0.1596  1.9617
 6188SOL     OW30196   3.606   3.016   3.207 -0.3179  0.3114  0.3554
 6188SOL    HW130197   3.603   2.932   3.162 -1.4340 -0.7618  2.4561
 6188SOL    HW230198   3.700   3.031   3.213 -0.2421 -0.0603  0.1069
 6189SOL     OW30199   0.341   1.264   0.360  1.0286 -0.1562 -0.2836
 6189SOL    HW130200   0.399   1.331   0.394 -0.8791  1.2532  0.1411
 6189SOL    HW230201   0.298   1.299   0.282 -1.4574 -0.0040  1.1667
 6190SOL     OW30202   0.995   2.415  15.695 -0.0838  0.2103  0.2816
 6190SOL    HW130203   1.058   2.482  15.669 -2.3872  1.4540 -2.1600
 6190SOL    HW230204   1.048   2.388  15.769 -0.0372 -1.0035 -0.1975
 6191SOL     OW30205   3.620   3.531  14.717 -0.2228  0.1402 -0.6447
 6191SOL    HW130206   3.534   3.559  14.687  0.7078  2.5212 -1.1219
 6191SOL    HW230207   3.633   3.449  14.670 -0.7216 -1.0134  1.2094
 6192SOL     OW30208   2.049   0.564   8.270 -0.3669 -0.8175  0.4306
 6192SOL    HW130209   2.078   0.622   8.200 -1.3969 -1.3038 -0.3923
 6192SOL    HW230210   2.130   0.544   8.317  0.8775 -1.3688 -1.9276
 6193SOL     OW30211   2.315   1.141   7.389  0.1237  0.6732 -0.0333
 6193SOL    HW130212   2.245   1.106   7.334  1.4995  0.0549 -1.3589
 6193SOL    HW230213   2.256   1.184   7.452 -0.5819 -1.0029  0.4624
 6194SOL     OW30214   2.093   3.412   4.218 -0.5795 -0.5462  0.5231
 6194SOL    HW130215   2.001   3.414   4.245 -0.6752  1.6300  0.0301
 6194SOL    HW230216   2.119   3.503   4.206  1.8710 -1.3145 -0.1076
 6195SOL     OW30217   4.050   0.942  14.560 -0.3585  0.3071 -0.1613
 6195SOL    HW130218   4.029   1.009  14.625 -2.6262 -1.9922  1.4692
 6195SOL    HW230219   3.961   0.910  14.548 -0.9846  2.3547 -0.9149
 6196SOL     OW30220   4.054   0.185   5.826  0.9211 -0.9027 -0.4485
 6196SOL    HW130221   4.123   0.147   5.881  1.3379 -0.2919 -0.5456
 6196SOL    HW230222   3.975   0.150   5.867  0.4430  1.2810  0.5030
 6197SOL     OW30223   3.839   3.108   0.904 -0.0048  0.2609  0.2129
 6197SOL    HW130224   3.874   3.134   0.989  2.7000 -1.2446 -0.4304
 6197SOL    HW230225   3.797   3.189   0.875  0.5415  0.7615  0.8158
 6198SOL     OW30226   2.254   3.089   2.910 -0.1733 -0.7141 -0.1352
 6198SOL    HW130227   2.287   3.166   2.864 -0.8966  0.0934  0.6743
 6198SOL    HW230228   2.189   3.124   2.972  0.6465 -1.5607  1.2178
 6199SOL     OW30229   0.623   3.133   0.870 -0.0504 -0.8613  0.3696
 6199SOL    HW130230   0.648   3.199   0.934  2.0220 -1.8108  0.5475
 6199SOL    HW230231   0.604   3.055   0.922  0.0340 -1.6802 -0.8026
 6200SOL     OW30232   4.241   4.300   4.683  0.6700 -0.1842 -0.2934
 6200SOL    HW130233   4.325   4.255   4.672  0.1281 -1.5101  0.9809
 6200SOL    HW230234   4.178   4.229   4.672 -0.4125  1.1315 -2.4276
 6201SOL     OW30235   2.417   1.167   9.790  0.0976 -0.9659 -0.1531
 6201SOL    HW130236   2.349   1.137   9.730 -0.7962  0.9834 -0.0802
 6201SOL    HW230237   2.377   1.138   9.872 -0.8471 -0.5659 -0.4743
 6202SOL     OW30238   1.008   2.282   7.397  0.2787 -0.4359  0.6816
 6202SOL    HW130239   0.921   2.272   7.434 -0.1054 -0.7345 -0.3193
 6202SOL    HW230240   0.981   2.322   7.315  2.8475  2.6576  1.3403
 6203SOL     OW30241   2.128   4.081   1.040  0.2249  0.3395 -0.5998
 6203SOL    HW130242   2.052   4.087   0.982 -0.2183 -1.8658 -0.2543
 6203SOL    HW230243   2.107   3.997   1.081  0.8806 -0.4244 -1.8201
 6204SOL     OW30244   0.001   1.667  14.158 -0.2967 -0.2223  0.4367
 6204SOL    HW130245   4.681   1.666  14.235  1.9490 -0.4324  2.0984
 6204SOL    HW230246   4.679   1.681  14.084 -1.5723 -1.4949  1.2028
 6205SOL     OW30247   4.349   0.187   9.844 -0.3034  0.7957 -0.1516
 6205SOL    HW130248   4.344   0.271   9.799 -1.5698 -0.4003 -2.2268
 6205SOL    HW230249   4.416   0.205   9.911 -2.7242  1.1681  2.1489
 6206SOL     OW30250   0.128   0.767   4.003 -0.3576  0.4844 -0.4255
 6206SOL    HW130251   0.217   0.774   4.038 -1.4128 -0.7654  2.4769
 6206SOL    HW230252   0.110   0.853   3.964  2.5472  1.4072  0.2332
 6207SOL     OW30253   4.733   1.308   1.027 -0.6382 -0.2019 -0.2096
 6207SOL    HW130254   4.715   1.366   1.102 -0.2693  0.7433 -0.8480
 6207SOL    HW230255   4.689   1.229   1.057  3.3522 -2.3802 -0.0515
 6208SOL     OW30256   0.683   2.643   7.994 -0.0616 -0.8638  0.2098
 6208SOL    HW130257   0.599   2.671   7.956  0.7127  1.8808  0.4984
 6208SOL    HW230258   0.666   2.651   8.088  0.5413 -0.4599  0.2888
 6209SOL     OW30259   3.117   1.526   8.259 -0.2251 -0.3056 -0.1353
 6209SOL    HW130260   3.150   1.608   8.296 -0.4513 -0.0459 -0.5085
 6209SOL    HW230261   3.104   1.552   8.168  1.8900 -0.4820 -0.5029
 6210SOL     OW30262   4.640   0.696   1.000 -0.3083  0.0143 -0.1887
 6210SOL    HW130263   4.604   0.697   1.088  0.9919  0.5428  0.3276
 6210SOL    HW230264   4.678   0.608   1.002  2.7841  1.3274 -1.3394
 6211SOL     OW30265   0.990   0.953   6.945  0.0323 -0.6329  0.4931
 6211SOL    HW130266   0.968   0.937   6.853  2.3098  0.6301 -0.2655
 6211SOL    HW230267   1.025   1.042   6.943 -2.0898  0.1787 -1.5863
 6212SOL     OW30268   2.989   3.934  17.343  0.4329 -0.0632 -0.0066
 6212SOL    HW130269   2.950   4.016  17.314  0.0155 -0.0176  0.7001
 6212SOL    HW230270   3.005   3.888  17.261 -0.5889 -2.2322  1.0082
 6213SOL     OW30271   0.500   1.927   7.142  0.8031 -0.1305  0.5508
 6213SOL    HW130272   0.442   2.003   7.133  1.4225  0.6865  3.3187
 6213SOL    HW230273   0.581   1.955   7.100 -0.3251  0.3470 -1.3015
 6214SOL     OW30274   0.893   4.141   3.189 -0.2685  0.3563  0.6428
 6214SOL    HW130275   0.929   4.056   3.161  0.0027  0.5103  0.5258
 6214SOL    HW230276   0.812   4.109   3.229  1.0172 -1.6673  1.6228
 6215SOL     OW30277   1.856   0.928   5.591 -0.0406 -0.0468 -0.2928
 6215SOL    HW130278   1.832   0.958   5.678 -0.6596 -0.3015 -0.3740
 6215SOL    HW230279   1.768   0.929   5.552 -0.9372 -2.2858  1.6179
 6216SOL     OW30280   0.186   0.583   1.587 -0.3581 -0.5235  0.2084
 6216SOL    HW130281   0.136   0.646   1.535  1.8065  0.7219 -0.3708
 6216SOL    HW230282   0.242   0.649   1.629  0.1188  0.4100 -1.8907
 6217SOL     OW30283   1.819   1.563   7.938  0.1923  0.1199  0.2250
 6217SOL    HW130284   1.815   1.595   8.028  0.6418  1.4159 -0.2054
 6217SOL    HW230285   1.811   1.646   7.890 -0.7170 -0.1933 -0.1560
 6218SOL     OW30286   3.654   2.290   2.387  0.0081 -0.5312 -0.4909
 6218SOL    HW130287   3.695   2.349   2.324  2.6343 -0.2490  1.4666
 6218SOL    HW230288   3.614   2.356   2.444 -1.3067 -1.3516 -0.4784
 6219SOL     OW30289   0.154   3.599   3.480 -0.6484 -0.0657 -0.3181
 6219SOL    HW130290   0.160   3.565   3.569 -1.7379 -0.7030 -0.4949
 6219SOL    HW230291   0.061   3.595   3.461 -1.2617 -0.4993  2.8360
 6220SOL     OW30292   0.940   0.771  14.024 -0.2782 -0.5952 -0.3339
 6220SOL    HW130293   0.846   0.752  14.019 -0.0954 -1.7467  0.5248
 6220SOL    HW230294   0.956   0.858  13.988 -3.0318 -0.2618 -0.7596
 6221SOL     OW30295   2.608   1.326   7.849 -0.2294  0.6608 -0.1039
 6221SOL    HW130296   2.676   1.330   7.783  0.1778 -1.1885  0.2085
 6221SOL    HW230297   2.643   1.251   7.897  0.0651  1.1623  0.4609
 6222SOL     OW30298   0.848   3.361   7.212 -0.5003  0.0550 -0.0385
 6222SOL    HW130299   0.850   3.364   7.308 -0.3867  0.5082 -0.0582
 6222SOL    HW230300   0.865   3.454   7.199 -0.5893  0.4917  2.9346
 6223SOL     OW30301   3.819   1.135  14.556 -0.0849 -0.4837 -0.6770
 6223SOL    HW130302   3.756   1.131  14.484 -2.2225  1.5086  1.1219
 6223SOL    HW230303   3.888   1.194  14.525 -0.8066  0.0828 -1.2158
 6224SOL     OW30304   1.809   2.436   9.561  0.0442  0.7483 -0.8634
 6224SOL    HW130305   1.758   2.359   9.587 -1.4623  1.9151 -0.3421
 6224SOL    HW230306   1.895   2.422   9.600 -1.0168 -1.0191  0.9002
 6225SOL     OW30307   2.683   0.111   9.366  0.2948 -0.1945  0.0994
 6225SOL    HW130308   2.702   0.028   9.323  1.8662  0.2131 -0.0019
 6225SOL    HW230309   2.631   0.072   9.436  0.3138  0.1817  0.3244
 6226SOL     OW30310   0.720   0.878   1.261  0.1873  0.5403  0.3045
 6226SOL    HW130311   0.785   0.809   1.271  1.1934  1.4327 -0.0978
 6226SOL    HW230312   0.777   0.941   1.216 -1.9112  0.0964 -2.9689
 6227SOL     OW30313   2.290   0.487   8.404  0.1183 -0.4348  0.1777
 6227SOL    HW130314   2.382   0.507   8.423 -0.1920  1.2673 -0.1343
 6227SOL    HW230315   2.303   0.405   8.355  0.0022 -0.8132  0.7782
 6228SOL     OW30316   3.694   2.594   8.359 -0.0564 -0.1912 -0.5946
 6228SOL    HW130317   3.664   2.585   8.449  0.2669 -0.2829 -0.4964
 6228SOL    HW230318   3.637   2.666   8.332  0.8752  0.0294 -1.9704
 6229SOL     OW30319   4.477   3.355   5.244 -0.0920 -0.0264  0.0230
 6229SOL    HW130320   4.442   3.433   5.201  2.9058  1.2150 -0.2136
 6229SOL    HW230321   4.543   3.337   5.177 -0.9189  2.2845 -1.4040
 6230SOL     OW30322   1.033   2.091   5.840 -0.2338  0.1555  0.1972
 6230SOL    HW130323   1.053   2.171   5.791 -0.1443 -0.1377 -0.2513
 6230SOL    HW230324   1.079   2.022   5.791 -1.5896  1.3277 -2.7231
 6231SOL     OW30325   1.103   3.685  10.691  0.1835 -0.1964 -0.3993
 6231SOL    HW130326   1.126   3.676  10.598 -1.7606 -2.4817 -0.6600
 6231SOL    HW230327   1.015   3.650  10.702  0.4151 -0.8181 -0.4686
 6232SOL     OW30328   3.609   3.557   3.244  0.6380  0.1195  0.2101
 6232SOL    HW130329   3.548   3.516   3.305 -1.0252 -0.2986 -1.7075
 6232SOL    HW230330   3.622   3.641   3.288 -1.9995 -0.4622  2.0991
 6233SOL     OW30331   2.474   3.900  14.762 -0.9633  0.7789  0.0424
 6233SOL    HW130332   2.486   3.842  14.687  1.3900  1.4516 -0.0942
 6233SOL    HW230333   2.527   3.976  14.738  4.0421 -2.1578  1.9363
 6234SOL     OW30334   1.073   1.874   6.765  0.3752  0.1146 -0.2422
 6234SOL    HW130335   0.986   1.882   6.804 -0.0715  1.6324 -1.5566
 6234SOL    HW230336   1.124   1.930   6.823  2.2460 -0.6965 -1.1111
 6235SOL     OW30337   2.200   4.160   9.186 -0.1497 -0.3468  0.9000
 6235SOL    HW130338   2.110   4.193   9.185  0.0339  0.1211 -1.0784
 6235SOL    HW230339   2.233   4.244   9.154 -2.1578  0.0701 -0.1191
 6236SOL     OW30340   3.333   0.410   7.028  0.4095  0.3103 -0.3796
 6236SOL    HW130341   3.360   0.348   7.096  0.6792 -0.7188 -1.4193
 6236SOL    HW230342   3.391   0.482   7.053 -0.9266  1.1498  0.2500
 6237SOL     OW30343   3.837   1.348   5.691 -0.0287 -0.1073  0.2304
 6237SOL    HW130344   3.813   1.262   5.726  0.1582 -0.3416 -0.2187
 6237SOL    HW230345   3.862   1.390   5.774 -1.4227 -0.5580  0.8742
 6238SOL     OW30346   0.302   3.802   9.541  0.1957 -0.2774 -0.6065
 6238SOL    HW130347   0.356   3.851   9.603  1.0576 -1.0254 -0.7632
 6238SOL    HW230348   0.314   3.850   9.460  0.5240  0.3215 -0.2045
 6239SOL     OW30349   1.808   2.220   8.182 -0.7798  0.6625 -0.3391
 6239SOL    HW130350   1.761   2.143   8.217 -0.0852  0.4352  0.0828
 6239SOL    HW230351   1.863   2.240   8.258  0.4683  0.5549 -1.2238
 6240SOL     OW30352   1.433   0.189   9.219 -0.1884 -0.4805 -0.0029
 6240SOL    HW130353   1.519   0.184   9.260 -0.5469 -1.3736  0.6428
 6240SOL    HW230354   1.460   0.160   9.131  1.4604 -0.4120  0.4817
 6241SOL     OW30355   3.850   3.758   3.909  0.4685 -0.8388  0.2664
 6241SOL    HW130356   3.884   3.847   3.920 -0.1035 -0.3696 -1.7911
 6241SOL    HW230357   3.900   3.712   3.976  0.7155 -3.8918 -2.0652
 6242SOL     OW30358   0.237   3.675   1.134  0.5305  0.1758 -0.0453
 6242SOL    HW130359   0.194   3.608   1.081  0.2903  0.8671 -0.7164
 6242SOL    HW230360   0.189   3.747   1.094 -0.9367 -0.3710  0.7351
 6243SOL     OW30361   2.538   0.828  13.653  0.1287  0.4257  0.2726
 6243SOL    HW130362   2.595   0.816  13.578 -0.4466  2.8940 -0.5658
 6243SOL    HW230363   2.585   0.804  13.733  0.9276  0.1483 -0.2876
 6244SOL     OW30364   2.623   0.269   7.634  0.2421  0.8342  0.6810
 6244SOL    HW130365   2.549   0.211   7.614  1.0708  0.3883 -1.0157
 6244SOL    HW230366   2.583   0.354   7.613 -2.8543 -0.9647 -0.7419
 6245SOL     OW30367   0.744   0.763   6.632 -0.4733 -0.0627  0.2566
 6245SOL    HW130368   0.669   0.796   6.582 -0.5223  0.0630  0.4132
 6245SOL    HW230369   0.710   0.759   6.721 -0.9107 -1.6365  0.0266
 6246SOL     OW30370   4.621   4.291   5.302  0.0536  0.2312 -0.4419
 6246SOL    HW130371   4.656   4.205   5.277  2.1428  0.8783  0.2468
 6246SOL    HW230372   4.577   4.313   5.220  0.7139  0.2053 -0.8050
 6247SOL     OW30373   0.773   3.141  13.444  0.4468 -0.1462  0.2305
 6247SOL    HW130374   0.736   3.080  13.380 -1.8999  0.7964  0.6861
 6247SOL    HW230375   0.864   3.130  13.416  0.5149 -0.9570  0.7513
 6248SOL     OW30376   1.908   3.692   0.097 -0.0424  0.2385 -0.0715
 6248SOL    HW130377   1.937   3.724   0.182  0.0592  0.3081 -0.1333
 6248SOL    HW230378   1.852   3.618   0.123  2.1258 -1.8397 -1.3230
 6249SOL     OW30379   0.700   1.085   9.660  0.1554 -0.5174 -0.5216
 6249SOL    HW130380   0.788   1.121   9.648  0.0722  0.3368  1.4238
 6249SOL    HW230381   0.697   1.039   9.576 -1.7449  1.2708 -1.4153
 6250SOL     OW30382   4.145   1.688   6.250 -0.1027 -0.2327 -0.1355
 6250SOL    HW130383   4.178   1.626   6.186  0.6440  0.7627 -0.7053
 6250SOL    HW230384   4.194   1.760   6.213  0.4759 -0.3552  0.3862
 6251SOL     OW30385   1.618   2.461   3.366 -0.1126  0.0020  0.0961
 6251SOL    HW130386   1.698   2.445   3.317 -0.2386  0.8584 -0.3830
 6251SOL    HW230387   1.625   2.556   3.376  4.0365 -0.4325  1.1466
 6252SOL     OW30388   2.120   0.021   2.393 -0.3807  0.4239 -0.4546
 6252SOL    HW130389   2.187   4.708   2.345 -1.0454 -2.5673  1.6894
 6252SOL    HW230390   2.164   0.032   2.478 -2.0214  0.5052  0.3753
 6253SOL     OW30391   1.625   0.548  15.446 -0.0097  0.1168 -0.1601
 6253SOL    HW130392   1.563   0.505  15.387  0.5605 -1.2204  0.2064
 6253SOL    HW230393   1.615   0.503  15.530 -0.6310  0.9603  0.2119
 6254SOL     OW30394   0.454   1.099  16.876 -0.3656  0.3261 -0.2836
 6254SOL    HW130395   0.470   1.107  16.970  0.2259 -2.2196 -0.1573
 6254SOL    HW230396   0.521   1.032  16.860 -0.1635  0.9956 -2.3395
 6255SOL     OW30397   2.278   3.055  10.414  0.2007 -0.3403  0.3825
 6255SOL    HW130398   2.326   3.138  10.414 -1.6476  0.7403  1.5729
 6255SOL    HW230399   2.303   3.029  10.503  3.3815 -3.7534 -1.5228
 6256SOL     OW30400   4.331   3.483   6.210  0.0925  0.2905 -0.7801
 6256SOL    HW130401   4.422   3.472   6.235 -0.1475  1.4196  0.5833
 6256SOL    HW230402   4.295   3.465   6.297 -0.0443  0.4039 -0.8122
 6257SOL     OW30403   4.050   2.760  13.312 -0.4289 -0.0893  0.0908
 6257SOL    HW130404   4.089   2.700  13.376  2.5255  0.3113 -1.3588
 6257SOL    HW230405   3.994   2.816  13.365 -2.5174 -1.5315 -0.5829
 6258SOL     OW30406   3.988   3.688   6.025  0.2779 -0.2015 -0.2560
 6258SOL    HW130407   3.903   3.648   6.005 -1.0596  2.1632  0.6027
 6258SOL    HW230408   4.029   3.707   5.941  1.7668  0.1258  0.5456
 6259SOL     OW30409   0.250   3.555   9.650 -0.1393 -0.2824  0.4328
 6259SOL    HW130410   0.274   3.622   9.586  1.9840  1.7212  3.3203
 6259SOL    HW230411   0.288   3.599   9.727  0.6078 -0.0663 -0.0610
 6260SOL     OW30412   3.606   4.610   3.005  0.4426 -0.6132  0.0438
 6260SOL    HW130413   3.564   4.573   2.927 -0.6284  1.1257 -0.2085
 6260SOL    HW230414   3.690   4.625   2.962  0.5802 -0.9269  0.2091
 6261SOL     OW30415   2.727   2.071  14.371  0.0492  0.3358 -0.1786
 6261SOL    HW130416   2.649   2.017  14.383  0.5845 -0.4914 -0.4640
 6261SOL    HW230417   2.802   2.012  14.373 -0.3763 -0.1903  0.2813
 6262SOL     OW30418   0.153   4.223   3.205 -0.2993  0.2805 -0.0404
 6262SOL    HW130419   0.203   4.141   3.206 -1.5322 -0.4655 -2.1670
 6262SOL    HW230420   0.074   4.187   3.167 -0.8569 -0.6171  1.9505
 6263SOL     OW30421   1.706   2.544   3.858 -0.1771  0.1053 -0.1361
 6263SOL    HW130422   1.655   2.496   3.793 -0.3416  2.0407 -1.4277
 6263SOL    HW230423   1.636   2.602   3.888  0.2174  0.1243  0.7464
 6264SOL     OW30424   3.364   4.468   6.184 -0.2700  0.7340 -0.0356
 6264SOL    HW130425   3.331   4.378   6.182 -0.4955  0.8486 -1.5893
 6264SOL    HW230426   3.310   4.499   6.257 -1.5237 -1.5164 -0.0152
 6265SOL     OW30427   2.272   0.050   2.628  0.3543  0.6754 -0.2564
 6265SOL    HW130428   2.255   0.092   2.713  0.2444  3.1136 -1.4764
 6265SOL    HW230429   2.360   0.015   2.645  0.7345  1.5542 -0.3600
 6266SOL     OW30430   0.775   4.623   8.067  0.1961  0.1534 -0.2279
 6266SOL    HW130431   0.755   4.645   8.158 -1.1145 -1.7668 -0.0512
 6266SOL    HW230432   0.829   4.695   8.035 -2.2357  1.6724 -0.9468
 6267SOL     OW30433   2.292   1.934   7.274 -0.6340  0.2707  0.0935
 6267SOL    HW130434   2.283   2.019   7.318  0.5438  0.4413  0.0100
 6267SOL    HW230435   2.304   1.874   7.348  1.3679  0.5130 -0.0500
 6268SOL     OW30436   2.293   2.428  17.590 -0.1270  0.0026  0.0448
 6268SOL    HW130437   2.203   2.417  17.618  0.3313 -0.2868  1.3862
 6268SOL    HW230438   2.290   2.514  17.548  1.3445 -0.1201 -0.3132
 6269SOL     OW30439   1.511   0.722   8.534  0.3243  0.6616 -0.0759
 6269SOL    HW130440   1.454   0.799   8.542 -0.6192  0.0902 -1.3692
 6269SOL    HW230441   1.485   0.693   8.447  1.8974 -1.2849  0.1084
 6270SOL     OW30442   1.104   2.503  17.352 -0.3312 -0.1244  0.1072
 6270SOL    HW130443   1.130   2.411  17.346 -1.8400 -0.5818  0.6083
 6270SOL    HW230444   1.166   2.529  17.420 -0.4583  2.3165 -0.7473
 6271SOL     OW30445   3.966   4.124   5.206  0.4437 -0.0375 -0.2121
 6271SOL    HW130446   3.945   4.059   5.273 -1.9988 -0.6931 -1.6281
 6271SOL    HW230447   3.959   4.077   5.123 -0.4205 -1.8204  0.8815
 6272SOL     OW30448   2.494   0.079  12.214  0.0991 -0.2042  0.2716
 6272SOL    HW130449   2.486   0.045  12.125  2.5139  1.4731 -0.5939
 6272SOL    HW230450   2.580   0.043  12.233 -0.5305 -0.4894  2.6227
 6273SOL     OW30451   0.189   4.328   8.800 -0.3452  0.4699  0.5758
 6273SOL    HW130452   0.125   4.399   8.803  2.4278  2.9513  1.2673
 6273SOL    HW230453   0.191   4.310   8.894  2.5896  0.2876  0.4610
 6274SOL     OW30454   3.692   1.614   2.123  0.4959  0.2884 -0.2652
 6274SOL    HW130455   3.683   1.643   2.033  1.4687  1.0453 -0.1282
 6274SOL    HW230456   3.602   1.605   2.153  1.2397 -4.0111  0.8042
 6275SOL     OW30457   3.046   2.314   3.698 -0.0921  0.4665 -0.2110
 6275SOL    HW130458   3.001   2.371   3.635 -0.1546  1.3589  0.6398
 6275SOL    HW230459   3.068   2.372   3.771 -0.1309  2.1293 -1.5254
 6276SOL     OW30460   4.629   1.094   1.556  0.0286 -0.1245 -0.2484
 6276SOL    HW130461   4.713   1.048   1.551 -0.2241 -0.3090 -2.8343
 6276SOL    HW230462   4.593   1.082   1.643 -1.1193  2.0079 -0.4394
 6277SOL     OW30463   3.350   2.566   4.322 -0.0888  0.1446  0.5749
 6277SOL    HW130464   3.274   2.511   4.305 -0.4752  1.1229 -0.9356
 6277SOL    HW230465   3.401   2.491   4.353 -0.7273  0.0702  1.4255
 6278SOL     OW30466   2.968   1.061  12.053 -0.6331  0.1829 -0.0131
 6278SOL    HW130467   2.921   1.051  12.135 -1.7362 -0.2964 -0.7109
 6278SOL    HW230468   3.055   1.039  12.088  0.6664  3.0553 -1.4423
 6279SOL     OW30469   3.974   1.836  12.879  0.2758  0.5962 -0.3296
 6279SOL    HW130470   4.063   1.830  12.914  0.6160  0.4117 -1.2299
 6279SOL    HW230471   3.948   1.745  12.866  0.4717  0.4323  0.4329
 6280SOL     OW30472   4.722   2.977   4.074 -0.0260  0.4498 -0.0852
 6280SOL    HW130473   0.034   2.920   4.015 -1.9448 -2.0540  0.7426
 6280SOL    HW230474   4.655   3.011   4.015 -1.1162 -0.8586  0.4115
 6281SOL     OW30475   3.291   1.719  15.548 -0.1354 -0.2577 -0.1261
 6281SOL    HW130476   3.361   1.654  15.548 -1.6244 -1.8560 -0.6780
 6281SOL    HW230477   3.249   1.690  15.467  0.7525 -0.6809 -0.4284
 6282SOL     OW30478   1.584   1.281   7.591 -0.2433 -0.1985  0.6854
 6282SOL    HW130479   1.634   1.208   7.627 -0.2897 -1.9210 -2.7526
 6282SOL    HW230480   1.554   1.326   7.670  1.1995  1.7108  0.1360
 6283SOL     OW30481   3.367   1.663   7.436 -0.5337 -0.3110  0.7040
 6283SOL    HW130482   3.462   1.673   7.430 -0.8419  0.8846 -2.1052
 6283SOL    HW230483   3.340   1.750   7.466 -0.4281  0.6432 -1.9824
 6284SOL     OW30484   0.252   1.882   8.844 -0.4587 -0.8002  0.0002
 6284SOL    HW130485   0.174   1.830   8.825 -0.3790 -0.2773 -1.7644
 6284SOL    HW230486   0.253   1.956   8.784  3.2323  0.2331  1.3383
 6285SOL     OW30487   3.353   2.746   2.267 -0.6431  0.6774  0.3157
 6285SOL    HW130488   3.434   2.698   2.288 -0.4205  1.7656  1.9302
 6285SOL    HW230489   3.290   2.680   2.238 -0.5115  0.4834  0.4703
 6286SOL     OW30490   0.720   0.753  16.946  0.0594  0.0562 -0.2283
 6286SOL    HW130491   0.680   0.798  17.020  2.1141 -0.2328  1.0571
 6286SOL    HW230492   0.712   0.817  16.875  1.6218  1.2166  0.6429
 6287SOL     OW30493   3.601   1.260   7.874  0.0368  0.0279 -0.6946
 6287SOL    HW130494   3.567   1.238   7.961  2.3483 -2.8238 -0.5186
 6287SOL    HW230495   3.684   1.298   7.902 -0.6702 -0.8148  2.5034
 6288SOL     OW30496   1.282   1.142   1.713  0.3566 -0.1959  0.0856
 6288SOL    HW130497   1.245   1.097   1.789  0.2837  2.1207  1.4389
 6288SOL    HW230498   1.349   1.082   1.681 -1.3499 -1.5548 -0.9475
 6289SOL     OW30499   3.111   1.401   4.459 -0.6173 -0.1348  0.6714
 6289SOL    HW130500   3.163   1.349   4.398  0.2587  1.3799  0.1005
 6289SOL    HW230501   3.154   1.384   4.542 -0.1697 -0.2630  0.4119
 6290SOL     OW30502   0.247   4.545  11.877  0.0702 -0.0068  1.0792
 6290SOL    HW130503   0.211   4.591  11.953 -1.0011  2.2713 -0.7998
 6290SOL    HW230504   0.297   4.482  11.929 -0.8359 -2.0696 -0.5138
 6291SOL     OW30505   1.573   2.511   6.551  0.4330  0.1858  0.1830
 6291SOL    HW130506   1.513   2.519   6.625 -0.0348  0.5688 -0.2341
 6291SOL    HW230507   1.627   2.586   6.576  0.2436  0.6489 -0.7900
 6292SOL     OW30508   1.046   3.632   1.961 -0.1018 -0.6768 -0.2213
 6292SOL    HW130509   1.132   3.671   1.976 -1.3276  1.7540  0.5543
 6292SOL    HW230510   1.029   3.590   2.045  0.8251  1.4775  1.0424
 6293SOL     OW30511   1.758   2.033  10.157  0.1778 -0.0354 -0.0552
 6293SOL    HW130512   1.848   2.046  10.187  0.6186  0.3255 -1.5448
 6293SOL    HW230513   1.742   1.959  10.216  0.9936  0.1581  0.4098
 6294SOL     OW30514   3.579   3.147   3.489 -0.4171 -0.1029 -0.4793
 6294SOL    HW130515   3.509   3.083   3.477  0.6851 -1.5960  1.0309
 6294SOL    HW230516   3.640   3.130   3.417 -0.0734 -0.6881 -0.0492
 6295SOL     OW30517   4.020   0.730  14.836 -0.0797 -0.0060  0.3329
 6295SOL    HW130518   4.015   0.792  14.909 -2.4843 -1.0298  1.0603
 6295SOL    HW230519   4.108   0.700  14.860 -0.4017  0.7742  2.5475
 6296SOL     OW30520   0.995   2.044   5.514  0.1274  0.7505 -0.1102
 6296SOL    HW130521   0.984   1.994   5.433  1.4225  0.3471 -0.0409
 6296SOL    HW230522   0.975   2.130   5.478 -0.3434 -0.2826 -2.2835
 6297SOL     OW30523   4.634   1.314   7.957 -0.2390  0.0369  0.0242
 6297SOL    HW130524   4.696   1.241   7.953 -0.2573 -0.0361  1.1365
 6297SOL    HW230525   4.690   1.374   8.007  0.1728 -2.6149  2.7230
 6298SOL     OW30526   3.336   1.658   9.011 -0.0282 -0.0859 -0.3976
 6298SOL    HW130527   3.241   1.643   9.010  0.1685 -1.2912 -0.5339
 6298SOL    HW230528   3.362   1.692   8.926  0.7197  1.2073  0.3538
 6299SOL     OW30529   2.344   1.287   1.104  0.2702 -0.0967 -0.5877
 6299SOL    HW130530   2.309   1.297   1.192 -1.0782  1.9339 -1.3557
 6299SOL    HW230531   2.408   1.218   1.121  1.4123  0.9084 -0.8257
 6300SOL     OW30532   2.772   1.756  14.351 -0.5293  0.1277 -0.0040
 6300SOL    HW130533   2.832   1.681  14.358  0.1703  0.6966  0.0392
 6300SOL    HW230534   2.701   1.717  14.299 -0.4226  0.0132 -0.0659
 6301SOL     OW30535   2.714   0.452   3.825  0.3224  0.4115 -0.5686
 6301SOL    HW130536   2.678   0.363   3.831 -0.3398  0.7316  0.2196
 6301SOL    HW230537   2.707   0.466   3.731 -0.5326  1.9177 -0.2704
 6302SOL     OW30538   4.513   4.504  16.647  0.2915 -0.0168  0.1346
 6302SOL    HW130539   4.469   4.502  16.733  0.5418  0.3602  0.2743
 6302SOL    HW230540   4.489   4.428  16.595  3.2380 -1.2276  0.5649
 6303SOL     OW30541   3.452   4.259   4.096  0.5302 -0.2234 -0.4736
 6303SOL    HW130542   3.498   4.208   4.029 -2.5255 -1.9495 -1.2364
 6303SOL    HW230543   3.425   4.188   4.154  1.3736  0.9168  1.3072
 6304SOL     OW30544   3.865   3.150   8.395  0.3609 -0.9932  0.0625
 6304SOL    HW130545   3.869   3.209   8.471  1.7376 -1.5910  0.4524
 6304SOL    HW230546   3.801   3.201   8.345 -1.3490 -1.9816  1.2294
 6305SOL     OW30547   0.744   0.393   4.559 -0.0388  0.8062 -0.0802
 6305SOL    HW130548   0.691   0.377   4.637  2.2900 -1.0398  1.0811
 6305SOL    HW230549   0.831   0.376   4.594 -1.2813 -0.2416  2.4626
 6306SOL     OW30550   0.041   1.944   2.362 -0.1522 -0.5431  0.1412
 6306SOL    HW130551   0.008   2.025   2.401 -3.8557 -1.4526 -1.1234
 6306SOL    HW230552   0.096   1.907   2.432 -0.4280 -0.3160  0.4793
 6307SOL     OW30553   3.086   4.351  14.271  0.0390  0.5396  0.0812
 6307SOL    HW130554   3.076   4.408  14.196 -0.5447  0.4317  0.0817
 6307SOL    HW230555   3.170   4.305  14.261 -0.1978  0.0868  0.1885
 6308SOL     OW30556   4.413   4.652  11.486 -0.3942 -0.1311  0.6136
 6308SOL    HW130557   4.454   4.654  11.400 -0.8469 -1.3501  0.3658
 6308SOL    HW230558   4.319   4.658  11.468 -0.2482 -1.2929 -0.5327
 6309SOL     OW30559   1.675   2.341   7.722 -0.1128  0.1321 -0.7399
 6309SOL    HW130560   1.589   2.366   7.757  0.5553  0.8938  0.3240
 6309SOL    HW230561   1.729   2.413   7.755 -0.3227  0.8798 -2.0318
 6310SOL     OW30562   1.427   1.914  11.576 -0.1747  0.4758 -0.2908
 6310SOL    HW130563   1.479   1.913  11.495  2.9156  1.1192  1.6984
 6310SOL    HW230564   1.485   1.957  11.640 -1.5230  0.4511  0.9310
 6311SOL     OW30565   2.622   4.257   8.701 -0.2484 -0.1163  0.1372
 6311SOL    HW130566   2.632   4.172   8.745  0.7497  0.1977  0.5335
 6311SOL    HW230567   2.666   4.317   8.761  2.2076 -1.5610 -0.1901
 6312SOL     OW30568   2.714   2.096   4.995  0.2934  0.2479  0.3176
 6312SOL    HW130569   2.787   2.036   5.009 -0.9248 -1.5930 -1.1634
 6312SOL    HW230570   2.642   2.036   4.977  2.2004 -2.0397  0.4068
 6313SOL     OW30571   2.630   3.953   3.092  0.2562 -0.5426 -0.3021
 6313SOL    HW130572   2.535   3.968   3.092  0.1719 -1.0873 -0.3947
 6313SOL    HW230573   2.659   4.035   3.131 -2.5755  0.2367  0.1957
 6314SOL     OW30574   1.681   1.728   2.583 -0.2583 -0.1163  1.0839
 6314SOL    HW130575   1.761   1.728   2.635 -0.2422 -0.1356  1.0591
 6314SOL    HW230576   1.641   1.795   2.639  2.2166  2.0407  0.2831
 6315SOL     OW30577   1.229   2.079  11.562  0.1855 -0.1484 -0.2693
 6315SOL    HW130578   1.297   2.011  11.553 -1.4194 -1.6705 -0.9386
 6315SOL    HW230579   1.212   2.109  11.473 -0.6616  1.2123  0.3469
 6316SOL     OW30580   0.767   1.598   7.046  0.4848  0.3873 -0.2275
 6316SOL    HW130581   0.832   1.573   7.113 -1.6882 -1.7146  1.1031
 6316SOL    HW230582   0.798   1.686   7.024 -1.0484  1.1816  0.8325
 6317SOL     OW30583   0.189   0.412   8.712 -0.0743 -0.1687  0.0978
 6317SOL    HW130584   0.171   0.493   8.665  2.8732 -0.2549 -1.1976
 6317SOL    HW230585   0.241   0.439   8.787  0.3891  0.4943 -0.4561
 6318SOL     OW30586   3.802   3.597   6.370  0.1193  0.7179  0.3327
 6318SOL    HW130587   3.717   3.634   6.346 -0.1297  0.6190  1.0802
 6318SOL    HW230588   3.808   3.602   6.465 -1.3852  0.3925  0.4483
 6319SOL     OW30589   0.714   1.823   9.031  0.4431  0.4759  0.3225
 6319SOL    HW130590   0.664   1.901   9.056 -1.7725 -0.6054 -0.7393
 6319SOL    HW230591   0.774   1.861   8.966  0.4127 -0.0598 -0.0248
 6320SOL     OW30592   0.039   3.178  13.698 -0.3127 -0.5555  0.1274
 6320SOL    HW130593   0.127   3.217  13.704 -0.7452  0.4535 -0.1072
 6320SOL    HW230594   4.711   3.247  13.685  0.5769  0.2469 -0.0621
 6321SOL     OW30595   0.992   4.012  15.149 -0.3280 -0.4183  0.4068
 6321SOL    HW130596   0.938   4.016  15.070  2.5666  2.0449 -1.4904
 6321SOL    HW230597   0.942   4.068  15.208  0.3846  0.1720  0.4582
 6322SOL     OW30598   3.153   4.506  13.518  0.2317  0.2493 -0.7113
 6322SOL    HW130599   3.068   4.538  13.488 -0.7395 -1.6820 -0.0321
 6322SOL    HW230600   3.210   4.562  13.464 -0.7991 -0.6133 -2.6789
 6323SOL     OW30601   1.721   3.288   6.907  0.1387  0.1912  0.1713
 6323SOL    HW130602   1.740   3.213   6.850 -1.4035 -0.8175  1.0069
 6323SOL    HW230603   1.729   3.248   6.993  1.6657 -0.9569 -0.4984
 6324SOL     OW30604   2.597   0.314   4.260 -0.2198 -0.2108 -0.6010
 6324SOL    HW130605   2.555   0.372   4.197  0.2297 -0.2856 -0.9606
 6324SOL    HW230606   2.547   0.232   4.257 -0.4827 -0.1326  1.5317
 6325SOL     OW30607   2.477   3.141   5.307 -0.1322  0.0120 -0.0138
 6325SOL    HW130608   2.407   3.078   5.292 -1.9862  2.7984 -2.9148
 6325SOL    HW230609   2.527   3.127   5.226 -0.2045  1.0584 -0.2366
 6326SOL     OW30610   4.542   0.986  16.505  0.1478 -0.3096  0.0582
 6326SOL    HW130611   4.551   0.952  16.594 -0.8782  1.2323  0.7563
 6326SOL    HW230612   4.585   1.072  16.507 -0.3774 -0.0378 -0.1690
 6327SOL     OW30613   1.095   2.724  11.430  0.0130  0.1897  0.3537
 6327SOL    HW130614   1.180   2.689  11.459  1.0129  1.0933 -1.4787
 6327SOL    HW230615   1.120   2.816  11.440 -0.5197  0.2835  0.8359
 6328SOL     OW30616   0.482   3.629   1.808  0.6988 -0.0465 -0.1268
 6328SOL    HW130617   0.412   3.567   1.826 -0.0934  0.5598 -1.1124
 6328SOL    HW230618   0.546   3.592   1.869  1.8508  0.5552 -0.9579
 6329SOL     OW30619   1.285   3.362  11.650  0.2171  0.4458  0.3263
 6329SOL    HW130620   1.311   3.354  11.742 -1.9971 -2.8700  0.6969
 6329SOL    HW230621   1.235   3.443  11.645  1.0350  0.7788 -2.5791
 6330SOL     OW30622   3.013   1.624  17.610  0.0560  1.0058 -0.3707
 6330SOL    HW130623   2.971   1.641  17.694  0.1061 -0.8192  0.0183
 6330SOL    HW230624   2.935   1.635  17.557  0.1156 -0.1322 -0.6908
 6331SOL     OW30625   3.720   3.441   2.567  0.6898 -0.4361 -0.0312
 6331SOL    HW130626   3.729   3.367   2.507  0.2242 -1.3967  1.0760
 6331SOL    HW230627   3.670   3.504   2.516  0.8447 -0.2714  0.0222
 6332SOL     OW30628   1.048   1.537   1.998  0.4815  0.6674 -0.5151
 6332SOL    HW130629   0.952   1.540   2.000  0.4059 -2.0031  0.1679
 6332SOL    HW230630   1.065   1.443   1.991  0.3189  0.4320  2.0656
 6333SOL     OW30631   3.836   1.770   6.477  0.1979 -0.2863 -0.3463
 6333SOL    HW130632   3.894   1.713   6.428  1.2030  0.6809 -0.2897
 6333SOL    HW230633   3.766   1.783   6.413 -2.0233 -2.5389  1.6878
 6334SOL     OW30634   0.452   0.512  10.551 -0.1618 -0.1273  0.2204
 6334SOL    HW130635   0.406   0.492  10.632 -0.6732  2.1516  0.4829
 6334SOL    HW230636   0.540   0.511  10.588 -0.5138  0.0041  1.0487
 6335SOL     OW30637   3.141   4.302   8.862  0.1679  0.2424 -0.0043
 6335SOL    HW130638   3.200   4.305   8.786  0.6888  1.6539  0.4456
 6335SOL    HW230639   3.188   4.340   8.936 -1.8250  0.7556  1.0080
 6336SOL     OW30640   0.185   4.697   2.707 -0.1662  0.5892 -0.7707
 6336SOL    HW130641   0.151   4.719   2.793 -0.3652  3.0712 -1.4823
 6336SOL    HW230642   0.139   0.022   2.649  1.5908  3.3403  0.7639
 6337SOL     OW30643   2.950   1.927  10.620  0.7116 -0.4829 -0.1661
 6337SOL    HW130644   2.996   1.966  10.545  0.6468 -1.5964 -0.7749
 6337SOL    HW230645   2.897   1.999  10.654 -0.5947 -0.7134 -1.7704
 6338SOL     OW30646   4.270   0.249   1.340 -0.1638 -0.1906  0.2542
 6338SOL    HW130647   4.229   0.259   1.254  1.0613 -3.0232 -0.6447
 6338SOL    HW230648   4.362   0.265   1.320  0.0887  0.1946  1.6806
 6339SOL     OW30649   1.826   0.599   5.859  0.3799  0.3052  0.3617
 6339SOL    HW130650   1.868   0.658   5.922 -0.7090  0.4824  0.9151
 6339SOL    HW230651   1.866   0.517   5.886  0.7688  0.6125  0.7201
 6340SOL     OW30652   4.052   1.771   0.130 -0.3625 -0.0368  0.3936
 6340SOL    HW130653   4.056   1.733   0.218  2.4675 -0.6142  0.0229
 6340SOL    HW230654   4.060   1.862   0.157 -0.7169  0.4974 -1.3204
 6341SOL     OW30655   0.336   0.722  16.330 -0.6920  0.0810  0.4946
 6341SOL    HW130656   0.304   0.632  16.337 -0.7028 -0.0976 -1.8841
 6341SOL    HW230657   0.345   0.731  16.235 -1.9907  0.3614  0.3892
 6342SOL     OW30658   1.677   2.426   4.204 -0.8555  0.1906  0.3283
 6342SOL    HW130659   1.729   2.443   4.283  0.5038 -0.6387 -0.4002
 6342SOL    HW230660   1.685   2.504   4.149 -1.0362 -0.6904 -0.9413
 6343SOL     OW30661   3.391   4.471   7.709 -0.4670  0.2463 -0.2196
 6343SOL    HW130662   3.367   4.484   7.800  0.1029  0.4777 -0.1047
 6343SOL    HW230663   3.461   4.406   7.710  0.4209  1.1648 -2.4115
 6344SOL     OW30664   4.550   0.381   6.362  0.0306  0.3806  0.0019
 6344SOL    HW130665   4.643   0.397   6.373  0.3826 -0.3767 -1.8167
 6344SOL    HW230666   4.514   0.383   6.451 -0.5328 -0.2147 -0.2123
 6345SOL     OW30667   0.007   4.518   5.670  0.4194  0.2387  0.6554
 6345SOL    HW130668   4.653   4.496   5.648  0.8950 -1.5229  0.4516
 6345SOL    HW230669   0.041   4.432   5.694 -0.5497  0.0160  1.2608
 6346SOL     OW30670   3.525   1.409   3.501 -0.3465 -0.1272 -0.2084
 6346SOL    HW130671   3.565   1.323   3.514  0.8957  0.3210 -1.0624
 6346SOL    HW230672   3.456   1.391   3.438 -0.7825  0.4199  0.1151
 6347SOL     OW30673   0.665   0.998   8.530 -0.0798 -0.3105  0.1111
 6347SOL    HW130674   0.688   1.058   8.600 -0.0516 -1.2895  0.9337
 6347SOL    HW230675   0.646   0.915   8.573  0.6291 -0.0349  0.9480
 6348SOL     OW30676   4.733   4.401   3.976 -0.1968  0.0495 -0.6446
 6348SOL    HW130677   4.669   4.385   3.907  1.4254 -2.9908 -1.4728
 6348SOL    HW230678   4.702   4.331   4.034 -0.0220  0.6571  0.1758
 6349SOL     OW30679   0.064   2.458   7.996  0.3234  0.0267  0.8261
 6349SOL    HW130680   0.077   2.375   8.042 -2.3126 -0.6659  0.3004
 6349SOL    HW230681   0.151   2.463   7.957 -0.7542  0.4898 -1.5308
 6350SOL     OW30682   1.741   1.119  10.290 -0.1159  0.4547 -0.3592
 6350SOL    HW130683   1.721   1.180  10.360  0.2494  0.0144  0.1251
 6350SOL    HW230684   1.808   1.172  10.245  0.0781  1.2061  0.8207
 6351SOL     OW30685   3.422   1.179   7.074  0.2708 -0.2095  1.0490
 6351SOL    HW130686   3.487   1.245   7.051 -1.7179  1.2224 -0.4138
 6351SOL    HW230687   3.343   1.232   7.081 -0.2807 -0.9160  0.1570
 6352SOL     OW30688   1.336   1.559   6.595 -0.2870  0.2450  0.2366
 6352SOL    HW130689   1.363   1.467   6.590  0.8857  0.4800  2.2374
 6352SOL    HW230690   1.241   1.559   6.588 -0.2723  1.1824  0.0509
 6353SOL     OW30691   1.600   0.803   2.392  0.5225  0.1335  0.0399
 6353SOL    HW130692   1.567   0.804   2.302  1.2478 -0.9698 -0.2341
 6353SOL    HW230693   1.635   0.715   2.401 -1.6312 -0.6003  1.1695
 6354SOL     OW30694   2.661   3.581  13.420  0.3450  0.4701  0.2573
 6354SOL    HW130695   2.647   3.553  13.510 -0.0039 -0.5864 -0.1217
 6354SOL    HW230696   2.664   3.675  13.437 -0.3085  0.7480 -1.1517
 6355SOL     OW30697   1.220   3.449  12.138 -0.2921 -0.3609  0.0343
 6355SOL    HW130698   1.157   3.505  12.092 -0.0179 -1.1211 -1.2778
 6355SOL    HW230699   1.158   3.395  12.187 -0.9747  0.5967  0.2220
 6356SOL     OW30700   2.297   3.749   1.715  0.5566  0.3526 -0.7605
 6356SOL    HW130701   2.230   3.776   1.778  0.1637  0.5184 -1.2460
 6356SOL    HW230702   2.243   3.704   1.650 -2.0365  0.7291  1.1375
 6357SOL     OW30703   2.903   2.366   5.339 -0.0143  0.1209 -0.4446
 6357SOL    HW130704   2.836   2.406   5.283 -2.4381  0.4034  2.6032
 6357SOL    HW230705   2.854   2.387   5.419 -1.9502  1.8441 -2.0683
 6358SOL     OW30706   0.110   0.453   6.118  0.0959 -0.2513 -0.2671
 6358SOL    HW130707   0.145   0.365   6.106  0.4843 -0.0830 -0.3583
 6358SOL    HW230708   0.164   0.475   6.194  0.0664  0.0574 -0.3345
 6359SOL     OW30709   1.265   3.986  12.196 -0.1126 -0.4357 -0.4295
 6359SOL    HW130710   1.332   4.047  12.163  0.1339  0.0678  0.9636
 6359SOL    HW230711   1.207   4.049  12.238  0.3901 -1.1526  1.3279
 6360SOL     OW30712   2.839   4.254   2.342 -0.5894  0.5860  0.5193
 6360SOL    HW130713   2.897   4.318   2.383  0.3899 -0.7054  1.1545
 6360SOL    HW230714   2.871   4.264   2.253 -1.8079  2.2183  0.2691
 6361SOL     OW30715   3.330   4.736  10.790 -0.5058  0.1675  0.4672
 6361SOL    HW130716   3.289   0.022  10.873 -1.7291 -1.3192  0.2780
 6361SOL    HW230717   3.404   4.682  10.819  0.9623  2.5691  1.1392
 6362SOL     OW30718   4.333   2.308  17.518  0.4093  0.0675 -0.4876
 6362SOL    HW130719   4.291   2.378  17.569 -0.9964  0.3554 -2.0443
 6362SOL    HW230720   4.299   2.229  17.560 -0.2429  0.5229 -0.1584
 6363SOL     OW30721   0.928   3.653   6.635 -0.3455  0.0280  0.2429
 6363SOL    HW130722   0.892   3.647   6.546  1.8823 -0.5959 -0.6206
 6363SOL    HW230723   0.965   3.741   6.637  0.1094 -0.1678  0.5211
 6364SOL     OW30724   2.514   4.211   1.069  0.2562  0.2909 -0.0840
 6364SOL    HW130725   2.564   4.255   1.138  0.2737 -0.1299  0.1744
 6364SOL    HW230726   2.432   4.260   1.073  0.7422  1.2553 -1.9326
 6365SOL     OW30727   0.449   2.891   4.213 -0.1738 -0.3491 -1.1744
 6365SOL    HW130728   0.390   2.827   4.172  0.0514 -1.0876 -0.3263
 6365SOL    HW230729   0.534   2.881   4.172  0.2204  0.1355 -0.4750
 6366SOL     OW30730   3.926   2.984   9.405  0.2588  0.4604 -0.0530
 6366SOL    HW130731   3.854   2.921   9.403  1.3673 -0.7115 -2.4376
 6366SOL    HW230732   3.927   3.014   9.315 -2.2455 -2.0823 -0.9106
 6367SOL     OW30733   1.328   3.757  11.592 -0.7927  0.5977  0.7479
 6367SOL    HW130734   1.337   3.684  11.531  1.8488  1.4065  0.1918
 6367SOL    HW230735   1.417   3.791  11.582 -0.2237 -0.7537  1.2456
 6368SOL     OW30736   0.035   2.754   2.986 -0.1631 -0.3189 -0.3473
 6368SOL    HW130737   4.701   2.782   3.045  1.0192  1.3020  0.2729
 6368SOL    HW230738   0.113   2.777   3.036  0.2924 -0.2300 -1.1176
 6369SOL     OW30739   1.827   0.136   5.285  0.3762 -0.3807 -0.0250
 6369SOL    HW130740   1.748   0.103   5.241  1.2657  0.0579 -1.9767
 6369SOL    HW230741   1.799   0.124   5.376 -1.6863  1.6437 -0.4047
 6370SOL     OW30742   4.017   2.943   3.946  0.1471  0.6631 -0.4587
 6370SOL    HW130743   3.982   2.971   3.861  1.2416 -0.7601 -1.3834
 6370SOL    HW230744   3.939   2.916   3.993 -0.6490 -0.7456 -2.5972
 6371SOL     OW30745   4.410   1.678   5.911  0.0399  0.3942 -0.6022
 6371SOL    HW130746   4.351   1.708   5.842 -1.7528  1.3796  1.3695
 6371SOL    HW230747   4.452   1.761   5.931 -0.7643  0.6289  0.1341
 6372SOL     OW30748   0.609   3.569  11.907  0.2354  0.1806  0.4232
 6372SOL    HW130749   0.538   3.511  11.880 -0.0282  0.8901 -0.4041
 6372SOL    HW230750   0.561   3.644  11.943 -0.0749  1.2764 -2.3334
 6373SOL     OW30751   4.599   1.141   4.169 -0.6316  0.0711  0.2996
 6373SOL    HW130752   4.508   1.167   4.158 -0.6811 -1.0507 -1.9249
 6373SOL    HW230753   4.616   1.153   4.263 -0.0540 -0.1173  0.2224
 6374SOL     OW30754   0.300   2.242   2.537 -0.6918  0.1317  0.1397
 6374SOL    HW130755   0.369   2.306   2.516 -1.0517  1.0273  1.7399
 6374SOL    HW230756   0.323   2.177   2.471  1.8198  0.7389  0.3942
 6375SOL     OW30757   1.052   3.269   6.916 -0.5156  0.5955 -0.2159
 6375SOL    HW130758   0.998   3.346   6.897 -0.3926  1.2956  2.2655
 6375SOL    HW230759   1.131   3.317   6.892 -0.5365  0.9129  0.3368
 6376SOL     OW30760   2.422   4.333   3.067  0.3715  0.0866 -0.0611
 6376SOL    HW130761   2.440   4.246   3.101 -2.3416 -0.2980  0.3744
 6376SOL    HW230762   2.476   4.333   2.987  2.2445  3.7309  1.2316
 6377SOL     OW30763   3.002   0.621   8.063  0.3278  0.3334 -0.3729
 6377SOL    HW130764   3.025   0.535   8.028 -0.3565  1.0661 -2.6231
 6377SOL    HW230765   3.040   0.621   8.151  1.6621 -2.4544 -0.9347
 6378SOL     OW30766   0.129   4.726   2.998 -0.1271 -0.3694 -0.1882
 6378SOL    HW130767   0.070   4.690   3.064  0.1656 -1.1017 -0.3284
 6378SOL    HW230768   0.191   4.653   2.992  0.4830  0.3456 -2.9224
 6379SOL     OW30769   2.837   3.968   1.947  0.8097 -0.0153 -0.1191
 6379SOL    HW130770   2.744   3.967   1.967  1.2113  0.6022  1.7748
 6379SOL    HW230771   2.861   4.061   1.952  1.2936 -0.1419 -0.0845
 6380SOL     OW30772   2.496   1.445   0.638  0.2906  0.5340 -0.1412
 6380SOL    HW130773   2.579   1.426   0.680  0.0511  0.5067  0.3267
 6380SOL    HW230774   2.449   1.490   0.709  1.3660 -1.0245  1.5418
 6381SOL     OW30775   0.775   4.257   3.877  0.0778  0.2762 -0.1928
 6381SOL    HW130776   0.751   4.222   3.791 -1.0017 -0.4796  0.4201
 6381SOL    HW230777   0.726   4.202   3.938  0.3110 -3.3090 -3.2386
 6382SOL     OW30778   4.413   2.780   8.965  0.0446  0.5109 -0.2737
 6382SOL    HW130779   4.497   2.811   8.999 -0.3998  0.8971  0.4970
 6382SOL    HW230780   4.364   2.805   9.044 -0.6412  1.2873 -0.9457
 6383SOL     OW30781   2.149   4.297   6.030 -0.1203  0.3457  0.1000
 6383SOL    HW130782   2.124   4.265   6.117  0.9029 -1.9119 -0.4536
 6383SOL    HW230783   2.234   4.257   6.011  0.5922  3.1038 -2.4313
 6384SOL     OW30784   3.323   1.549  16.708  0.0067 -0.2115  0.3764
 6384SOL    HW130785   3.319   1.644  16.716  1.6932 -0.0207 -1.1194
 6384SOL    HW230786   3.405   1.536  16.661  1.9280  0.4951  3.4988
 6385SOL     OW30787   0.524   2.840   0.735  0.5254  0.7436  0.3691
 6385SOL    HW130788   0.617   2.819   0.727  0.1884 -1.2237  1.4362
 6385SOL    HW230789   0.516   2.874   0.824 -1.9952  1.1765 -0.0146
 6386SOL     OW30790   3.850   2.838  13.122 -0.5281 -0.4318  0.2489
 6386SOL    HW130791   3.827   2.930  13.137 -0.9224 -0.7024  1.2560
 6386SOL    HW230792   3.932   2.836  13.171  0.3763  0.7548 -1.1985
 6387SOL     OW30793   2.680   3.485   6.210 -0.1037 -0.0189 -0.0466
 6387SOL    HW130794   2.753   3.517   6.262  0.8418  1.5832 -2.3300
 6387SOL    HW230795   2.609   3.525   6.261  0.8807 -0.5434  1.7115
 6388SOL     OW30796   2.838   4.027   6.746  0.6067  0.2278  0.2708
 6388SOL    HW130797   2.882   3.944   6.727  0.2961  0.5775 -2.0504
 6388SOL    HW230798   2.833   4.009   6.840 -1.1755 -0.2447  0.0711
 6389SOL     OW30799   3.482   1.982   3.384 -0.4376 -0.0533  0.1388
 6389SOL    HW130800   3.517   1.945   3.303 -0.4957 -1.1486  0.6243
 6389SOL    HW230801   3.518   2.071   3.372 -0.9913  0.0132 -1.0066
 6390SOL     OW30802   3.968   3.028   6.305 -0.0166 -0.5227 -0.1506
 6390SOL    HW130803   3.964   3.071   6.390  2.5262 -0.9949  0.2176
 6390SOL    HW230804   3.893   3.075   6.270  0.9714  0.1706 -1.3427
 6391SOL     OW30805   3.043   2.717   7.824 -0.2702  0.2385 -0.0320
 6391SOL    HW130806   2.971   2.758   7.777  0.4595  2.1646  0.5179
 6391SOL    HW230807   3.035   2.745   7.915  2.9148  0.8619  0.0750
 6392SOL     OW30808   4.014   0.950   5.341 -0.4731  0.4376  0.2161
 6392SOL    HW130809   4.076   0.880   5.318  0.5289  1.8064 -1.2124
 6392SOL    HW230810   3.936   0.933   5.288  0.4321  0.7782 -1.2239
 6393SOL     OW30811   4.622   4.203   4.119 -0.2356  0.1776  0.4621
 6393SOL    HW130812   4.531   4.185   4.142  1.1011 -2.9418  3.2529
 6393SOL    HW230813   4.648   4.123   4.074  2.9882  1.7293 -0.4785
 6394SOL     OW30814   1.023   1.529   4.247 -0.4464 -0.1943  0.6711
 6394SOL    HW130815   1.087   1.492   4.186 -0.1720  0.8210  0.3449
 6394SOL    HW230816   1.013   1.619   4.216  1.7052 -0.1591  0.1316
 6395SOL     OW30817   0.417   4.572  11.206 -0.4529 -0.3384 -1.0687
 6395SOL    HW130818   0.487   4.603  11.148 -0.0320  0.0706 -0.3401
 6395SOL    HW230819   0.476   4.560  11.281 -1.8881 -0.1528  0.0823
 6396SOL     OW30820   1.574   4.682   4.793 -0.3871  0.0370 -0.5784
 6396SOL    HW130821   1.554   4.730   4.713  0.3799  1.4159  0.0472
 6396SOL    HW230822   1.533   4.734   4.862 -0.4064 -1.3851  0.4882
 6397SOL     OW30823   3.598   1.227   4.062 -0.3352  0.1678  0.1759
 6397SOL    HW130824   3.671   1.171   4.035  1.0577  1.2652  1.7417
 6397SOL    HW230825   3.589   1.211   4.156 -2.0919  0.3628  0.0446
 6398SOL     OW30826   0.824   1.128  15.361 -0.0250  0.4587  0.1058
 6398SOL    HW130827   0.898   1.143  15.420  0.1167 -0.9260  0.2741
 6398SOL    HW230828   0.849   1.187  15.289 -0.7480  0.1003 -0.4374
 6399SOL     OW30829   3.771   4.179   4.161 -0.6489 -0.0662 -0.1823
 6399SOL    HW130830   3.813   4.131   4.089  0.9911  0.5858  0.3348
 6399SOL    HW230831   3.818   4.262   4.145 -0.0580 -0.4510 -0.4564
 6400SOL     OW30832   3.913   3.720   5.087 -0.0222  0.2707  0.1072
 6400SOL    HW130833   3.822   3.723   5.057  0.1742  2.5306 -0.2474
 6400SOL    HW230834   3.954   3.795   5.044  4.7564 -1.4434  1.7319
 6401SOL     OW30835   3.737   0.068   4.415 -0.6563 -0.1658 -0.2112
 6401SOL    HW130836   3.795   4.732   4.437  1.0125  1.2158 -0.0480
 6401SOL    HW230837   3.653   0.026   4.434 -0.3201 -0.0232  1.6034
 6402SOL     OW30838   3.421   2.106   6.644 -0.0252 -0.6909  0.3189
 6402SOL    HW130839   3.503   2.152   6.664  0.1460 -0.8531 -0.0130
 6402SOL    HW230840   3.419   2.029   6.700  3.2155 -1.3860 -0.5562
 6403SOL     OW30841   4.005   3.410   4.273  0.2725  0.3039 -0.5081
 6403SOL    HW130842   4.013   3.329   4.324 -0.3126  0.0997 -0.7506
 6403SOL    HW230843   3.912   3.402   4.253  0.3232 -1.1471 -0.1737
 6404SOL     OW30844   2.099   0.224   8.113 -0.3540 -0.0853  0.4718
 6404SOL    HW130845   2.182   0.240   8.068 -0.5409 -0.8463 -0.1374
 6404SOL    HW230846   2.082   0.143   8.065  0.6496 -0.3032  0.4755
 6405SOL     OW30847   0.109   3.073  12.860  0.5695 -0.1065  0.1408
 6405SOL    HW130848   0.119   3.154  12.810 -0.1073  1.2138  2.1807
 6405SOL    HW230849   0.058   3.017  12.801  1.1021  0.1451 -0.5582
 6406SOL     OW30850   3.360   3.847   4.112  0.0583 -0.6698  0.5702
 6406SOL    HW130851   3.277   3.805   4.088 -0.8610  2.2439 -1.3359
 6406SOL    HW230852   3.419   3.816   4.044 -0.2818  1.4337 -0.6787
 6407SOL     OW30853   2.436   0.722  15.318 -0.3118 -0.3414  0.0669
 6407SOL    HW130854   2.344   0.746  15.306 -0.6191 -1.9981 -0.9468
 6407SOL    HW230855   2.445   0.647  15.259  0.9351 -0.3392  0.2567
 6408SOL     OW30856   2.016   4.600   3.329  0.1141  0.2107 -0.4452
 6408SOL    HW130857   1.947   4.634   3.272 -1.0200 -0.5140  0.4810
 6408SOL    HW230858   2.084   4.589   3.263  1.0050 -1.8462  0.8066
 6409SOL     OW30859   1.786   2.920   3.550  0.2759  0.1504  0.1154
 6409SOL    HW130860   1.826   2.877   3.625  0.9779 -0.2223 -0.4731
 6409SOL    HW230861   1.821   3.008   3.552  0.4382  0.1049 -0.5619
 6410SOL     OW30862   2.524   4.531   6.696  0.0032  0.2164  0.3964
 6410SOL    HW130863   2.437   4.555   6.726 -0.1249 -1.1023  1.1266
 6410SOL    HW230864   2.578   4.565   6.768 -0.1749 -2.4455  1.8090
 6411SOL     OW30865   1.561   0.926   7.815 -0.1483 -0.4931  0.1346
 6411SOL    HW130866   1.573   0.833   7.800 -0.1721 -0.6329  0.9664
 6411SOL    HW230867   1.467   0.946   7.817 -0.1214 -0.3340 -0.1524
 6412SOL     OW30868   4.244   2.828   3.646  0.0660 -0.5686 -0.6754
 6412SOL    HW130869   4.193   2.755   3.610 -0.6147 -0.5105  0.1716
 6412SOL    HW230870   4.209   2.898   3.592 -3.1963 -0.3299  1.7411
 6413SOL     OW30871   1.233   0.005   6.920 -0.3315 -0.2732 -0.5231
 6413SOL    HW130872   1.200   0.037   7.004 -1.1458  0.4090 -1.1014
 6413SOL    HW230873   1.188   0.068   6.863 -1.6797  1.5638  2.5407
 6414SOL     OW30874   1.976   2.496   9.300  0.3424 -0.0062  0.0885
 6414SOL    HW130875   2.063   2.488   9.339  0.4742 -1.5147 -0.5085
 6414SOL    HW230876   1.951   2.582   9.335 -2.6251 -0.9481  0.2658
 6415SOL     OW30877   1.552   0.682   1.273 -0.3104  0.3912  0.1541
 6415SOL    HW130878   1.644   0.655   1.269  0.0589  1.6643  0.1444
 6415SOL    HW230879   1.510   0.613   1.324  1.3559 -0.3186  0.5838
 6416SOL     OW30880   3.321   0.799   7.652  0.0166  0.5262  0.5648
 6416SOL    HW130881   3.278   0.859   7.713  1.0450  1.6397  0.2023
 6416SOL    HW230882   3.309   0.718   7.702 -1.0797 -0.1377 -0.7851
 6417SOL     OW30883   1.089   3.418   6.526  0.2754  0.0689  0.0992
 6417SOL    HW130884   1.122   3.394   6.612  0.1909 -0.5630 -0.0423
 6417SOL    HW230885   1.038   3.498   6.540  0.0684 -0.3160  1.4993
 6418SOL     OW30886   3.345   0.896   7.036 -0.2987 -0.2413  0.2757
 6418SOL    HW130887   3.371   0.988   7.039 -0.6742 -0.0232 -2.4827
 6418SOL    HW230888   3.335   0.894   6.940 -0.2087  0.6584  0.2445
 6419SOL     OW30889   2.819   0.001   5.857  0.0110  0.1971 -0.2390
 6419SOL    HW130890   2.752   0.067   5.878  1.2335  2.0099 -1.9683
 6419SOL    HW230891   2.854   0.048   5.780  0.6124  1.2986  0.6988
 6420SOL     OW30892   4.562   2.752   7.160 -0.4141 -0.3296 -0.3174
 6420SOL    HW130893   4.639   2.745   7.103 -0.5203  0.2311 -0.5313
 6420SOL    HW230894   4.574   2.696   7.237  3.5864 -1.0385 -1.4740
 6421SOL     OW30895   4.453   1.194   9.341 -0.4124 -0.2799  0.1751
 6421SOL    HW130896   4.474   1.250   9.266 -1.5442 -1.5217 -1.0897
 6421SOL    HW230897   4.432   1.117   9.287  1.4815 -1.4646  1.1303
 6422SOL     OW30898   1.803   0.086   5.601 -1.2490  0.0773  0.4361
 6422SOL    HW130899   1.834   0.157   5.657  0.9848 -0.3696 -0.2464
 6422SOL    HW230900   1.710   0.108   5.609 -1.2301 -0.3604  1.8777
 6423SOL     OW30901   3.648   3.974   7.561 -0.1494  0.0723  0.0730
 6423SOL    HW130902   3.555   3.974   7.583 -0.2478  1.3003 -0.3667
 6423SOL    HW230903   3.649   4.037   7.489  2.5045 -0.8211 -0.6755
 6424SOL     OW30904   1.997   0.545  10.537  1.0035 -0.2200 -0.5014
 6424SOL    HW130905   1.954   0.546  10.451 -1.6399 -3.0525  0.7793
 6424SOL    HW230906   1.949   0.613  10.585 -0.9160  0.3604 -3.2421
 6425SOL     OW30907   4.128   3.834   7.849  0.8022 -0.1308  0.3480
 6425SOL    HW130908   4.083   3.895   7.908 -0.1511  0.0592 -0.5736
 6425SOL    HW230909   4.057   3.806   7.791  0.4698 -0.8179  1.0671
 6426SOL     OW30910   0.124   3.827   2.330 -0.6159 -0.5125  0.1772
 6426SOL    HW130911   0.094   3.908   2.289  0.9564 -0.5729 -1.0922
 6426SOL    HW230912   0.101   3.845   2.421 -1.1809  3.0843 -0.6773
 6427SOL     OW30913   1.576   1.983   1.345 -0.0693 -0.3168 -0.2467
 6427SOL    HW130914   1.539   1.895   1.337 -0.1422 -0.5779  2.7467
 6427SOL    HW230915   1.665   1.953   1.325  0.9676  2.9609 -0.4888
 6428SOL     OW30916   1.781   2.147   3.156 -0.1312 -0.3233 -0.2419
 6428SOL    HW130917   1.726   2.130   3.232  0.2980 -0.9633 -0.0637
 6428SOL    HW230918   1.765   2.241   3.152 -1.2071 -0.4988 -0.0679
 6429SOL     OW30919   3.656   4.482   2.483 -0.7119 -0.3607 -0.1054
 6429SOL    HW130920   3.709   4.492   2.404 -1.4616 -0.2283 -0.5931
 6429SOL    HW230921   3.675   4.390   2.500 -0.2896 -0.3608 -0.5780
 6430SOL     OW30922   1.860   3.569   4.214  0.2409  0.2865  0.1502
 6430SOL    HW130923   1.843   3.538   4.303  0.5897 -0.2089  0.0360
 6430SOL    HW230924   1.770   3.574   4.181  0.9017  0.3402 -1.5856
 6431SOL     OW30925   1.180   3.654   4.693 -0.2415 -0.5864 -0.0914
 6431SOL    HW130926   1.109   3.708   4.728 -0.0830  0.7519 -1.8179
 6431SOL    HW230927   1.142   3.569   4.710 -0.4555 -0.8884 -2.0519
 6432SOL     OW30928   3.498   1.107  15.451  0.1458  0.4151  0.1265
 6432SOL    HW130929   3.485   1.023  15.408  2.9809 -0.8178  1.6198
 6432SOL    HW230930   3.467   1.167  15.383 -1.5442  1.8760  2.1852
 6433SOL     OW30931   3.842   0.029   9.296  0.5248 -0.2032 -0.3187
 6433SOL    HW130932   3.801   4.699   9.243 -0.0280 -1.2080  1.3712
 6433SOL    HW230933   3.895   4.707   9.351  1.5203 -1.4767 -2.6634
 6434SOL     OW30934   0.015   3.907  10.780  0.6116 -0.3401  0.1353
 6434SOL    HW130935   0.029   3.852  10.857  1.9131  3.1843  2.3827
 6434SOL    HW230936   0.079   3.977  10.790 -0.1689  0.3059  0.5979
 6435SOL     OW30937   2.885   4.140  12.070 -1.0623 -0.0268 -0.3705
 6435SOL    HW130938   2.948   4.135  12.142  0.0805 -1.1864 -1.4444
 6435SOL    HW230939   2.809   4.178  12.114 -0.3729 -0.3126  1.0924
 6436SOL     OW30940   2.559   3.752   5.141 -0.0688  0.6364  0.5751
 6436SOL    HW130941   2.541   3.662   5.170  0.4531  0.7662  1.3063
 6436SOL    HW230942   2.631   3.727   5.083 -1.0554 -1.3908  0.2097
 6437SOL     OW30943   4.012   4.332   3.138  0.0843  0.2116 -0.1735
 6437SOL    HW130944   3.934   4.277   3.132  0.6968 -0.6519 -0.1112
 6437SOL    HW230945   4.042   4.302   3.224  3.8057 -0.3641 -1.6854
 6438SOL     OW30946   1.537   0.725   6.103 -0.5117 -0.4073  0.3627
 6438SOL    HW130947   1.627   0.750   6.124 -0.8445  0.5743  0.6007
 6438SOL    HW230948   1.516   0.803   6.052  0.7294 -1.1558 -1.3017
 6439SOL     OW30949   0.105   0.790   8.994 -0.6724  0.1744 -0.2120
 6439SOL    HW130950   0.119   0.858   9.060  0.5390 -0.0965 -0.1853
 6439SOL    HW230951   0.194   0.764   8.971 -1.2056 -1.5103 -0.3696
 6440SOL     OW30952   1.970   3.580  12.980  0.1463  0.1161 -0.5662
 6440SOL    HW130953   2.065   3.570  12.974  0.1770  0.9978 -1.6474
 6440SOL    HW230954   1.965   3.599  13.073  0.7143 -0.3977 -0.4380
 6441SOL     OW30955   4.387   4.068   7.848  0.0252 -0.1040 -0.0026
 6441SOL    HW130956   4.350   4.000   7.903  0.4226  1.5528  2.3350
 6441SOL    HW230957   4.419   4.009   7.780  1.0950  0.3779  0.0735
 6442SOL     OW30958   3.293   2.879   7.777 -0.4503 -0.2930 -0.3146
 6442SOL    HW130959   3.203   2.848   7.790  0.6610 -2.8071  1.2490
 6442SOL    HW230960   3.319   2.855   7.866 -0.1899 -2.3356 -0.9425
 6443SOL     OW30961   3.923   2.540  15.056 -0.2869 -0.4915  0.1040
 6443SOL    HW130962   3.980   2.601  15.008  1.4090 -1.2618  1.1508
 6443SOL    HW230963   3.963   2.543  15.142 -0.7772 -0.9086  0.3451
 6444SOL     OW30964   4.323   2.112   8.706 -0.4425 -0.1209 -0.2921
 6444SOL    HW130965   4.288   2.023   8.698 -1.5359  0.5301 -2.8568
 6444SOL    HW230966   4.246   2.165   8.727  0.8733  1.3359  0.8610
 6445SOL     OW30967   4.510   4.349  13.214  0.0060 -0.0884  0.5522
 6445SOL    HW130968   4.552   4.282  13.266 -0.2604  0.0882  0.9939
 6445SOL    HW230969   4.582   4.405  13.184  1.3553 -0.6222  2.8302
 6446SOL     OW30970   1.800   2.971   7.488  0.6302  0.1911  0.4898
 6446SOL    HW130971   1.770   3.025   7.562 -0.4666  0.9125 -0.4752
 6446SOL    HW230972   1.883   2.938   7.521  1.2622  1.9211  0.6234
 6447SOL     OW30973   2.924   1.815  10.930 -0.1557  0.7682  0.2237
 6447SOL    HW130974   3.012   1.850  10.944 -1.9264  6.0063 -1.6268
 6447SOL    HW230975   2.875   1.895  10.912 -1.4756 -0.1671 -0.3062
 6448SOL     OW30976   2.331   1.358   8.479 -0.2643  0.0858 -0.0850
 6448SOL    HW130977   2.336   1.263   8.488 -0.9790  0.1071  0.5025
 6448SOL    HW230978   2.236   1.365   8.466 -0.1099 -0.9304 -1.7782
 6449SOL     OW30979   3.016   2.572   3.121 -0.9480 -0.2464 -0.1379
 6449SOL    HW130980   3.085   2.604   3.062  0.7228 -3.0825  0.3146
 6449SOL    HW230981   2.943   2.585   3.060  0.7918 -0.1832 -2.2022
 6450SOL     OW30982   2.685   0.060   8.324 -0.5562  0.3496 -0.0373
 6450SOL    HW130983   2.655   0.088   8.237 -2.0837  0.4615  0.5165
 6450SOL    HW230984   2.659   0.139   8.372  0.7733  1.2705 -0.8441
 6451SOL     OW30985   3.808   2.083   3.765 -0.2368  0.2106 -0.5501
 6451SOL    HW130986   3.768   2.155   3.716 -0.2716 -0.4016 -1.4280
 6451SOL    HW230987   3.784   2.008   3.711  0.0497 -0.2687 -0.0076
 6452SOL     OW30988   0.805   2.794   0.708  0.0124 -0.2109 -0.1943
 6452SOL    HW130989   0.816   2.867   0.646  1.4930 -0.5105 -0.2621
 6452SOL    HW230990   0.873   2.818   0.771 -0.4939  1.2532 -0.1916
 6453SOL     OW30991   1.870   0.179   3.262  0.1568 -0.7782  0.3989
 6453SOL    HW130992   1.782   0.192   3.227  1.7806  0.0795 -3.3005
 6453SOL    HW230993   1.915   0.151   3.183 -0.8885  0.3571 -0.6075
 6454SOL     OW30994   4.235   2.130   5.531  0.0877  0.3420 -0.3522
 6454SOL    HW130995   4.302   2.138   5.600  0.6870  2.7793 -1.2328
 6454SOL    HW230996   4.254   2.051   5.479 -3.5379 -0.9474  0.3040
 6455SOL     OW30997   2.216   4.000   5.960  0.0171 -0.2757 -0.4361
 6455SOL    HW130998   2.129   3.963   5.954  0.2337 -1.0949  1.5194
 6455SOL    HW230999   2.218   4.005   6.056  2.7279 -1.3747 -0.4340
 6456SOL     OW31000   2.892   4.160   4.736  0.3501  0.3357  0.1740
 6456SOL    HW131001   2.829   4.227   4.707 -0.1945 -0.1828  0.1663
 6456SOL    HW231002   2.851   4.142   4.820 -0.9540 -1.3361 -0.8226
 6457SOL     OW31003   1.650   0.309   8.325  0.1642 -0.1865 -0.6451
 6457SOL    HW131004   1.712   0.319   8.253  0.2882  1.9480 -0.2521
 6457SOL    HW231005   1.578   0.358   8.286 -0.6946  0.2691  1.5143
 6458SOL     OW31006   4.720   0.550  12.149 -0.0060 -0.3535 -0.3790
 6458SOL    HW131007   0.070   0.577  12.121  0.0824 -1.0044 -0.7438
 6458SOL    HW231008   0.006   0.479  12.209 -1.3881 -2.3085 -2.1669
 6459SOL     OW31009   4.179   0.842   2.831 -0.3457 -0.5388  0.1715
 6459SOL    HW131010   4.143   0.788   2.901 -0.8297  2.1221  2.0040
 6459SOL    HW231011   4.102   0.891   2.800  1.4493  0.7494 -2.2582
 6460SOL     OW31012   1.863   1.538   8.602  0.0956  0.0347  0.0495
 6460SOL    HW131013   1.926   1.607   8.619  1.9720 -1.6509 -0.1235
 6460SOL    HW231014   1.781   1.570   8.640  0.2963 -0.4456  0.8895
 6461SOL     OW31015   2.602   1.090   3.460 -0.2915  0.7367 -0.3281
 6461SOL    HW131016   2.689   1.130   3.462  0.1502 -0.3040  1.1964
 6461SOL    HW231017   2.590   1.056   3.548  0.6216 -0.7027 -0.7693
 6462SOL     OW31018   0.633   3.709   6.976 -0.0386 -0.1227 -0.4778
 6462SOL    HW131019   0.545   3.719   7.011 -0.6174 -0.4318 -1.8487
 6462SOL    HW231020   0.620   3.733   6.885 -1.2901 -0.7492 -0.4601
 6463SOL     OW31021   2.477   3.421   2.420 -0.3984  0.3136  0.4259
 6463SOL    HW131022   2.502   3.367   2.345  0.5920  2.4832 -0.8096
 6463SOL    HW231023   2.396   3.463   2.391  0.3177  0.7888 -0.8530
 6464SOL     OW31024   4.092   2.681   4.498 -0.1366 -0.0018  0.0188
 6464SOL    HW131025   4.021   2.736   4.466 -0.2999 -0.4409 -0.3894
 6464SOL    HW231026   4.124   2.635   4.420  1.3628  0.6348  0.2726
 6465SOL     OW31027   2.265   4.595   2.230 -0.1597  0.4875 -0.7975
 6465SOL    HW131028   2.301   4.626   2.146  0.4917 -0.9604 -1.0507
 6465SOL    HW231029   2.228   4.511   2.202 -0.5739 -0.3424  2.3396
 6466SOL     OW31030   1.935   4.298   7.729  0.0856  0.5695 -0.4192
 6466SOL    HW131031   1.855   4.350   7.739 -1.1981 -1.4810 -0.1655
 6466SOL    HW231032   1.893   4.215   7.709  0.5512 -0.6929  3.7449
 6467SOL     OW31033   3.098   1.376   2.000 -0.0574 -0.0674 -0.2021
 6467SOL    HW131034   3.047   1.367   2.081 -0.5486  1.2693 -0.3704
 6467SOL    HW231035   3.041   1.329   1.937 -1.5236  0.8461  0.4463
 6468SOL     OW31036   2.391   2.739   4.319 -0.1985 -0.3397 -0.2153
 6468SOL    HW131037   2.317   2.739   4.259 -0.2417 -1.2663 -0.1591
 6468SOL    HW231038   2.445   2.814   4.296 -1.0870  0.2662 -0.3238
 6469SOL     OW31039   0.551   0.595   6.267  0.0314  0.3827  0.3032
 6469SOL    HW131040   0.538   0.658   6.339  1.4470  0.9872  0.0287
 6469SOL    HW231041   0.462   0.566   6.248 -0.4226  1.9081  0.1189
 6470SOL     OW31042   0.404   0.283   2.820  0.0865  0.5571 -0.0659
 6470SOL    HW131043   0.319   0.309   2.857 -0.1900  0.8162 -0.8798
 6470SOL    HW231044   0.455   0.352   2.861  2.3534 -1.2712  0.1876
 6471SOL     OW31045   0.115   2.701   4.980  0.0933  0.1071 -0.0371
 6471SOL    HW131046   0.023   2.699   4.955  0.0646 -0.9110  0.1747
 6471SOL    HW231047   0.097   2.723   5.071  2.6504  2.1913 -0.0024
 6472SOL     OW31048   3.324   0.500   3.030 -0.0942  0.5164 -0.1303
 6472SOL    HW131049   3.392   0.540   2.976 -0.4608  0.4895 -0.6066
 6472SOL    HW231050   3.317   0.410   2.996  1.6019 -0.1594  1.2746
 6473SOL     OW31051   2.101   2.862   6.031 -0.0637 -0.1446  0.1754
 6473SOL    HW131052   2.115   2.949   5.993 -1.6668 -0.0542 -0.2149
 6473SOL    HW231053   2.160   2.862   6.106 -0.8374  1.6516  0.7849
 6474SOL     OW31054   3.553   0.156   9.430 -0.5249 -0.1274  0.6114
 6474SOL    HW131055   3.512   0.156   9.517  0.6607 -2.0408  1.1654
 6474SOL    HW231056   3.579   0.064   9.422 -0.8153 -0.3556  2.2192
 6475SOL     OW31057   4.150   0.728   4.610  0.0381 -0.1735 -0.1674
 6475SOL    HW131058   4.144   0.639   4.576 -0.2716  0.6083 -2.1038
 6475SOL    HW231059   4.074   0.775   4.578 -0.5945  0.6436  2.5566
 6476SOL     OW31060   1.770   2.288   4.526  0.5221 -0.7812 -0.6752
 6476SOL    HW131061   1.805   2.247   4.447  1.3808  1.2078 -1.3165
 6476SOL    HW231062   1.688   2.327   4.495  0.0430 -0.7103  0.6776
 6477SOL     OW31063   4.632   3.780   8.980  0.9196  0.0872 -0.0207
 6477SOL    HW131064   4.707   3.839   8.973  0.7385  0.3572  0.3284
 6477SOL    HW231065   4.580   3.804   8.903  1.4762 -0.6487 -0.6263
 6478SOL     OW31066   1.840   2.991   6.623  0.5058 -0.2326  0.4438
 6478SOL    HW131067   1.882   2.925   6.567  0.1146  1.6171 -1.9903
 6478SOL    HW231068   1.843   2.935   6.701 -0.3301 -1.5539 -0.4670
 6479SOL     OW31069   2.385   1.601  14.040 -0.4122 -0.4324 -0.3497
 6479SOL    HW131070   2.332   1.650  13.978 -1.1315 -0.1008  0.5258
 6479SOL    HW231071   2.325   1.599  14.114 -1.1679  0.4457 -0.9386
 6480SOL     OW31072   3.423   3.936  13.526 -0.3743  0.1946  0.0907
 6480SOL    HW131073   3.450   3.970  13.441 -0.9246  0.0023 -0.1567
 6480SOL    HW231074   3.329   3.949  13.519 -0.7011 -1.4920  1.2703
 6481SOL     OW31075   0.974   4.084   6.368 -0.2716 -0.4137 -0.2325
 6481SOL    HW131076   0.978   4.042   6.282 -0.7299 -0.3450 -0.2845
 6481SOL    HW231077   0.985   4.009   6.427  2.2941  0.6765  0.7080
 6482SOL     OW31078   1.053   2.885  12.568 -0.9155  0.1262 -0.2959
 6482SOL    HW131079   1.023   2.794  12.569 -2.1345  0.5378  0.9029
 6482SOL    HW231080   1.046   2.908  12.661 -0.2071 -1.5471  0.1815
 6483SOL     OW31081   2.354   3.732   9.702 -0.2381  0.3499  0.0709
 6483SOL    HW131082   2.385   3.721   9.792 -4.6543 -0.0619  1.5772
 6483SOL    HW231083   2.417   3.675   9.659 -1.3616  0.1209 -1.3032
 6484SOL     OW31084   0.747   3.374   6.664 -0.2554 -0.3682 -0.3225
 6484SOL    HW131085   0.657   3.397   6.685 -1.1732 -3.8054 -0.4370
 6484SOL    HW231086   0.772   3.443   6.603 -1.9299  0.5933  0.0793
 6485SOL     OW31087   2.942   0.151  10.981  0.1466 -0.6525 -0.1805
 6485SOL    HW131088   2.896   0.124  10.902 -2.2030  0.9680  0.6244
 6485SOL    HW231089   2.939   0.245  10.964  1.6423 -0.6471 -0.3716
 6486SOL     OW31090   1.453   3.022  11.721 -0.2888 -0.4703 -0.0028
 6486SOL    HW131091   1.474   3.104  11.676 -0.6836  0.6608  1.9059
 6486SOL    HW231092   1.358   3.023  11.724 -0.2928 -0.1435 -0.2964
 6487SOL     OW31093   0.730   3.273  10.067 -0.4709  0.0623 -0.0086
 6487SOL    HW131094   0.703   3.358  10.100  1.1995  0.6640 -0.1654
 6487SOL    HW231095   0.824   3.287  10.051 -1.0553  0.1088 -3.3641
 6488SOL     OW31096   1.136   4.469   9.142  0.2049 -1.0696  0.7899
 6488SOL    HW131097   1.223   4.446   9.174 -0.1962 -2.9957  0.5360
 6488SOL    HW231098   1.144   4.564   9.146 -0.1513 -0.9824 -0.4423
 6489SOL     OW31099   3.258   0.736  17.371 -0.1009  0.2673  0.4071
 6489SOL    HW131100   3.287   0.675  17.439 -2.5641 -2.1507 -0.7295
 6489SOL    HW231101   3.252   0.815  17.426 -1.5539  0.5847 -0.1893
 6490SOL     OW31102   3.258   4.256  12.333 -0.2068  0.6954 -0.1851
 6490SOL    HW131103   3.225   4.321  12.395 -1.0849 -0.3845  0.4830
 6490SOL    HW231104   3.262   4.302  12.249 -1.5600  0.8929 -0.1441
 6491SOL     OW31105   0.550   3.798   7.347  0.5484  0.0793  0.4852
 6491SOL    HW131106   0.586   3.869   7.401 -0.1772  0.1835  0.8276
 6491SOL    HW231107   0.526   3.835   7.262  0.6934  1.2819  0.9543
 6492SOL     OW31108   2.524   3.881   6.238  0.0143 -0.3810  1.2808
 6492SOL    HW131109   2.530   3.973   6.211  0.8480  0.8000  5.5041
 6492SOL    HW231110   2.542   3.838   6.154 -1.0699 -1.4554  1.6144
 6493SOL     OW31111   4.450   4.377  10.406 -0.1981  0.1829 -0.2548
 6493SOL    HW131112   4.531   4.333  10.381 -0.2254 -0.0225  0.0184
 6493SOL    HW231113   4.466   4.389  10.499 -0.6850 -0.2511 -0.1167
 6494SOL     OW31114   1.725   3.469   3.466  0.5009  0.6953 -0.0898
 6494SOL    HW131115   1.761   3.423   3.541  2.5524  1.8993 -0.3493
 6494SOL    HW231116   1.721   3.562   3.491  0.9016  0.3489  1.2412
 6495SOL     OW31117   1.496   0.930   8.909 -0.3362  0.4758  0.1369
 6495SOL    HW131118   1.511   1.024   8.924  0.7114  0.4410 -0.6409
 6495SOL    HW231119   1.414   0.927   8.859  0.3988 -0.5759 -0.9944
 6496SOL     OW31120   3.514   1.487   1.888  0.2391  0.2925  0.1451
 6496SOL    HW131121   3.438   1.514   1.940 -0.1094  2.1219 -1.3120
 6496SOL    HW231122   3.568   1.565   1.870  1.0730 -0.4501 -0.5879
 6497SOL     OW31123   0.437   4.245   6.462  0.1499 -0.1904 -0.3622
 6497SOL    HW131124   0.456   4.289   6.544 -0.4402  0.2693 -0.4699
 6497SOL    HW231125   0.518   4.200   6.439  0.4706 -0.3368  1.0853
 6498SOL     OW31126   3.504   4.716  12.380 -0.1818 -0.2302 -0.3972
 6498SOL    HW131127   3.591   4.676  12.374  0.1855  0.2556  1.6357
 6498SOL    HW231128   3.525   0.063  12.421 -1.4522  0.4492 -1.1309
 6499SOL     OW31129   0.976   0.381  12.721 -0.2852 -0.5709 -0.1040
 6499SOL    HW131130   1.055   0.432  12.705 -0.9580 -0.0057 -1.6378
 6499SOL    HW231131   0.907   0.440  12.752  1.7697  0.7707  1.8779
 6500SOL     OW31132   0.033   3.847   7.987 -0.0687  0.0382 -0.6029
 6500SOL    HW131133   4.693   3.790   7.994 -1.2228  1.6076 -0.5147
 6500SOL    HW231134   4.731   3.930   8.014 -1.1257 -0.0740 -1.7274
 6501SOL     OW31135   4.580   0.993   4.751 -0.2079 -0.4151  0.3768
 6501SOL    HW131136   4.656   0.976   4.807  1.0550  0.5712 -1.0192
 6501SOL    HW231137   4.561   1.084   4.774  1.3255  0.0106 -0.0026
 6502SOL     OW31138   0.980   1.857  13.114  0.3864 -0.6886 -0.6574
 6502SOL    HW131139   1.067   1.891  13.130  1.5177 -4.3006  0.8523
 6502SOL    HW231140   0.974   1.874  13.020 -0.2090 -2.4244 -0.9495
 6503SOL     OW31141   1.456   1.042   4.438 -0.0867 -0.0869  0.3445
 6503SOL    HW131142   1.455   1.034   4.534  3.7203 -0.7727  0.3214
 6503SOL    HW231143   1.532   0.992   4.408  0.4777  0.3217  1.0832
 6504SOL     OW31144   4.060   1.596  16.777  0.4783 -0.3108  0.4510
 6504SOL    HW131145   4.048   1.517  16.725 -2.4564 -1.3322  2.7050
 6504SOL    HW231146   4.124   1.644  16.724 -1.1647  0.9938 -0.3578
 6505SOL     OW31147   0.077   2.409   3.291  0.7320 -0.0891  0.1687
 6505SOL    HW131148   0.002   2.446   3.338  0.4924 -0.4839  0.0940
 6505SOL    HW231149   0.103   2.336   3.348  0.4506 -0.7401 -0.5483
 6506SOL     OW31150   3.559   2.582   2.420 -0.4156  0.5172 -0.1559
 6506SOL    HW131151   3.651   2.607   2.415  0.3716 -2.6522 -1.7439
 6506SOL    HW231152   3.542   2.622   2.505  0.3869 -0.7382  0.5890
 6507SOL     OW31153   0.877   2.551   2.984  0.5564  0.1557 -0.0003
 6507SOL    HW131154   0.970   2.530   2.993  0.2381 -0.1965  2.4278
 6507SOL    HW231155   0.882   2.642   2.957  0.5974  0.5725  1.4670
 6508SOL     OW31156   2.900   3.280   9.039  0.1061 -0.6445 -0.2631
 6508SOL    HW131157   2.835   3.256   8.973 -1.1163  0.9875  0.3348
 6508SOL    HW231158   2.980   3.292   8.988 -1.3543  2.5031 -1.8626
 6509SOL     OW31159   4.060   1.839   9.068 -0.3997  0.0304  0.1345
 6509SOL    HW131160   4.075   1.930   9.095  1.0040  0.1747 -1.1434
 6509SOL    HW231161   4.050   1.799   9.154  0.9827  1.7078  1.0914
 6510SOL     OW31162   2.123   1.902   4.145  0.0323 -0.4031  0.2632
 6510SOL    HW131163   2.126   1.948   4.229 -2.1711 -0.0976  0.1951
 6510SOL    HW231164   2.213   1.911   4.113 -0.0941 -1.4793 -0.3752
 6511SOL     OW31165   0.362   2.864   1.166  0.3502  0.5894  0.6891
 6511SOL    HW131166   0.317   2.780   1.177  1.0222 -0.0065 -1.1943
 6511SOL    HW231167   0.315   2.918   1.230  0.9580  2.2854 -0.2855
 6512SOL     OW31168   4.423   0.720   5.397  1.1038 -0.2830 -0.4532
 6512SOL    HW131169   4.477   0.792   5.365  1.4970  0.3050  1.5368
 6512SOL    HW231170   4.436   0.731   5.491 -0.5487  2.6270 -0.5703
 6513SOL     OW31171   2.450   3.479  13.186 -0.2650  0.4843  0.4009
 6513SOL    HW131172   2.444   3.422  13.263 -1.3162  1.2198  0.8684
 6513SOL    HW231173   2.544   3.472  13.170 -0.6976 -3.0814 -0.6204
 6514SOL     OW31174   4.126   2.372   4.892  0.4919  0.5897 -0.1314
 6514SOL    HW131175   4.193   2.401   4.830  1.2403  0.9192  0.8184
 6514SOL    HW231176   4.098   2.295   4.844 -1.2611  0.6441  0.7910
 6515SOL     OW31177   2.140   1.591   4.798  0.1375 -0.6107  0.0328
 6515SOL    HW131178   2.196   1.557   4.728  2.5583  3.2215  0.1061
 6515SOL    HW231179   2.066   1.615   4.742 -1.1891 -1.3440  1.4814
 6516SOL     OW31180   2.962   0.213   6.622  0.3763  0.7640  0.5532
 6516SOL    HW131181   2.898   0.280   6.642 -0.0736  0.5498 -0.1417
 6516SOL    HW231182   2.910   0.143   6.662  0.9248 -0.6698 -1.2280
 6517SOL     OW31183   0.756   2.610  16.634  0.1892 -0.0481  0.2629
 6517SOL    HW131184   0.782   2.635  16.546  0.7960  1.4743  0.8683
 6517SOL    HW231185   0.691   2.541  16.621  0.0867  0.1704 -0.3609
 6518SOL     OW31186   3.241   3.169   3.362  0.0604  0.3570  0.2091
 6518SOL    HW131187   3.317   3.184   3.305  0.1408  2.3105  0.8321
 6518SOL    HW231188   3.264   3.079   3.385 -0.3166  0.5501  1.2951
 6519SOL     OW31189   4.445   3.530   8.968 -0.4024 -0.3852  0.3433
 6519SOL    HW131190   4.362   3.549   9.011 -0.0139 -2.1131  1.8399
 6519SOL    HW231191   4.502   3.602   8.998  1.4252 -0.7829 -2.2007
 6520SOL     OW31192   3.977   1.292   7.689 -0.0276  0.0613 -0.5938
 6520SOL    HW131193   3.940   1.334   7.767 -1.0993  1.6837 -1.9783
 6520SOL    HW231194   3.973   1.359   7.621  2.9415 -1.2709 -2.0934
 6521SOL     OW31195   1.632   4.227  10.778  0.0890  0.3223  0.1566
 6521SOL    HW131196   1.551   4.255  10.736  0.1006 -1.8479 -1.2975
 6521SOL    HW231197   1.596   4.143  10.807  2.3012 -0.4609  0.6459
 6522SOL     OW31198   0.923   0.014   7.859 -0.1935  0.1434 -0.3170
 6522SOL    HW131199   1.014   0.041   7.869  0.0530 -0.8825  0.1812
 6522SOL    HW231200   0.935   4.664   7.821  1.7825  0.3094 -0.0863
 6523SOL     OW31201   0.888   0.116  12.751 -0.3852 -0.0103 -0.4947
 6523SOL    HW131202   0.913   0.100  12.660  2.4097 -0.1313  0.2781
 6523SOL    HW231203   0.929   0.202  12.748  0.6283 -0.5477 -2.3333
 6524SOL     OW31204   2.643   1.927  17.550  0.3875  0.5529  0.0704
 6524SOL    HW131205   2.661   1.989  17.621 -2.7015  0.6669  0.7572
 6524SOL    HW231206   2.565   1.955  17.502 -0.7375 -2.4413  0.1741
 6525SOL     OW31207   3.342   0.921   6.762  0.0515 -0.1576 -0.1470
 6525SOL    HW131208   3.285   0.857   6.720  0.3343  0.1193 -0.9462
 6525SOL    HW231209   3.421   0.907   6.710  0.0097  0.1466 -0.2890
 6526SOL     OW31210   3.275   0.991   9.620 -0.2969 -0.4295  0.3624
 6526SOL    HW131211   3.273   1.084   9.599  1.0500 -0.9354 -2.0548
 6526SOL    HW231212   3.184   0.961   9.616 -0.8712  1.2642  0.9609
 6527SOL     OW31213   3.874   0.888   2.282  0.2317  0.0185  0.6543
 6527SOL    HW131214   3.925   0.810   2.302  0.5983 -0.6076 -2.6406
 6527SOL    HW231215   3.947   0.950   2.276  0.2699 -0.0849  0.0616
 6528SOL     OW31216   1.326   4.635   9.707 -0.4771  0.2746  0.1216
 6528SOL    HW131217   1.387   4.650   9.634 -2.4450 -0.8357 -1.7607
 6528SOL    HW231218   1.382   4.611   9.781  1.7787  2.6969 -0.7598
 6529SOL     OW31219   3.305   2.090   0.948 -0.2341  0.6778 -0.3468
 6529SOL    HW131220   3.313   2.001   0.915 -1.4451 -0.6768  2.9175
 6529SOL    HW231221   3.221   2.076   0.992  0.7157 -0.2626  1.1880
 6530SOL     OW31222   4.198   4.362  10.339  0.6491 -0.3752  0.2699
 6530SOL    HW131223   4.193   4.420  10.415  0.5038 -0.6289  0.4503
 6530SOL    HW231224   4.292   4.345  10.347  0.4187 -1.1876  1.2069
 6531SOL     OW31225   1.595   0.923  13.797  0.1482  0.2680 -0.0272
 6531SOL    HW131226   1.676   0.973  13.789 -0.4162  1.0277 -1.0918
 6531SOL    HW231227   1.530   0.991  13.776 -0.1272 -0.7395 -2.4828
 6532SOL     OW31228   3.022   3.460   6.083  0.2631  0.3192  0.5055
 6532SOL    HW131229   3.109   3.455   6.043 -0.1339 -0.1142 -0.3054
 6532SOL    HW231230   3.051   3.529   6.143 -0.0682 -0.1416  1.1912
 6533SOL     OW31231   4.107   3.414  17.664 -0.0379  0.6167 -0.4697
 6533SOL    HW131232   4.190   3.368  17.673  0.0626  0.5756 -1.6803
 6533SOL    HW231233   4.142   3.502  17.647 -0.2658  0.5083 -1.4936
 6534SOL     OW31234   0.998   2.936   8.865 -0.2416 -0.1199  0.1929
 6534SOL    HW131235   0.980   2.908   8.775  1.5575  0.2254 -0.2819
 6534SOL    HW231236   1.008   3.031   8.861 -1.4058  0.0076  0.4807
 6535SOL     OW31237   3.812   4.162   9.087 -0.4030 -0.3385  0.4165
 6535SOL    HW131238   3.783   4.220   9.016 -1.8617 -0.1842  1.1481
 6535SOL    HW231239   3.906   4.179   9.076 -0.6135  1.6591  1.6789
 6536SOL     OW31240   1.775   3.487   7.821  0.2812 -0.1942  0.2309
 6536SOL    HW131241   1.771   3.518   7.912  1.4552 -2.8779  1.2003
 6536SOL    HW231242   1.862   3.446   7.813  0.4429  0.0778  0.5902
 6537SOL     OW31243   1.957   2.848   7.106 -0.2978  0.4004 -0.1900
 6537SOL    HW131244   1.972   2.763   7.147 -0.1533 -0.1224 -1.3096
 6537SOL    HW231245   1.999   2.912   7.162 -0.0436  1.9529 -2.1408
 6538SOL     OW31246   3.968   0.629   5.576 -0.3501  0.1837 -0.1560
 6538SOL    HW131247   3.946   0.552   5.628  0.4352  0.3930  0.4888
 6538SOL    HW231248   4.042   0.659   5.629  0.4739 -0.2206 -1.0831
 6539SOL     OW31249   1.341   0.434   5.432  0.3808  0.0306  0.1619
 6539SOL    HW131250   1.334   0.512   5.487  2.0067 -0.0735  0.5104
 6539SOL    HW231251   1.253   0.399   5.447  1.3909 -2.0121  1.2891
 6540SOL     OW31252   1.378   3.324  12.324 -0.7074  0.1403  0.1201
 6540SOL    HW131253   1.413   3.245  12.283 -0.6152  0.3372 -0.1808
 6540SOL    HW231254   1.342   3.371  12.249 -0.1521 -0.1386 -0.3239
 6541SOL     OW31255   1.382   0.187   9.842 -0.8620 -0.2579 -0.6056
 6541SOL    HW131256   1.466   0.160   9.805 -0.3130  0.7227 -0.0783
 6541SOL    HW231257   1.387   0.148   9.929  3.0816 -1.0349 -1.1906
 6542SOL     OW31258   1.214   0.974   0.433 -0.0036 -0.0946 -0.6076
 6542SOL    HW131259   1.157   0.966   0.356  1.6323 -2.4783 -1.5798
 6542SOL    HW231260   1.291   0.925   0.402  0.7847  0.3002  0.7441
 6543SOL     OW31261   2.684   1.933  10.809 -0.1404 -0.0449  0.4269
 6543SOL    HW131262   2.621   1.876  10.853 -0.8196  2.7494  3.0327
 6543SOL    HW231263   2.661   1.911  10.718 -2.2925 -2.2656  1.5130
 6544SOL     OW31264   1.148   0.912   4.684 -0.0045 -0.0472 -0.3010
 6544SOL    HW131265   1.071   0.897   4.738  0.5690 -0.7305  0.3127
 6544SOL    HW231266   1.108   0.960   4.611 -0.1848 -0.7475 -0.6604
 6545SOL     OW31267   1.754   1.991   8.635  0.1753 -0.0549  0.2662
 6545SOL    HW131268   1.836   2.012   8.680  1.8165 -0.2672 -2.6567
 6545SOL    HW231269   1.715   1.928   8.696 -0.4386 -1.2027 -1.3095
 6546SOL     OW31270   4.143   0.707   3.811 -0.4157 -0.1848 -0.4791
 6546SOL    HW131271   4.181   0.651   3.878  0.6310 -0.2123 -1.0982
 6546SOL    HW231272   4.127   0.635   3.750  1.5589 -2.1007  1.2741
 6547SOL     OW31273   4.386   0.395   3.589  0.0324 -0.7210 -0.0896
 6547SOL    HW131274   4.344   0.396   3.502  0.9323 -0.0524 -0.5150
 6547SOL    HW231275   4.474   0.416   3.560  0.2318 -1.2152  0.1677
 6548SOL     OW31276   4.203   3.568   7.565 -0.5852 -0.2851  0.6976
 6548SOL    HW131277   4.262   3.504   7.524  0.0089  0.7086 -0.0076
 6548SOL    HW231278   4.261   3.628   7.612  0.5819 -2.2741  1.7776
 6549SOL     OW31279   2.724   0.274   4.701 -0.6285 -0.6884  0.1992
 6549SOL    HW131280   2.729   0.243   4.792 -2.7068 -1.4706  0.0222
 6549SOL    HW231281   2.742   0.196   4.649  0.6124 -0.5142  0.3593
 6550SOL     OW31282   3.506   2.250   3.410 -0.0779 -0.0678  0.1468
 6550SOL    HW131283   3.498   2.344   3.391  0.1771  0.0339  0.5326
 6550SOL    HW231284   3.424   2.236   3.457 -2.0509  0.2975 -3.2071
 6551SOL     OW31285   2.817   3.209   4.928  0.1542 -0.2822 -0.7348
 6551SOL    HW131286   2.870   3.129   4.926  0.8051  0.1602 -1.0259
 6551SOL    HW231287   2.759   3.205   4.853  0.0803  3.5575 -0.8626
 6552SOL     OW31288   1.040   4.636   2.682  0.1421  0.1378 -0.0487
 6552SOL    HW131289   1.106   4.623   2.750  2.0460 -1.7170 -2.2597
 6552SOL    HW231290   0.967   4.582   2.715  0.7506 -0.2979  0.5762
 6553SOL     OW31291   3.890   0.585   9.311  0.3053  0.3796  0.0442
 6553SOL    HW131292   3.884   0.677   9.336  1.9360 -0.3462  3.1396
 6553SOL    HW231293   3.857   0.557   9.396 -0.1130  0.6520 -0.0282
 6554SOL     OW31294   2.145   0.967   3.663  0.0425 -0.5887  0.2442
 6554SOL    HW131295   2.146   0.933   3.574 -1.1805 -2.0291  0.7916
 6554SOL    HW231296   2.060   0.937   3.696 -1.0313  1.1244 -0.9356
 6555SOL     OW31297   4.477   4.057   3.712  0.6513  0.3715  0.2601
 6555SOL    HW131298   4.533   4.083   3.638 -0.3618  2.8696  0.3688
 6555SOL    HW231299   4.403   4.021   3.663 -0.2028 -0.4297  2.1768
 6556SOL     OW31300   2.094   2.999   6.892  0.3393 -0.3080 -0.2057
 6556SOL    HW131301   2.040   2.934   6.937  0.1841  0.3831  0.6136
 6556SOL    HW231302   2.070   3.081   6.934  1.5150 -0.5837  1.0261
 6557SOL     OW31303   0.578   0.993   5.264 -0.7011  0.0013  0.5866
 6557SOL    HW131304   0.497   1.006   5.215 -0.2705  1.1381  0.1715
 6557SOL    HW231305   0.553   0.906   5.294  1.0453 -0.7131 -0.0455
 6558SOL     OW31306   2.360   0.008   4.864 -0.8086  0.0328 -0.0624
 6558SOL    HW131307   2.270   4.716   4.883 -0.6701 -0.6521 -0.4435
 6558SOL    HW231308   2.348   0.082   4.805  0.5580  0.0025 -0.3614
 6559SOL     OW31309   3.857   4.299   1.715  0.5058 -0.1189  0.3719
 6559SOL    HW131310   3.849   4.205   1.702  0.7998 -0.1901  0.7188
 6559SOL    HW231311   3.872   4.302   1.810  0.9674 -0.2597  0.3045
 6560SOL     OW31312   4.524   0.047   1.816 -0.5522 -0.0325 -0.1739
 6560SOL    HW131313   4.531   0.134   1.854  1.2447 -0.5317  0.6261
 6560SOL    HW231314   4.615   0.028   1.791  0.4936 -0.1916  3.7607
 6561SOL     OW31315   1.905   1.243   5.411 -0.1187 -0.2022 -0.3922
 6561SOL    HW131316   1.873   1.223   5.499 -1.2900 -1.4953 -1.1231
 6561SOL    HW231317   1.860   1.177   5.358 -1.8626  0.7418 -0.0662
 6562SOL     OW31318   3.319   0.911   6.074  0.2334 -0.3886  0.0988
 6562SOL    HW131319   3.256   0.915   6.003  0.1121 -0.0491  0.2247
 6562SOL    HW231320   3.265   0.894   6.151  1.3105 -4.3556 -0.0246
 6563SOL     OW31321   1.273   0.079  13.415 -0.1541  0.0300  0.5047
 6563SOL    HW131322   1.187   0.049  13.384  0.8790 -2.1698 -0.2170
 6563SOL    HW231323   1.249   0.169  13.436  3.2426  0.6874  1.5528
 6564SOL     OW31324   0.223   3.177   8.122  0.1170 -0.1103 -0.3839
 6564SOL    HW131325   0.175   3.158   8.203 -2.1802 -0.4144 -1.8068
 6564SOL    HW231326   0.184   3.262   8.100 -2.0684 -0.9603  0.2449
 6565SOL     OW31327   4.723   0.934   8.781  0.2218 -0.4027  0.5129
 6565SOL    HW131328   4.632   0.934   8.810  0.6176 -1.5215  1.7428
 6565SOL    HW231329   0.024   0.870   8.842  1.5410 -0.6256 -0.5476
 6566SOL     OW31330   4.343   4.482   4.484 -0.1251 -0.5475 -0.3991
 6566SOL    HW131331   4.324   4.455   4.575 -0.2593 -0.3569 -0.3694
 6566SOL    HW231332   4.419   4.538   4.496  1.4221 -2.5033 -1.2658
 6567SOL     OW31333   2.628   2.368  14.425 -0.1007  0.2563 -0.0269
 6567SOL    HW131334   2.600   2.452  14.388 -0.0510  0.3768  0.2133
 6567SOL    HW231335   2.635   2.300  14.357 -0.3574  1.1548 -0.9441
 6568SOL     OW31336   0.792   0.870   7.963 -0.1319 -0.3300  0.4171
 6568SOL    HW131337   0.725   0.909   8.019 -1.5358  0.5659 -1.8703
 6568SOL    HW231338   0.821   0.791   8.007  0.2253 -0.7162 -0.5151
 6569SOL     OW31339   4.400   0.012   2.617  0.6813  0.4638 -0.3083
 6569SOL    HW131340   4.322   0.017   2.562  0.1990  0.2953  0.3684
 6569SOL    HW231341   4.446   4.683   2.565  1.2403  1.9234 -1.6596
 6570SOL     OW31342   4.035   1.803   4.352  0.6335  0.4812  0.0743
 6570SOL    HW131343   4.021   1.718   4.394  0.0149  1.4328  1.8119
 6570SOL    HW231344   4.006   1.782   4.263 -0.3560  1.7320  0.1058
 6571SOL     OW31345   0.657   4.424  12.939 -0.1962  0.2158 -0.0973
 6571SOL    HW131346   0.569   4.387  12.936  0.3808 -1.0410 -1.4301
 6571SOL    HW231347   0.637   4.504  12.988  2.2179  0.2267  0.8723
 6572SOL     OW31348   3.830   1.174   4.507 -0.4848 -0.6412  0.1730
 6572SOL    HW131349   3.885   1.237   4.554 -0.5200 -0.3963 -0.1191
 6572SOL    HW231350   3.831   1.100   4.568 -1.3782 -1.1468 -0.4279
 6573SOL     OW31351   0.379   1.258   7.019 -1.0842 -0.2890 -0.0732
 6573SOL    HW131352   0.423   1.264   6.934 -0.4118 -0.7667  0.2336
 6573SOL    HW231353   0.449   1.287   7.078 -0.0218 -1.2516 -0.8534
 6574SOL     OW31354   4.087   2.120   3.873 -0.0750  0.1712  0.2757
 6574SOL    HW131355   4.086   2.211   3.842 -2.4854  0.7210  1.9421
 6574SOL    HW231356   4.002   2.097   3.836  1.9435 -2.6995 -2.5920
 6575SOL     OW31357   1.685   0.137   7.834  0.0308  0.3895 -0.0302
 6575SOL    HW131358   1.779   0.153   7.842  0.4213 -1.9636  0.1933
 6575SOL    HW231359   1.653   0.131   7.924 -1.2882 -1.4538 -0.6316
 6576SOL     OW31360   0.899   0.323   8.177 -0.1988 -0.6095 -0.1810
 6576SOL    HW131361   0.891   0.234   8.213 -2.3728  0.3045  1.5873
 6576SOL    HW231362   0.843   0.362   8.244  0.6606  2.0087 -1.0100
 6577SOL     OW31363   2.688   4.727   3.349 -0.3139 -0.4969  0.1691
 6577SOL    HW131364   2.706   0.003   3.256 -1.6188 -1.6105 -0.2387
 6577SOL    HW231365   2.632   0.067   3.361 -1.4716 -1.4003  0.5158
 6578SOL     OW31366   3.487   1.327  10.429 -0.0326  0.3328 -0.0528
 6578SOL    HW131367   3.568   1.276  10.429 -1.5152 -2.0101 -0.7391
 6578SOL    HW231368   3.507   1.413  10.466  0.9054 -0.1724  0.6083
 6579SOL     OW31369   0.836   3.951   3.773 -0.5848  0.5233 -0.1371
 6579SOL    HW131370   0.834   3.908   3.688  0.0370 -1.0028  0.6159
 6579SOL    HW231371   0.806   4.039   3.747 -1.1700  0.2921 -0.2489
 6580SOL     OW31372   2.896   1.618   7.463 -0.1451  0.8282 -0.3227
 6580SOL    HW131373   2.967   1.617   7.528 -0.3975 -0.3100 -0.0536
 6580SOL    HW231374   2.877   1.711   7.452  1.5553  1.3011  0.6370
 6581SOL     OW31375   2.150   0.822   4.041  0.2269 -0.2036  0.6238
 6581SOL    HW131376   2.141   0.794   3.951  0.4070  1.1462  0.1820
 6581SOL    HW231377   2.173   0.739   4.083  1.6590  0.5827  1.3851
 6582SOL     OW31378   0.933   2.169  11.971  0.0953 -0.1987  0.2019
 6582SOL    HW131379   0.884   2.244  12.005 -1.0861 -0.6405 -0.5182
 6582SOL    HW231380   0.974   2.221  11.901 -0.7104 -1.1083 -0.9429
 6583SOL     OW31381   1.075   4.542   3.570  0.1368 -0.2077  0.0191
 6583SOL    HW131382   1.021   4.545   3.648 -1.2021  1.2302 -0.9494
 6583SOL    HW231383   1.069   4.456   3.528 -1.2499 -0.3450  0.5073
 6584SOL     OW31384   0.913   0.656   8.340 -0.1157  0.1051  0.0923
 6584SOL    HW131385   0.823   0.634   8.362 -0.7141  0.1599 -2.3224
 6584SOL    HW231386   0.919   0.609   8.257  2.7231  0.0451  0.3176
 6585SOL     OW31387   3.848   3.056   6.008 -0.1155 -0.1342 -0.2299
 6585SOL    HW131388   3.903   3.133   5.999 -2.2209  1.4797  0.8603
 6585SOL    HW231389   3.794   3.081   6.083 -1.3139 -0.6610 -0.9164
 6586SOL     OW31390   0.727   0.383   4.090  0.8000  0.1114 -0.5622
 6586SOL    HW131391   0.805   0.438   4.100  1.2180 -0.6026  0.1154
 6586SOL    HW231392   0.748   0.324   4.162 -2.0274 -1.3779 -0.9723
 6587SOL     OW31393   0.213   0.970   9.633  0.3166  0.2662 -0.1625
 6587SOL    HW131394   0.220   1.049   9.580  0.9236  1.8270  2.2413
 6587SOL    HW231395   0.118   0.963   9.642  0.3947 -0.0635  0.4345
 6588SOL     OW31396   1.976   4.252  15.815 -0.5033  0.1801 -0.4811
 6588SOL    HW131397   2.015   4.205  15.889 -2.6614 -1.4437 -0.3583
 6588SOL    HW231398   1.893   4.209  15.792 -0.5568  0.0773 -0.1054
 6589SOL     OW31399   3.163   2.593   3.530 -0.1289  0.2244  0.2901
 6589SOL    HW131400   3.110   2.536   3.475  1.3391 -2.5487  1.7763
 6589SOL    HW231401   3.091   2.620   3.588  0.1389  0.8645  0.3252
 6590SOL     OW31402   1.173   3.666  10.421 -0.4608 -0.0626  0.1039
 6590SOL    HW131403   1.264   3.640  10.433 -0.4585  0.6143  1.5100
 6590SOL    HW231404   1.159   3.664  10.326  0.1946  1.1759 -0.0175
 6591SOL     OW31405   1.489   2.620  12.625  0.0590 -0.0904 -0.1042
 6591SOL    HW131406   1.413   2.669  12.655 -0.4394 -0.3023 -1.0104
 6591SOL    HW231407   1.561   2.676  12.654  0.6104 -1.0529  0.4058
 6592SOL     OW31408   3.060   2.433   9.304 -0.0825  0.1698 -0.5086
 6592SOL    HW131409   3.032   2.510   9.254 -0.9352 -0.6422 -1.2990
 6592SOL    HW231410   2.987   2.373   9.289 -2.6313  3.5373 -1.7102
 6593SOL     OW31411   1.651   4.014   6.254  0.2710  0.5797  0.5275
 6593SOL    HW131412   1.626   3.933   6.297  1.3530 -0.5577 -0.9768
 6593SOL    HW231413   1.722   4.040   6.314 -0.5464  0.4796  1.5342
 6594SOL     OW31414   2.738   2.860   3.836 -0.1074  0.3302  0.3522
 6594SOL    HW131415   2.752   2.804   3.912 -1.5366  1.3488  1.3676
 6594SOL    HW231416   2.733   2.944   3.880  2.3984  0.2581  0.7451
 6595SOL     OW31417   3.634   2.109   4.540  0.2356 -0.4001 -0.8440
 6595SOL    HW131418   3.608   2.025   4.578  1.9127  0.0783  1.3219
 6595SOL    HW231419   3.723   2.091   4.509 -0.3036  1.0656 -3.2419
 6596SOL     OW31420   3.991   1.965   3.393  0.3926 -0.0287 -0.1386
 6596SOL    HW131421   3.991   2.053   3.432 -1.0158 -0.6582  1.2780
 6596SOL    HW231422   4.065   1.961   3.333 -0.7710 -1.0702 -1.4923
 6597SOL     OW31423   1.689   2.708   3.389 -0.3265 -0.0608 -0.5598
 6597SOL    HW131424   1.781   2.688   3.407  0.1463 -0.0768 -3.0076
 6597SOL    HW231425   1.683   2.794   3.428  1.5377  2.1023 -4.9689
 6598SOL     OW31426   2.965   1.128   4.687  0.6610  0.0737  0.1663
 6598SOL    HW131427   2.925   1.188   4.750  0.2332  1.3889 -1.3489
 6598SOL    HW231428   3.049   1.174   4.684  0.6345 -0.0394 -1.8429
 6599SOL     OW31429   0.452   2.867   2.189 -0.3012 -0.8019 -0.0563
 6599SOL    HW131430   0.538   2.858   2.148  0.1046  0.6515  0.4642
 6599SOL    HW231431   0.402   2.802   2.139 -0.1163 -0.2343 -0.9860
 6600SOL     OW31432   3.794   1.775   7.996 -0.1169  0.0996  0.3631
 6600SOL    HW131433   3.863   1.842   8.001  1.1428 -0.9210 -2.8581
 6600SOL    HW231434   3.831   1.730   7.920  0.4069  0.5690  0.3334
 6601SOL     OW31435   4.200   1.236  14.708 -0.1338  0.2257  0.3913
 6601SOL    HW131436   4.156   1.165  14.754 -0.0232  1.6249  2.6271
 6601SOL    HW231437   4.146   1.242  14.629 -0.8108  0.3469  0.8666
 6602SOL     OW31438   3.864   0.207   0.820  0.5702  0.1231 -0.0908
 6602SOL    HW131439   3.905   0.293   0.827 -0.2925  0.6650 -1.8136
 6602SOL    HW231440   3.907   0.178   0.740  1.0814  0.0369  0.2123
 6603SOL     OW31441   2.969   3.546   3.322  0.0768  0.9415  0.0095
 6603SOL    HW131442   2.979   3.593   3.405 -0.9060  3.6069 -1.3492
 6603SOL    HW231443   2.979   3.455   3.348  1.7969  1.7028  2.0234
 6604SOL     OW31444   3.041   3.623  17.480 -0.5322 -0.7623 -0.6510
 6604SOL    HW131445   3.060   3.625  17.387  1.5417 -0.0283 -0.2232
 6604SOL    HW231446   2.950   3.651  17.482 -0.5105 -0.7783  0.7778
 6605SOL     OW31447   0.894   3.524   7.881 -0.2850  0.2741  0.0816
 6605SOL    HW131448   0.847   3.599   7.846  0.0710  0.1724 -0.6088
 6605SOL    HW231449   0.876   3.528   7.975 -0.8127  2.1463 -0.0930
 6606SOL     OW31450   1.131   0.793   8.263  0.4643  0.0378 -0.4604
 6606SOL    HW131451   1.041   0.800   8.296  0.7021 -1.5689  0.5409
 6606SOL    HW231452   1.161   0.884   8.261 -1.4053  0.7317  2.6894
 6607SOL     OW31453   2.529   1.264   8.976  1.0826  0.0434  0.0806
 6607SOL    HW131454   2.573   1.208   8.912 -1.2729 -1.6761 -0.0249
 6607SOL    HW231455   2.439   1.238   8.956  1.0283  1.7614 -1.8916
 6608SOL     OW31456   3.186   1.525   7.089  0.1078  0.2733 -0.0826
 6608SOL    HW131457   3.097   1.510   7.121  0.5306 -1.7299  0.1819
 6608SOL    HW231458   3.238   1.502   7.167 -0.6784 -0.5936  0.1819
 6609SOL     OW31459   2.435   0.173   2.417 -0.2135  0.1393 -0.4375
 6609SOL    HW131460   2.359   0.191   2.473  0.4520  0.5290  0.3420
 6609SOL    HW231461   2.403   0.199   2.331 -3.7285 -1.6855  0.2870
 6610SOL     OW31462   0.221   2.303   4.462  0.5581 -0.1924  0.0129
 6610SOL    HW131463   0.179   2.220   4.441 -1.4735  0.9997 -0.7138
 6610SOL    HW231464   0.203   2.354   4.383  0.0075 -0.4892 -0.0521
 6611SOL     OW31465   0.658   3.198   2.162 -0.2436 -0.1916 -0.5158
 6611SOL    HW131466   0.564   3.181   2.159 -0.4613  0.8691  0.1988
 6611SOL    HW231467   0.681   3.180   2.253  1.0558 -1.1827 -1.0520
 6612SOL     OW31468   0.040   3.595   2.201 -0.5474  0.0004  0.1241
 6612SOL    HW131469   0.065   3.672   2.252  1.6910  0.6100 -1.8900
 6612SOL    HW231470   0.061   3.533   2.270 -1.5083 -0.5777 -0.1030
 6613SOL     OW31471   2.204   0.088   7.111 -0.3846  0.1551 -0.0728
 6613SOL    HW131472   2.121   0.126   7.140  0.2446 -0.2699  2.2475
 6613SOL    HW231473   2.259   0.078   7.189  0.6966  3.7614 -0.3749
 6614SOL     OW31474   3.353   1.547  10.676  0.5737  0.0746 -0.1567
 6614SOL    HW131475   3.289   1.565  10.608 -0.1963 -0.5699  0.3902
 6614SOL    HW231476   3.424   1.599  10.638 -0.0329 -0.0626 -1.4631
 6615SOL     OW31477   4.201   3.582   5.589  0.2038  0.3088 -0.0589
 6615SOL    HW131478   4.170   3.506   5.541  1.8870 -1.0435  1.0205
 6615SOL    HW231479   4.239   3.631   5.516  1.9713  1.6353  1.7572
 6616SOL     OW31480   0.186   0.670   0.842  0.0056  0.1789 -0.0987
 6616SOL    HW131481   0.104   0.704   0.878 -0.0127 -1.5781  1.4511
 6616SOL    HW231482   0.231   0.755   0.836 -0.7211  0.7623  2.8719
 6617SOL     OW31483   4.326   3.489   7.064  0.0338 -0.1400  0.0175
 6617SOL    HW131484   4.369   3.403   7.066  0.2363 -0.0396 -0.0787
 6617SOL    HW231485   4.268   3.482   6.988 -1.5500  1.7639  1.0747
 6618SOL     OW31486   3.928   0.874  13.296 -0.3484 -0.1424  0.2702
 6618SOL    HW131487   3.854   0.927  13.327 -1.3243  0.2807 -2.7457
 6618SOL    HW231488   3.981   0.866  13.375  1.2914 -2.4181 -1.0771
 6619SOL     OW31489   0.422   1.841   0.485 -0.1032 -0.2601  0.0059
 6619SOL    HW131490   0.504   1.798   0.457 -0.5468 -0.9717 -0.2118
 6619SOL    HW231491   0.457   1.910   0.541 -0.9567 -1.7735  2.4217
 6620SOL     OW31492   2.500   0.479   2.506 -0.0691 -0.3481  0.2691
 6620SOL    HW131493   2.591   0.509   2.511  0.5097 -2.1546  0.4951
 6620SOL    HW231494   2.499   0.429   2.425  0.9512 -0.5448  0.3766
 6621SOL     OW31495   1.133   0.311   2.716  0.2644  0.0569 -0.1289
 6621SOL    HW131496   1.138   0.316   2.811 -4.7502  0.4670  0.1062
 6621SOL    HW231497   1.213   0.262   2.700 -0.8342 -2.1288  1.0525
 6622SOL     OW31498   2.135   2.029   9.776 -0.4183  0.1431 -0.5642
 6622SOL    HW131499   2.092   1.950   9.742 -2.7868  0.9588  0.4721
 6622SOL    HW231500   2.228   2.019   9.757 -0.4131 -4.6251  1.8447
 6623SOL     OW31501   2.023   4.022   1.618  0.3299 -0.0479 -0.1588
 6623SOL    HW131502   2.095   4.009   1.556 -0.2337 -1.3485 -0.5309
 6623SOL    HW231503   2.050   3.967   1.692  2.5928  0.4056 -0.6371
 6624SOL     OW31504   3.580   0.412  17.554 -0.0413 -0.2518  0.4783
 6624SOL    HW131505   3.577   0.411  17.459  2.3599  1.3101  0.3751
 6624SOL    HW231506   3.600   0.319  17.563 -1.2191 -0.6640 -1.3045
 6625SOL     OW31507   1.273   2.497  17.546 -0.2974 -0.0883  0.1785
 6625SOL    HW131508   1.315   2.520  17.630 -0.1830 -0.9973  0.3737
 6625SOL    HW231509   1.228   2.420  17.580 -0.5318  0.6344  1.5086
 6626SOL     OW31510   3.285   4.190   6.700  0.3312 -0.4574 -0.3432
 6626SOL    HW131511   3.281   4.274   6.745 -0.8764 -0.8838  0.3494
 6626SOL    HW231512   3.372   4.190   6.660 -0.0862  0.5615 -1.2494
 6627SOL     OW31513   2.687   1.409   3.983 -0.2615  0.1588 -0.0755
 6627SOL    HW131514   2.717   1.319   3.999  0.6643  0.5178  0.1965
 6627SOL    HW231515   2.605   1.408   4.032  1.0817  0.2172  2.2045
 6628SOL     OW31516   2.879   4.609   4.214 -0.2424  0.1343 -0.2292
 6628SOL    HW131517   2.943   4.652   4.271  0.3074 -1.1883  0.1513
 6628SOL    HW231518   2.799   4.633   4.261 -0.2875 -0.8473  0.2035
 6629SOL     OW31519   2.555   3.224  17.276 -0.3710  0.4210 -0.3320
 6629SOL    HW131520   2.485   3.164  17.253 -0.7951  0.0232  1.9895
 6629SOL    HW231521   2.516   3.310  17.263  0.0641  0.1701 -3.3258
 6630SOL     OW31522   3.294   0.905   8.586  0.1975 -0.6724  0.0463
 6630SOL    HW131523   3.320   0.841   8.653 -0.8528 -1.1673 -0.0225
 6630SOL    HW231524   3.303   0.987   8.635 -0.3080  0.3329 -1.5364
 6631SOL     OW31525   1.832   3.944  13.092  0.3585  0.3327  0.1817
 6631SOL    HW131526   1.770   3.875  13.070 -0.1241  1.3510 -1.6604
 6631SOL    HW231527   1.854   3.923  13.183 -0.9204  1.9335  0.8470
 6632SOL     OW31528   2.672   2.281  10.442 -0.4054  0.2275 -0.6777
 6632SOL    HW131529   2.746   2.339  10.421  1.0300 -0.5197  2.2828
 6632SOL    HW231530   2.681   2.268  10.536 -0.5003  1.5713 -0.4769
 6633SOL     OW31531   4.698   3.038   5.242 -0.0359 -0.2370 -0.3965
 6633SOL    HW131532   4.626   3.024   5.180 -1.3569 -0.4433  1.1997
 6633SOL    HW231533   4.645   3.057   5.319 -0.6610 -1.1181 -0.6062
 6634SOL     OW31534   3.628   0.927   1.666  0.0698  0.5594 -0.4453
 6634SOL    HW131535   3.599   0.972   1.587  0.5166 -0.4637 -1.1854
 6634SOL    HW231536   3.555   0.955   1.721  0.0369 -0.4259  0.0036
 6635SOL     OW31537   4.347   1.778   2.434 -0.1088 -0.4245  0.1763
 6635SOL    HW131538   4.440   1.771   2.455  0.5875  1.8234 -2.2865
 6635SOL    HW231539   4.311   1.733   2.511 -1.1947 -0.5350 -0.4025
 6636SOL     OW31540   2.734   1.962   1.663 -0.1313 -0.2998 -0.0166
 6636SOL    HW131541   2.691   1.892   1.613  0.9076 -0.1069 -1.1877
 6636SOL    HW231542   2.821   1.925   1.653  1.0654  2.4625  0.2090
 6637SOL     OW31543   3.848   1.899  12.093 -0.5570 -0.2337  0.3965
 6637SOL    HW131544   3.783   1.837  12.127  0.4279 -1.0340  0.8254
 6637SOL    HW231545   3.846   1.966  12.161 -0.5974 -1.7166  1.8657
 6638SOL     OW31546   4.417   2.111   1.956 -0.1720  0.2229 -0.0336
 6638SOL    HW131547   4.363   2.105   2.034  1.2529 -1.1405  0.8343
 6638SOL    HW231548   4.404   2.019   1.932  1.5056 -0.3983  1.4642
 6639SOL     OW31549   2.166   1.307   5.388  0.1598  0.2297 -0.0273
 6639SOL    HW131550   2.187   1.252   5.464 -2.1627  1.2823  1.3806
 6639SOL    HW231551   2.072   1.288   5.383  0.3336  0.0250 -2.5914
 6640SOL     OW31552   1.903   1.334   2.989 -0.1769 -0.0199  0.4098
 6640SOL    HW131553   1.934   1.400   3.051  0.9166  1.0483 -1.2888
 6640SOL    HW231554   1.831   1.301   3.043 -0.9719  0.7085 -0.2012
 6641SOL     OW31555   4.710   2.619  11.064  0.2774 -0.4929  0.6118
 6641SOL    HW131556   4.728   2.640  10.973 -2.0953 -3.8622 -0.6588
 6641SOL    HW231557   4.636   2.678  11.077  0.3320  0.0808 -1.6958
 6642SOL     OW31558   3.716   3.335   3.113  0.0675  0.3041  0.3004
 6642SOL    HW131559   3.787   3.344   3.176 -1.1791  0.0052  1.7343
 6642SOL    HW231560   3.663   3.406   3.148  0.6992  2.2212 -2.6270
 6643SOL     OW31561   1.719   2.669  16.963 -0.3074  0.7352  0.2919
 6643SOL    HW131562   1.679   2.605  17.022 -3.2646  0.2658 -2.2890
 6643SOL    HW231563   1.753   2.607  16.898 -1.9371 -0.5511  0.6761
 6644SOL     OW31564   1.123   4.186  14.012  0.0945 -0.0629  0.3745
 6644SOL    HW131565   1.036   4.189  13.971  0.3589  1.2406 -0.0970
 6644SOL    HW231566   1.126   4.137  14.095 -0.1712 -0.4096  0.1809
 6645SOL     OW31567   0.441   4.415  17.055 -0.2032  0.4433 -0.3758
 6645SOL    HW131568   0.385   4.493  17.063  2.0441  1.9162  0.9127
 6645SOL    HW231569   0.528   4.447  17.079 -0.4768  2.1936 -1.6282
 6646SOL     OW31570   0.587   4.616  13.126  0.7443 -0.1342  0.0692
 6646SOL    HW131571   0.653   4.681  13.102 -0.0294  1.3116  1.8275
 6646SOL    HW231572   0.508   4.658  13.092  1.9686  0.2244 -2.3372
 6647SOL     OW31573   3.380   4.385   3.055 -0.4379 -0.1766  0.2176
 6647SOL    HW131574   3.433   4.319   3.010  1.2707 -0.7672  3.1176
 6647SOL    HW231575   3.388   4.366   3.149  0.1981  2.3957  0.6707
 6648SOL     OW31576   2.657   0.284   5.475  0.6568  0.3153 -0.2312
 6648SOL    HW131577   2.633   0.349   5.540 -1.3093  0.6462 -1.2759
 6648SOL    HW231578   2.644   0.201   5.521 -1.8193 -0.3253 -2.0728
 6649SOL     OW31579   3.508   2.733   9.157  0.4185 -0.7503 -0.0975
 6649SOL    HW131580   3.499   2.723   9.063  1.2789 -2.4538 -0.0002
 6649SOL    HW231581   3.474   2.646   9.180 -1.8936  0.0071 -0.7057
 6650SOL     OW31582   4.217   0.891   7.707 -0.2757 -0.2808 -0.3621
 6650SOL    HW131583   4.270   0.914   7.631 -1.4347  3.2198 -0.0857
 6650SOL    HW231584   4.136   0.878   7.658 -1.7213  0.8963  1.6991
 6651SOL     OW31585   4.634   3.170   6.890 -0.1135 -0.1905  0.2452
 6651SOL    HW131586   4.602   3.228   6.959  1.2566  1.0829 -0.1903
 6651SOL    HW231587   4.680   3.099   6.934  0.8571  0.8288  0.8509
 6652SOL     OW31588   4.448   2.943   8.430  0.4803  0.2770 -0.1188
 6652SOL    HW131589   4.513   2.886   8.471 -0.9519 -1.8611 -0.7814
 6652SOL    HW231590   4.495   3.026   8.438  0.8893 -0.1833  2.2542
 6653SOL     OW31591   3.192   1.497   2.926 -0.0349 -0.1521  0.2126
 6653SOL    HW131592   3.266   1.501   2.866  1.5191 -2.2068  1.9917
 6653SOL    HW231593   3.184   1.589   2.951  1.7029  0.4052 -1.3718
 6654SOL     OW31594   1.908   0.584   4.378 -0.5479  0.8451 -0.3647
 6654SOL    HW131595   1.967   0.586   4.303 -1.4731  1.4576 -1.0830
 6654SOL    HW231596   1.891   0.490   4.379  0.2111  0.7199  1.3430
 6655SOL     OW31597   4.343   3.497   4.790 -0.2809  0.2237  0.4773
 6655SOL    HW131598   4.416   3.436   4.784 -1.0324 -0.5676 -0.5708
 6655SOL    HW231599   4.294   3.483   4.709 -1.0227  1.3484  0.7354
 6656SOL     OW31600   0.852   2.593   9.367  0.0445  0.4824  0.2012
 6656SOL    HW131601   0.863   2.499   9.350  1.7266  0.6943  0.1926
 6656SOL    HW231602   0.758   2.608   9.350  0.3326  4.5741  2.1678
 6657SOL     OW31603   3.467   1.955  11.238 -0.2783 -0.1580  0.3652
 6657SOL    HW131604   3.464   1.962  11.143  2.1415 -1.5742  0.1873
 6657SOL    HW231605   3.403   1.884  11.232  0.3961 -0.7555  0.3242
 6658SOL     OW31606   3.254   1.169   3.043 -0.3017  0.0237  0.0955
 6658SOL    HW131607   3.241   1.103   3.110  0.5731 -1.1567 -0.8967
 6658SOL    HW231608   3.293   1.117   2.973 -0.5330 -1.4701  1.0764
 6659SOL     OW31609   0.473   0.200   0.411  0.3614  0.1216 -0.1281
 6659SOL    HW131610   0.421   0.281   0.412 -0.1143 -0.1725 -1.0947
 6659SOL    HW231611   0.516   0.212   0.496 -1.5698  0.8049  0.7724
 6660SOL     OW31612   0.332   0.413  13.936  0.4048  0.2685  0.3829
 6660SOL    HW131613   0.354   0.503  13.913  0.1689  0.1364 -0.3489
 6660SOL    HW231614   0.403   0.395  13.998 -1.2477 -1.9145  1.6457
 6661SOL     OW31615   0.338   3.086   7.120 -0.1701 -0.8275  0.6552
 6661SOL    HW131616   0.276   3.153   7.089 -0.6125 -0.7503  1.7186
 6661SOL    HW231617   0.381   3.135   7.190  0.0778  1.2273 -0.9181
 6662SOL     OW31618   3.539   4.587   6.618 -0.4121  0.0670  0.3088
 6662SOL    HW131619   3.516   4.494   6.612  2.6698 -0.5659 -1.5517
 6662SOL    HW231620   3.621   4.565   6.575  1.2199  2.8931  2.0047
 6663SOL     OW31621   0.476   1.831   0.125 -0.5711  0.0954 -0.5961
 6663SOL    HW131622   0.455   1.758   0.183 -1.7517  2.5313  2.0379
 6663SOL    HW231623   0.387   1.866   0.116 -0.0498  1.9128  1.1343
 6664SOL     OW31624   4.731   1.611   5.422 -0.4231  0.1788 -0.4321
 6664SOL    HW131625   0.001   1.517   5.411 -0.2152  0.2157 -0.6155
 6664SOL    HW231626   0.061   1.636   5.358  0.4287  0.6600  0.6467
 6665SOL     OW31627   4.194   4.443   7.282 -0.2103  0.4247 -0.2019
 6665SOL    HW131628   4.235   4.526   7.256  1.8320 -0.7863 -0.9136
 6665SOL    HW231629   4.228   4.436   7.371  2.3917  1.1742 -1.1301
 6666SOL     OW31630   2.662   2.288   4.446  0.1350  0.3584  0.1070
 6666SOL    HW131631   2.595   2.341   4.402  0.6877  0.4082 -0.6900
 6666SOL    HW231632   2.678   2.346   4.520  2.1760 -1.2870  0.9676
 6667SOL     OW31633   2.502   4.166   4.856  0.9271 -0.3848  0.2441
 6667SOL    HW131634   2.470   4.224   4.925  1.6491  1.8267 -1.2932
 6667SOL    HW231635   2.442   4.187   4.785  2.5142 -1.7120 -1.4715
 6668SOL     OW31636   3.341   0.247   7.265  0.3087 -0.4397  0.3813
 6668SOL    HW131637   3.250   0.262   7.288  0.1961 -0.8125  0.1831
 6668SOL    HW231638   3.325   0.165   7.218  1.2224 -0.3043 -0.1793
 6669SOL     OW31639   1.433   1.205  10.128  0.2610 -0.2405  0.3672
 6669SOL    HW131640   1.351   1.253  10.113  2.0901  2.5823 -0.5067
 6669SOL    HW231641   1.416   1.166  10.214  0.9779 -0.8735  0.2240
 6670SOL     OW31642   4.465   1.632   2.033  0.2740  0.1310  0.3661
 6670SOL    HW131643   4.537   1.654   2.092  0.2097  3.1884 -0.6731
 6670SOL    HW231644   4.511   1.590   1.961  0.6124  0.3661  0.4458
 6671SOL     OW31645   3.258   4.017   4.449  0.3618 -0.1822 -0.1549
 6671SOL    HW131646   3.200   4.082   4.411 -0.0316 -0.7047 -0.4555
 6671SOL    HW231647   3.196   3.974   4.508 -1.3488 -0.7273 -2.3141
 6672SOL     OW31648   0.143   1.057   1.886 -0.3768 -0.3523 -0.0650
 6672SOL    HW131649   0.138   1.152   1.877  0.4334 -0.3192 -0.1855
 6672SOL    HW231650   0.126   1.024   1.797 -0.4200 -1.7555  0.4588
 6673SOL     OW31651   2.908   4.555   5.249  0.0059 -0.2250  0.7845
 6673SOL    HW131652   2.834   4.601   5.288  0.1999 -1.8875  3.0715
 6673SOL    HW231653   2.896   4.478   5.304 -0.0204 -0.1488  0.8848
 6674SOL     OW31654   4.438   2.183   8.133 -0.0255  0.5083  0.0351
 6674SOL    HW131655   4.494   2.118   8.175 -2.3535  0.1901  2.6110
 6674SOL    HW231656   4.480   2.183   8.047 -0.8742  1.4241 -0.3790
 6675SOL     OW31657   3.766   1.932   5.896 -0.3064  0.4954  0.0820
 6675SOL    HW131658   3.831   1.993   5.930 -0.2925  1.7243 -2.1717
 6675SOL    HW231659   3.695   1.983   5.858 -1.4873 -0.9220  0.4046
 6676SOL     OW31660   1.931   2.249   7.390  0.0978 -0.0184  0.2294
 6676SOL    HW131661   1.972   2.221   7.308 -2.1402 -0.3118 -0.7904
 6676SOL    HW231662   1.887   2.171   7.424 -0.5156  0.2938  0.1405
 6677SOL     OW31663   4.323   0.910  13.629  0.3930  0.3294  0.1961
 6677SOL    HW131664   4.408   0.945  13.604  0.1489 -0.1681 -1.3265
 6677SOL    HW231665   4.283   0.985  13.673 -0.7030 -0.6294  0.8096
 6678SOL     OW31666   0.558   2.748   8.742  0.5930 -0.4560 -0.6438
 6678SOL    HW131667   0.577   2.690   8.669  0.8152 -0.3020 -0.7072
 6678SOL    HW231668   0.557   2.688   8.816  0.3682  0.4264  0.0718
 6679SOL     OW31669   4.624   4.183   9.677  0.3733 -0.4065  0.0925
 6679SOL    HW131670   4.629   4.149   9.766  2.9348  0.0129  0.1003
 6679SOL    HW231671   4.642   4.100   9.634  0.1273 -0.4135  0.0015
 6680SOL     OW31672   3.811   0.411   3.527  0.3775  0.2055  0.3468
 6680SOL    HW131673   3.862   0.383   3.603  0.2186 -2.3768 -0.5134
 6680SOL    HW231674   3.825   0.506   3.528 -1.2924  0.4719 -1.6960
 6681SOL     OW31675   2.016   3.477   2.200 -0.5012 -0.1679  0.1864
 6681SOL    HW131676   2.100   3.517   2.176 -0.1536 -0.5528  0.7531
 6681SOL    HW231677   2.005   3.534   2.276 -0.4476  0.6242 -0.4020
 6682SOL     OW31678   3.053   4.107  12.289  0.0087 -0.0769  0.0920
 6682SOL    HW131679   3.134   4.159  12.288 -0.1323  0.0823 -2.1921
 6682SOL    HW231680   3.056   4.068  12.376 -0.9697  1.0063  0.6193
 6683SOL     OW31681   3.640   0.493   0.658 -1.1170 -0.3128  0.3736
 6683SOL    HW131682   3.642   0.558   0.587  3.0181 -0.8073  0.0553
 6683SOL    HW231683   3.728   0.456   0.647 -0.7568  0.9808 -1.2141
 6684SOL     OW31684   0.579   3.119   3.827 -0.0846  0.4376  0.1758
 6684SOL    HW131685   0.543   3.055   3.765  3.6600 -0.2991 -1.2438
 6684SOL    HW231686   0.664   3.081   3.848  0.7849  1.6382 -1.1927
 6685SOL     OW31687   0.705   0.309  16.301 -0.7929  0.8792 -0.3630
 6685SOL    HW131688   0.735   0.396  16.330 -2.7587  1.7950 -1.0810
 6685SOL    HW231689   0.761   0.298  16.224  0.0416 -1.6369  0.5903
 6686SOL     OW31690   3.057   0.809   6.668 -0.3280 -0.8244 -0.5240
 6686SOL    HW131691   3.044   0.838   6.578 -0.0172 -1.0464 -0.6406
 6686SOL    HW231692   3.073   0.715   6.655  2.1262 -0.8266  2.5558
 6687SOL     OW31693   1.408   3.572  14.656 -0.1761 -0.2727 -0.2596
 6687SOL    HW131694   1.501   3.562  14.677 -0.4504 -1.1177  0.5574
 6687SOL    HW231695   1.388   3.480  14.638  0.8605 -0.0643 -2.6132
 6688SOL     OW31696   3.983   1.355   3.889 -0.0063  0.2563 -0.2820
 6688SOL    HW131697   4.040   1.422   3.851 -1.3992  2.5758  1.6343
 6688SOL    HW231698   3.997   1.285   3.826  0.8778  0.8045 -0.7002
 6689SOL     OW31699   4.627   1.616   2.950 -0.2459 -0.0117  0.2265
 6689SOL    HW131700   4.678   1.536   2.959 -1.9675 -0.7511  3.3718
 6689SOL    HW231701   4.670   1.660   2.877 -0.9710 -1.0050 -0.7948
 6690SOL     OW31702   3.251   0.703   5.351  0.0494  0.2212 -0.6110
 6690SOL    HW131703   3.250   0.630   5.290 -1.0324 -0.5048  0.2609
 6690SOL    HW231704   3.319   0.680   5.414 -1.8680 -1.8391  0.7282
 6691SOL     OW31705   2.435   4.472   8.851 -0.1617  0.6744  0.0857
 6691SOL    HW131706   2.448   4.486   8.757 -1.3570  0.5201 -0.1057
 6691SOL    HW231707   2.523   4.489   8.885 -0.2818  1.1913  0.1412
 6692SOL     OW31708   1.456   4.291   2.890 -0.1548  0.3372  0.6413
 6692SOL    HW131709   1.362   4.299   2.875 -0.1580  0.3611  0.6741
 6692SOL    HW231710   1.471   4.216   2.833 -1.7988 -0.3434  1.0969
 6693SOL     OW31711   2.352   3.325  10.476 -0.0569 -0.1217  0.2887
 6693SOL    HW131712   2.439   3.363  10.465  0.6213 -1.7872 -0.0224
 6693SOL    HW231713   2.312   3.360  10.397  0.3978  0.6406  0.3949
 6694SOL     OW31714   3.691   0.794   6.209  0.4051 -0.1024  0.7359
 6694SOL    HW131715   3.635   0.730   6.165 -1.5623  0.7994  1.9239
 6694SOL    HW231716   3.773   0.753   6.183  0.0654 -1.7273  2.2653
 6695SOL     OW31717   2.156   4.696   0.233  0.3313  0.8404  0.0536
 6695SOL    HW131718   2.202   4.646   0.301  0.0727 -0.1057 -0.4555
 6695SOL    HW231719   2.086   0.009   0.273  2.3518  0.3244  4.2660
 6696SOL     OW31720   0.119   1.041   4.217  0.6721 -0.5815  0.3239
 6696SOL    HW131721   0.024   1.053   4.224  0.7646  1.0367 -1.2577
 6696SOL    HW231722   0.119   1.072   4.127  1.0800  0.2406  0.6098
 6697SOL     OW31723   2.249   2.153  13.935 -0.9925 -0.4370 -0.1936
 6697SOL    HW131724   2.169   2.193  13.900  0.2003  3.5719  1.5622
 6697SOL    HW231725   2.303   2.230  13.956  0.9610 -0.8608 -3.7689
 6698SOL     OW31726   1.997   2.581   7.141 -0.2593 -0.5446  0.3712
 6698SOL    HW131727   2.069   2.527   7.174  0.2399  1.5219  2.6624
 6698SOL    HW231728   2.023   2.593   7.050  1.4990  0.6682  1.0477
 6699SOL     OW31729   4.446   2.997   3.358  1.0074  0.5133  0.2368
 6699SOL    HW131730   4.482   2.990   3.270  0.1548  1.7160 -0.2032
 6699SOL    HW231731   4.464   3.091   3.368  0.5310  0.5966  0.2892
 6700SOL     OW31732   4.633   0.370   3.898 -0.1247 -0.4970 -0.1334
 6700SOL    HW131733   4.565   0.333   3.954 -1.7663  0.1485 -1.7044
 6700SOL    HW231734   4.602   0.461   3.903  2.1660  0.3563 -1.4896
 6701SOL     OW31735   2.028   2.992   2.672  0.2968 -0.0258  0.4414
 6701SOL    HW131736   2.108   2.952   2.638 -0.3755  0.3124 -1.5760
 6701SOL    HW231737   2.053   3.015   2.761 -0.7775  1.0005  0.4781
 6702SOL     OW31738   4.564   1.056   8.324 -0.2058 -0.7741 -0.2467
 6702SOL    HW131739   4.575   1.092   8.412 -0.9891 -1.0962 -0.0122
 6702SOL    HW231740   4.478   1.014   8.321 -0.0432 -1.1286  0.0130
 6703SOL     OW31741   0.594   3.022   5.522  0.6485  0.0047 -0.0451
 6703SOL    HW131742   0.503   3.045   5.503  0.7325  1.2658  1.1095
 6703SOL    HW231743   0.616   3.078   5.596 -3.0992 -1.3177  2.0198
 6704SOL     OW31744   3.842   2.256   9.119 -0.3273 -0.1110  0.2874
 6704SOL    HW131745   3.886   2.196   9.179 -2.2324 -1.1663  0.6523
 6704SOL    HW231746   3.916   2.311   9.094 -0.2605  0.8721  2.6135
 6705SOL     OW31747   4.214   3.231   2.166 -0.0467  0.5275 -1.2495
 6705SOL    HW131748   4.273   3.189   2.104  1.6758  1.2528 -0.1003
 6705SOL    HW231749   4.271   3.231   2.242 -0.9126 -0.9788 -0.6037
 6706SOL     OW31750   3.647   2.196  15.134 -0.3454  0.1338 -0.8623
 6706SOL    HW131751   3.560   2.157  15.123 -0.7702  0.9332 -0.3267
 6706SOL    HW231752   3.647   2.280  15.088 -1.6238  1.0048  0.7375
 6707SOL     OW31753   0.741   4.074  13.464  1.2763 -0.4177 -0.1715
 6707SOL    HW131754   0.823   4.026  13.465  0.5066 -1.6791  1.5226
 6707SOL    HW231755   0.761   4.144  13.402 -1.7619 -0.7586 -1.5060
 6708SOL     OW31756   2.411   0.260  11.908  0.1636  0.7025  0.0280
 6708SOL    HW131757   2.502   0.230  11.903  0.2568  1.0948 -0.6350
 6708SOL    HW231758   2.425   0.324  11.838 -1.8647  1.3561  0.2232
 6709SOL     OW31759   1.410   2.350   7.174  0.6544 -0.1980 -0.4627
 6709SOL    HW131760   1.429   2.444   7.181 -0.6903  0.0399 -0.1801
 6709SOL    HW231761   1.498   2.313   7.181 -1.2840 -4.4574  1.2927
 6710SOL     OW31762   1.810   4.598   4.882  0.6150 -0.4522 -0.3318
 6710SOL    HW131763   1.722   4.620   4.850  1.6691 -0.0494 -2.9497
 6710SOL    HW231764   1.805   4.588   4.977  2.6503 -1.4405 -0.3281
 6711SOL     OW31765   1.614   2.067   2.437  0.0934  0.4074  0.6197
 6711SOL    HW131766   1.685   2.032   2.490 -0.0889  0.6605  1.0276
 6711SOL    HW231767   1.659   2.142   2.397  0.1444  1.0016  1.7854
 6712SOL     OW31768   0.352   2.479   6.109  0.1978 -0.0717  0.3315
 6712SOL    HW131769   0.287   2.517   6.050  1.4548  1.4633 -0.0638
 6712SOL    HW231770   0.434   2.526   6.095  0.9049 -1.3527  0.2069
 6713SOL     OW31771   1.703   4.359  11.597  0.5559 -0.0882 -0.1364
 6713SOL    HW131772   1.613   4.365  11.630  1.0834  2.6894  0.8075
 6713SOL    HW231773   1.689   4.333  11.506  0.7185  2.6960 -0.9464
 6714SOL     OW31774   2.985   2.341   5.639  1.0931 -0.1078  0.1879
 6714SOL    HW131775   2.907   2.307   5.684 -0.7531  1.5267 -1.7989
 6714SOL    HW231776   3.016   2.384   5.719  0.5579  2.3763 -0.9395
 6715SOL     OW31777   0.199   3.358  15.454 -0.3180  0.0992 -0.9174
 6715SOL    HW131778   0.226   3.273  15.420  0.9545  1.0736 -2.3419
 6715SOL    HW231779   0.238   3.413  15.386 -2.6589  2.5687 -0.2623
 6716SOL     OW31780   0.755   2.760   1.112 -0.1175  0.6173 -0.3103
 6716SOL    HW131781   0.844   2.744   1.143  0.3951  1.4595 -1.3582
 6716SOL    HW231782   0.715   2.799   1.189  2.9525 -1.3688  2.2714
 6717SOL     OW31783   4.387   4.094   4.191  0.1359 -0.4554  0.4560
 6717SOL    HW131784   4.331   4.053   4.124  1.1936  0.9986 -1.3207
 6717SOL    HW231785   4.317   4.138   4.241 -0.0445 -1.3350  0.9732
 6718SOL     OW31786   1.221   2.119   4.270  0.7900  0.1695 -0.2201
 6718SOL    HW131787   1.195   2.092   4.358 -1.0533  0.8118 -0.5770
 6718SOL    HW231788   1.316   2.129   4.278  0.9456 -0.3364 -1.3984
 6719SOL     OW31789   1.649   4.696   6.614 -0.1808 -0.0791 -0.1301
 6719SOL    HW131790   1.606   4.688   6.529  0.9332  0.5942 -0.7448
 6719SOL    HW231791   1.616   0.044   6.642 -0.5743 -0.7457  1.4414
 6720SOL     OW31792   0.324   4.554   8.410 -0.7664  0.3955 -0.2756
 6720SOL    HW131793   0.306   4.647   8.420 -2.5189  0.0163  0.0766
 6720SOL    HW231794   0.351   4.533   8.499  0.3606  2.1615 -0.2077
 6721SOL     OW31795   1.727   0.858   1.030  0.3290 -0.3132  0.5064
 6721SOL    HW131796   1.794   0.872   0.963  0.3312 -2.0547  0.1499
 6721SOL    HW231797   1.717   0.764   1.019 -1.7068 -0.2432  1.8322
 6722SOL     OW31798   2.199   4.574   3.548  0.1486 -0.1119  0.2985
 6722SOL    HW131799   2.146   4.551   3.472  3.9589 -0.5136 -2.1922
 6722SOL    HW231800   2.208   4.668   3.534 -2.4658  0.0186 -0.5223
 6723SOL     OW31801   2.140   3.607   1.517  0.2225  0.1420  0.1966
 6723SOL    HW131802   2.132   3.537   1.582 -2.4279  1.4394  1.2509
 6723SOL    HW231803   2.151   3.559   1.435 -1.8854  0.9182 -0.5217
 6724SOL     OW31804   1.374   1.407  17.100  0.6574  0.6134  0.4227
 6724SOL    HW131805   1.293   1.380  17.056  2.2242  0.2750 -2.2681
 6724SOL    HW231806   1.348   1.484  17.151 -1.2589 -1.0690  1.9889
 6725SOL     OW31807   1.527   0.679   9.023  0.6432  0.0070  0.5547
 6725SOL    HW131808   1.532   0.637   8.937 -1.0350  0.6338  0.1438
 6725SOL    HW231809   1.495   0.766   8.998  2.8213  1.2145  1.9947
 6726SOL     OW31810   1.421   0.046   2.941  0.1318  0.0024  0.3382
 6726SOL    HW131811   1.461   0.109   2.881  0.1334 -0.5899 -0.2877
 6726SOL    HW231812   1.380   0.104   3.004  1.2040  1.3612 -0.2300
 6727SOL     OW31813   0.337   0.277   8.546 -0.4978 -0.0584  0.0892
 6727SOL    HW131814   0.292   0.325   8.615  0.2906 -0.2663  0.7392
 6727SOL    HW231815   0.291   0.192   8.547 -0.4945 -0.0700 -0.5015
 6728SOL     OW31816   0.314   1.840  14.667  0.1573  0.6399 -0.1123
 6728SOL    HW131817   0.361   1.826  14.585 -1.5956  1.4691 -1.2463
 6728SOL    HW231818   0.342   1.764  14.719 -0.8958  0.5025  0.2602
 6729SOL     OW31819   1.725   0.877   9.257 -0.0789 -0.1515  0.3914
 6729SOL    HW131820   1.758   0.811   9.196 -0.0435 -0.4491  0.7338
 6729SOL    HW231821   1.753   0.956   9.209  0.5211 -0.1780  0.7045
 6730SOL     OW31822   0.880   2.649   4.470  0.3122 -1.1013  0.7963
 6730SOL    HW131823   0.812   2.628   4.406 -1.5926  2.2304  1.7253
 6730SOL    HW231824   0.910   2.561   4.495 -1.8853 -1.4372  2.3060
 6731SOL     OW31825   4.595   3.068  11.416  0.5115  0.0646 -0.1017
 6731SOL    HW131826   4.511   3.109  11.397  0.6154 -0.7319 -2.2579
 6731SOL    HW231827   4.590   2.993  11.357  1.9994  0.4059 -0.6623
 6732SOL     OW31828   4.718   1.946   6.238  0.2235 -0.1235 -0.7061
 6732SOL    HW131829   4.623   1.942   6.254  0.5793 -2.9217  0.6021
 6732SOL    HW231830   0.015   1.885   6.303  0.0165  0.2731 -0.2203
 6733SOL     OW31831   4.488   4.464   0.978  0.6580  0.2373  0.2177
 6733SOL    HW131832   4.526   4.426   1.058 -1.1283  0.2488  1.0532
 6733SOL    HW231833   4.402   4.473   1.019  0.0664  0.0706 -0.9900
 6734SOL     OW31834   0.835   0.703   4.593 -0.1111  0.3235  0.2338
 6734SOL    HW131835   0.910   0.680   4.538  0.0057 -0.2360  0.6304
 6734SOL    HW231836   0.766   0.707   4.526 -0.7277  2.0898  0.9657
 6735SOL     OW31837   4.182   1.969   5.837  0.1988 -0.4374 -0.3013
 6735SOL    HW131838   4.213   1.899   5.779  1.4284 -1.3936  1.5271
 6735SOL    HW231839   4.105   1.998   5.788 -0.0216 -0.7688 -0.1556
 6736SOL     OW31840   2.804   3.040   9.925  0.2705  0.0294 -0.8441
 6736SOL    HW131841   2.863   2.966   9.933  0.7545  0.5203  0.1053
 6736SOL    HW231842   2.811   3.056   9.831 -0.5107  1.4261 -0.6786
 6737SOL     OW31843   4.383   4.257  15.505  0.4241  0.4456 -0.1370
 6737SOL    HW131844   4.475   4.254  15.480 -0.1316 -2.1149 -1.9046
 6737SOL    HW231845   4.355   4.237  15.415  1.2416 -4.8588  0.8025
 6738SOL     OW31846   4.302   1.387   8.046 -0.0231 -0.4792  0.0756
 6738SOL    HW131847   4.234   1.442   8.008  3.0995  2.6610 -0.9564
 6738SOL    HW231848   4.250   1.323   8.095 -0.6414  1.0382  1.3780
 6739SOL     OW31849   0.394   1.509   5.916  0.1727  0.0652  0.1517
 6739SOL    HW131850   0.304   1.530   5.941  0.3082  2.7055 -1.6471
 6739SOL    HW231851   0.409   1.447   5.988  1.5973 -0.2085 -0.3854
 6740SOL     OW31852   2.113   0.922   5.571 -0.0978  0.3230 -0.8470
 6740SOL    HW131853   2.121   0.915   5.475  1.7195  0.1711 -0.6893
 6740SOL    HW231854   2.018   0.910   5.571 -0.0917  0.2674 -1.0438
 6741SOL     OW31855   0.106   2.779   5.838 -0.7116 -0.0559  0.2375
 6741SOL    HW131856   0.031   2.753   5.891 -0.4104  0.0785  0.7391
 6741SOL    HW231857   0.062   2.772   5.754 -1.9885  1.0415  0.8232
 6742SOL     OW31858   4.588   1.377   1.465  0.2584  0.2729 -0.8830
 6742SOL    HW131859   4.572   1.291   1.505  0.0119  2.0809  2.9174
 6742SOL    HW231860   4.667   1.403   1.512 -1.2154  1.0893  1.1248
 6743SOL     OW31861   1.788   4.109   9.954 -0.4375 -0.0560  0.4402
 6743SOL    HW131862   1.749   4.188   9.993  1.0521  0.8768  0.0264
 6743SOL    HW231863   1.867   4.091  10.006  0.1073 -1.1718 -0.7913
 6744SOL     OW31864   1.731   2.275   9.085  0.3146 -0.3098 -1.0825
 6744SOL    HW131865   1.766   2.317   9.006 -0.4517  0.8513 -0.8099
 6744SOL    HW231866   1.701   2.201   9.032 -1.8539 -0.3821  0.2156
 6745SOL     OW31867   3.624   0.372   9.917 -0.2029 -0.2172 -0.5269
 6745SOL    HW131868   3.598   0.326   9.838  0.9224  0.4905 -1.3029
 6745SOL    HW231869   3.567   0.449   9.910 -2.0743 -1.5604 -0.1867
 6746SOL     OW31870   4.266   3.846   6.984 -0.0004 -0.5471  0.1758
 6746SOL    HW131871   4.269   3.823   7.076  0.6516 -0.4313  0.1864
 6746SOL    HW231872   4.358   3.873   6.976  0.2255 -0.7315  2.2318
 6747SOL     OW31873   1.736   4.536   7.823 -0.3604  0.2386 -0.1113
 6747SOL    HW131874   1.684   4.604   7.866 -1.1742  0.5614 -1.5816
 6747SOL    HW231875   1.790   4.508   7.897 -1.1088  0.7907  0.6523
 6748SOL     OW31876   4.276   2.326   9.600 -0.0041  0.1550  0.3489
 6748SOL    HW131877   4.353   2.366   9.560 -1.4529  0.3067 -2.2651
 6748SOL    HW231878   4.223   2.330   9.520 -0.3670  0.2669  0.5920
 6749SOL     OW31879   2.360   2.719   5.271  0.1551 -0.6912 -0.6725
 6749SOL    HW131880   2.327   2.679   5.191 -2.5269  0.8647 -0.3771
 6749SOL    HW231881   2.326   2.648   5.326  2.2652 -0.9787  0.2467
 6750SOL     OW31882   1.146   2.856   5.631 -0.1640 -0.0495  0.1573
 6750SOL    HW131883   1.226   2.863   5.683 -1.6730 -1.1885  2.6318
 6750SOL    HW231884   1.090   2.929   5.656  1.6835  0.7556  2.0036
 6751SOL     OW31885   1.657   0.168   6.350 -0.1076 -0.1300 -0.2568
 6751SOL    HW131886   1.582   0.108   6.351 -0.4410  0.2625 -1.1485
 6751SOL    HW231887   1.618   0.247   6.311  0.6127 -0.1368 -0.9818
 6752SOL     OW31888   0.125   1.982   5.991 -0.2495  0.1533  0.3460
 6752SOL    HW131889   0.061   2.049   5.964 -0.7655 -0.6381 -0.4098
 6752SOL    HW231890   0.083   1.969   6.076 -0.6299  1.9476  0.4367
 6753SOL     OW31891   0.769   2.410   6.272  0.0119 -0.1052 -0.8056
 6753SOL    HW131892   0.819   2.459   6.207  2.4395 -3.3989 -1.4491
 6753SOL    HW231893   0.813   2.446   6.349 -1.1014 -0.4483 -0.0128
 6754SOL     OW31894   3.219   0.175   0.652  0.2002 -0.2512 -0.0207
 6754SOL    HW131895   3.205   0.149   0.743 -0.3133  0.8608  0.2201
 6754SOL    HW231896   3.128   0.180   0.621  0.6660 -0.1689 -1.3619
 6755SOL     OW31897   2.448   3.759   2.595  0.1451 -0.1192  0.3776
 6755SOL    HW131898   2.488   3.802   2.519 -0.9779  0.2406  0.0016
 6755SOL    HW231899   2.509   3.777   2.667 -1.9055  2.0396  1.5659
 6756SOL     OW31900   3.316   1.208   6.786 -0.7964 -0.0852  0.2787
 6756SOL    HW131901   3.406   1.235   6.772 -1.0130  1.2461  1.5713
 6756SOL    HW231902   3.331   1.117   6.811  0.5278 -0.5030 -2.0919
 6757SOL     OW31903   2.318   1.976   4.623 -0.4430  0.3317  0.2643
 6757SOL    HW131904   2.253   1.948   4.559  0.0947  2.2892 -1.1401
 6757SOL    HW231905   2.275   1.961   4.707 -0.3605 -0.6574  0.1268
 6758SOL     OW31906   2.285   4.337   1.053  0.5920  0.3842  0.0905
 6758SOL    HW131907   2.264   4.349   0.960  0.0493 -2.3571 -0.1270
 6758SOL    HW231908   2.237   4.256   1.066  1.0081  0.5481  2.6922
 6759SOL     OW31909   0.115   1.449   3.546  0.0660 -0.3674  0.1165
 6759SOL    HW131910   0.035   1.464   3.497  0.7569  1.4601 -0.4582
 6759SOL    HW231911   0.087   1.393   3.619 -0.3103  0.3067  0.4887
 6760SOL     OW31912   2.208   2.098   8.397  0.1583 -0.2417 -0.0300
 6760SOL    HW131913   2.233   2.039   8.468 -1.7191 -1.8353 -0.7176
 6760SOL    HW231914   2.280   2.091   8.334 -0.0549  0.4514 -0.3544
 6761SOL     OW31915   3.842   4.260   4.857 -0.4988 -0.0401  0.0571
 6761SOL    HW131916   3.798   4.333   4.901 -1.5675 -0.4826 -0.2711
 6761SOL    HW231917   3.790   4.258   4.777 -0.0707 -0.0909 -0.2171
 6762SOL     OW31918   4.731   1.340   2.019  0.0952 -0.1910  0.0043
 6762SOL    HW131919   4.694   1.379   1.940 -2.7287  1.0992  1.9656
 6762SOL    HW231920   0.010   1.411   2.081 -1.6971 -0.5432  0.8453
 6763SOL     OW31921   3.582   0.146   5.622 -0.3423  0.0480  0.3641
 6763SOL    HW131922   3.583   0.083   5.694  2.7437  0.3525  0.5904
 6763SOL    HW231923   3.571   0.082   5.553 -1.0705  0.0660  0.4630
 6764SOL     OW31924   2.418   1.053  13.210  0.4259 -0.0828  0.6399
 6764SOL    HW131925   2.422   1.115  13.283 -1.4220 -0.7563  1.2992
 6764SOL    HW231926   2.475   1.097  13.147  0.1611 -0.3102  0.2424
 6765SOL     OW31927   1.410   2.081   3.657  0.3345  0.6302 -0.2125
 6765SOL    HW131928   1.486   2.072   3.599  0.5487  0.7609  0.0475
 6765SOL    HW231929   1.345   2.115   3.595 -0.2165 -1.8123 -0.9575
 6766SOL     OW31930   2.598   0.284   6.815 -0.1176 -0.1109 -0.1943
 6766SOL    HW131931   2.515   0.243   6.789  0.0988  0.1946 -1.4012
 6766SOL    HW231932   2.576   0.298   6.907 -0.0085 -0.0183 -0.1823
 6767SOL     OW31933   1.768   2.346  15.457 -0.2264  0.0324  0.2226
 6767SOL    HW131934   1.796   2.392  15.378 -1.6750  0.2923 -0.1543
 6767SOL    HW231935   1.772   2.417  15.520  0.9535 -1.1687  1.4883
 6768SOL     OW31936   0.449   4.290  13.025 -0.2619 -0.2500  0.3433
 6768SOL    HW131937   0.357   4.271  13.045 -0.0118  0.9906  2.6529
 6768SOL    HW231938   0.474   4.209  13.070 -3.1440 -1.1965  0.2633
 6769SOL     OW31939   4.163   1.322   6.310  0.4584 -0.8616 -0.8860
 6769SOL    HW131940   4.254   1.294   6.319  0.9118  0.3136 -1.7182
 6769SOL    HW231941   4.155   1.370   6.227 -0.6407  0.5385  0.0246
 6770SOL     OW31942   3.908   2.115   2.410 -1.1683 -0.2886 -0.2469
 6770SOL    HW131943   3.902   2.021   2.424 -0.4967 -0.2288  0.4505
 6770SOL    HW231944   3.820   2.137   2.381 -1.1077  1.3448  0.8143
 6771SOL     OW31945   0.420   2.328   1.564  0.3287  0.2591 -0.7098
 6771SOL    HW131946   0.371   2.397   1.609 -0.3392  0.2134 -1.3767
 6771SOL    HW231947   0.482   2.368   1.504 -0.6042  1.3203 -0.9523
 6772SOL     OW31948   1.647   1.138   8.452 -0.4618 -0.2662 -0.6626
 6772SOL    HW131949   1.587   1.066   8.433  0.9509 -1.0247 -2.2957
 6772SOL    HW231950   1.680   1.149   8.362  1.6825 -1.5036 -0.0340
 6773SOL     OW31951   1.342   2.235   3.255  0.1078  0.2808  0.1455
 6773SOL    HW131952   1.335   2.328   3.235  0.1733  0.1522 -0.4789
 6773SOL    HW231953   1.319   2.201   3.169 -1.2394 -0.7932  0.9302
 6774SOL     OW31954   3.240   0.663   2.050  0.2678  0.5707 -0.3265
 6774SOL    HW131955   3.307   0.597   2.030  0.1341  0.3470 -0.0446
 6774SOL    HW231956   3.180   0.656   1.976 -0.2411 -0.5962  0.1906
 6775SOL     OW31957   1.083   0.597   6.757 -0.0054  0.3291 -0.3821
 6775SOL    HW131958   1.150   0.574   6.692 -2.1076 -1.7040 -1.8353
 6775SOL    HW231959   1.100   0.690   6.772  1.0606  0.1409 -0.3944
 6776SOL     OW31960   4.724   4.421   0.734  0.0248 -0.3336  0.7140
 6776SOL    HW131961   4.638   4.429   0.692  1.4508 -0.8517 -2.2271
 6776SOL    HW231962   4.728   4.496   0.793  0.6750  0.4709 -0.3540
 6777SOL     OW31963   3.628   4.313   4.358  0.3006 -0.2865  0.6941
 6777SOL    HW131964   3.642   4.244   4.294 -0.2131 -0.4966  0.8069
 6777SOL    HW231965   3.708   4.364   4.340  0.6276 -0.7003  0.9859
 6778SOL     OW31966   1.389   3.973   9.277  0.3937  0.5266  0.3097
 6778SOL    HW131967   1.332   3.980   9.201 -0.2946 -1.7656  0.6141
 6778SOL    HW231968   1.343   4.035   9.334  2.0129  1.9439  0.0948
 6779SOL     OW31969   1.832   0.924   9.967  0.3969  0.1978  0.3215
 6779SOL    HW131970   1.866   0.923  10.057  1.3920 -0.1478 -0.0586
 6779SOL    HW231971   1.752   0.972   9.986 -0.3399  0.7712 -4.4433
 6780SOL     OW31972   0.179   2.141   4.042 -0.3206 -0.4275 -0.7882
 6780SOL    HW131973   0.238   2.121   3.969  0.3024 -0.8999 -0.1485
 6780SOL    HW231974   0.096   2.169   4.004  0.3525  4.0501  1.0359
 6781SOL     OW31975   2.648   4.634   4.362 -0.0006 -0.0738  0.2205
 6781SOL    HW131976   2.566   4.679   4.341  0.2377 -1.1128 -3.0362
 6781SOL    HW231977   2.637   4.541   4.380 -1.1790  0.1334  0.5494
 6782SOL     OW31978   2.515   2.787  13.835  0.2044 -0.0744 -0.0408
 6782SOL    HW131979   2.457   2.839  13.780 -0.0007 -0.3249 -0.0591
 6782SOL    HW231980   2.580   2.758  13.771 -1.3973  0.5277 -1.9543
 6783SOL     OW31981   1.718   3.696  17.044 -0.1256 -0.2368 -0.1613
 6783SOL    HW131982   1.731   3.611  17.086 -1.1291  0.2861  1.2308
 6783SOL    HW231983   1.648   3.667  16.985 -1.6044  1.0905  0.9259
 6784SOL     OW31984   0.004   0.677   3.518  0.1773  0.0300  0.3665
 6784SOL    HW131985   4.705   0.720   3.441 -0.1050 -0.6530  0.1188
 6784SOL    HW231986   0.080   0.725   3.551  1.2041 -2.9147  2.3648
 6785SOL     OW31987   3.189   1.438  17.721  0.1800  1.0691  0.2094
 6785SOL    HW131988   3.122   1.475  17.663 -1.1450 -1.4493  0.1486
 6785SOL    HW231989   3.257   1.407  17.661  0.1789  0.8366  0.3314
 6786SOL     OW31990   1.068   0.507   8.732  0.4062 -0.7658 -0.1032
 6786SOL    HW131991   1.157   0.470   8.731  0.7431  0.1141 -2.9899
 6786SOL    HW231992   1.024   0.445   8.673 -0.3349 -0.1826 -0.1567
 6787SOL     OW31993   2.411   0.614  11.519 -0.5934 -0.3601 -0.5699
 6787SOL    HW131994   2.436   0.706  11.526  2.1038 -1.0621 -0.9459
 6787SOL    HW231995   2.329   0.618  11.471 -0.2157  1.3575 -1.0705
 6788SOL     OW31996   2.642   2.777   8.208 -0.2720  0.0671  0.2386
 6788SOL    HW131997   2.626   2.683   8.203 -0.3607 -0.0046  2.1474
 6788SOL    HW231998   2.551   2.803   8.200  0.1945  1.3107 -1.1525
 6789SOL     OW31999   0.376   2.503   0.555 -0.6284 -0.2073 -0.4502
 6789SOL    HW132000   0.383   2.598   0.561  0.9007 -0.3651  0.4202
 6789SOL    HW232001   0.468   2.491   0.528 -0.2164  1.6956  0.1183
 6790SOL     OW32002   2.227   2.295   6.799 -0.1296 -0.9095  0.2934
 6790SOL    HW132003   2.141   2.271   6.834 -0.2277  1.6145  1.7550
 6790SOL    HW232004   2.286   2.260   6.865 -2.5556 -3.5988  1.0009
 6791SOL     OW32005   2.396   0.636   5.722  0.1909 -0.1477  0.1033
 6791SOL    HW132006   2.436   0.710   5.768 -1.8424  1.6738 -1.0743
 6791SOL    HW232007   2.404   0.666   5.632 -2.5123  3.8152  1.1796
 6792SOL     OW32008   2.720   2.691  10.116  0.2321  0.0189 -0.3848
 6792SOL    HW132009   2.633   2.652  10.124 -0.2399  1.3618  0.8904
 6792SOL    HW232010   2.721   2.747  10.193 -1.9286  2.8347 -2.4486
 6793SOL     OW32011   0.209   3.535   5.853 -0.2990  0.3072 -0.1191
 6793SOL    HW132012   0.242   3.446   5.854 -0.6888  0.1228 -3.3287
 6793SOL    HW232013   0.132   3.517   5.907 -1.4487  1.0411 -1.4878
 6794SOL     OW32014   1.254   4.272   3.558  0.0467 -0.1058  0.0534
 6794SOL    HW132015   1.165   4.276   3.524 -1.0162 -0.7513  2.7393
 6794SOL    HW232016   1.286   4.361   3.542  0.8135 -0.6064 -1.1750
 6795SOL     OW32017   0.290   0.201   7.362  0.0640 -0.2627 -0.5808
 6795SOL    HW132018   0.196   0.187   7.357 -0.0313  0.2694 -0.2076
 6795SOL    HW232019   0.300   0.291   7.391 -1.8652 -0.9527  2.1601
 6796SOL     OW32020   3.600   1.577   8.126 -0.1833  0.2342 -0.0314
 6796SOL    HW132021   3.658   1.651   8.111 -0.9608  0.5186 -1.6498
 6796SOL    HW232022   3.657   1.521   8.179 -1.0655 -1.3079 -0.6865
 6797SOL     OW32023   3.281   3.244   9.024  0.3413  0.5780  0.3939
 6797SOL    HW132024   3.202   3.203   8.988  0.8595  0.5595 -0.7211
 6797SOL    HW232025   3.327   3.166   9.056  0.7297  1.1613  1.2422
 6798SOL     OW32026   3.246   0.471   4.737  0.2153  0.6347 -0.6954
 6798SOL    HW132027   3.285   0.483   4.651  4.0931 -0.2712  0.9428
 6798SOL    HW232028   3.212   0.383   4.720 -2.8156  1.2641  2.2468
 6799SOL     OW32029   0.307   1.041   7.313  0.4235 -0.7318 -0.0224
 6799SOL    HW132030   0.229   0.998   7.281  0.9115 -2.3068  0.8951
 6799SOL    HW232031   0.266   1.123   7.340 -0.1227 -1.1593  0.4452
 6800SOL     OW32032   2.237   3.980   8.971 -0.1243 -0.3074  0.0375
 6800SOL    HW132033   2.220   4.045   9.039  0.7568 -1.5797  1.4908
 6800SOL    HW232034   2.282   4.034   8.907 -0.9147 -0.6026 -0.7780
 6801SOL     OW32035   4.076   0.336   8.224  0.1188 -0.3444  0.5858
 6801SOL    HW132036   4.018   0.288   8.165 -1.5571  3.6496 -0.9736
 6801SOL    HW232037   4.016   0.371   8.289 -0.6199 -3.4736  1.5816
 6802SOL     OW32038   0.572   0.647   2.668  0.2116  0.9905  0.3812
 6802SOL    HW132039   0.599   0.718   2.726  1.2423 -1.9160  3.4273
 6802SOL    HW232040   0.610   0.684   2.588  0.3446  0.9130  0.4085
 6803SOL     OW32041   3.661   1.875   7.120  0.1040  0.0828 -0.5319
 6803SOL    HW132042   3.736   1.820   7.144  1.3526  2.3569  0.7154
 6803SOL    HW232043   3.633   1.897   7.209  1.3692 -2.9017  0.6165
 6804SOL     OW32044   4.277   2.433   4.051  0.0958  0.9202 -0.0913
 6804SOL    HW132045   4.234   2.430   3.965 -0.1164  2.7188 -0.0362
 6804SOL    HW232046   4.313   2.344   4.061 -0.0892  0.8797  0.1877
 6805SOL     OW32047   2.977   2.950   2.822  0.0972  0.0172  0.2936
 6805SOL    HW132048   2.957   3.038   2.790 -0.5232  0.0184  0.6787
 6805SOL    HW232049   2.889   2.921   2.848 -0.5008  1.7134  0.2214
 6806SOL     OW32050   2.084   0.956  11.299 -0.1213  0.1481  0.2688
 6806SOL    HW132051   2.070   1.045  11.266 -0.8197  0.5627  1.7056
 6806SOL    HW232052   2.172   0.939  11.264  0.9697  0.7435  2.7268
 6807SOL     OW32053   2.592   0.151   8.999  0.9231 -0.0803  0.4593
 6807SOL    HW132054   2.575   0.197   8.918  0.6521  1.4484  1.3866
 6807SOL    HW232055   2.515   0.181   9.048 -0.0764 -0.2622 -0.9944
 6808SOL     OW32056   0.550   4.495   6.002  0.2559  0.1209  0.1287
 6808SOL    HW132057   0.545   4.548   6.081  0.2595  2.1630 -1.2421
 6808SOL    HW232058   0.617   4.538   5.949  1.2834 -1.2817  0.3121
 6809SOL     OW32059   4.279   2.235  13.805  0.0692  0.4310 -0.1911
 6809SOL    HW132060   4.221   2.303  13.841  0.3674  0.9371 -0.6613
 6809SOL    HW232061   4.234   2.153  13.826 -1.2341  0.4292 -2.9200
 6810SOL     OW32062   4.559   3.350   5.538  0.4770 -0.1851  0.6236
 6810SOL    HW132063   4.554   3.444   5.554 -0.6238  0.1205 -1.6211
 6810SOL    HW232064   4.539   3.353   5.445  0.5917  0.4236  0.6153
 6811SOL     OW32065   1.197   3.261   3.197  0.8244  0.2742 -0.3769
 6811SOL    HW132066   1.101   3.260   3.205  0.8665  0.2554  0.1302
 6811SOL    HW232067   1.204   3.223   3.110 -0.7887  0.0999 -0.4416
 6812SOL     OW32068   1.032   1.824   6.109  0.5574  0.1620 -0.1834
 6812SOL    HW132069   1.096   1.791   6.046 -2.1154 -0.1273 -2.7118
 6812SOL    HW232070   1.050   1.917   6.118 -0.5999  0.4741 -1.1953
 6813SOL     OW32071   1.797   1.534   6.628  0.1509  0.5100  0.1836
 6813SOL    HW132072   1.736   1.516   6.557 -0.9711 -0.7455  1.4578
 6813SOL    HW232073   1.794   1.450   6.673  0.5271  0.8093  0.7698
 6814SOL     OW32074   1.407   4.636   5.350 -0.2094  0.4078 -0.2851
 6814SOL    HW132075   1.319   4.632   5.386 -0.3112  0.5086 -0.5227
 6814SOL    HW232076   1.391   4.579   5.275 -1.8216 -0.7413  0.9384
 6815SOL     OW32077   3.290   3.472   3.178 -0.0691  0.0808 -0.3555
 6815SOL    HW132078   3.272   3.442   3.088  2.4820  1.6727 -1.4045
 6815SOL    HW232079   3.346   3.397   3.200  1.1005  1.5063  1.4492
 6816SOL     OW32080   3.261   0.014   1.308 -0.1965 -0.0508 -0.3094
 6816SOL    HW132081   3.285   4.696   1.383 -0.9551  2.0633  1.4973
 6816SOL    HW232082   3.322   4.722   1.241 -1.6004  0.1408 -1.6593
 6817SOL     OW32083   1.809   0.302  17.444  0.6399  0.3049 -0.0101
 6817SOL    HW132084   1.905   0.293  17.447  0.5533  0.3126  2.3413
 6817SOL    HW232085   1.798   0.321  17.350  0.3672 -2.0616 -0.4697
 6818SOL     OW32086   1.911   3.173   4.364  0.7564 -0.1783 -0.3328
 6818SOL    HW132087   1.971   3.143   4.433  0.8001 -0.5251 -0.5265
 6818SOL    HW232088   1.896   3.266   4.383  0.5639 -0.4380  0.7944
 6819SOL     OW32089   2.692   2.854   0.656  0.1110  0.2432 -0.2932
 6819SOL    HW132090   2.667   2.809   0.737 -1.5139  0.4559 -0.6678
 6819SOL    HW232091   2.778   2.881   0.688  0.6771 -0.3315 -1.3334
 6820SOL     OW32092   1.795   2.594  12.158 -0.2094  0.0256 -0.2535
 6820SOL    HW132093   1.829   2.509  12.130 -1.2925 -0.0675 -1.2664
 6820SOL    HW232094   1.754   2.624  12.077  1.0476  2.4622  0.0078
 6821SOL     OW32095   2.362   0.945   9.206 -0.2050  0.9814 -0.5321
 6821SOL    HW132096   2.442   0.991   9.233 -0.0994 -0.6534  1.9339
 6821SOL    HW232097   2.351   0.888   9.283  2.0834  1.5332  0.2099
 6822SOL     OW32098   2.070   1.983   2.751 -0.1375  0.3191  0.1254
 6822SOL    HW132099   2.024   2.049   2.700 -0.6799 -0.0265  0.1705
 6822SOL    HW232100   2.010   1.982   2.825 -1.4134  0.9320 -0.9141
 6823SOL     OW32101   1.333   2.449   6.382 -0.0633 -0.3456  0.0820
 6823SOL    HW132102   1.275   2.375   6.392  1.1101 -1.0121  1.8839
 6823SOL    HW232103   1.392   2.434   6.456  1.9737 -1.5866 -1.7710
 6824SOL     OW32104   1.340   2.214   5.872 -0.1295 -0.6287 -0.5710
 6824SOL    HW132105   1.403   2.203   5.801  0.0325 -1.3585 -0.3139
 6824SOL    HW232106   1.395   2.258   5.937 -0.1662 -0.4024 -0.6914
 6825SOL     OW32107   0.547   4.592  13.507  0.1711  0.4545 -0.4723
 6825SOL    HW132108   0.533   4.530  13.579 -2.4795 -0.4773 -1.7974
 6825SOL    HW232109   0.520   4.542  13.430 -1.6253  3.3319 -1.6977
 6826SOL     OW32110   1.424   1.942   8.734  0.0125  0.5543 -0.1014
 6826SOL    HW132111   1.402   1.863   8.685 -1.4030  1.1248 -0.3791
 6826SOL    HW232112   1.372   2.006   8.686  0.8034  0.2417 -1.3611
 6827SOL     OW32113   3.690   1.261   7.452 -0.1546  0.0756  0.2071
 6827SOL    HW132114   3.663   1.254   7.543  1.8930 -2.0892  0.6405
 6827SOL    HW232115   3.615   1.219   7.410 -0.2412  0.5261 -0.0877
 6828SOL     OW32116   1.689   1.572   1.045  0.0548 -0.0404 -0.4800
 6828SOL    HW132117   1.662   1.593   0.955  0.6521 -1.0437 -0.8961
 6828SOL    HW232118   1.674   1.478   1.052  0.7410 -0.2485 -1.6838
 6829SOL     OW32119   0.463   2.828   7.457 -0.1048 -0.0506  0.6910
 6829SOL    HW132120   0.413   2.811   7.537 -0.9715  0.7305  0.3114
 6829SOL    HW232121   0.521   2.899   7.483  2.0930 -2.4110  2.2524
 6830SOL     OW32122   4.355   3.636   2.875 -0.1210 -0.4210 -0.0531
 6830SOL    HW132123   4.379   3.655   2.965  0.7521  0.2474 -0.4301
 6830SOL    HW232124   4.266   3.669   2.869  0.6902  1.9806  1.3192
 6831SOL     OW32125   1.856   0.286   9.271  0.1410  0.4092  0.4085
 6831SOL    HW132126   1.907   0.300   9.350 -0.7072  0.9079  0.8700
 6831SOL    HW232127   1.774   0.332   9.287  0.1101  1.0982 -1.7476
 6832SOL     OW32128   2.838   2.349  17.505 -0.5034  0.2713 -0.2488
 6832SOL    HW132129   2.750   2.357  17.540 -0.4502  1.1850 -0.3186
 6832SOL    HW232130   2.868   2.429  17.548  0.3219 -0.8752  1.3244
 6833SOL     OW32131   3.456   3.409   4.896 -0.1149  0.3562  0.0623
 6833SOL    HW132132   3.490   3.473   4.833  0.2702 -1.5219 -1.6513
 6833SOL    HW232133   3.466   3.323   4.856  0.1790  0.3700  0.0996
 6834SOL     OW32134   0.819   0.929   7.156  0.1979 -0.1344 -0.3614
 6834SOL    HW132135   0.801   1.022   7.171  4.7342  0.4928  1.4429
 6834SOL    HW232136   0.863   0.921   7.071 -0.5928 -0.4300 -0.7405
 6835SOL     OW32137   0.326   3.723   2.797 -0.3724  0.1780  0.3206
 6835SOL    HW132138   0.414   3.756   2.816  0.2323  0.2853 -2.7226
 6835SOL    HW232139   0.341   3.691   2.708 -0.4371  2.5175 -0.5428
 6836SOL     OW32140   2.922   1.961  12.001  0.3400  0.3252  0.4093
 6836SOL    HW132141   2.881   1.915  12.074 -0.4986  1.2397  0.5168
 6836SOL    HW232142   2.867   2.039  11.990  2.5443  1.7774 -0.2010
 6837SOL     OW32143   1.671   3.980   3.641  0.1845 -0.1491  0.1526
 6837SOL    HW132144   1.604   4.023   3.587  1.1075  1.2930  0.1558
 6837SOL    HW232145   1.639   4.013   3.725 -0.3709  0.6797 -0.3843
 6838SOL     OW32146   3.158   3.449   9.143 -0.0900  0.8464  0.5804
 6838SOL    HW132147   3.162   3.401   9.226 -1.2320 -1.5325 -0.7505
 6838SOL    HW232148   3.187   3.391   9.074  1.5908  1.4962  0.7404
 6839SOL     OW32149   3.106   0.592   3.646  0.2732  0.1362 -0.3480
 6839SOL    HW132150   3.099   0.505   3.605  1.8225  0.7175 -1.8402
 6839SOL    HW232151   3.187   0.575   3.694 -0.3228  0.3052  0.7249
 6840SOL     OW32152   0.636   2.027   6.661  0.2209  0.0586  0.2508
 6840SOL    HW132153   0.668   1.937   6.667  1.5092  0.4430 -1.1526
 6840SOL    HW232154   0.551   2.001   6.625 -0.1036 -1.1983  1.9277
 6841SOL     OW32155   0.017   4.449  13.074 -0.2659  1.0659  0.6922
 6841SOL    HW132156   4.731   4.443  12.981  1.6164 -0.0927  0.3186
 6841SOL    HW232157   0.075   4.373  13.071  0.5584  1.7874 -1.7419
 6842SOL     OW32158   0.281   0.704   1.140  0.1048 -0.0417  0.5241
 6842SOL    HW132159   0.363   0.656   1.147 -0.2800 -0.4799  1.9647
 6842SOL    HW232160   0.302   0.754   1.062  0.3477 -1.7803 -0.5291
 6843SOL     OW32161   2.488   2.605   3.270 -0.3791  0.1334 -0.1085
 6843SOL    HW132162   2.515   2.585   3.360 -0.2685  0.7743  0.0012
 6843SOL    HW232163   2.401   2.565   3.270 -0.4343  0.2590  1.7088
 6844SOL     OW32164   1.267   0.841   5.824  0.6870  0.1033  0.2214
 6844SOL    HW132165   1.333   0.865   5.759  1.2341  0.4082  0.8870
 6844SOL    HW232166   1.281   0.908   5.892  2.7978  0.6078 -0.7282
 6845SOL     OW32167   3.752   2.487   7.558 -0.1079  0.4914 -0.8459
 6845SOL    HW132168   3.658   2.471   7.559  0.0884 -0.4919  1.7264
 6845SOL    HW232169   3.783   2.408   7.515  1.3774  0.6237 -0.0492
 6846SOL     OW32170   4.146   3.219   2.755 -0.3091  0.5524  0.9534
 6846SOL    HW132171   4.101   3.283   2.701 -0.2040 -0.4710 -0.3504
 6846SOL    HW232172   4.070   3.163   2.767 -2.0450  2.9183  0.8503
 6847SOL     OW32173   0.992   2.158   2.792  0.1690 -0.4975 -0.0114
 6847SOL    HW132174   1.052   2.104   2.844  0.0990  3.6873  4.3534
 6847SOL    HW232175   0.913   2.161   2.846  2.6758  1.5867  3.5160
 6848SOL     OW32176   0.521   2.375  12.848  0.4120  0.6490 -0.3074
 6848SOL    HW132177   0.597   2.346  12.798  0.6195 -2.3848  1.7604
 6848SOL    HW232178   0.451   2.323  12.808  0.1443  2.7890 -2.6403
 6849SOL     OW32179   1.875   2.457   5.838  0.2364 -0.1767  0.4492
 6849SOL    HW132180   1.893   2.511   5.915 -0.7741  0.8034 -0.0019
 6849SOL    HW232181   1.912   2.500   5.761 -2.5424  3.1019  0.9450
 6850SOL     OW32182   1.730   1.148   2.653  0.2591 -0.0421 -0.6745
 6850SOL    HW132183   1.774   1.233   2.655  0.4154 -0.1192 -0.8013
 6850SOL    HW232184   1.802   1.086   2.646  0.9316  0.6713 -0.0474
 6851SOL     OW32185   3.188   0.892  12.160  0.3988 -0.3103 -0.1976
 6851SOL    HW132186   3.267   0.916  12.208  0.1297 -1.6422  0.9250
 6851SOL    HW232187   3.192   0.796  12.165 -1.0989 -0.2500  2.3565
 6852SOL     OW32188   3.431   4.106  12.455 -0.9077  0.1767  0.2083
 6852SOL    HW132189   3.369   4.155  12.402 -0.3174  1.2983  0.5658
 6852SOL    HW232190   3.388   4.024  12.481  0.1007 -1.3128 -2.8001
 6853SOL     OW32191   0.564   3.865   2.812  0.0767 -0.4068  0.3143
 6853SOL    HW132192   0.627   3.878   2.883 -1.7355  0.9506  1.6753
 6853SOL    HW232193   0.622   3.882   2.738  0.6497  0.9761  1.0778
 6854SOL     OW32194   0.681   2.905   7.821 -0.3587  0.0770 -0.0055
 6854SOL    HW132195   0.746   2.834   7.819  1.8652  2.0865  1.3938
 6854SOL    HW232196   0.672   2.911   7.916 -1.0772  2.3831 -0.2408
 6855SOL     OW32197   1.187   0.031   7.993 -0.6305  0.2547 -0.3697
 6855SOL    HW132198   1.189   4.711   8.071 -2.8151 -0.5021 -0.8524
 6855SOL    HW232199   1.208   0.118   8.027  2.0324  0.0685 -1.5702
 6856SOL     OW32200   2.321   4.710  16.385  0.3099  0.2115  0.1519
 6856SOL    HW132201   2.342   4.617  16.393 -2.1170  0.0775  4.8311
 6856SOL    HW232202   2.256   4.702  16.316  0.7498  0.5074 -0.3001
 6857SOL     OW32203   0.511   2.879   4.492 -0.3495 -0.6623  0.0967
 6857SOL    HW132204   0.582   2.944   4.487  1.5712 -2.7561  0.1631
 6857SOL    HW232205   0.501   2.861   4.398  0.7989  3.5053 -0.8456
 6858SOL     OW32206   2.376   1.335   2.610  1.0306 -0.4249  0.7897
 6858SOL    HW132207   2.350   1.424   2.583  1.9813 -0.5567 -0.5778
 6858SOL    HW232208   2.394   1.348   2.703  1.2619  0.3037  0.6451
 6859SOL     OW32209   1.610   4.377  10.322 -0.2219  0.2876  0.6172
 6859SOL    HW132210   1.539   4.313  10.326  1.1242 -1.2989 -0.7269
 6859SOL    HW232211   1.565   4.460  10.336 -0.7991 -0.0898  1.0015
 6860SOL     OW32212   4.348   0.724  16.942 -0.2442  0.0104 -0.5107
 6860SOL    HW132213   4.360   0.636  16.906 -1.0308  0.6895 -2.4408
 6860SOL    HW232214   4.252   0.734  16.938 -0.3132  0.0680  1.1021
 6861SOL     OW32215   3.094   4.646   3.877 -0.3008 -0.0933 -0.2499
 6861SOL    HW132216   3.033   4.597   3.931 -0.7548  0.0458 -0.6359
 6861SOL    HW232217   3.177   4.602   3.894 -1.2270 -1.2479  1.2430
 6862SOL     OW32218   0.381   3.998   8.338 -0.0073 -0.2420  0.2443
 6862SOL    HW132219   0.337   3.947   8.405 -0.0570 -1.3130 -0.6080
 6862SOL    HW232220   0.424   3.925   8.294  0.3413  0.3934 -0.4806
 6863SOL     OW32221   4.730   4.340   9.284  0.0395  0.1295  0.0956
 6863SOL    HW132222   4.709   4.378   9.369  1.2685 -0.9711  0.8898
 6863SOL    HW232223   4.725   4.244   9.288 -3.3536  0.3900  1.6757
 6864SOL     OW32224   3.697   2.052   7.345 -0.2404  0.4300  0.4180
 6864SOL    HW132225   3.602   2.046   7.334  0.0715  0.3223 -2.2316
 6864SOL    HW232226   3.709   1.997   7.422  1.4044 -1.7644 -1.4093
 6865SOL     OW32227   4.127   2.152   8.927 -0.3127 -0.0743  0.7970
 6865SOL    HW132228   4.131   2.232   8.980  2.7474  0.8912 -0.8874
 6865SOL    HW232229   4.202   2.104   8.963 -1.0858 -1.3109  0.7593
 6866SOL     OW32230   3.170   0.646   9.276  0.1443  0.0319 -0.4865
 6866SOL    HW132231   3.176   0.590   9.353  3.8161  1.3880  0.2163
 6866SOL    HW232232   3.262   0.673   9.268 -0.2976  1.4355 -0.8166
 6867SOL     OW32233   3.494   0.683  17.235  0.4511 -0.2098 -0.0167
 6867SOL    HW132234   3.478   0.738  17.158  0.4847  0.7144  0.6434
 6867SOL    HW232235   3.415   0.722  17.271  0.0397 -3.0091  2.0843
 6868SOL     OW32236   1.674   2.182   9.609 -0.4550 -0.1478  0.2720
 6868SOL    HW132237   1.665   2.092   9.640  1.6061 -0.3391  0.3098
 6868SOL    HW232238   1.690   2.172   9.515  0.4312 -0.9607  0.5062
 6869SOL     OW32239   1.106   1.501   8.544  0.5421  0.0953  0.2366
 6869SOL    HW132240   1.042   1.498   8.473 -1.6798 -0.8321  2.2763
 6869SOL    HW232241   1.176   1.455   8.499 -0.2384 -1.3713  0.5190
 6870SOL     OW32242   3.445   1.250   8.966 -0.4258  0.2536  0.2577
 6870SOL    HW132243   3.459   1.316   9.034 -1.3060 -0.0872  0.7646
 6870SOL    HW232244   3.351   1.264   8.954 -0.2451  1.0869 -0.2430
 6871SOL     OW32245   1.353   1.129   8.024 -0.2718  0.6857  0.0604
 6871SOL    HW132246   1.372   1.035   8.027 -1.5567  0.4878  1.5538
 6871SOL    HW232247   1.278   1.131   8.083 -0.0945  0.7805  0.2796
 6872SOL     OW32248   1.861   0.756   1.928  0.0208  0.3438  0.8446
 6872SOL    HW132249   1.800   0.825   1.952 -0.1672 -0.0154  1.3851
 6872SOL    HW232250   1.802   0.702   1.876 -0.4847  3.2075 -1.5970
 6873SOL     OW32251   4.334   4.646   6.392  0.4008 -0.0530  0.6940
 6873SOL    HW132252   4.401   4.583   6.364  0.9081  1.1400 -0.8104
 6873SOL    HW232253   4.325   4.629   6.485  0.7156  0.9655  0.9133
 6874SOL     OW32254   2.116   4.158  14.689  0.2334  0.1944  0.0684
 6874SOL    HW132255   2.109   4.160  14.784 -1.0977 -0.6205 -0.0108
 6874SOL    HW232256   2.034   4.201  14.663 -0.1971 -0.8676 -0.3382
 6875SOL     OW32257   0.063   4.580   7.501 -0.3688  0.5188  0.0694
 6875SOL    HW132258   0.072   4.648   7.568  0.4819 -1.3297  1.8538
 6875SOL    HW232259   0.055   4.631   7.420 -0.3422  0.6131  0.1265
 6876SOL     OW32260   0.831   2.819   9.048 -0.1055 -0.2532  0.0985
 6876SOL    HW132261   0.900   2.847   8.988 -1.0846  1.1712 -0.3708
 6876SOL    HW232262   0.794   2.747   8.996  1.3063 -0.7586 -0.1851
 6877SOL     OW32263   2.764   2.595   2.956  0.1329  0.0454 -0.0348
 6877SOL    HW132264   2.748   2.603   2.862 -0.1262 -1.3935 -0.1138
 6877SOL    HW232265   2.707   2.523   2.984 -0.1255 -0.3367 -1.5095
 6878SOL     OW32266   2.156   0.514   1.367 -0.2933  0.8029  0.2163
 6878SOL    HW132267   2.132   0.607   1.367 -2.9920  0.1204  1.0249
 6878SOL    HW232268   2.202   0.519   1.284 -3.2795  1.9472 -1.3713
 6879SOL     OW32269   3.126   1.472  12.460  0.1928 -0.4792  0.6921
 6879SOL    HW132270   3.109   1.542  12.522 -0.6292  0.0281 -0.0977
 6879SOL    HW232271   3.040   1.452  12.422 -0.5083  1.4123  1.2637
 6880SOL     OW32272   2.474   4.352   2.217 -0.1824  0.3036  0.1014
 6880SOL    HW132273   2.451   4.277   2.271 -2.4815  1.2410  0.4027
 6880SOL    HW232274   2.391   4.399   2.216 -0.0099  0.6611  1.6204
 6881SOL     OW32275   0.529   4.419  13.282 -0.2523 -0.2456 -0.1558
 6881SOL    HW132276   0.516   4.351  13.216 -3.3616 -0.4261  0.6055
 6881SOL    HW232277   0.568   4.486  13.226 -1.4310 -1.4285 -2.4102
 6882SOL     OW32278   3.115   2.794   6.727  0.4257 -0.0274 -0.6056
 6882SOL    HW132279   3.173   2.859   6.766 -1.1148  1.1210 -0.2319
 6882SOL    HW232280   3.148   2.788   6.638 -0.2394  0.5628 -0.8908
 6883SOL     OW32281   4.230   4.674  10.307 -0.4067  0.9569  0.0996
 6883SOL    HW132282   4.199   4.687  10.218  0.9951  1.9912 -0.2340
 6883SOL    HW232283   4.290   0.012  10.306  1.6828 -0.7033  0.9033
 6884SOL     OW32284   2.568   3.455  10.024  0.1700  0.0478  0.1409
 6884SOL    HW132285   2.612   3.410  10.096 -0.7307  1.7904  1.7651
 6884SOL    HW232286   2.495   3.397  10.001 -0.2344  0.3912  0.5644
 6885SOL     OW32287   3.389   4.590   2.081  0.3702 -0.5005 -0.3906
 6885SOL    HW132288   3.305   4.628   2.108  1.8214  1.6434  1.1304
 6885SOL    HW232289   3.365   4.559   1.994 -1.6731  1.1910 -0.4480
 6886SOL     OW32290   0.541   2.916   5.225 -0.0695  0.4599 -0.0431
 6886SOL    HW132291   0.611   2.937   5.287 -0.4988  1.0519  0.2344
 6886SOL    HW232292   0.502   2.836   5.262 -1.1834  1.2991  0.5688
 6887SOL     OW32293   3.127   1.414  16.216  0.1129 -0.5101  0.4786
 6887SOL    HW132294   3.164   1.430  16.303 -1.7401 -1.6632  1.5000
 6887SOL    HW232295   3.035   1.421  16.243  0.9575  2.4908  2.5551
 6888SOL     OW32296   1.476   3.134  12.174 -0.4801 -0.0152 -0.0680
 6888SOL    HW132297   1.511   3.177  12.096  0.5399 -2.1001 -0.7568
 6888SOL    HW232298   1.505   3.043  12.165 -1.6121 -0.3135 -0.6821
 6889SOL     OW32299   0.139   4.298  10.647  0.6484  0.9160 -0.1342
 6889SOL    HW132300   0.179   4.224  10.601  0.1231  0.8582 -0.5079
 6889SOL    HW232301   0.125   4.259  10.734  0.6476 -1.1743 -1.0597
 6890SOL     OW32302   3.252   4.376   5.627 -0.2849  0.2889 -0.5876
 6890SOL    HW132303   3.317   4.429   5.673 -0.1078 -0.6129  0.2122
 6890SOL    HW232304   3.174   4.430   5.636  0.1830  0.8414  0.1882
 6891SOL     OW32305   0.460   1.299   5.346 -0.4201  0.0893 -0.4210
 6891SOL    HW132306   0.495   1.350   5.419 -0.7819  0.0200 -0.2020
 6891SOL    HW232307   0.385   1.263   5.393 -1.2148  1.0234 -0.9665
 6892SOL     OW32308   4.467   1.306  12.516  0.4310  0.4173  0.3101
 6892SOL    HW132309   4.438   1.302  12.425 -2.2092 -1.6945  1.2544
 6892SOL    HW232310   4.526   1.381  12.515  1.7734 -0.6112  0.9607
 6893SOL     OW32311   0.547   4.078  13.195  0.4324  0.3054 -0.0508
 6893SOL    HW132312   0.576   3.995  13.156  2.8588 -0.0826  2.5463
 6893SOL    HW232313   0.525   4.041  13.281 -2.3146  0.9641 -0.4689
 6894SOL     OW32314   3.698   3.962   4.943  0.1424  0.0317  0.6522
 6894SOL    HW132315   3.675   4.040   4.893 -3.4410 -1.3000  0.1922
 6894SOL    HW232316   3.737   3.916   4.868 -1.2208 -0.5147  0.2819
 6895SOL     OW32317   3.759   2.845   6.788  0.3903  0.8033  0.4903
 6895SOL    HW132318   3.679   2.876   6.829  0.7294  1.4685  0.6484
 6895SOL    HW232319   3.801   2.802   6.863  1.4159  0.1324 -0.4596
 6896SOL     OW32320   0.125   0.209   6.403 -0.3622  0.0387  0.2196
 6896SOL    HW132321   0.137   0.282   6.463 -0.7883 -0.9999  1.5673
 6896SOL    HW232322   0.206   0.206   6.353 -1.7541  0.8838 -2.0702
 6897SOL     OW32323   3.275   0.364   7.617 -0.3062  0.5302  0.1503
 6897SOL    HW132324   3.318   0.393   7.536 -0.6387  0.7452  0.0503
 6897SOL    HW232325   3.186   0.342   7.590 -0.4501  0.3938  0.7472
 6898SOL     OW32326   4.641   3.687   7.340 -0.2782  0.2703 -0.3052
 6898SOL    HW132327   4.548   3.668   7.335 -0.2239 -0.0657 -0.0525
 6898SOL    HW232328   4.648   3.782   7.343 -0.9473  0.3085 -0.0821
 6899SOL     OW32329   4.227   0.788   1.912 -0.0734  0.5322 -0.3334
 6899SOL    HW132330   4.235   0.761   1.820 -0.9198 -0.1210 -0.2141
 6899SOL    HW232331   4.319   0.799   1.936 -0.5902  0.8033  1.4942
 6900SOL     OW32332   1.517   3.064   2.701  0.1944  0.6839  0.6859
 6900SOL    HW132333   1.479   3.026   2.623  0.5831 -0.8606  1.2559
 6900SOL    HW232334   1.607   3.089   2.681  0.1849 -1.8359 -2.4241
 6901SOL     OW32335   2.192   1.244   6.109 -0.3591 -0.4595 -0.3828
 6901SOL    HW132336   2.211   1.333   6.138  3.8367 -0.3215 -3.5773
 6901SOL    HW232337   2.106   1.251   6.070  0.1873  0.8636 -1.3490
 6902SOL     OW32338   3.141   0.820   5.852  0.1340  0.5873 -0.0592
 6902SOL    HW132339   3.224   0.843   5.809  0.7892 -2.1974 -0.2502
 6902SOL    HW232340   3.079   0.879   5.810  2.0063  1.4288 -1.6316
 6903SOL     OW32341   4.121   3.831  15.443  0.4908 -0.5010 -0.6663
 6903SOL    HW132342   4.027   3.820  15.455  0.3677 -0.1543 -1.2984
 6903SOL    HW232343   4.117   3.869  15.355  0.4313 -0.9469 -0.8596
 6904SOL     OW32344   2.624   4.253   3.830 -1.0247 -0.3980  0.2789
 6904SOL    HW132345   2.549   4.222   3.880 -0.1649 -0.8078  1.3170
 6904SOL    HW232346   2.626   4.342   3.864 -0.4875 -0.6882  0.9988
 6905SOL     OW32347   1.212   2.986  11.441  0.1466 -0.1263  0.3848
 6905SOL    HW132348   1.238   2.958  11.529 -1.7472  0.2241  1.0548
 6905SOL    HW232349   1.168   3.068  11.463  0.4471  0.2774 -0.5525
 6906SOL     OW32350   4.630   0.497   2.360 -0.2048  0.3600 -0.3573
 6906SOL    HW132351   4.694   0.438   2.400  0.4457  0.1995 -1.6246
 6906SOL    HW232352   4.652   0.576   2.408 -0.1179  0.6873 -0.9328
 6907SOL     OW32353   2.075   3.389   1.645 -0.3779  0.5632  0.4303
 6907SOL    HW132354   2.022   3.412   1.722  1.5396 -0.8673  2.1751
 6907SOL    HW232355   2.164   3.388   1.681 -0.3265  2.0793  0.3653
 6908SOL     OW32356   0.808   0.284   7.919 -0.3002  0.1346 -0.7136
 6908SOL    HW132357   0.833   0.294   8.011  0.9527  2.3135 -1.3149
 6908SOL    HW232358   0.891   0.270   7.874  1.6179  1.1355  2.5455
 6909SOL     OW32359   0.099   2.618  11.316  0.3145 -0.1409 -0.3411
 6909SOL    HW132360   0.041   2.627  11.240 -0.7012  1.7637  0.6542
 6909SOL    HW232361   0.163   2.688  11.313  0.7629 -0.5395 -0.0258
 6910SOL     OW32362   4.278   4.080   5.485 -0.3302 -0.0103 -0.9002
 6910SOL    HW132363   4.259   4.038   5.401 -0.6536  1.3651 -1.5217
 6910SOL    HW232364   4.218   4.155   5.486 -0.7763 -0.3388 -2.7702
 6911SOL     OW32365   2.692   2.877   3.315  0.0815  0.4304  0.6251
 6911SOL    HW132366   2.668   2.876   3.407  1.7483 -0.4954  1.0526
 6911SOL    HW232367   2.603   2.873   3.281  0.8351 -0.2645 -1.2688
 6912SOL     OW32368   4.133   3.761   2.879 -0.6284 -0.2594 -0.4085
 6912SOL    HW132369   4.045   3.735   2.852 -0.3827  0.2582 -1.7070
 6912SOL    HW232370   4.147   3.848   2.841  1.1866  0.7370  2.5580
 6913SOL     OW32371   2.524   1.624   0.164  0.1418 -0.4993  0.7705
 6913SOL    HW132372   2.594   1.588   0.219  2.6552  0.8781 -1.5404
 6913SOL    HW232373   2.564   1.614   0.077 -0.8563 -0.1834  0.2819
 6914SOL     OW32374   1.042   0.737   8.583 -0.2621 -0.0974  0.0519
 6914SOL    HW132375   1.041   0.701   8.495 -1.2053 -1.1892  0.5085
 6914SOL    HW232376   1.071   0.665   8.639 -0.8875 -0.6660 -0.3563
 6915SOL     OW32377   3.530   1.782   4.105 -0.0450  0.0602 -0.6798
 6915SOL    HW132378   3.449   1.834   4.106  0.6582  1.1331  2.6382
 6915SOL    HW232379   3.582   1.839   4.162 -2.2768  0.6929  0.7678
 6916SOL     OW32380   1.933   3.973   5.331  0.3342 -0.4191 -0.0041
 6916SOL    HW132381   1.840   3.970   5.307 -0.0280 -0.2540  1.3690
 6916SOL    HW232382   1.913   3.982   5.424 -0.7936  0.4709 -0.3268
 6917SOL     OW32383   3.411   2.827   7.229 -0.1898 -0.4708  0.1971
 6917SOL    HW132384   3.460   2.804   7.309 -0.9427  0.9405  1.0729
 6917SOL    HW232385   3.383   2.918   7.244  0.2244 -0.1254 -1.1236
 6918SOL     OW32386   3.760   4.658   0.635 -0.2726  0.2336 -0.2383
 6918SOL    HW132387   3.704   4.693   0.565  2.0973  0.5924 -1.9382
 6918SOL    HW232388   3.844   4.700   0.618 -1.2198  1.4475 -1.9716
 6919SOL     OW32389   2.748   3.425   7.250 -0.0250  0.3081 -0.1133
 6919SOL    HW132390   2.747   3.336   7.284 -3.9156  1.1283  1.8409
 6919SOL    HW232391   2.662   3.432   7.209 -0.1005  0.8286  0.1240
 6920SOL     OW32392   3.924   0.440   7.065 -0.0723  0.4351 -0.2193
 6920SOL    HW132393   3.942   0.525   7.025  0.9207 -0.5008 -1.7835
 6920SOL    HW232394   3.832   0.423   7.044  0.1403 -1.0057  0.0213
 6921SOL     OW32395   0.265   1.638   6.235  0.3314 -0.2486  0.0728
 6921SOL    HW132396   0.170   1.640   6.224  0.7014 -1.8516 -3.3811
 6921SOL    HW232397   0.279   1.723   6.192 -1.8937  0.7024  1.2347
 6922SOL     OW32398   4.689   0.614   8.848 -0.3082 -0.0879 -0.3735
 6922SOL    HW132399   4.712   0.671   8.774  0.9374  0.0105  0.0802
 6922SOL    HW232400   0.012   0.649   8.915 -1.0903  2.4280 -0.9970
 6923SOL     OW32401   3.164   0.530   0.447 -0.8530  0.2572 -0.1009
 6923SOL    HW132402   3.199   0.497   0.364 -0.9121  0.5980 -0.2605
 6923SOL    HW232403   3.085   0.476   0.453 -1.9846  1.7625 -1.5065
 6924SOL     OW32404   3.184   1.929   1.918 -0.0437 -0.5622  0.2321
 6924SOL    HW132405   3.182   1.980   1.837  1.1934  1.5665  1.5374
 6924SOL    HW232406   3.247   1.985   1.964  2.3188 -1.1066 -2.2806
 6925SOL     OW32407   4.012   0.174   9.905  0.4871  0.0679  0.1275
 6925SOL    HW132408   4.089   0.147   9.953  0.5405  1.0224  0.5657
 6925SOL    HW232409   3.995   0.265   9.928  0.3076  0.4308 -1.4203
 6926SOL     OW32410   4.142   3.971   5.708 -0.3349 -0.3460 -0.1905
 6926SOL    HW132411   4.212   3.984   5.643  0.0236 -0.3975  0.1884
 6926SOL    HW232412   4.162   4.054   5.752 -1.3587 -0.7378  1.0002
 6927SOL     OW32413   3.223   4.023   6.923  0.0470 -0.6498 -0.1744
 6927SOL    HW132414   3.134   4.042   6.953 -0.1743  0.9414 -1.8155
 6927SOL    HW232415   3.247   4.099   6.869  0.5108 -0.3054  0.5233
 6928SOL     OW32416   3.947   3.263   3.299 -0.1727 -0.1159  0.1902
 6928SOL    HW132417   3.997   3.321   3.241  1.0038  1.1413  2.4531
 6928SOL    HW232418   3.994   3.283   3.380 -0.2932 -0.7102  0.4058
 6929SOL     OW32419   0.366   1.901   9.509  0.1771 -0.1400  0.1801
 6929SOL    HW132420   0.304   1.925   9.440  0.6110  0.2021 -0.0992
 6929SOL    HW232421   0.359   1.981   9.562  1.2041  1.3823 -1.9250
 6930SOL     OW32422   3.217   1.081   1.833 -0.1209 -0.2474  0.0118
 6930SOL    HW132423   3.260   0.996   1.834 -0.7788 -0.6445 -3.5832
 6930SOL    HW232424   3.289   1.139   1.855  0.7538 -1.4567  0.3333
 6931SOL     OW32425   0.780   1.237  16.009 -0.3023  0.6158 -0.0109
 6931SOL    HW132426   0.783   1.238  15.914 -0.6610 -0.1827 -0.0329
 6931SOL    HW232427   0.694   1.205  16.035  0.2464 -1.2253 -0.4823
 6932SOL     OW32428   0.319   2.715   2.002  0.1489 -0.2353  0.0974
 6932SOL    HW132429   0.303   2.637   1.949 -0.0402 -0.1696  0.0563
 6932SOL    HW232430   0.235   2.761   2.012  0.4173  0.4949 -0.9661
 6933SOL     OW32431   2.344   1.548   8.217  0.4894  0.0758  0.3744
 6933SOL    HW132432   2.333   1.478   8.153 -2.5048  0.3849  0.5631
 6933SOL    HW232433   2.400   1.507   8.283 -0.0786  0.2139  0.9424
 6934SOL     OW32434   4.271   1.065  11.123 -0.1066  0.5941 -0.0885
 6934SOL    HW132435   4.218   1.141  11.148 -1.8027  0.5698 -3.5489
 6934SOL    HW232436   4.198   1.024  11.076  0.2144  1.1564 -1.0725
 6935SOL     OW32437   3.923   0.849   3.120 -0.0897 -0.1717 -0.2698
 6935SOL    HW132438   3.913   0.944   3.126  0.0572 -0.1396 -0.5678
 6935SOL    HW232439   4.015   0.848   3.094 -0.9811  4.5627 -3.6378
 6936SOL     OW32440   1.675   4.243   7.206  0.5889 -0.0317  0.0360
 6936SOL    HW132441   1.674   4.330   7.246  0.8629  0.0661 -0.1686
 6936SOL    HW232442   1.711   4.186   7.274 -0.9916 -0.3905  0.5556
 6937SOL     OW32443   3.995   2.965  10.633  0.0016 -0.5722  0.4909
 6937SOL    HW132444   4.069   3.009  10.674  1.1466 -0.6750 -1.4666
 6937SOL    HW232445   3.926   3.021  10.669 -0.2930 -0.6354  0.0387
 6938SOL     OW32446   1.435   3.914  11.870  0.4069  0.4455  0.2669
 6938SOL    HW132447   1.449   3.936  11.962 -0.1511 -0.1150  0.4878
 6938SOL    HW232448   1.444   3.818  11.874 -0.2589  0.4439  1.4411
 6939SOL     OW32449   1.601   3.636  11.046  0.0955 -0.2982  0.1763
 6939SOL    HW132450   1.679   3.645  11.101  0.5158 -2.2916 -0.1108
 6939SOL    HW232451   1.539   3.645  11.118  0.0121  1.0302 -0.0617
 6940SOL     OW32452   0.216   3.566   4.039  0.3070  0.1488  0.0425
 6940SOL    HW132453   0.299   3.565   4.086  0.4259  0.0310 -0.1740
 6940SOL    HW232454   0.201   3.471   4.036  1.5000 -0.1115  2.6581
 6941SOL     OW32455   3.188   4.588   8.433 -0.4781 -0.4943  0.0049
 6941SOL    HW132456   3.186   4.590   8.529 -0.2467  1.1543 -0.0262
 6941SOL    HW232457   3.270   4.637   8.430 -1.5183  1.3602  1.8393
 6942SOL     OW32458   2.917   0.534  16.949 -0.0113  0.4388  0.0210
 6942SOL    HW132459   2.977   0.556  16.878 -0.3895  0.6361 -0.2394
 6942SOL    HW232460   2.911   0.440  16.934  1.6471  0.8401 -3.1502
 6943SOL     OW32461   1.837   1.758   7.664 -0.7639 -0.6456  0.2657
 6943SOL    HW132462   1.915   1.771   7.717 -1.6064 -0.9243  1.5699
 6943SOL    HW232463   1.803   1.847   7.650  2.0098  0.8583  3.3154
 6944SOL     OW32464   3.419   4.711   8.446 -0.1461  0.6445 -0.0303
 6944SOL    HW132465   3.448   0.038   8.380 -1.3024  1.7514  0.5115
 6944SOL    HW232466   3.501   4.709   8.494 -0.8550 -2.0046  1.0566
 6945SOL     OW32467   1.488   3.157   2.178 -0.0229  0.1259  0.0749
 6945SOL    HW132468   1.494   3.169   2.083 -0.8229  3.0376  0.3774
 6945SOL    HW232469   1.579   3.174   2.201  0.3465 -2.7540  0.7496
 6946SOL     OW32470   1.847   4.009   6.994  0.1652  0.5660  0.0331
 6946SOL    HW132471   1.922   4.068   7.000 -1.7314  3.2960 -2.8784
 6946SOL    HW232472   1.872   3.943   7.059 -1.2945  2.0483  2.1168
 6947SOL     OW32473   0.428   3.553  14.302 -0.3583  0.4657 -0.0465
 6947SOL    HW132474   0.443   3.579  14.211 -0.0891 -1.0727 -0.4295
 6947SOL    HW232475   0.517   3.558  14.336 -0.4078  0.7153  0.0482
 6948SOL     OW32476   1.988   1.125   6.417  1.0548 -0.0008  0.3252
 6948SOL    HW132477   1.962   1.207   6.376  3.8463  0.3744 -0.6944
 6948SOL    HW232478   2.020   1.163   6.498  1.3683 -0.3888  0.3842
 6949SOL     OW32479   4.354   2.348  15.422 -0.1112  0.9271 -0.2199
 6949SOL    HW132480   4.423   2.358  15.357 -0.4677 -1.0593 -0.9057
 6949SOL    HW232481   4.304   2.274  15.388 -1.8986  1.4931  1.1643
 6950SOL     OW32482   0.843   2.264  10.183  0.1147  0.4836 -0.0611
 6950SOL    HW132483   0.809   2.347  10.217 -0.4980  0.8001 -1.4271
 6950SOL    HW232484   0.817   2.203  10.252  0.6976 -1.1605 -1.2925
 6951SOL     OW32485   4.531   0.736   3.707  0.2328  0.1971 -0.2483
 6951SOL    HW132486   4.593   0.704   3.641 -0.8425  1.6763 -1.9581
 6951SOL    HW232487   4.573   0.736   3.793 -1.2253  0.9855  0.4636
 6952SOL     OW32488   2.493   3.734   3.546 -0.6181 -0.7387  0.2435
 6952SOL    HW132489   2.430   3.688   3.491 -1.8160  3.3012 -1.7610
 6952SOL    HW232490   2.559   3.768   3.485 -1.4433 -1.4698 -1.0535
 6953SOL     OW32491   2.993   4.226  17.284 -0.2643 -0.3105 -0.2190
 6953SOL    HW132492   3.039   4.183  17.213  0.2914 -2.4191  1.4355
 6953SOL    HW232493   3.055   4.289  17.321  0.5709  0.3113 -2.6987
 6954SOL     OW32494   2.542   0.877   2.139  0.3233  0.6612  0.1253
 6954SOL    HW132495   2.527   0.967   2.169  0.8883  1.2293 -1.3291
 6954SOL    HW232496   2.455   0.853   2.169 -0.4402  3.0009 -0.1972
 6955SOL     OW32497   4.227   0.038  10.029 -0.2188  0.2114 -0.2773
 6955SOL    HW132498   4.270   0.080   9.954  0.5625 -0.6706 -0.3414
 6955SOL    HW232499   4.307   4.736  10.066 -0.0120  1.5467  0.6791
 6956SOL     OW32500   0.005   1.116  16.853  0.3236  0.0236 -0.1005
 6956SOL    HW132501   4.686   1.194  16.849  0.4715  0.1793  1.1223
 6956SOL    HW232502   4.679   1.044  16.841 -0.8975  0.9120  0.9069
 6957SOL     OW32503   2.179   3.546   1.185  0.1567  0.3091  0.1952
 6957SOL    HW132504   2.225   3.533   1.102 -0.8463  0.9592 -0.4670
 6957SOL    HW232505   2.098   3.501   1.160  0.2119 -0.1932  0.9293
 6958SOL     OW32506   0.088   1.144   9.021 -0.3341 -0.0021  0.1547
 6958SOL    HW132507   0.144   1.073   9.052 -0.1153 -0.9293 -2.4433
 6958SOL    HW232508   0.001   1.106   9.022 -1.9895  3.7601  2.1242
 6959SOL     OW32509   2.948   1.426   8.833  0.2398 -0.8791  0.3217
 6959SOL    HW132510   2.865   1.458   8.798 -0.5045 -3.2244 -0.0749
 6959SOL    HW232511   2.932   1.334   8.855  0.5569 -0.6722  1.4260
 6960SOL     OW32512   3.185   0.496  17.237 -0.2793  0.3424 -0.3416
 6960SOL    HW132513   3.209   0.575  17.286 -0.6584  0.4308 -0.2989
 6960SOL    HW232514   3.130   0.454  17.303  1.4372 -0.2056  0.7528
 6961SOL     OW32515   3.901   1.370   2.758 -0.4277 -0.4707 -0.3017
 6961SOL    HW132516   3.835   1.328   2.703 -0.1488 -0.5266 -0.5934
 6961SOL    HW232517   3.855   1.374   2.842  0.1795  0.6630 -0.0158
 6962SOL     OW32518   4.472   0.906   2.840  0.2856 -0.0995 -0.1054
 6962SOL    HW132519   4.498   0.877   2.928 -0.0787 -0.9912 -0.2869
 6962SOL    HW232520   4.377   0.909   2.847  0.2188 -0.6352 -0.7858
 6963SOL     OW32521   4.720   2.919   5.605 -0.0569  0.5996 -0.4208
 6963SOL    HW132522   4.659   2.974   5.555  0.4630  1.5562  0.0048
 6963SOL    HW232523   4.685   2.833   5.582  0.6202 -0.1058  1.2047
 6964SOL     OW32524   3.236   0.325   3.245  0.0636 -0.0502 -0.2921
 6964SOL    HW132525   3.277   0.382   3.180 -1.9575 -1.9017 -3.2494
 6964SOL    HW232526   3.307   0.266   3.268 -0.4743 -0.1220  1.1689
 6965SOL     OW32527   3.381   0.282  15.833  0.0169  0.5188  0.3036
 6965SOL    HW132528   3.399   0.274  15.927  0.1253 -1.0034  0.1547
 6965SOL    HW232529   3.286   0.270  15.838  0.0829 -0.1819 -0.1911
 6966SOL     OW32530   0.844   2.828   6.041 -0.0778  0.6039  0.1571
 6966SOL    HW132531   0.872   2.743   6.077 -3.9929 -0.7235  0.0528
 6966SOL    HW232532   0.888   2.886   6.103 -0.7933  0.2128  1.0307
 6967SOL     OW32533   3.077   3.040   4.056 -0.0374  0.1283  0.4920
 6967SOL    HW132534   3.144   3.099   4.020 -1.2025  1.4368  0.4500
 6967SOL    HW232535   3.107   3.038   4.147 -0.2967 -0.8265  0.5549
 6968SOL     OW32536   1.810   0.906   3.475 -0.0632 -0.0947  0.0420
 6968SOL    HW132537   1.741   0.852   3.513  0.7198 -0.6523  0.6646
 6968SOL    HW232538   1.854   0.853   3.409  1.0690  0.9878 -0.0744
 6969SOL     OW32539   2.609   2.322   0.085  0.1311 -0.0677 -0.2292
 6969SOL    HW132540   2.663   2.263   0.034 -0.6508 -0.7159 -0.3072
 6969SOL    HW232541   2.678   2.373   0.128 -1.0454  2.7986 -1.7050
 6970SOL     OW32542   1.040   1.831   2.845  0.0439 -0.0202 -0.4347
 6970SOL    HW132543   1.047   1.739   2.822  0.2380 -0.5957  1.9072
 6970SOL    HW232544   1.037   1.874   2.759 -2.0176  1.4644  0.3510
 6971SOL     OW32545   1.769   0.750   4.098 -0.0226  0.0748 -0.5254
 6971SOL    HW132546   1.770   0.687   4.170  2.4170  0.0701 -0.5418
 6971SOL    HW232547   1.803   0.831   4.134 -2.1934  0.0144  1.6485
 6972SOL     OW32548   2.012   4.465   5.547 -0.3134 -0.1173  0.0760
 6972SOL    HW132549   1.954   4.520   5.494  1.0154 -0.5049 -1.7719
 6972SOL    HW232550   2.057   4.529   5.601 -1.4962 -1.5500  2.7409
 6973SOL     OW32551   2.799   0.055  12.550  0.1460 -0.6620 -0.3049
 6973SOL    HW132552   2.730   0.067  12.615  0.0232 -0.6602 -0.4343
 6973SOL    HW232553   2.848   4.723  12.595 -2.0439 -0.6406  2.1530
 6974SOL     OW32554   1.802   3.768   1.634  0.2343  0.0859 -0.4549
 6974SOL    HW132555   1.844   3.755   1.718  0.5039  1.8680 -0.3282
 6974SOL    HW232556   1.797   3.863   1.633 -2.2721 -0.0455 -1.0089
 6975SOL     OW32557   2.261   1.255   9.273  0.3290 -0.6572 -0.2749
 6975SOL    HW132558   2.201   1.181   9.268 -1.0839  0.3805  1.2462
 6975SOL    HW232559   2.255   1.288   9.183  0.6894 -0.0622 -0.0806
 6976SOL     OW32560   0.120   4.506  10.431 -0.2666 -0.2918  0.3386
 6976SOL    HW132561   0.108   4.444  10.503  1.5241 -1.6408 -0.5007
 6976SOL    HW232562   0.065   4.579  10.459  0.7865 -0.2850  2.4184
 6977SOL     OW32563   2.950   4.044  17.057  0.0589  0.2100 -0.4704
 6977SOL    HW132564   2.877   4.074  17.110  2.0672  2.2131  1.1809
 6977SOL    HW232565   2.923   4.085  16.975  0.2538 -0.1008 -0.6928
 6978SOL     OW32566   1.880   3.749   3.151  0.1828  0.0197 -0.4610
 6978SOL    HW132567   1.922   3.793   3.224 -0.0901 -0.0902 -0.2378
 6978SOL    HW232568   1.885   3.658   3.181  3.3910  0.1709 -0.5618
 6979SOL     OW32569   0.912   0.765   9.315 -0.4259  0.0918  0.1091
 6979SOL    HW132570   0.846   0.713   9.361 -1.6787  1.8767  0.3355
 6979SOL    HW232571   0.956   0.798   9.393  1.1919 -0.6893 -0.4925
 6980SOL     OW32572   1.354   3.753   8.328  0.0025  0.3876 -0.0286
 6980SOL    HW132573   1.355   3.807   8.248 -2.9789 -0.1358 -0.4198
 6980SOL    HW232574   1.426   3.796   8.374  0.0200  1.2217 -0.8235
 6981SOL     OW32575   4.177   1.384   1.872  0.9677  0.1587  0.3703
 6981SOL    HW132576   4.243   1.395   1.804 -0.4167  0.7968 -0.8849
 6981SOL    HW232577   4.229   1.347   1.943  2.0921 -1.5431 -1.3457
 6982SOL     OW32578   2.084   0.198   6.549  0.6014  0.7432 -0.3070
 6982SOL    HW132579   2.016   0.184   6.483 -1.3192  1.7298  1.4638
 6982SOL    HW232580   2.080   0.114   6.594  2.7643  0.4364 -0.6994
 6983SOL     OW32581   0.307   4.585   6.801 -0.3145  0.2073 -0.3799
 6983SOL    HW132582   0.242   4.517   6.781 -0.5165 -0.0674  1.2023
 6983SOL    HW232583   0.330   4.563   6.891  2.0342  0.2723 -0.9657
 6984SOL     OW32584   4.571   2.076   4.534  0.2841  0.2740  0.5128
 6984SOL    HW132585   4.574   2.068   4.439 -0.1928 -1.4612  0.6389
 6984SOL    HW232586   4.517   2.153   4.548 -0.5739  0.0029 -1.2597
 6985SOL     OW32587   4.538   1.559   7.492  0.3343 -0.1988  0.5654
 6985SOL    HW132588   4.555   1.632   7.552 -1.9984  0.4319  0.4551
 6985SOL    HW232589   4.538   1.598   7.405 -1.9560 -1.0145  0.2158
 6986SOL     OW32590   0.182   4.426   2.985 -0.0196 -0.2316  0.1073
 6986SOL    HW132591   0.173   4.363   3.057 -3.0239 -0.5349 -0.5388
 6986SOL    HW232592   0.158   4.386   2.902 -1.3451 -1.1900  0.9581
 6987SOL     OW32593   3.112   3.497   5.754 -0.3735  0.3204 -0.4439
 6987SOL    HW132594   3.158   3.527   5.675 -3.8082  1.1153 -2.1456
 6987SOL    HW232595   3.126   3.571   5.813  1.3021 -1.1158  0.9579
 6988SOL     OW32596   2.463   2.281  15.916 -0.2920  1.0089  0.5520
 6988SOL    HW132597   2.516   2.360  15.928  0.1607  0.6793  0.7025
 6988SOL    HW232598   2.427   2.291  15.828  1.0525 -0.4508 -0.1675
 6989SOL     OW32599   1.700   1.830   8.853  0.4959 -0.4775 -0.0296
 6989SOL    HW132600   1.657   1.758   8.808  0.9521  0.0034 -1.2269
 6989SOL    HW232601   1.723   1.790   8.937  2.1122  0.0024 -0.2357
 6990SOL     OW32602   2.723   0.677  11.603 -0.0949 -0.0600  0.4727
 6990SOL    HW132603   2.759   0.643  11.521  0.3228 -0.9936  1.0486
 6990SOL    HW232604   2.715   0.592  11.647 -0.7946  0.4296  1.2791
 6991SOL     OW32605   2.012   4.071  12.643 -0.0066  0.3387  0.1229
 6991SOL    HW132606   2.091   4.018  12.655 -0.4849 -0.9945 -2.7550
 6991SOL    HW232607   1.953   4.015  12.694  0.3151  1.0248  1.2497
 6992SOL     OW32608   2.194   3.017  16.645 -0.2252  0.4181  0.1959
 6992SOL    HW132609   2.222   3.078  16.577  2.3438 -0.6465  0.2985
 6992SOL    HW232610   2.126   2.970  16.596  0.1672 -0.3574  0.4000
 6993SOL     OW32611   1.988   0.199   7.236  0.1101  0.0991 -0.4104
 6993SOL    HW132612   1.971   0.276   7.182  1.5569  0.9815  0.3895
 6993SOL    HW232613   1.907   0.149   7.224  1.2629 -2.1811  1.4039
 6994SOL     OW32614   2.460   3.868   6.491  0.4555  0.0005 -0.1093
 6994SOL    HW132615   2.508   3.949   6.508  0.0531 -0.2557  2.2086
 6994SOL    HW232616   2.473   3.853   6.397 -0.8226 -0.4773 -0.2110
 6995SOL     OW32617   0.344   2.303   6.813  0.1068  0.0373  0.7386
 6995SOL    HW132618   0.283   2.370   6.781  0.8813  0.0370 -0.6901
 6995SOL    HW232619   0.285   2.228   6.828  1.2037 -1.2305 -1.4324
 6996SOL     OW32620   4.530   1.585   9.083 -0.5478 -0.1260  0.1164
 6996SOL    HW132621   4.484   1.645   9.143 -0.8774  1.4747 -1.7546
 6996SOL    HW232622   4.514   1.627   8.999 -2.8786  0.7385  0.9915
 6997SOL     OW32623   1.163   3.542   7.323 -0.3368  0.0762 -0.5996
 6997SOL    HW132624   1.224   3.540   7.397 -1.5254  0.5839  0.4044
 6997SOL    HW232625   1.164   3.454   7.286  1.2138 -0.6046  1.0692
 6998SOL     OW32626   2.713   3.625   6.577  0.5028  0.3073 -0.0350
 6998SOL    HW132627   2.768   3.622   6.499 -0.4151  0.1316 -0.6765
 6998SOL    HW232628   2.643   3.564   6.555 -1.6371  2.4607  0.7939
 6999SOL     OW32629   3.088   3.737   5.939  0.1624 -0.1638 -0.4197
 6999SOL    HW132630   3.117   3.782   6.018  0.4935 -0.3834 -0.4179
 6999SOL    HW232631   3.013   3.690   5.974  0.6780  1.0276  2.2812
 7000SOL     OW32632   1.129   2.615  13.748 -0.2036 -0.1451  0.2588
 7000SOL    HW132633   1.037   2.616  13.720 -0.1602  0.4368  0.1412
 7000SOL    HW232634   1.127   2.658  13.834  0.5017  1.7923 -0.7026
 7001SOL     OW32635   4.705   1.619   9.859  0.0012  0.0997  0.0198
 7001SOL    HW132636   4.675   1.629   9.949 -1.1320  1.1339 -0.4725
 7001SOL    HW232637   0.043   1.679   9.861 -1.9197  2.5657 -0.9899
 7002SOL     OW32638   2.103   0.079   9.079 -0.0460 -0.2223 -0.2690
 7002SOL    HW132639   2.025   0.027   9.100 -0.4163  1.2244  1.8566
 7002SOL    HW232640   2.136   0.106   9.165  2.5072 -0.5401 -1.1265
 7003SOL     OW32641   1.945   2.458  12.584  0.2003  0.1981 -0.0480
 7003SOL    HW132642   2.018   2.397  12.588 -0.7229 -0.8428  0.8282
 7003SOL    HW232643   1.876   2.432  12.645  1.9008 -0.9654  1.3840
 7004SOL     OW32644   1.779   4.362   6.266  0.3402  0.0748  0.6089
 7004SOL    HW132645   1.709   4.355   6.331  0.0241  0.2223  0.2829
 7004SOL    HW232646   1.733   4.349   6.183  1.4197 -1.2780  0.2247
 7005SOL     OW32647   3.013   0.705  15.707  0.3793  0.2073 -0.1305
 7005SOL    HW132648   2.933   0.758  15.708 -1.3675 -2.4437 -0.6790
 7005SOL    HW232649   2.993   0.631  15.763  1.9465  0.8088  1.2076
 7006SOL     OW32650   0.764   1.569   1.952  0.0378 -0.5356  0.4386
 7006SOL    HW132651   0.690   1.532   1.904  0.8845 -2.0940  0.3339
 7006SOL    HW232652   0.735   1.549   2.041  0.3501 -1.9574  0.2221
 7007SOL     OW32653   3.858   3.349   8.582  0.3734  0.5436 -0.0913
 7007SOL    HW132654   3.894   3.355   8.671 -0.9094  0.6672  0.4240
 7007SOL    HW232655   3.844   3.444   8.574 -0.3071  0.3534 -1.1138
 7008SOL     OW32656   0.396   2.835   7.064  0.1704 -0.4388 -0.1091
 7008SOL    HW132657   0.412   2.859   6.973 -0.6439  0.1568 -0.0990
 7008SOL    HW232658   0.375   2.924   7.094 -0.9416 -1.1144  1.1019
 7009SOL     OW32659   1.853   1.518   5.428 -0.0516  0.6070 -0.2622
 7009SOL    HW132660   1.894   1.432   5.425  1.6744  1.3525  1.8856
 7009SOL    HW232661   1.761   1.492   5.428 -0.2236  1.2288  1.0444
 7010SOL     OW32662   0.830   3.381   5.602  0.4516  0.2392  0.1087
 7010SOL    HW132663   0.760   3.316   5.590  1.1971 -0.0732 -2.4182
 7010SOL    HW232664   0.810   3.410   5.691  1.3689  0.0796  0.3626
 7011SOL     OW32665   1.932   1.309   6.784  0.2289  0.3081  0.2736
 7011SOL    HW132666   1.996   1.274   6.723 -0.8269  1.7347 -1.6356
 7011SOL    HW232667   1.983   1.332   6.862  0.5492 -2.1942  0.8033
 7012SOL     OW32668   4.689   4.250   6.330 -0.5354 -0.0513 -0.4450
 7012SOL    HW132669   0.018   4.198   6.283 -1.2038 -0.8894 -0.4643
 7012SOL    HW232670   4.637   4.186   6.378 -0.7391 -1.2906 -2.2991
 7013SOL     OW32671   1.827   4.176   2.866  0.0722  0.1219 -0.3028
 7013SOL    HW132672   1.819   4.210   2.955 -3.2572 -0.9996 -0.1899
 7013SOL    HW232673   1.923   4.178   2.859  0.0269 -1.1990 -1.3487
 7014SOL     OW32674   2.432   3.041   3.973  0.2101  0.3911  0.1655
 7014SOL    HW132675   2.482   3.102   4.028 -0.2568  2.1899 -1.4099
 7014SOL    HW232676   2.361   3.100   3.947  0.0454 -0.7229 -1.8344
 7015SOL     OW32677   2.660   2.231  16.604 -0.2169  0.7672 -0.4135
 7015SOL    HW132678   2.578   2.268  16.570 -1.0575 -1.5706 -0.9386
 7015SOL    HW232679   2.633   2.167  16.669  1.5459 -0.2898 -0.7101
 7016SOL     OW32680   4.444   2.285   7.236 -0.0190  0.0424  0.0610
 7016SOL    HW132681   4.518   2.258   7.182  0.0177  1.4665 -0.6103
 7016SOL    HW232682   4.468   2.365   7.282 -2.8465  1.4449 -0.8435
 7017SOL     OW32683   3.795   2.985  16.355  0.1546 -0.1660  0.1496
 7017SOL    HW132684   3.790   2.893  16.380  0.5422 -1.4118 -4.4880
 7017SOL    HW232685   3.708   2.991  16.316 -1.7391  0.4844  4.4026
 7018SOL     OW32686   1.575   4.268   9.358 -0.4521 -0.0308  0.6104
 7018SOL    HW132687   1.606   4.178   9.363 -0.9902 -0.1281  2.1708
 7018SOL    HW232688   1.602   4.297   9.445  2.8080 -1.3041  0.0136
 7019SOL     OW32689   1.765   0.721   4.809  0.1454 -0.1296 -0.2180
 7019SOL    HW132690   1.671   0.733   4.822  0.2601  1.4902 -0.8543
 7019SOL    HW232691   1.793   0.794   4.754 -0.2766  0.7833  0.7972
 7020SOL     OW32692   2.695   1.297  17.139 -0.3858 -0.2080  0.2154
 7020SOL    HW132693   2.699   1.388  17.169  3.1835  0.0170 -0.9315
 7020SOL    HW232694   2.738   1.250  17.212  0.4947 -0.9926 -0.8022
 7021SOL     OW32695   4.512   2.791   5.916 -0.5868  0.8515  0.2698
 7021SOL    HW132696   4.503   2.761   5.825  0.4530  0.0914  0.4142
 7021SOL    HW232697   4.504   2.707   5.960 -1.8869  0.1271 -1.3276
 7022SOL     OW32698   0.396   3.848   3.652  0.0681 -0.1795 -0.0433
 7022SOL    HW132699   0.356   3.903   3.720  2.2229  2.1583 -0.6705
 7022SOL    HW232700   0.418   3.763   3.690 -1.9955  0.1114  1.8504
 7023SOL     OW32701   3.389   1.489   5.596 -0.4690  0.3692  0.1241
 7023SOL    HW132702   3.299   1.465   5.575 -0.4408 -0.8500  1.4147
 7023SOL    HW232703   3.393   1.580   5.566  2.0904  0.2812  0.1810
 7024SOL     OW32704   2.628   2.287   9.290  0.2406 -0.4859 -0.3782
 7024SOL    HW132705   2.685   2.312   9.217 -0.3159 -0.8237 -0.9336
 7024SOL    HW232706   2.588   2.370   9.317  0.9305  0.0409 -0.9582
 7025SOL     OW32707   1.630   0.663   0.259  0.0575  0.2843 -0.2029
 7025SOL    HW132708   1.696   0.697   0.199  0.9615  0.7833  1.0597
 7025SOL    HW232709   1.555   0.701   0.213  0.3738  0.1302 -0.8507
 7026SOL     OW32710   1.380   2.123  11.188 -0.4167 -0.4985 -0.0380
 7026SOL    HW132711   1.395   2.033  11.219 -0.6453 -0.4026  0.3485
 7026SOL    HW232712   1.468   2.158  11.200 -0.3569 -1.3885  2.0687
 7027SOL     OW32713   0.452   3.675  17.126  0.4537 -0.1259  0.2211
 7027SOL    HW132714   0.410   3.761  17.119  1.3217  0.1316 -1.8114
 7027SOL    HW232715   0.375   3.620  17.108 -0.4726  1.3381 -0.3056
 7028SOL     OW32716   2.552   2.109   8.681  0.0249 -0.1961 -0.1179
 7028SOL    HW132717   2.474   2.139   8.727  0.5752  0.1942  0.5557
 7028SOL    HW232718   2.539   2.014   8.683  2.4157 -0.4676  1.9447
 7029SOL     OW32719   1.957   1.129   3.294 -0.6442  0.0785  0.0928
 7029SOL    HW132720   2.021   1.194   3.324  0.0113 -1.2742  1.6253
 7029SOL    HW232721   1.923   1.116   3.382  2.7270 -0.8078  1.2689
 7030SOL     OW32722   1.029   2.359   2.407  0.1858  0.2088  0.2268
 7030SOL    HW132723   1.001   2.312   2.329 -0.0343  0.8563 -0.0839
 7030SOL    HW232724   0.999   2.297   2.474 -0.1959  1.7561  1.5046
 7031SOL     OW32725   1.205   4.570  15.601 -0.0040 -0.1406 -0.0103
 7031SOL    HW132726   1.276   4.512  15.576 -0.0149 -0.4388  0.6594
 7031SOL    HW232727   1.134   4.516  15.566  0.4759 -0.2772 -0.7858
 7032SOL     OW32728   0.235   2.963   4.421  0.0860  0.5733  0.5859
 7032SOL    HW132729   0.318   2.939   4.381  0.8523  0.6216  2.1309
 7032SOL    HW232730   0.223   2.898   4.491 -1.1195 -0.3698 -0.5126
 7033SOL     OW32731   3.113   4.601   5.776 -0.4945  0.1851  0.3191
 7033SOL    HW132732   3.136   4.693   5.761  1.0365  0.1076  2.3006
 7033SOL    HW232733   3.017   4.597   5.772 -0.7310  3.6854  2.3964
 7034SOL     OW32734   3.793   0.653  14.979 -0.3655  0.1127 -0.3658
 7034SOL    HW132735   3.869   0.673  14.926 -0.5360 -1.3600 -1.1636
 7034SOL    HW232736   3.814   0.672  15.071  0.0445  1.0855 -0.6667
 7035SOL     OW32737   3.692   1.357  12.217  0.7531  0.7163 -0.2271
 7035SOL    HW132738   3.779   1.339  12.181  1.7124  2.8130  1.0287
 7035SOL    HW232739   3.643   1.353  12.135 -1.1635 -0.0984  0.9539
 7036SOL     OW32740   2.911   3.464  10.332  0.2432  1.0971  1.4291
 7036SOL    HW132741   2.998   3.502  10.323  0.1170  0.7070 -1.3884
 7036SOL    HW232742   2.908   3.473  10.427  1.3019  0.8649  1.4796
 7037SOL     OW32743   0.442   4.356  15.739  0.1082 -0.0317 -0.0533
 7037SOL    HW132744   0.489   4.331  15.819  0.1490  0.2251  0.0035
 7037SOL    HW232745   0.510   4.326  15.679 -1.5074  1.4571 -2.5878
 7038SOL     OW32746   4.036   2.967   1.077  0.1752 -0.1414 -0.1682
 7038SOL    HW132747   4.049   2.943   0.986  3.2854 -0.5313  0.3526
 7038SOL    HW232748   4.002   2.886   1.115 -0.4663 -0.3048 -1.1070
 7039SOL     OW32749   2.012   3.747  16.997  0.1963  0.1456  0.7621
 7039SOL    HW132750   1.918   3.734  16.985  0.3073  0.3670 -0.3026
 7039SOL    HW232751   2.034   3.763  16.905  2.1649  0.2888  1.2503
 7040SOL     OW32752   2.724   0.752   5.061  0.2941  0.3317 -0.1343
 7040SOL    HW132753   2.809   0.792   5.040  0.7921  0.0084  1.2509
 7040SOL    HW232754   2.699   0.723   4.973  0.2366 -0.8031  0.2590
 7041SOL     OW32755   4.306   2.591   0.895 -0.6281  0.1420  0.5502
 7041SOL    HW132756   4.240   2.530   0.929 -0.4565 -1.1543 -1.4110
 7041SOL    HW232757   4.329   2.636   0.976 -1.2909  0.1460  0.7420
 7042SOL     OW32758   1.045   1.250  16.082  0.3309 -0.2049 -0.1146
 7042SOL    HW132759   0.955   1.220  16.091  0.4041  0.5108  3.0708
 7042SOL    HW232760   1.030   1.340  16.054 -1.2696 -0.2560  0.5716
 7043SOL     OW32761   2.720   0.991   3.038  0.3061  0.4145  0.1526
 7043SOL    HW132762   2.644   0.993   2.981 -1.4120  0.5923  2.4339
 7043SOL    HW232763   2.729   1.082   3.068  0.5213  0.5287 -0.2650
 7044SOL     OW32764   1.907   3.960   5.610 -0.6168 -0.2744 -0.1703
 7044SOL    HW132765   1.857   3.957   5.691  1.9281  0.4791  1.4214
 7044SOL    HW232766   1.900   4.051   5.582 -1.1642 -0.2605  0.0144
 7045SOL     OW32767   2.546   1.723   3.794 -0.1103  0.0965  0.3575
 7045SOL    HW132768   2.481   1.702   3.861  0.5701 -0.0857  0.9744
 7045SOL    HW232769   2.493   1.778   3.738 -0.5128 -1.2896 -0.6311
 7046SOL     OW32770   1.830   4.648   6.170  0.4723 -0.3434  0.6788
 7046SOL    HW132771   1.754   4.607   6.129  0.3426 -0.2797  0.8537
 7046SOL    HW232772   1.890   4.575   6.185 -2.2793 -2.8524 -0.6511
 7047SOL     OW32773   3.577   1.229   3.794  0.1899  0.3987  0.1023
 7047SOL    HW132774   3.569   1.245   3.888 -0.1729  0.6948  0.0211
 7047SOL    HW232775   3.505   1.282   3.761  0.0060 -0.3194 -0.6431
 7048SOL     OW32776   1.590   4.328   8.518 -0.5607  0.7273  0.3070
 7048SOL    HW132777   1.630   4.281   8.591 -3.0813 -1.2066  0.4417
 7048SOL    HW232778   1.575   4.257   8.456  0.5659 -1.2761  2.3374
 7049SOL     OW32779   1.289   0.331   7.330  0.1065  0.6889  0.0462
 7049SOL    HW132780   1.340   0.397   7.283 -0.2253 -0.2484 -1.6475
 7049SOL    HW232781   1.223   0.389   7.369  0.5515  1.4698 -0.3575
 7050SOL     OW32782   2.648   2.772  14.072  0.0717 -0.3971 -0.0828
 7050SOL    HW132783   2.592   2.785  13.995  0.4351 -0.9185 -0.4260
 7050SOL    HW232784   2.716   2.713  14.041  0.4153  0.4685 -0.9853
 7051SOL     OW32785   3.522   2.732   5.900  0.1748 -0.2050 -0.5877
 7051SOL    HW132786   3.509   2.652   5.951 -1.6287  0.8248  0.5575
 7051SOL    HW232787   3.603   2.760   5.944 -0.0600 -0.7721  0.2075
 7052SOL     OW32788   4.106   1.778  10.293 -0.3192 -0.4049  0.0408
 7052SOL    HW132789   4.135   1.867  10.275  2.6711 -2.0327 -3.0263
 7052SOL    HW232790   4.045   1.751  10.225  0.1066 -0.2579 -0.3917
 7053SOL     OW32791   4.146   1.282   9.206 -0.3539  0.3702 -0.6723
 7053SOL    HW132792   4.153   1.362   9.259 -0.8514  0.7532 -1.1916
 7053SOL    HW232793   4.217   1.229   9.243 -1.6944 -0.8576  0.1540
 7054SOL     OW32794   2.866   4.504   3.963  0.1780 -0.2892 -0.3844
 7054SOL    HW132795   2.875   4.544   4.049 -2.1379  1.3406 -0.8910
 7054SOL    HW232796   2.779   4.533   3.934 -0.3250 -2.7631 -1.3156
 7055SOL     OW32797   3.922   4.703   2.018 -0.3350  0.0429  0.2502
 7055SOL    HW132798   3.831   4.726   2.032 -0.1188  1.7925 -1.1617
 7055SOL    HW232799   3.973   0.035   2.060 -0.0580 -0.4434  0.7201
 7056SOL     OW32800   4.033   0.645   4.942  0.4547 -0.1168 -0.0815
 7056SOL    HW132801   4.116   0.609   4.913  0.2552 -2.1153  1.8574
 7056SOL    HW232802   3.992   0.561   4.963  0.8905 -0.1321  0.6923
 7057SOL     OW32803   4.380   4.626   3.028 -0.4145 -0.2901 -0.3136
 7057SOL    HW132804   4.348   4.535   3.036 -1.6746  0.2011  0.3079
 7057SOL    HW232805   4.339   4.654   2.947  1.5880 -0.4977 -1.4016
 7058SOL     OW32806   3.497   2.822   6.332 -0.5515  0.0694 -0.2962
 7058SOL    HW132807   3.515   2.871   6.252  2.6258 -0.2805  0.2298
 7058SOL    HW232808   3.508   2.891   6.397  0.3291  0.4360 -0.8471
 7059SOL     OW32809   1.812   1.114  13.866 -0.1749  0.3400 -0.4850
 7059SOL    HW132810   1.863   1.058  13.924  1.5014  0.6937 -1.5982
 7059SOL    HW232811   1.786   1.181  13.929  1.5767  1.4624 -0.9281
 7060SOL     OW32812   1.340   0.632   8.300  0.3996 -0.5828  0.0590
 7060SOL    HW132813   1.272   0.699   8.309 -0.0320 -0.7674 -1.7369
 7060SOL    HW232814   1.289   0.553   8.314 -2.3847  0.7560 -2.4726
 7061SOL     OW32815   0.932   4.219   5.816  0.0358 -0.0062  0.1379
 7061SOL    HW132816   0.934   4.142   5.759 -1.5873 -0.7353  1.0667
 7061SOL    HW232817   0.867   4.272   5.771 -1.3899 -0.7555  1.3357
 7062SOL     OW32818   2.653   2.723  13.598  0.0378  0.6834 -0.4384
 7062SOL    HW132819   2.673   2.806  13.556  1.6366  0.2616 -0.5455
 7062SOL    HW232820   2.710   2.662  13.549 -1.4829  0.7465 -2.2983
 7063SOL     OW32821   4.187   0.138   1.042 -0.1760 -0.2326  0.2218
 7063SOL    HW132822   4.223   0.214   0.995 -1.6355  0.0906 -0.3815
 7063SOL    HW232823   4.116   0.175   1.094  0.1666  0.1883  0.3944
 7064SOL     OW32824   1.526   4.429   0.891  0.2952  0.0645  0.4944
 7064SOL    HW132825   1.447   4.471   0.856 -0.1629 -0.1934  1.2098
 7064SOL    HW232826   1.591   4.498   0.904  1.7691 -1.3690  0.7348
 7065SOL     OW32827   1.626   0.057   9.775  0.5635 -0.0275  0.0753
 7065SOL    HW132828   1.670   0.099   9.700  1.5056 -0.1856  0.5371
 7065SOL    HW232829   1.684   4.722   9.801  0.8875  1.1831  2.7370
 7066SOL     OW32830   3.155   0.238   8.624  0.4502 -0.1866  0.2650
 7066SOL    HW132831   3.120   0.193   8.700  0.4514  0.3903  0.6033
 7066SOL    HW232832   3.232   0.183   8.611 -0.4896 -1.7663  1.4079
 7067SOL     OW32833   0.069   0.116   5.002 -0.0806 -0.3653  1.0192
 7067SOL    HW132834   0.138   0.154   5.056 -0.4408  0.4883  0.8838
 7067SOL    HW232835   0.128   0.075   4.939 -1.0120 -0.8305  0.4341
 7068SOL     OW32836   3.153   1.342   9.280 -1.0216  0.4460  0.4357
 7068SOL    HW132837   3.144   1.435   9.300  0.1176  0.4192  1.0891
 7068SOL    HW232838   3.064   1.310   9.295 -0.7842 -1.2526 -1.7437
 7069SOL     OW32839   3.401   4.148   2.872 -0.5811  0.3929  0.2145
 7069SOL    HW132840   3.442   4.193   2.798  0.4039  0.7588  0.9829
 7069SOL    HW232841   3.469   4.085   2.894 -0.5425  1.3768  3.0061
 7070SOL     OW32842   1.955   4.531  15.745  0.2735  0.2434 -0.3441
 7070SOL    HW132843   1.985   4.530  15.654 -2.6664 -2.9040 -1.2952
 7070SOL    HW232844   1.992   4.444  15.764 -0.1363  0.2716  0.5509
 7071SOL     OW32845   4.400   0.583   8.846  0.0845  0.3870  0.4875
 7071SOL    HW132846   4.495   0.584   8.833 -0.3927  1.3104 -2.7744
 7071SOL    HW232847   4.403   0.574   8.941 -0.8399 -1.6462  0.3093
 7072SOL     OW32848   2.440   2.851   8.016  0.4655 -0.2051 -0.0461
 7072SOL    HW132849   2.357   2.891   8.042  0.2152 -0.1364 -0.9683
 7072SOL    HW232850   2.415   2.801   7.938  0.6162 -0.1232 -0.1468
 7073SOL     OW32851   0.651   3.301   4.530 -0.1726 -0.3208  0.2225
 7073SOL    HW132852   0.672   3.208   4.522  3.0734  0.3457  1.0451
 7073SOL    HW232853   0.662   3.315   4.624  1.0366 -1.9412  0.3138
 7074SOL     OW32854   2.279   3.531  12.163  0.1327  0.1044  0.1103
 7074SOL    HW132855   2.269   3.533  12.068  1.1385  1.3294  0.0393
 7074SOL    HW232856   2.322   3.615  12.181 -0.2238 -0.1133  2.0034
 7075SOL     OW32857   3.051   2.686   5.964  0.1883  0.3745 -0.7146
 7075SOL    HW132858   3.097   2.764   5.936 -0.1602  0.7546 -0.2287
 7075SOL    HW232859   3.118   2.622   5.987 -0.8316 -0.6529 -0.5813
 7076SOL     OW32860   3.297   2.838   3.719  0.1659 -0.4077 -0.5749
 7076SOL    HW132861   3.233   2.781   3.677 -1.1124  0.0101  0.8101
 7076SOL    HW232862   3.251   2.845   3.802 -0.7842 -3.1160 -0.8845
 7077SOL     OW32863   0.186   0.395   2.948 -0.8636  0.5098 -0.5388
 7077SOL    HW132864   0.217   0.414   3.037 -0.1027  1.1902 -0.9519
 7077SOL    HW232865   0.098   0.360   2.961 -0.4801  0.2474  1.4542
 7078SOL     OW32866   3.098   3.123   3.138 -0.1406 -0.4121 -0.3428
 7078SOL    HW132867   3.005   3.104   3.149  0.0442 -1.8585 -1.2705
 7078SOL    HW232868   3.123   3.163   3.221  0.6775 -0.1069 -0.7413
 7079SOL     OW32869   3.937   3.111   7.565  0.1274  0.1339  0.2755
 7079SOL    HW132870   3.922   3.197   7.603 -0.1462 -0.2107  0.9459
 7079SOL    HW232871   4.032   3.121   7.568  0.1525 -0.0908  0.2514
 7080SOL     OW32872   1.313   3.492   7.659  0.5109  0.3981 -0.6165
 7080SOL    HW132873   1.287   3.478   7.750  1.5010  1.1017 -0.2128
 7080SOL    HW232874   1.340   3.402   7.639  0.1613  0.1803 -0.0935
 7081SOL     OW32875   2.117   4.691   4.544  0.2937  0.1708  0.4296
 7081SOL    HW132876   2.129   4.610   4.592 -0.0503  0.6988  1.4029
 7081SOL    HW232877   2.046   0.003   4.587  1.3736  1.8996  0.2824
 7082SOL     OW32878   0.558   3.177   7.819  0.1268 -0.0103  0.2111
 7082SOL    HW132879   0.582   3.229   7.896  0.1319 -0.6481  0.6355
 7082SOL    HW232880   0.577   3.085   7.835  0.1593  0.1199  0.8880
 7083SOL     OW32881   2.593   2.262   6.778 -0.0896 -0.4122 -0.2431
 7083SOL    HW132882   2.624   2.215   6.856 -0.3215  0.9556  0.6738
 7083SOL    HW232883   2.584   2.184   6.723  3.0635  0.4956 -2.0599
 7084SOL     OW32884   1.729   2.331   2.325  0.1362  0.3362  0.2543
 7084SOL    HW132885   1.712   2.398   2.391 -0.9719  0.8697 -0.5807
 7084SOL    HW232886   1.754   2.381   2.247 -0.3221 -1.0911 -0.8147
 7085SOL     OW32887   1.421   2.403   7.840 -0.2455 -0.6691  0.3068
 7085SOL    HW132888   1.404   2.410   7.934  0.3016 -0.4321  0.3869
 7085SOL    HW232889   1.337   2.392   7.795  0.6035 -1.1945 -1.1434
 7086SOL     OW32890   1.444   1.071   2.195  0.0122 -0.1276 -0.3346
 7086SOL    HW132891   1.366   1.097   2.244  0.7300  1.6018 -0.0921
 7086SOL    HW232892   1.507   1.068   2.267 -2.3616  1.4361  1.8261
 7087SOL     OW32893   2.846   4.186  11.704 -0.0413  0.3013 -0.1641
 7087SOL    HW132894   2.910   4.175  11.633  2.7593  0.5082  2.3170
 7087SOL    HW232895   2.881   4.137  11.778  0.8662 -0.0444 -0.8087
 7088SOL     OW32896   2.709   2.927   5.128 -0.2077  0.5390 -0.4004
 7088SOL    HW132897   2.644   2.994   5.107  0.8614  1.2119 -1.5520
 7088SOL    HW232898   2.674   2.904   5.215 -2.8620 -1.5311 -2.0244
 7089SOL     OW32899   2.390   4.191   8.559 -0.1555  0.2404 -0.5652
 7089SOL    HW132900   2.480   4.211   8.586  0.0099  0.5551 -1.3417
 7089SOL    HW232901   2.350   4.176   8.645  3.5304  2.0834  1.4784
 7090SOL     OW32902   1.729   1.118   7.757 -0.1176  0.6606 -0.0786
 7090SOL    HW132903   1.663   1.053   7.782 -0.2388  0.1663 -1.6760
 7090SOL    HW232904   1.811   1.070   7.768 -0.2521 -0.1575 -2.8064
 7091SOL     OW32905   1.655   3.725   6.617 -0.0349 -0.7236  0.1409
 7091SOL    HW132906   1.661   3.688   6.705  3.2060  1.3457  0.8149
 7091SOL    HW232907   1.697   3.808   6.638 -3.6337  1.1504 -0.1852
 7092SOL     OW32908   0.169   4.003   8.709  0.3000 -0.0878  0.2204
 7092SOL    HW132909   0.090   4.050   8.683  1.3750  2.1333  0.9176
 7092SOL    HW232910   0.216   4.081   8.740 -0.1629  1.3225 -2.6912
 7093SOL     OW32911   3.648   1.175  13.688  0.1960 -0.0665 -0.2410
 7093SOL    HW132912   3.628   1.169  13.595 -1.4552 -0.7190  0.1620
 7093SOL    HW232913   3.698   1.093  13.698  0.1734 -0.1336 -0.6626
 7094SOL     OW32914   2.841   4.413   5.502 -0.1278  0.0544 -0.4563
 7094SOL    HW132915   2.880   4.348   5.561  0.1490  1.1540  0.5991
 7094SOL    HW232916   2.759   4.373   5.477  0.5362 -1.8849  0.4256
 7095SOL     OW32917   2.921   0.660   0.301 -0.1259  0.8035  0.0116
 7095SOL    HW132918   2.992   0.600   0.323  0.7598  1.7616 -0.2063
 7095SOL    HW232919   2.942   0.720   0.373  0.3912 -0.0468  0.5739
 7096SOL     OW32920   1.060   3.045   5.045  0.0865  0.1535 -0.5091
 7096SOL    HW132921   1.038   3.099   4.969 -0.8629  0.5860  0.0727
 7096SOL    HW232922   0.977   3.053   5.092  0.0025  0.3099 -0.6837
 7097SOL     OW32923   4.666   2.978  13.837 -0.6856  0.5039  0.6814
 7097SOL    HW132924   4.606   3.033  13.888  0.7527  1.6935  1.0878
 7097SOL    HW232925   4.725   3.042  13.797 -0.8145 -0.5972 -1.2821
 7098SOL     OW32926   0.212   3.190   5.278  0.1933  0.0060 -0.3171
 7098SOL    HW132927   0.177   3.278   5.280  0.6645  0.2295 -2.0460
 7098SOL    HW232928   0.136   3.134   5.261 -0.2036 -0.8110  4.0515
 7099SOL     OW32929   4.506   0.657   0.072 -0.0253 -0.0708 -0.5150
 7099SOL    HW132930   4.443   0.707   0.124  1.6226  0.3159  1.1342
 7099SOL    HW232931   4.584   0.679   0.123 -0.0560  1.4212 -1.1147
 7100SOL     OW32932   0.175   1.825   9.830  0.0188 -0.0347  0.1356
 7100SOL    HW132933   0.267   1.799   9.822  0.9520  2.9154  1.5333
 7100SOL    HW232934   0.161   1.852   9.739 -3.2558 -0.3084  0.5371
 7101SOL     OW32935   2.499   1.329   1.637 -0.0122  0.0093 -0.3981
 7101SOL    HW132936   2.463   1.361   1.720  0.0406 -0.4600 -0.1958
 7101SOL    HW232937   2.458   1.243   1.640 -0.6353  0.3102 -0.2488
 7102SOL     OW32938   3.871   1.646  13.213  0.1080  0.3765  0.0283
 7102SOL    HW132939   3.946   1.696  13.247  1.2007 -1.2494 -0.0078
 7102SOL    HW232940   3.817   1.660  13.291 -0.6795 -1.0408 -0.2652
 7103SOL     OW32941   3.902   4.409   3.958  0.0396 -0.6227 -0.6613
 7103SOL    HW132942   3.980   4.463   3.975 -2.2418  2.0909  1.2468
 7103SOL    HW232943   3.928   4.348   3.889  0.2683 -1.5382  0.2381
 7104SOL     OW32944   2.606   2.661   9.175 -0.2026 -0.5238  0.6929
 7104SOL    HW132945   2.625   2.643   9.267 -0.7036  1.1362  1.1302
 7104SOL    HW232946   2.556   2.742   9.180  0.1916 -0.1454 -1.3361
 7105SOL     OW32947   0.188   0.655  15.112  0.4036  0.0873 -0.1689
 7105SOL    HW132948   0.100   0.681  15.139  0.0863  0.0748 -1.1891
 7105SOL    HW232949   0.184   0.656  15.016 -1.1329 -0.6132 -0.1093
 7106SOL     OW32950   2.551   4.647   6.946 -0.7674 -0.1151 -0.3054
 7106SOL    HW132951   2.599   4.721   6.983 -1.2711 -0.1242  0.3773
 7106SOL    HW232952   2.548   4.589   7.022  0.5273  1.5778  1.0318
 7107SOL     OW32953   0.862   1.083   8.720  0.2172  0.2865  0.4158
 7107SOL    HW132954   0.925   1.020   8.756 -1.1180 -0.3905  1.5620
 7107SOL    HW232955   0.835   1.139   8.793 -0.1481  2.9077 -1.7060
 7108SOL     OW32956   1.103   3.806   7.274  0.1463  0.6494  0.1237
 7108SOL    HW132957   1.119   3.712   7.271  0.1301  0.6160  0.9705
 7108SOL    HW232958   1.007   3.805   7.277  0.1471  1.6647  0.7654
 7109SOL     OW32959   0.112   0.119  17.107 -0.4133  0.4244  0.4217
 7109SOL    HW132960   0.017   0.107  17.113 -0.5293  1.0079 -0.2658
 7109SOL    HW232961   0.125   0.178  17.181 -0.8785 -1.0100  1.6551
 7110SOL     OW32962   0.276   3.652  15.095  0.4638  0.3493  0.3636
 7110SOL    HW132963   0.315   3.608  15.171 -2.3855  0.0743  1.6466
 7110SOL    HW232964   0.336   3.632  15.022 -0.8515 -0.3594 -0.5283
 7111SOL     OW32965   0.367   3.786  11.860 -0.5587 -0.5090  0.1437
 7111SOL    HW132966   0.312   3.754  11.932 -0.7811 -3.1257 -1.1875
 7111SOL    HW232967   0.302   3.806  11.793 -0.9636  0.8266  0.9251
 7112SOL     OW32968   4.041   3.251  13.342  0.0300  0.1506 -0.0558
 7112SOL    HW132969   3.989   3.323  13.378 -2.1309 -1.9255  0.9578
 7112SOL    HW232970   4.092   3.232  13.421 -0.3708 -0.3988  0.0690
 7113SOL     OW32971   2.982   2.582  11.099 -0.0686  0.1172 -0.0621
 7113SOL    HW132972   2.932   2.585  11.180 -0.0078 -2.6587  0.0707
 7113SOL    HW232973   2.915   2.534  11.050  1.8252 -1.2445 -1.3024
 7114SOL     OW32974   0.189   4.497   4.141 -0.2767 -0.5039 -0.1238
 7114SOL    HW132975   0.142   4.470   4.062  0.8032 -0.0553 -0.9099
 7114SOL    HW232976   0.150   4.442   4.210  1.2207  0.1911  1.2768
 7115SOL     OW32977   4.093   2.873   5.824 -0.7933  0.2661  0.4502
 7115SOL    HW132978   4.159   2.938   5.849  1.3352 -0.5312 -3.1484
 7115SOL    HW232979   4.092   2.811   5.898 -0.5569  0.3420  0.5163
 7116SOL     OW32980   4.674   0.801   9.714  0.0415 -0.1085  0.0293
 7116SOL    HW132981   4.706   0.782   9.802  1.0222 -0.1044 -0.3310
 7116SOL    HW232982   4.610   0.871   9.730  0.0813  0.1826 -1.0618
 7117SOL     OW32983   1.858   2.167   4.308  0.3231 -0.1816 -0.7805
 7117SOL    HW132984   1.799   2.112   4.258 -0.4392  0.1457 -0.2405
 7117SOL    HW232985   1.936   2.178   4.254  0.2220  0.2605 -0.8421
 7118SOL     OW32986   0.747   2.881   4.029 -0.7313 -0.4095 -0.1211
 7118SOL    HW132987   0.788   2.946   3.972 -0.1547  0.4574  1.2877
 7118SOL    HW232988   0.774   2.799   3.987  0.9677 -0.1844  0.5303
 7119SOL     OW32989   0.012   3.988   2.558 -0.3289  0.1851 -0.9065
 7119SOL    HW132990   0.075   4.057   2.539 -0.3620  0.1297 -1.2192
 7119SOL    HW232991   4.667   4.039   2.557  0.3145  1.2393  1.5419
 7120SOL     OW32992   4.007   3.284   7.910  0.7858  0.7566 -0.3138
 7120SOL    HW132993   4.027   3.297   7.818  1.2237 -0.1768 -0.3528
 7120SOL    HW232994   4.013   3.371   7.950 -0.0374  1.0989 -0.9442
 7121SOL     OW32995   3.195   3.418  13.941 -0.2535  0.3019 -0.0608
 7121SOL    HW132996   3.202   3.514  13.946  0.5739  0.3381 -1.9736
 7121SOL    HW232997   3.264   3.389  13.881 -1.0596  0.1407 -0.9105
 7122SOL     OW32998   0.442   2.661   8.184 -0.0699 -0.3243  0.3334
 7122SOL    HW132999   0.410   2.676   8.095 -0.2258  1.1510  0.6431
 7122SOL    HW233000   0.452   2.744   8.231 -0.3496 -0.1199  0.0353
 7123SOL     OW33001   2.594   1.879  16.537  0.0017  0.1465  0.5462
 7123SOL    HW133002   2.612   1.953  16.478 -0.9713 -0.3784 -0.4087
 7123SOL    HW233003   2.500   1.865  16.525 -0.3992  3.6372 -0.4643
 7124SOL     OW33004   3.050   3.954  12.545 -0.4057 -0.6312  0.2386
 7124SOL    HW133005   3.006   3.868  12.544 -2.1492  0.2468  0.8670
 7124SOL    HW233006   3.138   3.929  12.517  0.2759  0.4699  1.4130
 7125SOL     OW33007   0.404   0.043  12.999  0.1521  0.2655  0.6988
 7125SOL    HW133008   0.311   0.030  13.014  0.1306  0.3008  0.5932
 7125SOL    HW233009   0.417   0.136  13.017 -0.4805  0.1892  1.5478
 7126SOL     OW33010   1.619   0.083   2.553 -0.0106  0.4631  0.2615
 7126SOL    HW133011   1.586   4.730   2.564 -1.0425  1.0149  1.6856
 7126SOL    HW233012   1.645   0.072   2.461  0.7564 -1.2994  0.6762
 7127SOL     OW33013   0.537   3.263   7.549  0.1050  0.5432  0.3743
 7127SOL    HW133014   0.567   3.172   7.554 -0.4721  0.3917  1.0809
 7127SOL    HW233015   0.548   3.273   7.643  1.3492 -1.3885  0.4470
 7128SOL     OW33016   4.681   3.790   0.784 -0.0507  1.0200  0.5091
 7128SOL    HW133017   4.593   3.794   0.821 -0.6137 -1.4763 -0.5883
 7128SOL    HW233018   4.711   3.879   0.805  0.6307  0.6564  1.0746
 7129SOL     OW33019   1.375   1.295   2.938  0.1901 -0.5381  0.1968
 7129SOL    HW133020   1.407   1.208   2.912 -1.3981 -0.7615 -1.0298
 7129SOL    HW233021   1.456   1.341   2.915  0.2690 -2.1893 -2.8778
 7130SOL     OW33022   1.798   0.456   4.673 -0.5072  0.2036 -0.1796
 7130SOL    HW133023   1.878   0.459   4.725  0.4094 -2.6570 -1.3762
 7130SOL    HW233024   1.762   0.544   4.678  2.2905  1.0765  3.9088
 7131SOL     OW33025   0.336   4.063   5.269 -0.2008  0.5162 -0.4876
 7131SOL    HW133026   0.343   4.143   5.322  3.8761  0.3408 -0.7856
 7131SOL    HW233027   0.298   4.008   5.338 -0.2316 -1.9226 -2.4415
 7132SOL     OW33028   3.930   0.001  10.291 -0.4809 -0.5251  0.4251
 7132SOL    HW133029   3.973   0.080  10.323 -2.6666  0.3222  1.3351
 7132SOL    HW233030   3.871   4.721  10.365 -2.3702  0.9122 -0.7412
 7133SOL     OW33031   3.778   0.030   1.020  0.0304 -0.0092 -0.3708
 7133SOL    HW133032   3.800   0.090   0.949  0.2051 -0.6924 -0.8887
 7133SOL    HW233033   3.777   0.085   1.098 -3.0900 -1.1463  0.3699
 7134SOL     OW33034   3.203   0.957   6.359  0.1777  0.2303 -0.6780
 7134SOL    HW133035   3.187   1.024   6.425  0.8315  1.5384 -1.8476
 7134SOL    HW233036   3.291   0.926   6.380 -0.2684  0.7303  1.9431
 7135SOL     OW33037   3.652   4.405  15.586  0.2441 -0.1278 -0.0454
 7135SOL    HW133038   3.682   4.493  15.562  1.5306 -0.2288  1.1685
 7135SOL    HW233039   3.561   4.399  15.556  0.3875  0.8455 -0.6547
 7136SOL     OW33040   0.671   1.713   0.426 -0.5491  0.0797 -0.1527
 7136SOL    HW133041   0.714   1.752   0.350 -1.5076  1.0462 -0.2045
 7136SOL    HW233042   0.747   1.678   0.473  0.2211  0.9279 -0.7738
 7137SOL     OW33043   0.313   3.995  13.037  0.6080  0.1508 -0.5596
 7137SOL    HW133044   0.360   3.977  12.956 -0.0509  0.0492 -0.9106
 7137SOL    HW233045   0.339   3.928  13.101 -1.6095  0.0160  0.2050
 7138SOL     OW33046   2.361   2.828  11.320  0.5778 -0.5803  0.9534
 7138SOL    HW133047   2.428   2.835  11.388  0.4204  0.8105  0.9729
 7138SOL    HW233048   2.368   2.736  11.294  0.3990 -0.3187 -0.0461
 7139SOL     OW33049   4.418   0.168   8.176  0.2206  0.3075 -0.7477
 7139SOL    HW133050   4.497   0.213   8.148  0.4268  1.7762  2.1965
 7139SOL    HW233051   4.435   0.154   8.269 -0.5855 -0.3999 -0.7074
 7140SOL     OW33052   4.592   2.084   4.086 -0.2192 -0.5444  0.2111
 7140SOL    HW133053   4.529   2.016   4.060  0.5186 -0.8277 -0.7952
 7140SOL    HW233054   4.537   2.149   4.131 -1.4186 -0.6386 -1.1152
 7141SOL     OW33055   1.192   4.574   3.202 -0.5804  0.0225  0.7186
 7141SOL    HW133056   1.276   4.551   3.241  0.2277  1.2440 -0.2670
 7141SOL    HW233057   1.159   4.485   3.192 -0.8255  0.2859 -0.8768
 7142SOL     OW33058   1.498   0.052   1.389 -0.3043 -1.1973 -0.2960
 7142SOL    HW133059   1.450   0.002   1.454 -1.1296  5.0931  3.8801
 7142SOL    HW233060   1.574   4.730   1.382  0.5741 -0.1346  0.2987
 7143SOL     OW33061   0.087   1.130  12.094  0.3345 -0.2525  0.5452
 7143SOL    HW133062   0.013   1.160  12.148  0.1128 -2.4429  1.4688
 7143SOL    HW233063   0.118   1.207  12.046  4.2510 -1.2599  1.5163
 7144SOL     OW33064   1.254   2.118   8.547  0.2284  0.1396 -0.0969
 7144SOL    HW133065   1.242   2.198   8.496 -1.0655 -0.1471 -0.2376
 7144SOL    HW233066   1.298   2.072   8.477 -1.9066  1.4851 -2.3294
 7145SOL     OW33067   0.249   1.967   7.934  0.0925 -0.2018  0.2045
 7145SOL    HW133068   0.166   2.006   7.904 -0.2240  0.0219  1.3994
 7145SOL    HW233069   0.313   1.996   7.869 -1.1359  0.1456 -0.8444
 7146SOL     OW33070   1.267   1.270   4.823  0.1004  0.4053  0.4469
 7146SOL    HW133071   1.216   1.265   4.742 -3.9312  1.0814  2.9510
 7146SOL    HW233072   1.323   1.344   4.801  1.4338  0.0265  2.6224
 7147SOL     OW33073   0.211   0.447   8.336 -0.4213  0.7965 -0.4122
 7147SOL    HW133074   0.275   0.390   8.378  0.1622  0.5401 -1.6590
 7147SOL    HW233075   0.226   0.419   8.246 -1.5128  0.8005 -0.5870
 7148SOL     OW33076   3.894   1.109   8.361  0.4951  0.3881  0.3154
 7148SOL    HW133077   3.947   1.030   8.371  0.2814  0.2426  0.2948
 7148SOL    HW233078   3.843   1.097   8.281 -0.7264  0.2862  1.1133
 7149SOL     OW33079   2.492   1.960   4.898  0.1151  0.0801 -0.3141
 7149SOL    HW133080   2.447   1.980   4.980  3.3831  1.7494  1.1128
 7149SOL    HW233081   2.445   2.016   4.836 -1.4479  0.3045  1.0804
 7150SOL     OW33082   0.225   3.476  17.050  1.0246  0.5265 -0.1894
 7150SOL    HW133083   0.145   3.427  17.071  0.6844  1.2595  0.2271
 7150SOL    HW233084   0.215   3.466  16.955 -0.1786 -1.8157  0.1609
 7151SOL     OW33085   4.419   1.120  11.390  0.3203 -0.1325  0.2481
 7151SOL    HW133086   4.500   1.144  11.346  0.7946 -1.6257  0.3151
 7151SOL    HW233087   4.369   1.103  11.310 -1.6743 -1.7564  1.8232
 7152SOL     OW33088   2.924   1.282   5.539 -0.5830 -0.1390 -0.1444
 7152SOL    HW133089   2.884   1.367   5.520 -1.5196 -0.9870 -2.0074
 7152SOL    HW233090   2.917   1.244   5.451 -2.5756  1.5794 -0.6946
 7153SOL     OW33091   2.361   1.778   8.365 -0.2464 -0.1589  0.1214
 7153SOL    HW133092   2.390   1.832   8.292  1.9602  0.1832  1.2303
 7153SOL    HW233093   2.362   1.697   8.315 -0.6481 -0.0717 -0.0183
 7154SOL     OW33094   2.275   0.889   1.911 -0.1775  0.0117  0.3088
 7154SOL    HW133095   2.210   0.838   1.862  0.1804 -0.0230 -0.1315
 7154SOL    HW233096   2.351   0.844   1.873 -0.4184 -0.5072  0.4517
 7155SOL     OW33097   3.524   1.920   2.648  0.0769 -0.0362  0.2135
 7155SOL    HW133098   3.490   2.009   2.660 -1.8667 -0.4683 -2.2660
 7155SOL    HW233099   3.445   1.868   2.638 -1.3650  2.3470 -0.6933
 7156SOL     OW33100   2.140   1.012  13.179  0.2386 -0.1217  0.6669
 7156SOL    HW133101   2.221   1.062  13.173 -0.9820  1.6992 -0.6456
 7156SOL    HW233102   2.176   0.930  13.212  0.4754  0.2912  1.4350
 7157SOL     OW33103   0.335   2.650   3.692  0.1422 -0.0687 -0.2496
 7157SOL    HW133104   0.361   2.576   3.636  0.5378  1.8234 -2.5967
 7157SOL    HW233105   0.257   2.614   3.735 -0.1194 -0.1053 -0.7497
 7158SOL     OW33106   1.483   0.821   9.370 -0.0152  0.4772 -0.7015
 7158SOL    HW133107   1.568   0.858   9.345  1.6560 -1.5358  2.0911
 7158SOL    HW233108   1.489   0.742   9.317  1.1639 -0.4532  0.8436
 7159SOL     OW33109   1.863   0.604  10.296 -0.4598  0.7844  0.1359
 7159SOL    HW133110   1.786   0.551  10.314 -0.7949  1.3963  0.5076
 7159SOL    HW233111   1.825   0.691  10.309  0.5225  0.9304  2.1106
 7160SOL     OW33112   4.111   1.685  11.429 -0.4438 -0.2615  0.5293
 7160SOL    HW133113   4.188   1.741  11.428 -1.1654  0.7553  1.9537
 7160SOL    HW233114   4.074   1.717  11.511 -0.0784  0.9468  0.2352
 7161SOL     OW33115   3.871   1.222   9.216  0.7056  0.3450 -0.2840
 7161SOL    HW133116   3.862   1.187   9.127  0.0753  1.3098 -0.5923
 7161SOL    HW233117   3.962   1.197   9.232  1.0453  0.5896 -1.8531
 7162SOL     OW33118   2.545   1.832   8.568  0.4421 -0.2270  0.4072
 7162SOL    HW133119   2.638   1.822   8.550  0.0037 -0.7035 -1.6295
 7162SOL    HW233120   2.493   1.803   8.493  0.2533 -0.8029  0.7604
 7163SOL     OW33121   2.951   2.044   7.954  0.1993  0.4418 -0.1953
 7163SOL    HW133122   2.903   2.084   7.882 -0.0806 -0.4749 -0.5219
 7163SOL    HW233123   2.905   2.081   8.029  1.2295  2.5089 -0.5977
 7164SOL     OW33124   0.665   4.120  11.797  0.2724 -0.4446 -0.1580
 7164SOL    HW133125   0.732   4.181  11.767  0.6995 -1.8492 -2.1092
 7164SOL    HW233126   0.585   4.167  11.774  0.4389  0.2366  0.6661
 7165SOL     OW33127   3.292   4.007  10.238  0.8852 -0.1119  0.0709
 7165SOL    HW133128   3.243   4.044  10.311 -0.9843 -0.4000 -1.0239
 7165SOL    HW233129   3.356   3.947  10.276  2.8102  2.8358  1.3875
 7166SOL     OW33130   1.492   1.072   6.775 -0.1912 -0.0364 -0.1734
 7166SOL    HW133131   1.550   1.148   6.769  1.1463 -1.0758 -0.4993
 7166SOL    HW233132   1.517   1.066   6.867  1.7460 -0.1816 -0.6957
 7167SOL     OW33133   4.220   2.441  10.169 -0.3792  0.4528 -0.2145
 7167SOL    HW133134   4.296   2.386  10.188 -1.6663 -1.7639 -1.5241
 7167SOL    HW233135   4.268   2.514  10.130  1.4638 -0.8475 -0.3700
 7168SOL     OW33136   0.173   0.199  11.779  0.2457 -0.4089  0.2695
 7168SOL    HW133137   0.232   0.274  11.789  1.6753 -1.2496 -1.8789
 7168SOL    HW233138   0.128   0.197  11.863  0.5966  0.5757  0.4796
 7169SOL     OW33139   2.527   0.561   0.036 -0.6635  0.4248  0.4492
 7169SOL    HW133140   2.584   0.602  17.717  1.2200 -0.7481  1.3571
 7169SOL    HW233141   2.485   0.640   0.070 -1.2176  0.4805 -0.3735
 7170SOL     OW33142   0.039   1.074   5.626  0.1675  0.0435 -0.1708
 7170SOL    HW133143   4.724   1.033   5.696 -0.1614 -0.1276 -0.5122
 7170SOL    HW233144   4.699   1.113   5.584 -1.8305 -3.2983  0.3487
 7171SOL     OW33145   1.505   2.912  16.785 -0.2707 -0.7052  0.3295
 7171SOL    HW133146   1.531   2.906  16.693 -0.5422  2.0142  0.0851
 7171SOL    HW233147   1.594   2.912  16.820 -0.3461  0.2230  0.5054
 7172SOL     OW33148   4.130   1.212   1.547 -0.1776  0.5688 -0.0201
 7172SOL    HW133149   4.088   1.141   1.500  1.3928 -1.1234  1.1350
 7172SOL    HW233150   4.112   1.291   1.495  0.3219  1.4710  1.1838
 7173SOL     OW33151   0.019   3.653  15.826 -0.3465  0.5960  0.4885
 7173SOL    HW133152   0.040   3.731  15.774  1.1022  0.3352  0.6902
 7173SOL    HW233153   4.721   3.700  15.902  1.9807  2.6921  0.2742
 7174SOL     OW33154   3.881   1.663   9.513 -0.2188  0.3636 -0.5893
 7174SOL    HW133155   3.792   1.644   9.483  0.0599 -0.5380 -0.8439
 7174SOL    HW233156   3.897   1.574   9.544  0.7632 -0.5822 -3.8220
 7175SOL     OW33157   4.001   0.256  10.361 -0.2671 -0.0211 -0.0212
 7175SOL    HW133158   3.999   0.311  10.282  0.2779 -0.2110 -0.1611
 7175SOL    HW233159   3.915   0.275  10.399 -1.0709  0.3250 -1.9759
 7176SOL     OW33160   4.264   0.324   5.156 -0.1422 -0.3034  0.0053
 7176SOL    HW133161   4.318   0.276   5.218 -0.7602 -0.6094  0.3075
 7176SOL    HW233162   4.194   0.261   5.138  0.8377 -1.7562  1.3781
 7177SOL     OW33163   3.514   4.659  16.504  0.0895 -0.2182  0.6036
 7177SOL    HW133164   3.452   4.645  16.432  0.1178  1.0113  0.3255
 7177SOL    HW233165   3.533   0.014  16.483 -0.5762 -0.4516 -1.0854
 7178SOL     OW33166   2.858   2.481  10.459 -0.3090 -0.0977 -0.0710
 7178SOL    HW133167   2.886   2.482  10.551  1.9765  2.1861 -0.7904
 7178SOL    HW233168   2.948   2.485  10.427 -0.3939 -1.5388 -0.5138
 7179SOL     OW33169   2.930   2.292  10.077 -0.0548 -0.3030 -0.1320
 7179SOL    HW133170   2.890   2.375  10.052 -0.5207 -1.3807 -2.9455
 7179SOL    HW233171   2.952   2.258   9.990  1.2541 -2.9821  1.2233
 7180SOL     OW33172   2.676   4.338   4.704  0.4880 -0.1097  0.6887
 7180SOL    HW133173   2.634   4.254   4.720  0.0093 -0.1721 -0.8619
 7180SOL    HW233174   2.658   4.387   4.784 -1.7668  2.2395 -1.2304
 7181SOL     OW33175   2.480   0.422   6.492 -0.0074  0.0579  0.1995
 7181SOL    HW133176   2.498   0.513   6.468  0.7852 -0.7637 -2.3433
 7181SOL    HW233177   2.414   0.441   6.559  2.1802 -0.1215  2.4149
 7182SOL     OW33178   1.453   1.844  11.315  0.5286  0.1653  0.1004
 7182SOL    HW133179   1.430   1.763  11.362  0.4604 -1.0170 -1.9896
 7182SOL    HW233180   1.529   1.801  11.274  0.3450  1.9411 -2.0760
 7183SOL     OW33181   2.851   3.011   3.146 -0.0285 -0.4482  0.1665
 7183SOL    HW133182   2.778   2.972   3.194 -1.2715  1.4346 -0.2061
 7183SOL    HW233183   2.846   2.964   3.063 -0.4341  0.3472 -0.2558
 7184SOL     OW33184   2.181   0.272   5.312 -0.0335  0.0476  0.4376
 7184SOL    HW133185   2.176   0.355   5.360  1.0174  0.0816  0.4820
 7184SOL    HW233186   2.165   0.216   5.388  2.8124  0.0456  1.0171
 7185SOL     OW33187   2.859   2.475   4.015 -0.3102 -0.4335 -0.1570
 7185SOL    HW133188   2.823   2.417   3.947  0.0685  0.4985 -1.1544
 7185SOL    HW233189   2.873   2.415   4.088 -0.2914 -0.1049  0.1123
 7186SOL     OW33190   3.769   2.165   4.020 -0.2127 -0.4185  0.0047
 7186SOL    HW133191   3.679   2.195   4.023 -0.6130 -1.4850 -1.4322
 7186SOL    HW233192   3.764   2.130   3.931 -2.5139 -2.7479  1.0589
 7187SOL     OW33193   4.213   3.394  16.258 -0.3789  0.4899  0.8856
 7187SOL    HW133194   4.221   3.305  16.226 -0.1117  0.3122  1.4518
 7187SOL    HW233195   4.302   3.429  16.259 -0.2323  0.1761 -1.8888
 7188SOL     OW33196   3.079   3.177   0.852 -0.2445 -0.0692  0.1570
 7188SOL    HW133197   3.022   3.145   0.922 -1.7263  1.4248 -0.3850
 7188SOL    HW233198   3.116   3.094   0.820  0.9780  1.0042 -1.1813
 7189SOL     OW33199   0.298   2.817  12.839  0.0856 -0.1792 -0.1773
 7189SOL    HW133200   0.230   2.859  12.892  0.6305  0.8348 -0.2797
 7189SOL    HW233201   0.285   2.727  12.867 -0.5448  0.6461  2.1631
 7190SOL     OW33202   3.720   2.175   7.112  0.4630  0.2615  0.1297
 7190SOL    HW133203   3.693   2.152   7.201  1.3695  0.7204  0.5205
 7190SOL    HW233204   3.699   2.098   7.058  3.7558  0.2955 -1.2032
 7191SOL     OW33205   0.270   4.025   2.014  0.4702  0.6501  0.2056
 7191SOL    HW133206   0.240   3.937   1.989 -1.0342  0.9246  1.1173
 7191SOL    HW233207   0.360   4.023   1.980  0.3604  0.7009 -0.0884
 7192SOL     OW33208   1.405   3.402   4.952  0.0046 -0.3757  0.5461
 7192SOL    HW133209   1.319   3.405   4.911  0.6186  1.4123 -0.5723
 7192SOL    HW233210   1.423   3.308   4.946  3.2550  0.3271 -0.2104
 7193SOL     OW33211   0.872   0.295   5.294 -0.2892 -0.5642 -0.2720
 7193SOL    HW133212   0.805   0.228   5.282 -0.9167  0.1589 -0.9059
 7193SOL    HW233213   0.811   0.369   5.289 -1.0545 -1.2938 -1.9895
 7194SOL     OW33214   0.691   1.542   6.659  0.2726 -0.3608  0.4334
 7194SOL    HW133215   0.619   1.548   6.596 -0.5814 -0.5014  1.4075
 7194SOL    HW233216   0.637   1.518   6.734 -0.2078  0.0858  0.2322
 7195SOL     OW33217   4.692   2.517   6.871  0.1249 -0.0195  0.0197
 7195SOL    HW133218   4.684   2.480   6.959 -2.9721  1.1753  0.2372
 7195SOL    HW233219   4.601   2.504   6.844  0.1080  1.2538 -0.5350
 7196SOL     OW33220   3.281   1.507   4.057  0.3616  0.0257  0.0554
 7196SOL    HW133221   3.356   1.556   4.023  1.4794  0.1641  2.7327
 7196SOL    HW233222   3.279   1.541   4.146  1.5444  0.2932 -0.0196
 7197SOL     OW33223   4.134   2.773   7.069 -0.0128  0.0215  0.6112
 7197SOL    HW133224   4.166   2.737   6.987 -2.5541 -2.3765  0.6974
 7197SOL    HW233225   4.216   2.807   7.107 -0.0778 -1.3965  2.0271
 7198SOL     OW33226   3.104   2.054   3.673  0.2683  0.1501 -0.3483
 7198SOL    HW133227   3.134   1.996   3.743 -0.7908  1.5354  1.2429
 7198SOL    HW233228   3.091   2.134   3.722 -0.4894 -1.9903  2.9312
 7199SOL     OW33229   1.368   2.956   2.881 -0.0180 -0.0779 -0.1702
 7199SOL    HW133230   1.342   2.876   2.835  2.9369 -0.1363 -1.7773
 7199SOL    HW233231   1.417   2.999   2.811  0.7133 -1.7348 -0.6729
 7200SOL     OW33232   0.970   1.002  12.638  1.0436 -0.5356  0.1518
 7200SOL    HW133233   1.053   1.038  12.670 -0.4059  2.1314  0.9379
 7200SOL    HW233234   0.939   1.085  12.600  1.5391  0.1077  1.1480
 7201SOL     OW33235   3.873   0.455   0.502  0.2874 -0.3355 -0.2200
 7201SOL    HW133236   3.884   0.428   0.411  0.5318  2.4954 -1.0195
 7201SOL    HW233237   3.938   0.397   0.543 -1.1486  0.6663  3.4811
 7202SOL     OW33238   3.263   1.436   8.591  0.3969 -0.6661 -0.2392
 7202SOL    HW133239   3.303   1.349   8.599  0.6967 -0.5021  0.0375
 7202SOL    HW233240   3.338   1.493   8.572 -0.3483  0.6283  0.7950
 7203SOL     OW33241   2.748   0.744  13.830  0.3465 -0.1218 -0.6539
 7203SOL    HW133242   2.832   0.730  13.874  0.8831 -2.0305 -2.2551
 7203SOL    HW233243   2.712   0.658  13.808  4.4262 -1.8351 -0.7717
 7204SOL     OW33244   0.610   1.354   9.247 -0.5836 -0.1064  0.3740
 7204SOL    HW133245   0.546   1.406   9.296  0.1153 -0.5897  1.8146
 7204SOL    HW233246   0.593   1.375   9.156 -2.0909  0.1503  0.7091
 7205SOL     OW33247   2.432   4.547   0.006 -0.0293  0.4035  0.2230
 7205SOL    HW133248   2.411   4.628  17.705 -1.5626 -1.6851 -2.7662
 7205SOL    HW233249   2.524   4.533  17.731  0.1621  1.3332  0.4689
 7206SOL     OW33250   3.226   1.784  16.545  0.1645 -0.3207 -0.1107
 7206SOL    HW133251   3.213   1.761  16.453  0.3222  0.0509 -0.2274
 7206SOL    HW233252   3.308   1.834  16.538 -0.3544  0.5574  0.1261
 7207SOL     OW33253   4.571   0.954   5.776  0.1225 -0.0659 -0.4312
 7207SOL    HW133254   4.621   0.873   5.780  0.3459  0.1199  0.6590
 7207SOL    HW233255   4.591   0.984   5.865 -2.4408  0.6687 -0.1063
 7208SOL     OW33256   2.815   3.428   2.082  0.0466 -0.8056  0.3373
 7208SOL    HW133257   2.908   3.407   2.074 -0.1990 -1.8972  0.4491
 7208SOL    HW233258   2.803   3.455   2.173 -0.5624  0.1998 -0.0302
 7209SOL     OW33259   0.082   1.490   8.057  0.5143 -0.1676 -0.1697
 7209SOL    HW133260   0.154   1.472   8.117 -0.5384 -2.0716  0.5196
 7209SOL    HW233261   0.126   1.539   7.987  1.1851 -1.8338 -0.9092
 7210SOL     OW33262   3.753   4.241   1.183  0.2286 -0.5449 -0.0941
 7210SOL    HW133263   3.700   4.257   1.261 -0.9394  1.4089 -1.2796
 7210SOL    HW233264   3.823   4.302   1.204  0.0093  0.3561 -2.0336
 7211SOL     OW33265   3.017   4.520   0.032  0.2572  0.0716  0.1874
 7211SOL    HW133266   3.036   4.448  17.718 -1.7164 -0.8039  0.6308
 7211SOL    HW233267   2.924   4.527   0.010  0.3395 -1.0567 -0.5420
 7212SOL     OW33268   4.035   3.659   8.426 -0.0890  0.3934 -0.2007
 7212SOL    HW133269   4.066   3.572   8.451 -1.5977  0.2244  1.0723
 7212SOL    HW233270   3.973   3.677   8.496  2.2665 -1.8133  2.4854
 7213SOL     OW33271   0.529   1.870   4.793 -0.6467 -0.7339  0.1502
 7213SOL    HW133272   0.567   1.799   4.845  0.7810  0.5243  0.8215
 7213SOL    HW233273   0.518   1.945   4.852 -1.5186 -0.3018 -0.5566
 7214SOL     OW33274   2.667   2.096   8.317  0.0192 -0.5821  0.0580
 7214SOL    HW133275   2.699   2.006   8.314  0.1932 -0.5897  2.1285
 7214SOL    HW233276   2.688   2.118   8.408  0.4380  0.7839 -0.3596
 7215SOL     OW33277   1.105   2.905   9.703  0.5520 -0.6204  0.1191
 7215SOL    HW133278   1.069   2.873   9.620 -2.8431  1.6905  0.7003
 7215SOL    HW233279   1.040   2.880   9.768  1.0668 -0.2938  0.7516
 7216SOL     OW33280   4.219   1.650   4.043  0.6551 -0.1499 -0.5027
 7216SOL    HW133281   4.309   1.619   4.039  0.7530  0.1031 -0.2249
 7216SOL    HW233282   4.187   1.578   4.098 -0.4858  0.6407 -0.1502
 7217SOL     OW33283   0.899   0.784   0.128  0.1585 -0.1736 -0.2350
 7217SOL    HW133284   0.881   0.696   0.094 -1.2134  0.2663 -0.6479
 7217SOL    HW233285   0.976   0.768   0.183 -0.8802  1.0185  1.5913
 7218SOL     OW33286   3.784   0.572   9.557  0.2994 -0.1631 -0.2698
 7218SOL    HW133287   3.721   0.501   9.550  1.2734 -0.9877 -0.6327
 7218SOL    HW233288   3.729   0.641   9.595 -0.7657  0.2862 -2.6076
 7219SOL     OW33289   2.034   0.825  11.542 -0.2542 -0.4024 -0.0648
 7219SOL    HW133290   2.038   0.892  11.473  2.5752 -0.9584 -0.4543
 7219SOL    HW233291   2.088   0.753  11.509 -0.8655 -0.7428 -0.3246
 7220SOL     OW33292   0.608   2.142   8.051 -0.5247 -0.5091 -0.3134
 7220SOL    HW133293   0.582   2.053   8.028  3.0296 -1.0050 -2.5330
 7220SOL    HW233294   0.656   2.171   7.973  0.2245 -1.3173 -0.1637
 7221SOL     OW33295   2.955   1.473   7.243 -0.2142  0.0219  0.5852
 7221SOL    HW133296   2.879   1.415   7.240 -0.1719 -0.0478  0.8571
 7221SOL    HW233297   2.952   1.508   7.332 -1.1215 -0.3910  0.7145
 7222SOL     OW33298   3.891   4.523   4.530  0.3689 -0.2548 -0.2344
 7222SOL    HW133299   3.821   4.527   4.595  2.0689  0.8312  1.5164
 7222SOL    HW233300   3.965   4.494   4.583 -0.7200 -0.5517  1.1144
 7223SOL     OW33301   3.549   0.715   3.664  0.2736  0.1300 -0.5193
 7223SOL    HW133302   3.496   0.674   3.731 -2.1139  1.7321 -1.4101
 7223SOL    HW233303   3.542   0.650   3.594 -0.8131  1.6867 -1.8544
 7224SOL     OW33304   1.033   4.104  17.418 -0.1094 -0.1368  0.0032
 7224SOL    HW133305   0.973   4.062  17.481 -1.3123  1.3401 -0.1477
 7224SOL    HW233306   1.030   4.197  17.439  0.6981 -0.5128  1.7864
 7225SOL     OW33307   0.557   2.607   1.745  0.7752 -0.7119 -0.2985
 7225SOL    HW133308   0.503   2.552   1.802 -0.1504 -0.2845 -0.7712
 7225SOL    HW233309   0.633   2.621   1.802 -1.1917 -1.0917  2.3963
 7226SOL     OW33310   4.514   3.612  14.038  0.0472 -0.1456 -0.3175
 7226SOL    HW133311   4.523   3.708  14.036 -0.0579 -0.1632 -1.5113
 7226SOL    HW233312   4.569   3.581  14.110 -1.1534 -0.1356  0.5984
 7227SOL     OW33313   0.015   4.411  10.162 -0.4811  0.0534 -0.1716
 7227SOL    HW133314   4.678   4.415  10.100  0.3924 -0.8810 -1.2635
 7227SOL    HW233315   0.044   4.502  10.168  1.2033 -0.4334 -1.0083
 7228SOL     OW33316   4.483   3.688   0.342  0.3606 -0.3000 -0.3133
 7228SOL    HW133317   4.457   3.711   0.431 -2.3720 -4.2749 -0.0975
 7228SOL    HW233318   4.572   3.656   0.354  0.9826  0.1166 -3.5929
 7229SOL     OW33319   3.003   2.738   6.348 -0.3366  0.2996 -0.4478
 7229SOL    HW133320   3.084   2.700   6.381 -0.7838  1.5797  2.1805
 7229SOL    HW233321   3.026   2.830   6.334 -0.7467  0.5056  0.2112
 7230SOL     OW33322   2.441   0.746   3.676  0.2507 -0.4339  0.4300
 7230SOL    HW133323   2.471   0.774   3.589  0.6488 -0.1195  0.6666
 7230SOL    HW233324   2.521   0.780   3.716  0.3771 -0.7084  0.4099
 7231SOL     OW33325   4.285   3.362   9.340  0.9389  0.2249 -0.2008
 7231SOL    HW133326   4.375   3.362   9.306  1.0729  0.1751  0.1553
 7231SOL    HW233327   4.240   3.436   9.298  0.2439  0.3769  0.8125
 7232SOL     OW33328   4.309   2.663   5.398 -0.1619  0.1658 -0.1249
 7232SOL    HW133329   4.285   2.654   5.490 -2.1786  0.7969 -0.5891
 7232SOL    HW233330   4.219   2.655   5.365  0.0694  0.9477 -0.9198
 7233SOL     OW33331   2.359   4.283   6.262 -0.1453 -0.1222 -0.3722
 7233SOL    HW133332   2.301   4.344   6.307 -0.1320  1.1361 -2.0767
 7233SOL    HW233333   2.404   4.242   6.335 -0.7547  1.8390  1.0881
 7234SOL     OW33334   3.440   3.966   7.201 -0.1762 -0.0993  0.8622
 7234SOL    HW133335   3.350   3.998   7.198 -0.4309 -0.9891 -1.3581
 7234SOL    HW233336   3.496   4.036   7.167  0.7473 -1.5518 -0.6533
 7235SOL     OW33337   3.084   3.039  11.737 -0.2464 -0.1610 -0.3402
 7235SOL    HW133338   3.164   2.994  11.708  1.2532  1.5078  1.1495
 7235SOL    HW233339   3.041   2.956  11.756 -1.2752  0.1527 -1.3131
 7236SOL     OW33340   0.844   4.163  15.336 -0.4076  0.0028  0.1098
 7236SOL    HW133341   0.756   4.157  15.371 -1.4413 -0.1723 -2.5045
 7236SOL    HW233342   0.832   4.224  15.262  0.4713  0.9284  0.7214
 7237SOL     OW33343   1.110   0.647  15.698 -0.0167 -0.1762 -0.3753
 7237SOL    HW133344   1.188   0.623  15.648  1.0764  4.6151 -0.9601
 7237SOL    HW233345   1.035   0.608  15.653  0.2579  1.5303 -2.2827
 7238SOL     OW33346   3.984   1.045   6.346  0.5829 -0.0852 -0.1045
 7238SOL    HW133347   4.048   1.115   6.334 -1.0421  1.4975  0.5347
 7238SOL    HW233348   4.045   0.977   6.373 -0.8426 -1.1157  0.5239
 7239SOL     OW33349   1.124   3.038  13.886 -0.8432 -0.1487  0.2961
 7239SOL    HW133350   1.178   3.114  13.909 -0.5943 -0.6248  1.2644
 7239SOL    HW233351   1.087   3.056  13.799  2.3149 -0.8188 -1.2023
 7240SOL     OW33352   0.156   4.227   4.796 -0.1349  0.0308  0.4001
 7240SOL    HW133353   0.074   4.252   4.753  1.8866  2.9219 -1.7946
 7240SOL    HW233354   0.160   4.133   4.778 -0.3478 -0.1761  1.4260
 7241SOL     OW33355   0.280   0.249   6.111  0.2129  0.3751 -0.1229
 7241SOL    HW133356   0.332   0.199   6.173 -0.1268 -0.1406 -0.2476
 7241SOL    HW233357   0.266   0.180   6.046 -2.0739  1.5020 -0.8110
 7242SOL     OW33358   0.732   1.284  10.762  0.2625 -0.5527  0.6456
 7242SOL    HW133359   0.646   1.326  10.755  0.7011  0.5006  1.6426
 7242SOL    HW233360   0.715   1.226  10.836  0.6466  0.6910  1.6850
 7243SOL     OW33361   3.764   3.803   2.547  0.0598 -0.1952  0.1292
 7243SOL    HW133362   3.705   3.737   2.510  0.1889  0.1899 -0.7613
 7243SOL    HW233363   3.850   3.763   2.532  0.4163  0.2617  0.9735
 7244SOL     OW33364   3.929   0.969   5.617 -0.4780  0.3728  0.0639
 7244SOL    HW133365   3.981   1.003   5.545 -2.0142  2.1942 -0.1784
 7244SOL    HW233366   3.874   0.905   5.572 -0.7410 -1.3395  2.8045
 7245SOL     OW33367   1.094   1.637   9.293 -0.2060  0.5609 -0.3639
 7245SOL    HW133368   1.011   1.672   9.325 -0.4812 -0.0223 -0.4573
 7245SOL    HW233369   1.071   1.575   9.224 -3.5206  2.0229 -0.5333
 7246SOL     OW33370   4.287   0.313   3.833  0.4727 -0.2264  0.3343
 7246SOL    HW133371   4.354   0.329   3.766  2.6859  0.0429  2.6103
 7246SOL    HW233372   4.265   0.222   3.817 -2.0008  0.5113 -0.5561
 7247SOL     OW33373   4.680   1.734   8.128 -0.3685  0.0360  0.1187
 7247SOL    HW133374   4.613   1.730   8.060 -1.0238  1.1773  0.6795
 7247SOL    HW233375   4.704   1.642   8.137 -1.8329 -0.2941  0.7413
 7248SOL     OW33376   4.236   0.734   8.487 -0.3419  0.0688  0.1271
 7248SOL    HW133377   4.223   0.677   8.412 -0.5452  1.8420 -1.1812
 7248SOL    HW233378   4.150   0.738   8.529  0.1772 -0.3012  1.2456
 7249SOL     OW33379   2.760   4.062  16.189 -0.7136 -0.1044  0.2683
 7249SOL    HW133380   2.775   3.976  16.149  0.9327 -1.4839  3.8487
 7249SOL    HW233381   2.853   4.077  16.205 -0.6441 -0.6576  0.3824
 7250SOL     OW33382   2.973   2.228   4.851  0.0914  0.3615 -0.1316
 7250SOL    HW133383   2.991   2.256   4.941  1.1656 -0.3340 -0.1245
 7250SOL    HW233384   2.913   2.155   4.861 -0.3716  0.2990 -3.3138
 7251SOL     OW33385   4.462   0.074   6.027  0.5466 -0.2246 -0.0362
 7251SOL    HW133386   4.466   0.106   6.117 -1.5033 -0.7026  0.2435
 7251SOL    HW233387   4.463   0.152   5.972  2.0239  0.2508  0.6828
 7252SOL     OW33388   2.475   3.486   3.843 -0.6194 -0.4133  0.3756
 7252SOL    HW133389   2.406   3.538   3.885 -1.7882  1.5743 -3.9540
 7252SOL    HW233390   2.425   3.436   3.778 -2.9911 -1.3676  2.9426
 7253SOL     OW33391   3.574   2.440   4.840  0.1619 -0.3389  0.6350
 7253SOL    HW133392   3.658   2.427   4.797 -0.0001 -0.8698  0.4741
 7253SOL    HW233393   3.582   2.534   4.856 -0.4867 -0.2629  0.5268
 7254SOL     OW33394   2.206   3.109   9.893  0.1168  0.0584  0.2897
 7254SOL    HW133395   2.252   3.073   9.969  0.1249  0.2182  0.3598
 7254SOL    HW233396   2.125   3.060   9.906 -1.4501  2.6382  0.3834
 7255SOL     OW33397   4.453   1.113  14.772  0.4649  0.3894  0.5154
 7255SOL    HW133398   4.490   1.162  14.698 -0.3623  0.6015  0.2499
 7255SOL    HW233399   4.360   1.130  14.764  0.0598 -1.4367  1.4235
 7256SOL     OW33400   3.461   3.468   2.169  0.0874  0.1753 -0.0509
 7256SOL    HW133401   3.388   3.432   2.218 -0.4192  0.7309 -0.4028
 7256SOL    HW233402   3.493   3.385   2.134 -0.8457 -0.2398  0.0822
 7257SOL     OW33403   0.897   1.498   5.755  0.5131  0.0605  0.0843
 7257SOL    HW133404   0.944   1.570   5.715  0.0356  0.9579  1.1616
 7257SOL    HW233405   0.807   1.532   5.757  0.0089 -1.1442 -1.8264
 7258SOL     OW33406   3.731   0.037   2.346 -0.4264  0.1273 -0.2097
 7258SOL    HW133407   3.725   4.691   2.298  0.8074  1.0417 -1.9119
 7258SOL    HW233408   3.736   0.102   2.276 -1.5333  0.2760 -0.1467
 7259SOL     OW33409   2.718   0.126   2.523 -0.2556 -0.4414 -0.0430
 7259SOL    HW133410   2.732   0.033   2.541 -0.1342 -0.2073  1.1166
 7259SOL    HW233411   2.627   0.140   2.497 -0.0523  0.0262 -0.4773
 7260SOL     OW33412   4.484   0.537   3.169  0.3006  0.2356 -0.0204
 7260SOL    HW133413   4.396   0.513   3.199  0.6108  1.1049  1.5780
 7260SOL    HW233414   4.465   0.545   3.075 -0.1226  0.5595  0.0902
 7261SOL     OW33415   0.549   0.225   7.802 -0.3871 -0.5532  0.1119
 7261SOL    HW133416   0.596   0.154   7.759  1.8085  0.2388  1.2335
 7261SOL    HW233417   0.625   0.273   7.835 -0.4845 -1.2902  1.4072
 7262SOL     OW33418   0.223   0.779   3.310  0.0330 -0.7236 -0.0254
 7262SOL    HW133419   0.306   0.732   3.306 -0.1612 -1.1165  0.6380
 7262SOL    HW233420   0.216   0.810   3.400  1.1072  0.0583 -0.2238
 7263SOL     OW33421   1.399   3.946   2.456  0.3276 -0.3309 -0.2357
 7263SOL    HW133422   1.469   3.951   2.391  3.6240 -3.4299  3.0513
 7263SOL    HW233423   1.332   3.996   2.410 -0.2627 -1.9401 -1.1337
 7264SOL     OW33424   4.143   1.865   2.158  0.1503  0.2927 -0.4191
 7264SOL    HW133425   4.058   1.852   2.200  0.1129 -1.2673 -0.9978
 7264SOL    HW233426   4.192   1.800   2.208  1.4108  1.8080  0.3434
 7265SOL     OW33427   3.226   2.224   9.149 -0.1962 -0.2431  0.1981
 7265SOL    HW133428   3.245   2.205   9.057  1.3422 -3.0485  1.1001
 7265SOL    HW233429   3.224   2.135   9.185 -0.6038  0.8797  2.9653
 7266SOL     OW33430   3.569   0.152  10.079  0.9486  0.1188  0.1242
 7266SOL    HW133431   3.577   0.226  10.018  0.5609 -1.8120 -2.2324
 7266SOL    HW233432   3.608   0.084  10.025  0.3298  1.3916 -1.9536
 7267SOL     OW33433   0.024   2.720   3.522 -0.2062  0.2145  0.3028
 7267SOL    HW133434   4.675   2.711   3.479  0.2223 -3.0429  0.0896
 7267SOL    HW233435   0.041   2.813   3.507  0.1085 -0.0167 -0.7695
 7268SOL     OW33436   0.931   3.933   1.966  0.0786  0.3448  0.7539
 7268SOL    HW133437   0.872   3.884   2.024  0.1084 -1.4608 -0.7200
 7268SOL    HW233438   0.996   3.869   1.939  2.2795  3.0811 -0.3294
 7269SOL     OW33439   2.962   4.315   7.945  0.4147 -0.0695  0.3357
 7269SOL    HW133440   2.905   4.368   8.000  0.3098 -0.9285  1.0569
 7269SOL    HW233441   3.042   4.319   7.997  0.3745  3.1000  0.1870
 7270SOL     OW33442   4.351   1.799  13.598  0.0057  0.6996 -0.4766
 7270SOL    HW133443   4.331   1.814  13.690  1.5701 -0.8956  0.1207
 7270SOL    HW233444   4.282   1.848  13.553 -0.0080  0.5396 -0.6329
 7271SOL     OW33445   1.660   2.343   1.636 -0.3100 -0.0601 -0.0482
 7271SOL    HW133446   1.737   2.303   1.597  1.1611 -0.0259  2.8034
 7271SOL    HW233447   1.616   2.388   1.565  1.6498  1.5965 -0.1974
 7272SOL     OW33448   2.166   0.447   3.115  0.4508 -0.1460 -0.3110
 7272SOL    HW133449   2.237   0.391   3.146 -0.1877 -0.0180  1.3976
 7272SOL    HW233450   2.135   0.484   3.197  2.3790  1.2765 -0.2231
 7273SOL     OW33451   1.001   3.600  12.078  0.3614 -0.4481 -0.4734
 7273SOL    HW133452   1.002   3.648  12.161 -0.5603 -0.2709 -0.5623
 7273SOL    HW233453   0.949   3.662  12.026  0.8796 -0.9774 -1.6092
 7274SOL     OW33454   2.006   2.943   9.227  0.1213 -0.2459 -0.2520
 7274SOL    HW133455   2.045   2.978   9.308 -0.1993  0.6345 -0.4779
 7274SOL    HW233456   1.916   2.927   9.256 -0.0569 -0.3535 -0.8724
 7275SOL     OW33457   3.465   2.734  16.961 -0.0430  0.1520  0.1202
 7275SOL    HW133458   3.380   2.702  16.931 -0.6478  0.8572  1.0472
 7275SOL    HW233459   3.462   2.705  17.052  1.0463  2.0464  0.7647
 7276SOL     OW33460   2.170   1.577   6.071 -0.3157  0.1244  0.2093
 7276SOL    HW133461   2.080   1.592   6.100 -0.4746 -1.5831  0.6403
 7276SOL    HW233462   2.212   1.550   6.152 -0.4104  1.6283  0.7447
 7277SOL     OW33463   1.734   0.430   3.532  0.2774 -0.2887  0.3054
 7277SOL    HW133464   1.693   0.455   3.450  1.3963  2.0400  0.4488
 7277SOL    HW233465   1.694   0.498   3.587 -1.2308 -0.3928 -0.6699
 7278SOL     OW33466   1.891   1.360   5.038  0.3745 -0.3390  0.8455
 7278SOL    HW133467   1.983   1.368   5.065  1.6720 -3.5560 -2.6117
 7278SOL    HW233468   1.865   1.446   5.006  0.9923 -0.3658  0.2767
 7279SOL     OW33469   2.197   3.060   9.429  0.4856 -0.1532  0.3759
 7279SOL    HW133470   2.198   3.117   9.353 -2.6492 -0.3034  0.2509
 7279SOL    HW233471   2.175   3.119   9.501 -1.5607  1.5890 -1.6890
 7280SOL     OW33472   4.383   3.795   7.415  0.1740  0.6486  0.3337
 7280SOL    HW133473   4.382   3.881   7.373  0.2758  0.3540 -0.2662
 7280SOL    HW233474   4.321   3.749   7.360 -0.9950  1.3375  1.0670
 7281SOL     OW33475   3.809   0.802  14.641 -0.0694  0.0796 -0.3096
 7281SOL    HW133476   3.881   0.786  14.701  1.8398  0.6421 -2.4558
 7281SOL    HW233477   3.733   0.826  14.695 -0.5632  0.4625 -1.1700
 7282SOL     OW33478   3.592   1.726  15.197  0.3595  0.5168 -0.3062
 7282SOL    HW133479   3.681   1.737  15.165  0.9624  0.2370  1.2412
 7282SOL    HW233480   3.538   1.771  15.132  0.7111 -1.1705 -1.7469
 7283SOL     OW33481   2.439   0.836   0.074  0.2765  0.3217  0.6646
 7283SOL    HW133482   2.410   0.848  17.730  1.9791 -0.9108 -0.0659
 7283SOL    HW233483   2.522   0.883   0.067  0.5215 -0.1574  0.3463
 7284SOL     OW33484   0.230   0.276  17.319  0.5467 -0.1178 -0.4460
 7284SOL    HW133485   0.207   0.353  17.372 -0.4986  0.3319 -1.5682
 7284SOL    HW233486   0.319   0.304  17.300 -0.2528  1.3475 -1.9643
 7285SOL     OW33487   0.094   0.047   3.564 -0.2183  0.6221  0.1211
 7285SOL    HW133488   0.133   0.021   3.647 -0.3092 -0.6704 -0.2512
 7285SOL    HW233489   0.167   0.094   3.524  2.2709 -2.7296  0.7558
 7286SOL     OW33490   2.254   2.151   7.818 -0.1877  0.3480  0.2217
 7286SOL    HW133491   2.208   2.207   7.756 -1.7482 -1.4321 -0.2392
 7286SOL    HW233492   2.315   2.211   7.860  0.0963 -0.5419  1.0781
 7287SOL     OW33493   1.596   3.452   7.619 -0.1548  0.4325  0.2213
 7287SOL    HW133494   1.514   3.491   7.648  0.2241  0.8834  0.6835
 7287SOL    HW233495   1.665   3.482   7.678  0.9098 -0.3266 -0.6426
 7288SOL     OW33496   2.535   2.367   9.979 -0.4079 -0.5708 -0.3303
 7288SOL    HW133497   2.489   2.447   9.954 -0.3894 -0.2365  0.6842
 7288SOL    HW233498   2.628   2.386   9.968 -1.1661 -0.3558 -6.3375
 7289SOL     OW33499   0.577   1.449   3.366 -0.0927  0.2155  0.6390
 7289SOL    HW133500   0.500   1.489   3.405  0.4424 -0.4074  2.3419
 7289SOL    HW233501   0.577   1.363   3.407 -1.0894  0.3211  0.8608
 7290SOL     OW33502   0.663   0.251   7.267 -0.1429  0.3163  0.0510
 7290SOL    HW133503   0.696   0.197   7.196  2.6172  0.7669  0.9748
 7290SOL    HW233504   0.646   0.337   7.228  1.5092  1.2922  1.4246
 7291SOL     OW33505   3.942   0.530   6.042 -0.3779  0.0169  0.2296
 7291SOL    HW133506   3.850   0.508   6.058 -0.2897  0.2594  1.0788
 7291SOL    HW233507   3.987   0.484   6.113  1.5170 -0.8782 -1.5706
 7292SOL     OW33508   2.781   1.709  16.667 -0.2160 -0.1265  0.1506
 7292SOL    HW133509   2.765   1.749  16.581  0.3139 -0.0327  0.0934
 7292SOL    HW233510   2.721   1.760  16.722  0.6502  0.6391  0.3945
 7293SOL     OW33511   3.829   0.848  10.361  0.1270 -0.0766  0.0257
 7293SOL    HW133512   3.838   0.871  10.269 -1.7712  1.8900  0.3256
 7293SOL    HW233513   3.911   0.873  10.402  1.1036  1.5372 -2.9044
 7294SOL     OW33514   4.273   1.267   7.660  0.1156 -0.1839  0.0874
 7294SOL    HW133515   4.180   1.253   7.678 -0.3518 -0.1380 -2.3172
 7294SOL    HW233516   4.280   1.353   7.621  1.8448 -0.8216 -0.9874
 7295SOL     OW33517   1.579   3.934   4.263 -0.2276  0.2331  0.7101
 7295SOL    HW133518   1.538   3.913   4.347  0.7071 -2.2555  0.5589
 7295SOL    HW233519   1.629   4.014   4.280  1.9123 -1.1443  0.8794
 7296SOL     OW33520   0.888   0.162   2.672 -0.3008 -0.0579  0.0563
 7296SOL    HW133521   0.973   0.205   2.661  1.1978 -2.7883  1.0271
 7296SOL    HW233522   0.906   0.071   2.648  0.7725  0.3674 -0.7353
 7297SOL     OW33523   0.141   1.905  13.777 -0.5022 -1.2576 -0.6597
 7297SOL    HW133524   0.098   1.905  13.862 -0.9027  0.0049 -0.8723
 7297SOL    HW233525   0.067   1.885  13.721  0.6902 -4.2947 -1.1406
 7298SOL     OW33526   2.070   4.187   4.546 -0.7305 -0.1513 -0.0377
 7298SOL    HW133527   2.094   4.095   4.535 -1.5454 -0.0028 -2.8169
 7298SOL    HW233528   2.030   4.188   4.634  0.1164 -0.8609  0.3565
 7299SOL     OW33529   4.323   1.587   9.554 -0.1927  0.0012 -0.4160
 7299SOL    HW133530   4.347   1.495   9.567 -2.6689 -0.5190  0.4879
 7299SOL    HW233531   4.403   1.627   9.586 -0.4702 -0.1809  0.5039
 7300SOL     OW33532   2.571   2.861  15.104  0.2623 -0.2072 -0.3120
 7300SOL    HW133533   2.649   2.895  15.147  1.0821 -3.7055  0.9839
 7300SOL    HW233534   2.599   2.769  15.102  0.1541 -0.2606  0.6902
 7301SOL     OW33535   3.668   3.231   2.861 -0.0508  0.2138  0.2389
 7301SOL    HW133536   3.590   3.175   2.867  1.0167 -1.5438 -2.6424
 7301SOL    HW233537   3.673   3.247   2.955 -1.4651 -0.0733  0.3647
 7302SOL     OW33538   2.419   0.926  11.499  0.2545 -0.6409  0.0570
 7302SOL    HW133539   2.355   0.968  11.442  0.5675 -1.1356 -0.6736
 7302SOL    HW233540   2.490   0.919  11.435  1.1178  0.9649  0.8275
 7303SOL     OW33541   3.934   1.612   3.295  0.2697 -0.0937 -0.0526
 7303SOL    HW133542   3.998   1.678   3.268  0.3954  0.7091  2.2364
 7303SOL    HW233543   3.968   1.592   3.382  0.0772 -2.7386 -0.5861
 7304SOL     OW33544   2.398   4.709   2.016 -0.1128 -0.1808  0.0274
 7304SOL    HW133545   2.488   4.677   2.022  0.0620  0.1452 -0.8025
 7304SOL    HW233546   2.382   4.685   1.924  1.0487 -0.2223 -0.1609
 7305SOL     OW33547   3.935   1.113   5.060  0.2182  0.0816  0.3538
 7305SOL    HW133548   3.983   1.060   4.997 -0.2181 -0.1759  0.2364
 7305SOL    HW233549   3.875   1.050   5.099 -0.1797 -1.5611 -2.8829
 7306SOL     OW33550   0.908   0.309   6.054  0.2566  0.7360  0.1928
 7306SOL    HW133551   0.902   0.311   6.150  1.1609 -1.0170  0.2815
 7306SOL    HW233552   0.818   0.289   6.029 -0.0283 -1.9249  3.2798
 7307SOL     OW33553   1.632   4.346   3.913 -0.7310  0.1041 -0.4302
 7307SOL    HW133554   1.704   4.406   3.893  0.0776 -0.3462  1.1390
 7307SOL    HW233555   1.567   4.402   3.870  0.6386  1.7800 -0.2960
 7308SOL     OW33556   3.572   0.581   5.148 -0.6484 -0.4677 -0.1080
 7308SOL    HW133557   3.478   0.572   5.137 -0.6040 -3.1240  1.5482
 7308SOL    HW233558   3.607   0.536   5.070 -2.6345 -0.4951 -0.9759
 7309SOL     OW33559   4.705   3.409   3.370 -0.0071 -0.0598  0.0107
 7309SOL    HW133560   4.726   3.341   3.434  1.9419 -0.1866 -0.7660
 7309SOL    HW233561   0.047   3.407   3.315  0.1792 -2.3554  0.3613
 7310SOL     OW33562   1.807   1.748   6.373  0.4048  0.1695  0.3511
 7310SOL    HW133563   1.721   1.748   6.414 -0.4567  0.9208 -1.4350
 7310SOL    HW233564   1.844   1.829   6.409 -0.8687  0.8800  0.0474
 7311SOL     OW33565   4.274   0.412   0.913  0.5687  0.2039 -0.3782
 7311SOL    HW133566   4.210   0.476   0.944  0.5116  0.8761 -1.8769
 7311SOL    HW233567   4.237   0.409   0.825 -0.2210  2.0290 -0.1152
 7312SOL     OW33568   3.724   3.895  16.389  0.1191 -0.2448 -0.1392
 7312SOL    HW133569   3.698   3.963  16.327  1.2204 -1.5881 -2.0749
 7312SOL    HW233570   3.747   3.826  16.327 -0.6356  0.9116 -1.7081
 7313SOL     OW33571   1.159   1.411  16.901  0.0577 -0.7724  0.3559
 7313SOL    HW133572   1.158   1.394  16.807 -0.4479 -1.8622  0.5493
 7313SOL    HW233573   1.068   1.441  16.899 -0.0228 -1.1321 -1.2874
 7314SOL     OW33574   3.039   3.941   4.620 -0.7413  0.0101  0.0835
 7314SOL    HW133575   3.026   3.871   4.685  0.6518 -0.4372 -0.1162
 7314SOL    HW233576   3.000   4.020   4.657  2.0880 -0.1234  3.3629
 7315SOL     OW33577   0.044   2.034  15.934  0.0463  0.1946  0.1044
 7315SOL    HW133578   0.128   2.062  15.896 -0.1496  0.8852  0.1855
 7315SOL    HW233579   4.726   2.020  15.856  1.5043 -0.3564 -0.8360
 7316SOL     OW33580   0.577   2.630   9.330 -0.8642  0.1114 -0.3624
 7316SOL    HW133581   0.585   2.647   9.424  1.2607 -0.2208 -0.4911
 7316SOL    HW233582   0.493   2.583   9.331 -2.3708  2.8614  1.6802
 7317SOL     OW33583   2.327   3.110  13.957  0.0445 -0.7187 -0.6701
 7317SOL    HW133584   2.318   3.038  14.021 -2.7571 -0.9253 -1.2896
 7317SOL    HW233585   2.307   3.185  14.014  3.6025 -1.8949  2.1501
 7318SOL     OW33586   0.855   4.684   9.297 -0.3044  0.4708  0.3268
 7318SOL    HW133587   0.947   4.671   9.322 -0.1584 -0.2781 -0.5801
 7318SOL    HW233588   0.877   0.000   9.220 -0.4440  0.2501  0.1341
 7319SOL     OW33589   0.774   3.095   7.109  0.1514 -0.4224 -0.3610
 7319SOL    HW133590   0.754   3.123   7.020  1.7844 -1.0357 -0.9131
 7319SOL    HW233591   0.794   3.179   7.150  1.0963 -1.9283  2.2926
 7320SOL     OW33592   2.104   3.299  12.583 -0.6657  0.1725  0.1790
 7320SOL    HW133593   2.111   3.394  12.581 -0.2958  0.1408 -0.0137
 7320SOL    HW233594   2.119   3.278  12.675  0.2032 -1.1173 -0.2659
 7321SOL     OW33595   1.060   3.562  17.624  0.1538  0.2775  0.4039
 7321SOL    HW133596   0.965   3.546  17.628 -0.0048  0.8630 -1.0729
 7321SOL    HW233597   1.082   3.487  17.569 -1.1562  0.5497 -0.5257
 7322SOL     OW33598   1.325   1.825   8.997 -0.2546  0.4892 -0.1320
 7322SOL    HW133599   1.380   1.748   9.008 -0.0896  0.7261  0.7281
 7322SOL    HW233600   1.374   1.875   8.932 -0.3109 -1.9575 -2.0613
 7323SOL     OW33601   1.438   0.817   6.575  0.3179  0.0092 -0.3383
 7323SOL    HW133602   1.393   0.830   6.491  2.2008 -0.8655 -1.4966
 7323SOL    HW233603   1.514   0.875   6.569  3.0990 -3.3663  2.2326
 7324SOL     OW33604   4.564   0.726  12.000 -0.0084  0.3669 -0.4906
 7324SOL    HW133605   4.635   0.789  12.014  1.5807 -1.4211 -0.3280
 7324SOL    HW233606   4.594   0.658  12.061 -2.1020 -0.2352 -0.1322
 7325SOL     OW33607   4.066   2.422   9.069  0.0127 -0.4994  0.4162
 7325SOL    HW133608   3.995   2.482   9.044  1.9220  2.7218  2.8422
 7325SOL    HW233609   4.143   2.457   9.024  0.1357  0.4348  1.3623
 7326SOL     OW33610   4.065   0.209   4.489 -0.0080  0.4870 -0.3082
 7326SOL    HW133611   4.023   0.293   4.510  0.3905  0.2408  1.4121
 7326SOL    HW233612   4.073   0.168   4.575  0.8924 -2.1943 -1.6830
 7327SOL     OW33613   3.369   4.201   7.957  0.1174 -0.0556  0.2053
 7327SOL    HW133614   3.308   4.129   7.942  1.2245 -0.8344 -0.5243
 7327SOL    HW233615   3.306   4.271   7.976 -0.9213 -0.0463 -3.1611
 7328SOL     OW33616   2.488   1.853   6.246  0.0191  0.0516  0.1554
 7328SOL    HW133617   2.555   1.884   6.307  0.3261 -0.9741  0.3355
 7328SOL    HW233618   2.485   1.763   6.278 -0.1615 -0.7739 -2.2091
 7329SOL     OW33619   3.019   3.532   7.746 -0.0134  0.5879  0.1218
 7329SOL    HW133620   3.068   3.554   7.825  0.5337  0.6280 -0.2255
 7329SOL    HW233621   2.978   3.456   7.786 -0.0757 -0.4731 -1.9594
 7330SOL     OW33622   1.276   4.120   7.802 -0.4907  0.1365 -0.0196
 7330SOL    HW133623   1.275   4.204   7.848 -0.5634 -0.1400  0.4736
 7330SOL    HW233624   1.263   4.145   7.710 -0.6765 -0.4944 -0.1639
 7331SOL     OW33625   1.648   2.417   5.200  0.4217  0.2429  0.3258
 7331SOL    HW133626   1.614   2.505   5.218 -1.5365  0.0107 -2.1065
 7331SOL    HW233627   1.742   2.422   5.217  0.3715  0.9155  0.3799
 7332SOL     OW33628   2.896   3.570   4.764 -0.4611  1.0969  0.0574
 7332SOL    HW133629   2.968   3.615   4.808  0.2696 -0.9976  1.0113
 7332SOL    HW233630   2.925   3.480   4.782 -0.1477  1.1655 -0.1061
 7333SOL     OW33631   3.198   1.924   7.245 -0.5212 -0.1452  0.1153
 7333SOL    HW133632   3.139   1.985   7.291 -0.2042 -0.2020  0.5999
 7333SOL    HW233633   3.152   1.907   7.163  1.4021  0.0462 -1.0035
 7334SOL     OW33634   2.839   2.006   8.762  0.1464 -0.4408 -0.0162
 7334SOL    HW133635   2.831   1.914   8.788  0.5393 -0.9026 -1.5762
 7334SOL    HW233636   2.782   2.035   8.834 -1.3380 -0.6475 -1.1183
 7335SOL     OW33637   1.398   0.315   4.697  0.1467  0.4249  0.3921
 7335SOL    HW133638   1.401   0.330   4.791  0.2104  0.3387  0.4034
 7335SOL    HW233639   1.490   0.291   4.691  0.1716  0.4505  0.6559
 7336SOL     OW33640   3.417   0.215   0.170 -0.1363 -0.0921  0.3764
 7336SOL    HW133641   3.443   0.127   0.199 -0.1581 -0.7334 -1.5378
 7336SOL    HW233642   3.373   0.190   0.089 -0.3162 -1.2370  0.8210
 7337SOL     OW33643   0.098   3.542   6.407 -0.0797 -0.4953  0.2412
 7337SOL    HW133644   0.127   3.597   6.333  0.9657 -0.3910  0.7311
 7337SOL    HW233645   0.172   3.488   6.434 -0.9005 -1.1055  1.2496
 7338SOL     OW33646   1.117   2.259   6.064 -0.3158 -0.1749  0.1456
 7338SOL    HW133647   1.205   2.295   6.051 -0.1573 -0.5785  0.1081
 7338SOL    HW233648   1.122   2.190   5.997  0.1456  0.4711 -0.4906
 7339SOL     OW33649   3.989   1.632   2.006  0.1934  0.0469  0.0416
 7339SOL    HW133650   4.049   1.579   2.058  1.4726  1.3567 -0.1376
 7339SOL    HW233651   3.945   1.672   2.081  1.4342 -2.0976  1.9226
 7340SOL     OW33652   0.733   4.408   3.484 -0.4182  0.3872  0.1905
 7340SOL    HW133653   0.718   4.431   3.576  0.8337  0.9964  0.2468
 7340SOL    HW233654   0.747   4.500   3.459  1.3395  0.2919  0.8207
 7341SOL     OW33655   2.578   1.582   1.532  0.0653 -0.3290  0.0349
 7341SOL    HW133656   2.530   1.509   1.570 -2.1818  1.6776  1.0160
 7341SOL    HW233657   2.517   1.653   1.513 -1.2651 -1.0807  1.5113
 7342SOL     OW33658   4.556   0.622   9.523  0.4952  0.3025  0.1420
 7342SOL    HW133659   4.601   0.687   9.578  0.0299 -0.3318  1.2885
 7342SOL    HW233660   4.519   0.566   9.592 -0.1496 -0.0231 -0.4770
 7343SOL     OW33661   0.124   2.900  13.059 -0.2208  0.1525  0.0048
 7343SOL    HW133662   0.045   2.921  13.108  0.0382 -1.2474  1.0308
 7343SOL    HW233663   0.133   2.975  13.001  0.4080  3.1334  3.9721
 7344SOL     OW33664   4.563   3.669   5.069  0.6266  0.5175 -0.0670
 7344SOL    HW133665   4.581   3.664   4.975  2.7767  0.0134  0.3553
 7344SOL    HW233666   4.477   3.627   5.073  0.9270 -0.0154  0.9732
 7345SOL     OW33667   0.904   0.030  10.716  0.4618 -0.2420  0.7454
 7345SOL    HW133668   0.906   4.691  10.775  0.4075 -1.1342 -0.4052
 7345SOL    HW233669   0.912   4.716  10.635 -0.2627  0.1200  0.4463
 7346SOL     OW33670   3.204   4.627   3.284  0.4464 -0.1354 -0.5356
 7346SOL    HW133671   3.276   4.670   3.331  1.5909 -2.2429 -0.3837
 7346SOL    HW233672   3.133   4.632   3.348  0.6379 -0.6640 -0.2825
 7347SOL     OW33673   3.134   1.431   6.787 -0.9124  0.0729 -0.2235
 7347SOL    HW133674   3.150   1.460   6.877  0.9016  2.9127 -1.4798
 7347SOL    HW233675   3.197   1.358   6.788 -1.9183 -0.7959 -0.1493
 7348SOL     OW33676   0.717   1.873   9.742 -0.2991 -0.0152  0.9044
 7348SOL    HW133677   0.751   1.821   9.669  0.3940  0.1050  1.1439
 7348SOL    HW233678   0.786   1.938   9.757  0.3276 -0.6084  0.5839
 7349SOL     OW33679   0.184   1.842   1.244  0.3577 -0.0985  0.2427
 7349SOL    HW133680   0.203   1.766   1.189  0.5782  0.5934 -0.6352
 7349SOL    HW233681   0.196   1.813   1.335  1.3549 -0.9673 -0.1600
 7350SOL     OW33682   1.022   0.071   6.062 -0.0083 -0.9049 -0.5583
 7350SOL    HW133683   1.114   0.085   6.081 -0.3117  0.0664  0.2108
 7350SOL    HW233684   0.993   0.162   6.053 -1.5046 -1.4116 -0.9560
 7351SOL     OW33685   2.655   1.550   2.527 -0.2394 -0.1321 -0.0786
 7351SOL    HW133686   2.653   1.640   2.560  0.7443 -0.8247  1.8670
 7351SOL    HW233687   2.722   1.521   2.589  0.8435  2.4866 -0.0237
 7352SOL     OW33688   2.721   1.232   5.161  0.0700  0.2532  0.0348
 7352SOL    HW133689   2.775   1.311   5.170 -0.7614  1.0616 -2.0627
 7352SOL    HW233690   2.639   1.272   5.132  1.5485  0.9747 -3.1946
 7353SOL     OW33691   1.773   3.118  16.700  0.3221  0.1879  0.3234
 7353SOL    HW133692   1.767   3.184  16.769 -0.2666  2.1256 -1.5672
 7353SOL    HW233693   1.797   3.037  16.745 -0.7983 -0.5418 -0.3956
 7354SOL     OW33694   0.784   0.432   9.388 -0.0161 -0.2421  1.1205
 7354SOL    HW133695   0.876   0.451   9.403 -0.0009  2.2565 -2.2311
 7354SOL    HW233696   0.760   0.471   9.473  1.3354  0.8515  0.9877
 7355SOL     OW33697   3.939   0.499   4.556 -0.3308 -0.1152 -1.0260
 7355SOL    HW133698   3.851   0.465   4.539 -1.3951  2.2561 -0.1067
 7355SOL    HW233699   3.927   0.570   4.618  2.5910 -1.1441  0.7539
 7356SOL     OW33700   3.517   3.854   9.495 -0.5202  0.6389 -0.0833
 7356SOL    HW133701   3.466   3.902   9.560 -1.6141 -3.1304  1.8476
 7356SOL    HW233702   3.454   3.784   9.478  1.4601 -0.9463 -0.8366
 7357SOL     OW33703   2.057   2.505   7.778 -0.0633  0.8743  0.0557
 7357SOL    HW133704   2.078   2.443   7.708  0.4509  1.1914 -0.0652
 7357SOL    HW233705   2.035   2.445   7.850 -1.5090 -2.6560 -3.3233
 7358SOL     OW33706   2.728   1.276   2.867  0.6681 -0.3055 -0.0848
 7358SOL    HW133707   2.704   1.263   2.959 -1.6025  0.2569 -0.6041
 7358SOL    HW233708   2.742   1.370   2.861  2.6797 -0.7032 -1.3597
 7359SOL     OW33709   2.371   3.877   3.902  0.2596 -0.2725 -0.3335
 7359SOL    HW133710   2.461   3.849   3.886 -0.0181  0.3410 -2.9364
 7359SOL    HW233711   2.328   3.791   3.908  0.0869 -0.1102  0.8034
 7360SOL     OW33712   2.328   3.088  12.948 -0.2469  0.5498 -0.2460
 7360SOL    HW133713   2.340   2.993  12.941 -0.4483  0.5792 -0.9976
 7360SOL    HW233714   2.392   3.116  12.882  0.8631  2.6844  1.7710
 7361SOL     OW33715   1.673   4.294   5.685  0.2278  0.2193 -0.4961
 7361SOL    HW133716   1.654   4.374   5.635  0.2367  0.7694  0.3807
 7361SOL    HW233717   1.745   4.256   5.636 -1.0991 -2.4110 -0.3691
 7362SOL     OW33718   0.044   0.613   8.464  0.3111  0.3268 -0.6310
 7362SOL    HW133719   0.095   0.548   8.416 -1.4644 -0.4861 -1.4127
 7362SOL    HW233720   0.090   0.688   8.426 -0.9671  0.8107 -1.2468
 7363SOL     OW33721   0.262   3.327   8.823  0.2113  0.4606 -0.1967
 7363SOL    HW133722   0.321   3.322   8.898 -2.7403  2.1489  2.2197
 7363SOL    HW233723   0.227   3.415   8.835 -0.7618 -0.0269  0.5066
 7364SOL     OW33724   0.918   3.869   4.731 -0.4134 -0.1271  0.4137
 7364SOL    HW133725   0.944   3.880   4.640 -0.1467 -2.0394  0.2580
 7364SOL    HW233726   0.958   3.945   4.772  1.7798  0.3786 -2.7301
 7365SOL     OW33727   3.450   0.672   8.213 -0.5361 -0.1958 -0.5133
 7365SOL    HW133728   3.434   0.618   8.135  1.9584 -0.4434 -0.8381
 7365SOL    HW233729   3.384   0.634   8.271 -0.5931  0.9702  0.1669
 7366SOL     OW33730   3.162   1.478   5.909  0.2462 -0.3737 -0.4463
 7366SOL    HW133731   3.168   1.507   6.000 -0.9929  1.5473 -0.9714
 7366SOL    HW233732   3.227   1.408   5.919  0.1477 -0.4218 -0.1462
 7367SOL     OW33733   1.781   0.572   3.878  0.0080  0.5246 -0.3578
 7367SOL    HW133734   1.723   0.585   3.954  0.7103  1.8623 -0.0549
 7367SOL    HW233735   1.743   0.631   3.813  0.3037 -1.0688 -1.9699
 7368SOL     OW33736   4.001   0.422  17.043 -0.3069  0.6616  0.3730
 7368SOL    HW133737   3.913   0.443  17.075  0.0258  2.3610  0.1800
 7368SOL    HW233738   4.024   0.506  17.003  0.5128 -0.4942 -1.5622
 7369SOL     OW33739   2.983   2.805   4.298 -0.4622 -0.5100 -0.4064
 7369SOL    HW133740   2.921   2.871   4.267  0.2285 -0.3761 -1.4979
 7369SOL    HW233741   3.062   2.858   4.293  0.1020 -1.1714  1.4900
 7370SOL     OW33742   1.539   3.912   8.456 -0.0205 -0.5909 -0.2261
 7370SOL    HW133743   1.476   3.924   8.527 -2.1725 -0.1335 -2.2196
 7370SOL    HW233744   1.598   3.851   8.500  0.6255 -1.4545 -2.3338
 7371SOL     OW33745   3.130   0.755   3.106  0.8502  0.2362 -0.1119
 7371SOL    HW133746   3.157   0.697   3.036 -0.9695 -1.5855  0.6704
 7371SOL    HW233747   3.169   0.710   3.182  2.2412  0.0824 -0.9258
 7372SOL     OW33748   2.483   3.070  13.184  0.4032  0.2749  0.2971
 7372SOL    HW133749   2.448   3.049  13.097  1.3121  0.7740 -0.1943
 7372SOL    HW233750   2.494   3.165  13.177  2.6487 -0.0756 -1.0166
 7373SOL     OW33751   1.327   4.452   9.370  0.0770  0.3548  0.2197
 7373SOL    HW133752   1.411   4.407   9.380  0.1627  0.6274  0.7134
 7373SOL    HW233753   1.347   4.515   9.302  2.0697 -2.3704 -1.7319
 7374SOL     OW33754   0.872   2.705   1.485 -0.6456  1.0366  0.3764
 7374SOL    HW133755   0.916   2.781   1.522  0.4577 -0.3959  1.9945
 7374SOL    HW233756   0.787   2.748   1.473 -1.2496 -0.1116  0.5786
 7375SOL     OW33757   0.202   1.553   1.855 -0.3625  0.6123  0.2498
 7375SOL    HW133758   0.242   1.476   1.896  1.6962  0.9150 -1.1816
 7375SOL    HW233759   0.209   1.620   1.923  1.0152  0.9065 -0.1829
 7376SOL     OW33760   0.360   2.976   7.982 -0.3903  0.0509 -0.6053
 7376SOL    HW133761   0.442   2.966   8.030 -0.8738  1.3202  0.4843
 7376SOL    HW233762   0.331   3.059   8.020  2.3346  0.6955  0.0919
 7377SOL     OW33763   3.805   4.161  16.028 -0.0816  0.2500  0.1500
 7377SOL    HW133764   3.896   4.164  15.999  0.4912  1.2405  2.0555
 7377SOL    HW233765   3.774   4.222  15.961 -1.2006 -2.7571 -2.0831
 7378SOL     OW33766   4.505   0.238   2.739  0.5378 -0.1219  0.0959
 7378SOL    HW133767   4.476   0.298   2.670  1.8231 -0.4141 -0.6988
 7378SOL    HW233768   4.467   0.160   2.699 -2.1840  0.8366  0.8052
 7379SOL     OW33769   4.515   4.470   5.512 -0.4141 -0.4134  0.2917
 7379SOL    HW133770   4.547   4.545   5.461  1.6174 -1.4310  0.0846
 7379SOL    HW233771   4.548   4.398   5.458 -2.6169 -0.9094 -0.3832
 7380SOL     OW33772   0.468   1.523   8.678 -0.0260  0.6707 -0.1632
 7380SOL    HW133773   0.439   1.552   8.764 -2.1074 -0.2570 -0.5456
 7380SOL    HW233774   0.561   1.548   8.683  0.7876 -2.5346  0.9096
 7381SOL     OW33775   1.640   2.746   7.637 -0.3314 -0.2390 -0.0355
 7381SOL    HW133776   1.696   2.706   7.704 -1.1979  1.6487  1.7914
 7381SOL    HW233777   1.708   2.762   7.571  1.2445 -0.0077  1.6335
 7382SOL     OW33778   4.141   1.407   5.771  0.0834 -0.2443  0.2060
 7382SOL    HW133779   4.078   1.479   5.782  0.0114 -0.3240  0.3145
 7382SOL    HW233780   4.180   1.432   5.687 -3.0341 -0.7884 -1.4234
 7383SOL     OW33781   4.250   1.849   6.950 -0.0392 -0.5075 -0.2774
 7383SOL    HW133782   4.273   1.762   6.983 -0.8392  0.2912  2.4164
 7383SOL    HW233783   4.173   1.874   7.001 -0.9306 -0.3047 -1.7565
 7384SOL     OW33784   2.712   1.518   5.005  0.0031 -0.4459 -0.2516
 7384SOL    HW133785   2.691   1.559   5.089 -2.9395  1.0578 -1.7306
 7384SOL    HW233786   2.645   1.562   4.952  0.9121  2.1311  0.7202
 7385SOL     OW33787   4.732   0.960  17.368 -0.1327 -1.0133 -0.2052
 7385SOL    HW133788   0.010   1.010  17.287 -0.6810 -0.7868 -0.1616
 7385SOL    HW233789   4.657   0.910  17.338  0.6730 -1.8029 -0.9245
 7386SOL     OW33790   3.107   1.231   3.378 -0.0057  0.0793 -0.2540
 7386SOL    HW133791   3.184   1.282   3.352  0.1866  0.7750  1.6769
 7386SOL    HW233792   3.151   1.176   3.442 -3.0868 -0.3376  1.5035
 7387SOL     OW33793   3.790   3.459   6.736  0.3044 -0.6487 -0.0314
 7387SOL    HW133794   3.825   3.377   6.771  1.2557 -0.4603 -0.5571
 7387SOL    HW233795   3.719   3.478   6.797  1.3914 -0.3842  1.1434
 7388SOL     OW33796   1.051   2.235  12.216 -0.8613 -0.4439 -0.2556
 7388SOL    HW133797   1.008   2.221  12.131 -1.0522 -1.1894 -0.0351
 7388SOL    HW233798   1.133   2.188  12.205 -0.9594 -0.3517 -1.3615
 7389SOL     OW33799   1.857   4.308   8.942  0.1630 -0.1045  0.6873
 7389SOL    HW133800   1.914   4.379   8.971  0.1401  0.7413 -1.3472
 7389SOL    HW233801   1.909   4.231   8.965 -2.1739 -1.3546  1.8847
 7390SOL     OW33802   4.709   1.274  13.394 -0.3195 -0.0422 -0.7502
 7390SOL    HW133803   4.645   1.337  13.426  0.1055 -0.7659  1.5044
 7390SOL    HW233804   4.657   1.196  13.377  1.8598 -2.0708  1.8271
 7391SOL     OW33805   2.727   3.568   8.514  0.4572 -0.3463 -0.2702
 7391SOL    HW133806   2.645   3.518   8.508  0.4313 -0.4120  0.6218
 7391SOL    HW233807   2.737   3.593   8.422  0.9682 -1.1921 -0.4407
 7392SOL     OW33808   1.968   1.076   9.771  0.1275  0.3445  0.4168
 7392SOL    HW133809   1.922   1.033   9.843  0.7727  0.3180  0.8088
 7392SOL    HW233810   1.894   1.095   9.713 -0.7462 -0.1678  1.3583
 7393SOL     OW33811   3.334   0.963   8.175 -0.2571 -0.2906  0.8358
 7393SOL    HW133812   3.393   0.890   8.196  1.3727  0.4296 -1.1965
 7393SOL    HW233813   3.261   0.941   8.233 -1.0408  1.2958  0.4441
 7394SOL     OW33814   2.740   2.581   6.238 -0.3068  0.0725 -0.1081
 7394SOL    HW133815   2.819   2.626   6.269 -0.5850  0.8708 -0.5586
 7394SOL    HW233816   2.747   2.624   6.152 -2.6280  0.1654 -0.2340
 7395SOL     OW33817   3.225   0.708   2.811  0.2337  0.1404  0.3630
 7395SOL    HW133818   3.316   0.682   2.824  0.6679  1.6714  0.4757
 7395SOL    HW233819   3.221   0.721   2.716 -1.0204 -2.1858  0.1035
 7396SOL     OW33820   1.669   0.973   6.540 -0.1237  0.2019  0.0996
 7396SOL    HW133821   1.751   0.971   6.491  1.0196  1.3531  1.9551
 7396SOL    HW233822   1.635   1.062   6.526  0.7191  0.4435 -0.4669
 7397SOL     OW33823   1.339   1.506   9.247  0.6641 -0.2954 -0.3588
 7397SOL    HW133824   1.373   1.504   9.336 -0.8628 -0.1330  0.2400
 7397SOL    HW233825   1.252   1.545   9.258  0.2479 -0.7627 -1.8908
 7398SOL     OW33826   0.599   2.719   9.589  0.4078 -0.4673 -0.5603
 7398SOL    HW133827   0.569   2.668   9.664 -1.5454 -0.3649 -1.2617
 7398SOL    HW233828   0.613   2.802   9.634  1.3439 -1.0875  0.2736
 7399SOL     OW33829   3.922   1.972  15.200  0.1897 -0.0369 -0.3758
 7399SOL    HW133830   3.863   2.040  15.168 -1.8606 -1.2515  0.7550
 7399SOL    HW233831   4.007   2.015  15.202 -0.1096  0.5820 -0.8661
 7400SOL     OW33832   3.344   1.513   2.299  0.2318 -0.2947 -0.5097
 7400SOL    HW133833   3.338   1.580   2.231 -1.2589  0.5061  0.4194
 7400SOL    HW233834   3.275   1.544   2.358  0.3292 -0.3705 -0.3546
 7401SOL     OW33835   3.622   0.885   5.932 -0.1258 -0.3597 -0.4768
 7401SOL    HW133836   3.668   0.905   6.014 -1.2485 -0.8309  0.2829
 7401SOL    HW233837   3.635   0.790   5.926  2.8018 -0.0619  1.0291
 7402SOL     OW33838   0.606   1.974  17.092  0.1531  0.0397  0.2264
 7402SOL    HW133839   0.678   1.948  17.035  0.2508  2.0442 -0.5727
 7402SOL    HW233840   0.566   2.029  17.024  0.2508  0.5589  0.5831
 7403SOL     OW33841   0.120   3.000   6.214  0.2935  0.1990  0.0175
 7403SOL    HW133842   0.027   2.995   6.193  0.7718 -4.5117 -0.9182
 7403SOL    HW233843   0.155   2.988   6.126 -3.1098 -2.9285 -0.9334
 7404SOL     OW33844   2.787   2.866   7.995  0.1835 -0.2858 -0.8450
 7404SOL    HW133845   2.856   2.807   8.023 -0.2615 -0.2081  0.4071
 7404SOL    HW233846   2.728   2.845   8.067 -0.4640 -0.7275 -1.4963
 7405SOL     OW33847   3.535   2.953   6.100  0.3594 -0.2790 -0.3077
 7405SOL    HW133848   3.603   3.018   6.114 -0.7335  1.2916 -2.2254
 7405SOL    HW233849   3.506   2.983   6.013  1.0685  0.9683 -0.1077
 7406SOL     OW33850   2.846   2.175   7.723  0.1768 -0.1508 -0.3578
 7406SOL    HW133851   2.772   2.219   7.681  3.4929  2.0368 -3.8277
 7406SOL    HW233852   2.816   2.084   7.732 -0.1067 -0.0227 -0.0035
 7407SOL     OW33853   1.319   0.338   6.904  0.2087  0.4711 -0.2139
 7407SOL    HW133854   1.384   0.405   6.881  1.1611 -0.8173 -1.3321
 7407SOL    HW233855   1.314   0.287   6.823 -0.5200 -0.9822  0.7710
 7408SOL     OW33856   1.733   1.873   4.362  0.2086 -0.2580  0.2134
 7408SOL    HW133857   1.801   1.869   4.429  0.8125 -1.2995 -0.4755
 7408SOL    HW233858   1.693   1.960   4.375  1.0607  0.5468 -2.5227
 7409SOL     OW33859   3.339   2.204   6.160  0.5225 -0.2945 -0.3467
 7409SOL    HW133860   3.299   2.188   6.245  3.5588 -1.6915  0.7809
 7409SOL    HW233861   3.429   2.181   6.182  0.3549 -1.1293 -0.5363
 7410SOL     OW33862   2.455   1.623   2.359  0.3088  0.0015  0.5473
 7410SOL    HW133863   2.524   1.568   2.397  0.2929 -1.6265 -1.7621
 7410SOL    HW233864   2.377   1.612   2.413  0.2638  0.0332  0.4880
 7411SOL     OW33865   2.666   3.442   7.567 -0.2703 -0.0722 -0.1675
 7411SOL    HW133866   2.751   3.402   7.584  1.9353  4.4157 -0.6858
 7411SOL    HW233867   2.693   3.520   7.518 -1.8006 -0.1135 -1.0579
 7412SOL     OW33868   2.223   1.144   5.126  0.1032 -0.3031  0.0793
 7412SOL    HW133869   2.269   1.155   5.043  0.1590 -0.2882  0.1123
 7412SOL    HW233870   2.231   1.231   5.166  0.2384 -0.0063 -0.5995
 7413SOL     OW33871   3.673   4.509   3.818  0.1940 -0.3878 -0.0710
 7413SOL    HW133872   3.758   4.464   3.817 -0.2551 -1.2339 -0.1938
 7413SOL    HW233873   3.656   4.501   3.912  0.3622  0.2850  0.0188
 7414SOL     OW33874   2.005   1.057   7.863 -0.1513  0.0445  0.0904
 7414SOL    HW133875   2.036   1.101   7.942 -0.2848  1.2777 -0.5573
 7414SOL    HW233876   2.035   0.967   7.878  1.5680  0.6512  0.2035
 7415SOL     OW33877   0.698   2.212   9.957  0.5545  0.4532 -0.2158
 7415SOL    HW133878   0.750   2.238  10.033 -1.1429  0.9219  0.7655
 7415SOL    HW233879   0.738   2.276   9.898 -2.0597  2.4153  0.1757
 7416SOL     OW33880   3.382   0.209  16.106 -0.1395 -0.2904 -0.8434
 7416SOL    HW133881   3.300   0.176  16.143 -0.5690  0.2210 -1.3394
 7416SOL    HW233882   3.449   0.145  16.130 -1.5551 -1.9182 -1.1986
 7417SOL     OW33883   1.467   2.134   1.546  0.1399 -0.0681  0.3065
 7417SOL    HW133884   1.503   2.076   1.479  2.3086  1.1202  0.4649
 7417SOL    HW233885   1.545   2.177   1.579 -0.5823  2.2611 -1.0451
 7418SOL     OW33886   1.811   0.290   1.288 -0.5095  0.5596 -0.6407
 7418SOL    HW133887   1.828   0.331   1.203 -0.9975 -1.5174 -1.7578
 7418SOL    HW233888   1.716   0.295   1.284 -0.4955  1.7918  0.5075
 7419SOL     OW33889   1.271   3.044   3.597  0.2845  0.2624 -0.0888
 7419SOL    HW133890   1.299   3.040   3.506 -0.3076 -1.1947 -0.2041
 7419SOL    HW233891   1.176   3.042   3.584  0.5260  0.4127 -1.8411
 7420SOL     OW33892   0.060   2.455  13.004  0.1740 -0.2355  0.0203
 7420SOL    HW133893   0.040   2.374  13.051  0.3370 -0.8376 -0.9416
 7420SOL    HW233894   0.017   2.521  13.058 -0.3987  0.0534 -0.7756
 7421SOL     OW33895   2.172   3.933   6.522  0.1774 -0.4251 -0.4856
 7421SOL    HW133896   2.259   3.969   6.508  0.2718 -0.6812 -0.5593
 7421SOL    HW233897   2.174   3.902   6.613 -0.8729  1.9815  0.3534
 7422SOL     OW33898   1.729   0.685   3.273 -0.3402  0.7244 -0.7054
 7422SOL    HW133899   1.774   0.621   3.217  0.2375 -0.7998  1.4994
 7422SOL    HW233900   1.650   0.708   3.224  0.2329 -2.3998 -3.0455
 7423SOL     OW33901   1.111   1.214  14.750 -0.5112 -0.1034  0.1881
 7423SOL    HW133902   1.123   1.146  14.817 -2.0044  2.2271  2.8313
 7423SOL    HW233903   1.197   1.237  14.715 -0.9447 -0.0790 -0.8369
 7424SOL     OW33904   0.591   3.042   6.444 -0.2594  0.1829  0.4761
 7424SOL    HW133905   0.545   2.995   6.374 -0.6828  0.7737  0.3526
 7424SOL    HW233906   0.673   2.994   6.448  0.7849  1.9361  0.0406
 7425SOL     OW33907   3.812   1.385   3.021  0.0963  0.5847  0.0227
 7425SOL    HW133908   3.721   1.381   3.052 -0.5529 -0.1445 -1.9570
 7425SOL    HW233909   3.810   1.480   3.004 -0.3120  0.4670 -0.5777
 7426SOL     OW33910   0.508   0.495   3.031 -0.2199 -0.0910 -0.2886
 7426SOL    HW133911   0.467   0.436   3.095 -0.2014  0.6724  0.4171
 7426SOL    HW233912   0.511   0.581   3.072 -0.9624 -0.4497  0.5098
 7427SOL     OW33913   3.096   1.535   9.040  0.3294 -0.3848 -0.1014
 7427SOL    HW133914   3.035   1.494   8.978  0.1774 -0.0200 -0.1946
 7427SOL    HW233915   3.148   1.455   9.050 -0.1644 -0.6521  0.2972
 7428SOL     OW33916   2.709   4.630  14.659  0.1064 -0.0878 -0.3207
 7428SOL    HW133917   2.686   4.722  14.643 -1.7032 -0.8662 -2.3425
 7428SOL    HW233918   2.750   4.608  14.575  0.2086 -1.1466  0.0063
 7429SOL     OW33919   2.326   0.296  12.203  0.0663 -0.0830 -0.1213
 7429SOL    HW133920   2.335   0.313  12.109 -2.4019 -3.0502 -0.8945
 7429SOL    HW233921   2.401   0.237  12.216  0.7204  0.7453 -0.1609
 7430SOL     OW33922   2.787   3.166  15.682 -0.3913 -0.0972  0.5305
 7430SOL    HW133923   2.779   3.179  15.588  1.8292  1.4005  0.5556
 7430SOL    HW233924   2.840   3.087  15.693  0.3204  0.2627 -0.4057
 7431SOL     OW33925   4.590   2.145   9.532 -0.6232 -0.3333  0.5865
 7431SOL    HW133926   4.639   2.148   9.449  0.9236 -0.4485  1.4845
 7431SOL    HW233927   4.560   2.235   9.524  0.5886  0.1984  1.9233
 7432SOL     OW33928   3.142   1.504  15.733 -0.4908  0.1068  0.1161
 7432SOL    HW133929   3.203   1.559  15.684  0.5078 -1.0199  0.0847
 7432SOL    HW233930   3.125   1.429  15.675 -0.4137  1.3487 -1.5118
 7433SOL     OW33931   3.048   1.186   3.817  0.2435 -0.2850 -0.1316
 7433SOL    HW133932   3.139   1.163   3.835 -0.5017 -1.5605  2.0340
 7433SOL    HW233933   3.042   1.277   3.848 -1.3420 -0.4527  0.0721
 7434SOL     OW33934   0.674   0.396   9.749 -0.0141  0.0621 -0.2876
 7434SOL    HW133935   0.730   0.474   9.742 -0.4150  0.3228 -0.5683
 7434SOL    HW233936   0.581   0.419   9.742 -0.3803 -2.1293 -2.6502
 7435SOL     OW33937   0.890   1.253   4.029 -0.4245  0.3445  0.0258
 7435SOL    HW133938   0.816   1.223   4.081 -2.9429  3.1177 -1.9437
 7435SOL    HW233939   0.855   1.324   3.975 -0.7518  2.4202  2.9700
 7436SOL     OW33940   1.944   3.357   9.860 -0.2246 -0.3907 -0.3752
 7436SOL    HW133941   1.998   3.341   9.782  0.0702  0.7344 -0.3906
 7436SOL    HW233942   1.960   3.449   9.878  1.0925 -0.3926 -1.5014
 7437SOL     OW33943   0.415   2.577   7.334  0.3228  0.7291  0.0195
 7437SOL    HW133944   0.449   2.664   7.356 -0.5551  1.1613 -0.3011
 7437SOL    HW233945   0.349   2.608   7.272  1.2742  0.0819 -1.2866
 7438SOL     OW33946   3.738   0.250  12.610  0.1083  0.2458  0.1638
 7438SOL    HW133947   3.731   0.216  12.521  1.2148 -0.5987  0.4027
 7438SOL    HW233948   3.698   0.335  12.590 -2.3664 -0.6373  1.2816
 7439SOL     OW33949   0.636   2.906   3.485  0.5087 -0.0600  0.0815
 7439SOL    HW133950   0.680   2.824   3.507  1.1429  0.0084 -0.9252
 7439SOL    HW233951   0.576   2.908   3.559 -0.0485 -0.2029 -0.3618
 7440SOL     OW33952   1.117   3.692   6.145 -0.3672 -0.5197  0.4247
 7440SOL    HW133953   1.148   3.754   6.212 -1.2957 -0.2997  0.6577
 7440SOL    HW233954   1.094   3.614   6.195 -2.6601  0.9151  1.6214
 7441SOL     OW33955   2.137   4.445   1.375  0.1956  0.4817  0.2114
 7441SOL    HW133956   2.217   4.475   1.330 -1.2100  1.8958 -1.3359
 7441SOL    HW233957   2.101   4.376   1.319  1.5666 -1.7933  2.1384
 7442SOL     OW33958   1.727   0.401   7.494  0.9507 -0.5460 -0.0045
 7442SOL    HW133959   1.787   0.472   7.515 -0.2153  1.2781 -2.7827
 7442SOL    HW233960   1.718   0.420   7.400  0.0562  0.8330  0.3783
 7443SOL     OW33961   0.229   1.024  13.375  0.0961  0.0173  0.1573
 7443SOL    HW133962   0.245   1.111  13.413 -1.6751  0.5235 -0.2725
 7443SOL    HW233963   0.216   1.056  13.286 -0.2888 -1.1825 -0.2176
 7444SOL     OW33964   1.521   3.810   6.393  0.0068  0.1289  0.4880
 7444SOL    HW133965   1.504   3.718   6.376  1.0775  0.2256 -1.1309
 7444SOL    HW233966   1.553   3.794   6.482  0.2596 -2.5495 -0.0873
 7445SOL     OW33967   3.158   1.042   0.892 -0.0610  0.2847 -0.5006
 7445SOL    HW133968   3.066   1.046   0.919 -0.5934 -1.9408 -1.9531
 7445SOL    HW233969   3.188   1.053   0.982  2.6872  2.4457 -1.6938
 7446SOL     OW33970   1.754   2.249   4.797 -0.5849 -0.5429  0.5566
 7446SOL    HW133971   1.698   2.323   4.819  0.8416 -0.0486  2.6529
 7446SOL    HW233972   1.756   2.260   4.702 -2.6501  4.0138  1.0915
 7447SOL     OW33973   1.136   1.146   4.050  0.7408 -0.3519 -0.1456
 7447SOL    HW133974   1.056   1.198   4.046  0.5461 -0.5885  0.6604
 7447SOL    HW233975   1.198   1.219   4.055  0.9184 -0.2799 -3.5972
 7448SOL     OW33976   1.671   2.018   5.207 -0.1420  0.8618 -0.5406
 7448SOL    HW133977   1.607   2.080   5.242  1.0128  1.1613  1.0377
 7448SOL    HW233978   1.666   2.036   5.114 -1.1491 -2.1144 -1.0544
 7449SOL     OW33979   2.202   1.124   9.651  0.1158 -0.0297 -0.3062
 7449SOL    HW133980   2.173   1.166   9.569 -2.9577 -2.2823 -0.3774
 7449SOL    HW233981   2.118   1.085   9.676  0.4848  1.5520  3.2902
 7450SOL     OW33982   3.392   0.887   5.766  0.2423 -0.0831  0.3152
 7450SOL    HW133983   3.468   0.905   5.822  0.7710  1.6730 -0.9819
 7450SOL    HW233984   3.392   0.957   5.701  1.9549 -0.9948 -0.6659
 7451SOL     OW33985   4.677   2.988   9.484 -0.0745 -0.3224 -0.0797
 7451SOL    HW133986   4.626   3.068   9.467  2.2879  1.4550  1.2481
 7451SOL    HW233987   0.021   3.011   9.437 -1.0023  3.0642 -0.0393
 7452SOL     OW33988   0.131   1.747   2.846  0.3544  0.0223  0.2535
 7452SOL    HW133989   0.137   1.652   2.858 -1.5206 -0.2184 -0.8451
 7452SOL    HW233990   0.172   1.773   2.929  2.4315  0.6152 -0.9664
 7453SOL     OW33991   0.331   2.661   4.618  0.1168  0.4448  0.2410
 7453SOL    HW133992   0.412   2.687   4.661  0.3483  1.4549 -0.8111
 7453SOL    HW233993   0.347   2.705   4.535 -0.4488  1.6748  0.7928
 7454SOL     OW33994   4.714   1.499   4.126 -0.5665  0.3748  0.1977
 7454SOL    HW133995   0.028   1.419   4.114 -2.5455 -1.0451  1.2768
 7454SOL    HW233996   0.009   1.509   4.216  0.6440 -0.8138 -0.0970
 7455SOL     OW33997   1.266   0.563   5.928  0.3674  0.0155  0.6433
 7455SOL    HW133998   1.280   0.655   5.905  0.8230 -0.5049 -1.2172
 7455SOL    HW233999   1.172   0.555   5.942  0.1824  0.9026 -0.0685
 7456SOL     OW34000   4.068   0.983   8.082 -0.3704  0.5055 -0.1253
 7456SOL    HW134001   4.000   0.982   8.015 -1.7009  1.2860  1.2061
 7456SOL    HW234002   4.110   1.069   8.074 -1.0132  0.7920 -0.3965
 7457SOL     OW34003   2.038   3.526   7.214  0.1169 -0.0898 -0.3067
 7457SOL    HW134004   1.964   3.466   7.215  0.0404 -0.0154 -1.5565
 7457SOL    HW234005   2.054   3.535   7.308  0.1757  0.8955 -0.4094
 7458SOL     OW34006   2.990   4.029   5.020 -0.0767 -0.0635  0.1995
 7458SOL    HW134007   3.017   4.118   5.043  0.6454 -0.3964  0.6401
 7458SOL    HW234008   2.901   4.043   4.988 -0.7740  2.1181  3.1052
 7459SOL     OW34009   1.175   2.551   2.522  0.1191 -0.3124  0.3344
 7459SOL    HW134010   1.246   2.539   2.458  0.5837 -3.1945  1.3934
 7459SOL    HW234011   1.100   2.515   2.475  0.2521  1.2499 -1.1082
 7460SOL     OW34012   3.201   3.920  17.056  0.0997 -0.7432 -0.0121
 7460SOL    HW134013   3.118   3.966  17.043 -0.1348 -0.6695  1.7803
 7460SOL    HW234014   3.236   3.934  16.968 -0.2096 -0.3457 -0.0759
 7461SOL     OW34015   2.818   1.509  16.840  0.2349  0.1656 -0.5287
 7461SOL    HW134016   2.802   1.579  16.778  0.4291  1.2916  0.6917
 7461SOL    HW234017   2.735   1.462  16.829 -0.6259  1.2590  1.2715
 7462SOL     OW34018   2.638   1.359   1.360 -0.4067  0.1821  0.5801
 7462SOL    HW134019   2.699   1.376   1.432  0.1944  0.9847 -0.0968
 7462SOL    HW234020   2.561   1.406   1.390 -0.4350 -0.2891  1.2203
 7463SOL     OW34021   2.375   3.557   8.830 -0.8377 -0.0691 -0.0270
 7463SOL    HW134022   2.286   3.528   8.809 -0.4629 -1.1585 -0.0784
 7463SOL    HW234023   2.417   3.537   8.747 -0.7764  1.5099 -0.3880
 7464SOL     OW34024   0.602   0.517  11.802 -0.0643 -0.1736 -0.3971
 7464SOL    HW134025   0.692   0.498  11.778 -0.2028  0.8653 -1.7981
 7464SOL    HW234026   0.616   0.612  11.800 -1.5435  0.0606  0.2383
 7465SOL     OW34027   3.366   0.552   7.421  0.8034  0.0399 -0.4456
 7465SOL    HW134028   3.305   0.588   7.485 -1.2466 -1.0525 -1.8044
 7465SOL    HW234029   3.336   0.587   7.337 -0.4620  0.8487  0.3393
 7466SOL     OW34030   0.925   2.470   6.480 -0.5007  0.0863 -0.0910
 7466SOL    HW134031   0.978   2.546   6.505  0.4086 -0.7094  0.3642
 7466SOL    HW234032   0.984   2.396   6.495  0.3865  0.2941 -2.4847
 7467SOL     OW34033   2.036   4.482   9.017  0.1876 -0.3644 -0.5031
 7467SOL    HW134034   2.121   4.438   9.018  0.3308 -0.0907 -0.5603
 7467SOL    HW234035   2.040   4.528   9.101  0.0600 -1.9888  0.3748
 7468SOL     OW34036   1.269   0.845   4.330  0.0398 -0.2699  0.3774
 7468SOL    HW134037   1.277   0.866   4.237 -0.5266 -2.1089 -0.0750
 7468SOL    HW234038   1.348   0.881   4.371 -0.4417  0.6031  0.5284
 7469SOL     OW34039   0.633   1.107   8.109  0.4143 -0.2172  0.1393
 7469SOL    HW134040   0.645   1.151   8.024 -0.3518  1.2468  0.7830
 7469SOL    HW234041   0.698   1.157   8.160 -0.9630 -0.2072  1.8711
 7470SOL     OW34042   1.374   3.901  13.602  0.7127  0.3879  0.3279
 7470SOL    HW134043   1.281   3.890  13.622  0.2535  3.3008 -0.2069
 7470SOL    HW234044   1.386   3.996  13.599 -0.6377  0.5184 -1.1441
 7471SOL     OW34045   2.960   1.965   0.161 -0.2424 -0.4347  0.2185
 7471SOL    HW134046   2.925   1.878   0.141 -0.0177 -0.3321 -0.6059
 7471SOL    HW234047   2.926   1.993   0.246 -0.2428 -0.1225  0.1143
 7472SOL     OW34048   3.730   4.163   8.767  0.1434  0.4278 -0.1322
 7472SOL    HW134049   3.805   4.215   8.738 -1.7282  1.1211 -3.5927
 7472SOL    HW234050   3.732   4.093   8.702  0.6430 -0.3549  0.7071
 7473SOL     OW34051   3.047   0.510  16.676  0.2063  0.1565  0.1947
 7473SOL    HW134052   3.097   0.578  16.631 -0.0944 -0.4960 -1.0975
 7473SOL    HW234053   2.990   0.467  16.613 -0.0973  0.0797  0.5204
 7474SOL     OW34054   0.383   1.560   0.234 -0.0778 -0.1509  0.0291
 7474SOL    HW134055   0.369   1.475   0.192  2.9272 -1.4712  1.7005
 7474SOL    HW234056   0.297   1.581   0.268 -0.2275  1.2197 -1.2332
 7475SOL     OW34057   2.064   4.474   4.813 -0.3093  0.1850 -0.0548
 7475SOL    HW134058   1.976   4.506   4.832 -0.8210 -0.8408 -0.7138
 7475SOL    HW234059   2.048   4.387   4.777  0.4604  0.5647 -1.3259
 7476SOL     OW34060   1.139   0.884  11.755 -0.5069  0.0441 -0.4922
 7476SOL    HW134061   1.098   0.967  11.729 -2.1264 -0.2468  1.1026
 7476SOL    HW234062   1.195   0.869  11.679 -0.3756  1.6934 -0.7120
 7477SOL     OW34063   0.688   4.572   6.310  0.6808 -0.6205 -0.3812
 7477SOL    HW134064   0.633   4.543   6.382  0.6845  2.4003  0.7997
 7477SOL    HW234065   0.747   4.634   6.352 -1.8767  2.1652 -0.9738
 7478SOL     OW34066   1.535   2.894   1.891  0.4665 -0.1049 -0.0770
 7478SOL    HW134067   1.545   2.989   1.901  1.7978 -0.3069  0.3996
 7478SOL    HW234068   1.623   2.857   1.890 -0.7879 -3.0883 -0.7148
 7479SOL     OW34069   2.502   1.098  17.349 -0.4296 -0.0244 -0.3268
 7479SOL    HW134070   2.422   1.142  17.377 -0.0662 -1.0165  2.3362
 7479SOL    HW234071   2.553   1.091  17.430 -2.4636  2.8977  1.1752
 7480SOL     OW34072   1.095   3.777  14.693  0.9228 -0.5968  0.0310
 7480SOL    HW134073   1.166   3.713  14.701  0.7587 -0.6663  0.9168
 7480SOL    HW234074   1.139   3.855  14.729  1.2096 -0.3437 -0.8644
 7481SOL     OW34075   0.825   1.739   9.528 -0.1777 -0.1773 -0.0706
 7481SOL    HW134076   0.807   1.706   9.440  1.0300  3.9109 -1.8317
 7481SOL    HW234077   0.845   1.829   9.502 -1.3294  0.2619  0.5929
 7482SOL     OW34078   0.362   1.349  10.856  0.2280 -0.0414 -0.1739
 7482SOL    HW134079   0.441   1.369  10.907 -0.2051  0.8866  0.1260
 7482SOL    HW234080   0.319   1.277  10.903 -0.7449  1.1703  0.7851
 7483SOL     OW34081   2.395   3.963   4.326  0.4251 -0.0129  0.8511
 7483SOL    HW134082   2.440   3.967   4.410  0.5743  2.3902  0.6463
 7483SOL    HW234083   2.437   4.030   4.273  0.0741 -0.2836  0.2312
 7484SOL     OW34084   1.835   3.221   5.693 -0.2134 -0.1058 -0.3234
 7484SOL    HW134085   1.903   3.285   5.713  0.3274 -1.3743  1.9451
 7484SOL    HW234086   1.767   3.254   5.750  1.6728  1.7812  0.8366
 7485SOL     OW34087   0.774   3.800  13.963 -0.5993 -0.0828 -0.2364
 7485SOL    HW134088   0.680   3.817  13.960 -0.0868  2.8568  0.2012
 7485SOL    HW234089   0.787   3.785  14.056 -1.3476 -0.8856 -0.2656
 7486SOL     OW34090   2.200   0.096   9.349 -0.2647 -0.3845 -0.3613
 7486SOL    HW134091   2.192   0.187   9.375 -0.6536 -0.6083  0.2959
 7486SOL    HW234092   2.263   0.061   9.412 -0.4629 -0.4367 -0.1917
 7487SOL     OW34093   3.831   4.043   5.629 -0.1147 -0.4072 -0.1210
 7487SOL    HW134094   3.913   4.015   5.670  0.7874  2.1844 -0.1132
 7487SOL    HW234095   3.824   3.998   5.544 -0.1044 -1.4457  0.4282
 7488SOL     OW34096   1.736   2.568   2.507 -0.1262 -0.1521  0.0201
 7488SOL    HW134097   1.812   2.595   2.558  0.6589  1.5554 -2.0253
 7488SOL    HW234098   1.724   2.643   2.448 -0.7823  0.8571  1.4521
 7489SOL     OW34099   4.684   3.399   8.519  0.0147 -0.3191  0.1020
 7489SOL    HW134100   4.728   3.409   8.435 -0.6702  0.3383 -0.1773
 7489SOL    HW234101   4.677   3.493   8.537  1.4287 -0.1872 -0.0508
 7490SOL     OW34102   1.494   4.067   4.934  0.4531  0.6142 -0.3679
 7490SOL    HW134103   1.483   4.029   4.847  1.2509 -2.2928  0.8002
 7490SOL    HW234104   1.565   4.130   4.924  0.3162  0.8353  0.0534
 7491SOL     OW34105   2.984   2.030   9.309  0.3274  0.1553 -0.5332
 7491SOL    HW134106   2.933   1.949   9.301  0.8219 -0.1802 -0.2823
 7491SOL    HW234107   3.001   2.070   9.224  0.3316  0.1655 -0.5275
 7492SOL     OW34108   2.931   4.476  14.967 -0.0253 -0.0165 -0.2536
 7492SOL    HW134109   2.944   4.426  15.047 -1.8073 -0.1556 -0.0511
 7492SOL    HW234110   3.011   4.452  14.919 -1.4743 -1.5115 -1.9245
 7493SOL     OW34111   3.531   2.891   4.585 -0.2004  0.1509  0.0558
 7493SOL    HW134112   3.622   2.868   4.606 -0.0120 -0.1489 -1.0734
 7493SOL    HW234113   3.529   2.981   4.619  0.1799 -0.0096  0.4934
 7494SOL     OW34114   1.387   3.562   7.125 -0.8914  0.3291  0.2900
 7494SOL    HW134115   1.443   3.612   7.184 -0.5117  1.3169 -0.8953
 7494SOL    HW234116   1.306   3.547   7.173 -0.4265 -1.7520  0.4170
 7495SOL     OW34117   4.334   3.080   1.961 -0.5875  0.2527 -0.1662
 7495SOL    HW134118   4.324   3.006   2.020  2.4682  1.4731  1.8767
 7495SOL    HW234119   4.366   3.036   1.882 -2.1578  3.0445 -2.4043
 7496SOL     OW34120   1.837   0.357   6.114  0.4457 -0.2872  0.3325
 7496SOL    HW134121   1.842   0.267   6.082  1.9094 -0.0651 -0.0504
 7496SOL    HW234122   1.742   0.368   6.124  0.2338 -2.2323  0.4374
 7497SOL     OW34123   3.724   3.290   2.327 -0.4886  0.1570  0.0738
 7497SOL    HW134124   3.799   3.230   2.331 -1.6597 -1.4418 -1.9091
 7497SOL    HW234125   3.668   3.257   2.257  1.5876 -1.3964 -0.8836
 7498SOL     OW34126   3.724   4.145  13.466  0.4529  0.2800  0.2173
 7498SOL    HW134127   3.711   4.142  13.560  0.1603  0.2491  0.1758
 7498SOL    HW234128   3.804   4.197  13.470  1.7472 -1.6241 -1.0140
 7499SOL     OW34129   1.951   2.593   4.045  0.2208 -0.1108  0.1018
 7499SOL    HW134130   2.007   2.555   3.977  1.1928  1.1119  0.2019
 7499SOL    HW234131   1.874   2.537   4.038  0.6941 -0.7200 -0.2763
 7500SOL     OW34132   0.493   2.712   6.558  0.3110  0.2360  0.3249
 7500SOL    HW134133   0.456   2.627   6.534 -0.9253  0.6869  0.6047
 7500SOL    HW234134   0.573   2.714   6.505  0.4828  1.0413  0.6223
 7501SOL     OW34135   2.324   3.022   3.544  0.5496 -0.1209  0.2061
 7501SOL    HW134136   2.298   3.080   3.616  1.3427 -0.3857  0.7040
 7501SOL    HW234137   2.313   2.941   3.594  1.3076 -0.2111  0.2177
 7502SOL     OW34138   0.100   1.044   3.941 -0.1531  0.2267  0.4030
 7502SOL    HW134139   0.008   1.059   3.920 -0.1256  1.7262  1.3845
 7502SOL    HW234140   0.145   1.061   3.859 -0.0128  3.1710  1.0921
 7503SOL     OW34141   2.909   4.327   8.438 -0.1592  0.5215  0.3314
 7503SOL    HW134142   2.912   4.419   8.413 -1.6866  0.1772 -1.0875
 7503SOL    HW234143   2.873   4.333   8.526 -1.2677 -1.2968 -0.0018
 7504SOL     OW34144   0.852   0.206   4.242 -0.1131 -0.0550 -0.2839
 7504SOL    HW134145   0.828   0.158   4.322  0.3430 -1.7896 -1.1938
 7504SOL    HW234146   0.936   0.159   4.233  0.9722  1.8254  0.0545
 7505SOL     OW34147   0.694   4.054   4.676  0.1136 -0.1261 -0.1064
 7505SOL    HW134148   0.709   4.019   4.764 -1.0039  0.4286  0.3035
 7505SOL    HW234149   0.607   4.014   4.671  0.8857 -1.7263 -0.9197
 7506SOL     OW34150   1.039   4.391   1.831  0.0779 -0.3061 -0.4258
 7506SOL    HW134151   0.971   4.422   1.890  0.7656  0.6223 -0.1172
 7506SOL    HW234152   0.997   4.311   1.799  1.3596 -2.3833  3.1581
 7507SOL     OW34153   2.610   0.900   4.257 -0.4190 -0.1398  0.8102
 7507SOL    HW134154   2.654   0.895   4.342  1.2043  1.4084  0.0640
 7507SOL    HW234155   2.525   0.856   4.262  0.9057 -2.6471  1.4619
 7508SOL     OW34156   4.030   3.828  13.415 -0.5176  0.1365 -0.0456
 7508SOL    HW134157   4.061   3.776  13.340 -0.6216  0.3859 -0.2620
 7508SOL    HW234158   3.939   3.816  13.390 -0.5085  1.7027 -0.8064
 7509SOL     OW34159   0.548   0.924   2.103 -0.1405 -1.2276  0.6999
 7509SOL    HW134160   0.528   0.966   2.019  0.4549 -1.1560  0.5953
 7509SOL    HW234161   0.600   0.852   2.067 -0.1692 -0.8959 -0.0140
 7510SOL     OW34162   0.767   0.038   2.343  0.2915  0.2308  0.6575
 7510SOL    HW134163   0.672   0.033   2.357  0.1371  1.7525  0.1437
 7510SOL    HW234164   0.792   0.128   2.363 -0.7514  0.5495  0.5384
 7511SOL     OW34165   2.444   1.387   4.698 -0.5542  0.2068 -0.0184
 7511SOL    HW134166   2.440   1.468   4.648 -0.5593  0.2877  0.1129
 7511SOL    HW234167   2.530   1.352   4.677  0.0089  2.3069 -1.1818
 7512SOL     OW34168   1.263   0.844  12.334  0.0777  0.7483 -0.1587
 7512SOL    HW134169   1.254   0.917  12.272  1.1692 -1.2744 -2.6432
 7512SOL    HW234170   1.353   0.826  12.308 -0.4963 -1.7669 -0.3805
 7513SOL     OW34171   2.017   3.426   3.919 -0.2217  0.2200 -0.0182
 7513SOL    HW134172   2.034   3.501   3.863 -0.4783 -0.5118 -1.0640
 7513SOL    HW234173   2.059   3.451   4.002  2.0686 -1.1060 -0.7764
 7514SOL     OW34174   0.306   3.111   5.517 -0.9744  0.2977  0.1374
 7514SOL    HW134175   0.291   3.152   5.432  3.2529  0.6774 -0.4137
 7514SOL    HW234176   0.253   3.174   5.566  0.0345  1.8894 -0.8004
 7515SOL     OW34177   4.238   0.039  12.181 -0.2782  0.0121  0.5461
 7515SOL    HW134178   4.157   0.044  12.129  2.2181 -0.0797 -3.3030
 7515SOL    HW234179   4.195   4.728  12.253 -1.5524  1.9335  1.0648
 7516SOL     OW34180   0.599   2.170   2.380  0.2486 -0.4640  0.5942
 7516SOL    HW134181   0.600   2.114   2.302 -0.2951  0.2672  0.0658
 7516SOL    HW234182   0.645   2.247   2.345 -0.7831  0.2277  0.7845
 7517SOL     OW34183   2.844   3.394   6.857  0.1268  0.1730  0.6107
 7517SOL    HW134184   2.833   3.480   6.897  0.7486  1.0506 -1.1484
 7517SOL    HW234185   2.816   3.400   6.766  0.3266  1.4318  0.6435
 7518SOL     OW34186   1.552   1.158   9.080  0.2471 -0.8422  0.5265
 7518SOL    HW134187   1.479   1.172   9.140 -1.3902  2.4538 -2.2613
 7518SOL    HW234188   1.624   1.181   9.140  0.3310 -0.5417  0.3095
 7519SOL     OW34189   3.495   4.294   4.923  0.2084 -1.0138 -0.3402
 7519SOL    HW134190   3.419   4.345   4.895  0.4080 -1.0788 -0.9990
 7519SOL    HW234191   3.477   4.211   4.879 -0.6901 -1.1035  0.1900
 7520SOL     OW34192   2.494   1.628   4.882 -0.2506  0.1420  0.7317
 7520SOL    HW134193   2.466   1.710   4.922  0.9353  0.5012  0.8447
 7520SOL    HW234194   2.415   1.576   4.871  1.1609 -2.1407  1.2720
 7521SOL     OW34195   1.479   2.019   8.086  0.0003 -0.2900  0.4609
 7521SOL    HW134196   1.446   1.978   8.006  0.2298  1.0694 -0.3140
 7521SOL    HW234197   1.564   1.980   8.108  0.9780  2.0476  0.7792
 7522SOL     OW34198   0.982   3.337   7.733 -0.1664 -0.3600  0.1985
 7522SOL    HW134199   1.000   3.285   7.811  1.6196  0.9871  0.6764
 7522SOL    HW234200   0.940   3.410   7.779  3.5016  1.6124  0.4048
 7523SOL     OW34201   3.408   0.603   9.398 -0.5236  0.6420 -0.6796
 7523SOL    HW134202   3.414   0.659   9.475  0.5678 -0.2804 -0.1058
 7523SOL    HW234203   3.471   0.538   9.429 -2.0538  0.3408  1.7862
 7524SOL     OW34204   0.823   3.001   4.806  0.1025 -0.6117  0.3104
 7524SOL    HW134205   0.820   2.910   4.775 -1.0677 -0.2636 -0.6115
 7524SOL    HW234206   0.759   2.990   4.876  0.6968  1.2926  1.1452
 7525SOL     OW34207   2.301   2.944  13.728 -0.0770  0.1466  0.0648
 7525SOL    HW134208   2.299   3.012  13.795 -0.7975 -0.1060  0.3040
 7525SOL    HW234209   2.257   2.871  13.772  0.4327 -0.1116  0.1375
 7526SOL     OW34210   2.965   1.197  17.262 -0.6187  0.1321  0.3189
 7526SOL    HW134211   2.980   1.110  17.224 -0.7145  0.2133  0.0954
 7526SOL    HW234212   3.030   1.250  17.216 -0.6947  1.2122  1.4464
 7527SOL     OW34213   0.764   3.839   2.161 -0.5876  0.3492  0.9222
 7527SOL    HW134214   0.714   3.920   2.176 -0.5683  0.4593  0.3928
 7527SOL    HW234215   0.694   3.774   2.161  0.3690 -0.6765  1.6727
 7528SOL     OW34216   2.428   3.211   9.569 -0.0210 -0.3834 -0.8246
 7528SOL    HW134217   2.452   3.190   9.659 -1.7643  4.0430  0.6602
 7528SOL    HW234218   2.461   3.301   9.568  0.8770 -0.6899  0.9520
 7529SOL     OW34219   4.491   0.791   1.934 -0.0798  0.1501 -0.5207
 7529SOL    HW134220   4.499   0.845   1.855  0.7618  2.2645  1.0072
 7529SOL    HW234221   4.571   0.741   1.924  1.7359  2.5849  1.7772
 7530SOL     OW34222   3.924   3.476  13.483 -0.1844  0.1315 -0.0623
 7530SOL    HW134223   3.970   3.502  13.564  0.0204  0.4882 -0.2912
 7530SOL    HW234224   3.834   3.500  13.507 -0.7844  0.1268 -2.3388
 7531SOL     OW34225   1.915   4.429   8.674 -0.5743 -0.0540  0.4110
 7531SOL    HW134226   2.009   4.425   8.690 -0.2427  2.4578 -0.8483
 7531SOL    HW234227   1.876   4.481   8.744 -1.0250  0.3047 -0.1056
 7532SOL     OW34228   1.381   0.032   8.915  0.1511 -0.2051  0.2817
 7532SOL    HW134229   1.391   4.682   8.877  1.8202  0.2155 -0.2411
 7532SOL    HW234230   1.287   0.035   8.902  0.0713  1.4900  1.2347
 7533SOL     OW34231   2.381   1.452  11.906 -0.1323  0.3809 -0.3704
 7533SOL    HW134232   2.470   1.427  11.883 -0.4389 -0.5263 -0.5595
 7533SOL    HW234233   2.385   1.537  11.950  1.1721 -0.9893  2.1221
 7534SOL     OW34234   3.328   0.306   5.562 -0.0389  0.4463  0.0304
 7534SOL    HW134235   3.353   0.374   5.625 -0.9236 -0.1722  1.0390
 7534SOL    HW234236   3.408   0.256   5.548 -0.2369  0.0391  0.3315
 7535SOL     OW34237   0.619   2.402   7.837 -0.1915 -0.5092 -0.3279
 7535SOL    HW134238   0.610   2.476   7.776 -0.4719  0.1265  0.4767
 7535SOL    HW234239   0.620   2.449   7.921  1.5786  1.0432 -1.2313
 7536SOL     OW34240   3.459   0.781   9.641 -0.3046  0.3161 -0.1185
 7536SOL    HW134241   3.379   0.831   9.626 -1.5299 -1.4692  0.4216
 7536SOL    HW234242   3.499   0.844   9.700  1.1003 -0.4013 -0.3147
 7537SOL     OW34243   0.891   0.402   7.379  0.6575  0.0951  0.0444
 7537SOL    HW134244   0.833   0.333   7.345  0.8524  0.2847 -0.6777
 7537SOL    HW234245   0.824   0.470   7.387 -1.8005 -2.0479 -1.9879
 7538SOL     OW34246   4.476   0.313  10.045 -0.6661  0.5963  0.0149
 7538SOL    HW134247   4.441   0.360  10.120  1.1652  1.1707  0.5112
 7538SOL    HW234248   4.557   0.359  10.023  0.1151 -0.5416  0.4934
 7539SOL     OW34249   2.002   1.639   5.784 -0.2691 -0.2601 -0.6853
 7539SOL    HW134250   2.095   1.647   5.766 -0.3232  0.2828 -0.7294
 7539SOL    HW234251   1.967   1.675   5.703  0.6964 -0.6383 -1.2554
 7540SOL     OW34252   1.920   1.086   7.086  0.1882 -0.4394 -0.2561
 7540SOL    HW134253   1.826   1.099   7.076 -0.1513 -1.1034  2.2705
 7540SOL    HW234254   1.942   1.167   7.132  0.8798 -0.3564 -0.7256
 7541SOL     OW34255   3.555   2.060   6.172 -0.0606  0.0693  0.2856
 7541SOL    HW134256   3.587   2.039   6.260  0.9036  2.2387  0.4407
 7541SOL    HW234257   3.508   1.978   6.155 -0.1181 -0.1128  1.3070
 7542SOL     OW34258   0.894   1.159  15.713 -0.2587 -0.3779 -0.4732
 7542SOL    HW134259   0.933   1.227  15.658 -0.5368 -1.0210 -1.4541
 7542SOL    HW234260   0.972   1.150  15.768 -0.8584 -1.8637  0.1238
 7543SOL     OW34261   0.078   4.366  16.661  0.4557  0.5085 -0.0919
 7543SOL    HW134262   0.125   4.357  16.744 -0.1670  0.8972  0.3040
 7543SOL    HW234263   4.722   4.372  16.686  0.3128 -0.9858 -0.2859
 7544SOL     OW34264   0.092   0.488   5.068 -0.0506  0.5657 -0.6086
 7544SOL    HW134265   0.096   0.556   5.002 -0.7766  0.3187 -0.9078
 7544SOL    HW234266   0.019   0.513   5.126 -0.3460  0.8552 -1.1047
 7545SOL     OW34267   0.805   2.205   7.762  0.4586 -0.1196  0.6257
 7545SOL    HW134268   0.823   2.230   7.671 -2.1525 -0.2852  0.0449
 7545SOL    HW234269   0.766   2.289   7.784  0.1599 -0.0197 -0.2703
 7546SOL     OW34270   0.899   2.277   5.030  0.1920 -0.2495 -0.5272
 7546SOL    HW134271   0.945   2.310   5.108 -0.6595 -0.2539 -0.0240
 7546SOL    HW234272   0.811   2.280   5.067  1.4580  0.2108  2.4380
 7547SOL     OW34273   4.412   1.909   3.798 -0.3727 -0.3133 -0.4434
 7547SOL    HW134274   4.427   1.987   3.851 -1.0007 -1.3458  1.2748
 7547SOL    HW234275   4.427   1.945   3.711 -1.1101 -1.0014 -0.8534
 7548SOL     OW34276   2.248   3.014   2.320 -0.6964 -0.0054  0.1612
 7548SOL    HW134277   2.261   3.106   2.344 -0.7516 -0.3120  1.3559
 7548SOL    HW234278   2.340   2.986   2.323 -0.9875 -0.9172  0.6434
 7549SOL     OW34279   3.419   4.042   4.832 -0.3876  0.2331  0.2112
 7549SOL    HW134280   3.461   4.016   4.751  0.9149 -0.1343  1.0065
 7549SOL    HW234281   3.395   3.957   4.868  1.9301 -1.4542 -2.2987
 7550SOL     OW34282   3.372   1.876   6.433  0.7390 -0.0572 -0.1664
 7550SOL    HW134283   3.463   1.869   6.402  0.1218  0.9687 -2.2109
 7550SOL    HW234284   3.372   1.957   6.484  2.2180  0.8607 -1.6066
 7551SOL     OW34285   0.568   2.658   9.012  0.1435  0.1219  0.2625
 7551SOL    HW134286   0.601   2.628   9.097  0.3860 -1.0328 -0.2402
 7551SOL    HW234287   0.548   2.578   8.964 -1.1695 -0.0099  1.0218
 7552SOL     OW34288   1.998   4.030  10.137 -0.0455  0.4880 -0.2603
 7552SOL    HW134289   2.070   3.970  10.158 -1.2097 -0.1880  1.8711
 7552SOL    HW234290   1.963   4.050  10.224  2.6818 -1.2583  1.2410
 7553SOL     OW34291   2.749   2.963   2.606 -0.1690 -0.7048 -0.2991
 7553SOL    HW134292   2.765   3.045   2.653  1.7659 -0.2528 -1.7822
 7553SOL    HW234293   2.659   2.978   2.577  0.1465  1.1815 -0.2867
 7554SOL     OW34294   4.203   3.992   3.984 -0.0277 -0.6070  0.8540
 7554SOL    HW134295   4.141   3.954   3.922 -2.0880  1.3149  1.7144
 7554SOL    HW234296   4.214   4.075   3.937 -0.5672 -1.1092 -0.1483
 7555SOL     OW34297   0.565   2.108  16.846 -0.5550  0.0463 -0.7647
 7555SOL    HW134298   0.520   2.102  16.762 -0.4266  2.0183 -0.9601
 7555SOL    HW234299   0.625   2.033  16.844 -1.2251 -0.4988 -0.5238
 7556SOL     OW34300   0.744   0.509  15.987  0.2541 -0.4335 -0.5747
 7556SOL    HW134301   0.825   0.514  15.936  0.5211 -1.8494 -0.2995
 7556SOL    HW234302   0.740   0.418  16.017 -0.7461  0.1038  0.9401
 7557SOL     OW34303   3.142   0.402   6.323 -0.4145  0.3330 -0.4211
 7557SOL    HW134304   3.102   0.330   6.274 -1.0137 -0.2428  0.9114
 7557SOL    HW234305   3.236   0.390   6.307 -0.2970  0.3384  0.2595
 7558SOL     OW34306   3.419   0.582   4.064  0.2407 -0.1330  0.1506
 7558SOL    HW134307   3.352   0.535   4.115 -0.1634 -2.3381 -2.4264
 7558SOL    HW234308   3.482   0.570   4.135  1.3797 -1.0938 -1.0123
 7559SOL     OW34309   2.195   0.501   7.114 -0.6618 -0.1067  0.4787
 7559SOL    HW134310   2.203   0.406   7.106 -0.7368 -0.2800  2.3479
 7559SOL    HW234311   2.149   0.502   7.199  2.1984 -1.5388  2.0356
 7560SOL     OW34312   1.902   2.919  16.021  0.3548  0.2595 -0.0721
 7560SOL    HW134313   1.923   2.998  16.071  1.2213  0.0113 -0.0475
 7560SOL    HW234314   1.929   2.844  16.074  2.6947  1.3770  0.3362
 7561SOL     OW34315   0.321   1.075  17.743 -0.1443 -0.2106 -0.0552
 7561SOL    HW134316   0.375   1.010   0.042 -0.0424  0.5137  0.8874
 7561SOL    HW234317   0.306   1.039  17.656  1.1993 -2.6023  0.6964
 7562SOL     OW34318   3.927   2.738   3.646  0.7107 -0.6958  0.1317
 7562SOL    HW134319   3.845   2.690   3.659  0.4610 -0.5857 -1.0396
 7562SOL    HW234320   3.929   2.807   3.712  2.1932  0.1289 -0.7563
 7563SOL     OW34321   1.448   2.561   9.201  0.1916 -0.1925 -0.2446
 7563SOL    HW134322   1.424   2.599   9.285 -0.0943 -0.9529  0.0223
 7563SOL    HW234323   1.540   2.536   9.202  0.9376  2.6867  2.3909
 7564SOL     OW34324   1.324   4.507   7.293  0.7554 -0.5714 -0.3770
 7564SOL    HW134325   1.240   4.532   7.332  1.0840  0.1888 -0.1568
 7564SOL    HW234326   1.326   4.417   7.326 -0.8341 -1.0864 -1.7038
 7565SOL     OW34327   3.869   2.877  13.475  0.0714  0.0085 -0.1867
 7565SOL    HW134328   3.872   2.945  13.542  1.2625 -0.9364  0.7338
 7565SOL    HW234329   3.806   2.913  13.413 -0.0701 -2.6046 -1.5758
 7566SOL     OW34330   1.313   0.648   2.410 -0.0938  0.1626 -0.2608
 7566SOL    HW134331   1.254   0.631   2.483 -2.0969 -1.1741 -2.1841
 7566SOL    HW234332   1.380   0.582   2.429 -2.2992 -2.0176  0.0231
 7567SOL     OW34333   4.368   3.012   7.753  0.1526 -0.6327 -0.6161
 7567SOL    HW134334   4.340   3.058   7.833 -1.6029  0.8313 -2.0701
 7567SOL    HW234335   4.297   3.036   7.694 -1.1118 -2.0926  0.3229
 7568SOL     OW34336   3.882   3.124   1.233 -0.5023 -0.4093  0.6165
 7568SOL    HW134337   3.956   3.081   1.192  0.9996  1.9279  0.8957
 7568SOL    HW234338   3.857   3.060   1.300  1.1876  0.9298  2.5453
 7569SOL     OW34339   2.362   0.805   7.703  0.5578 -0.0896 -0.4247
 7569SOL    HW134340   2.427   0.779   7.768 -0.2931 -1.0368  0.0367
 7569SOL    HW234341   2.403   0.878   7.656  0.0180  1.4196  1.4468
 7570SOL     OW34342   3.472   1.365   0.878  0.0834  0.0631 -0.0654
 7570SOL    HW134343   3.535   1.336   0.944  1.0056 -0.5736 -1.2347
 7570SOL    HW234344   3.401   1.301   0.890  0.3942 -0.4637 -1.0668
 7571SOL     OW34345   0.257   1.043   8.685  0.0423  0.3681  0.1439
 7571SOL    HW134346   0.266   1.052   8.590 -2.3919 -0.5191 -0.1783
 7571SOL    HW234347   0.178   1.095   8.697  1.3492  2.2478  0.6243
 7572SOL     OW34348   4.217   4.514   7.555 -0.0328  0.2477  0.0153
 7572SOL    HW134349   4.179   4.504   7.643 -2.0758 -0.1923 -0.9313
 7572SOL    HW234350   4.307   4.493   7.581 -0.5224  0.7426  2.1806
 7573SOL     OW34351   2.226   2.218   9.353  0.3059 -0.2815 -0.4153
 7573SOL    HW134352   2.261   2.291   9.405 -1.0203 -0.2734  0.4711
 7573SOL    HW234353   2.146   2.197   9.400 -0.1117  0.3313 -0.8517
 7574SOL     OW34354   2.510   2.534   4.007  0.5061  0.0660 -0.5522
 7574SOL    HW134355   2.514   2.617   3.958 -0.5159  0.0714 -0.6439
 7574SOL    HW234356   2.602   2.509   4.002 -0.0360 -1.7522 -1.1802
 7575SOL     OW34357   0.485   1.748  14.110  0.1202  0.3290 -0.0215
 7575SOL    HW134358   0.566   1.797  14.095  0.4561  0.3075  1.7154
 7575SOL    HW234359   0.438   1.767  14.029 -0.3991  0.7916  0.3898
 7576SOL     OW34360   3.754   1.710   6.061 -0.0318 -0.1520 -0.6701
 7576SOL    HW134361   3.783   1.790   6.017 -0.6642  0.0965 -0.6299
 7576SOL    HW234362   3.667   1.743   6.082  0.5544  0.2931  1.1292
 7577SOL     OW34363   1.523   3.943   1.919 -0.0937  0.0720 -0.3375
 7577SOL    HW134364   1.591   3.978   1.977 -1.0063 -1.6895  1.7829
 7577SOL    HW234365   1.460   4.015   1.920  0.8454  0.8545  1.6050
 7578SOL     OW34366   0.458   2.961   2.457 -0.2300  0.4124 -0.0514
 7578SOL    HW134367   0.413   2.971   2.373 -0.9539  0.4328  0.3427
 7578SOL    HW234368   0.465   2.866   2.469 -1.1504  0.3140 -0.3013
 7579SOL     OW34369   1.545   0.937   3.808 -0.1650 -0.0824 -0.3904
 7579SOL    HW134370   1.632   0.975   3.820 -0.1589 -0.2177 -0.0121
 7579SOL    HW234371   1.494   1.004   3.763 -0.6209 -0.0592  0.1737
 7580SOL     OW34372   4.053   4.226  16.775  0.3905 -0.5189  0.6368
 7580SOL    HW134373   3.990   4.242  16.705 -0.3352  0.9358  1.6229
 7580SOL    HW234374   4.017   4.275  16.849  1.7340 -0.3793  1.2067
 7581SOL     OW34375   4.080   1.240   4.642 -0.1380  0.8050 -0.0971
 7581SOL    HW134376   4.107   1.150   4.660  1.4878  1.5155  0.9500
 7581SOL    HW234377   4.158   1.274   4.599  0.8767  1.2806  2.1453
 7582SOL     OW34378   3.253   1.060   2.653  0.5589  0.4835 -0.2196
 7582SOL    HW134379   3.262   1.100   2.567  1.4868  3.1017  1.1192
 7582SOL    HW234380   3.183   1.115   2.689  0.9785  1.0770 -0.3261
 7583SOL     OW34381   0.506   0.966   3.313  0.6526 -0.3171 -0.3062
 7583SOL    HW134382   0.543   0.891   3.359  3.4716  0.3475 -1.5180
 7583SOL    HW234383   0.464   0.916   3.243 -0.4563 -0.5081  0.4928
 7584SOL     OW34384   4.197   3.344   8.895 -0.4153  0.1246 -0.2675
 7584SOL    HW134385   4.197   3.436   8.920 -1.8566 -0.0034  0.2404
 7584SOL    HW234386   4.106   3.316   8.904 -0.8681  1.8253  0.4764
 7585SOL     OW34387   0.104   1.982   9.609 -0.0054 -0.0391 -0.7952
 7585SOL    HW134388   0.024   2.032   9.624 -0.1590  0.1393 -2.2133
 7585SOL    HW234389   0.170   2.041   9.646 -1.8524  0.2492  2.0635
 7586SOL     OW34390   2.185   1.889   4.847 -0.6522 -0.4287 -0.5122
 7586SOL    HW134391   2.170   1.795   4.840 -0.5279 -0.3229 -2.1257
 7586SOL    HW234392   2.092   1.911   4.855  0.2917  2.4684  2.6991
 7587SOL     OW34393   3.267   4.482   0.703 -0.1699 -0.7120 -0.8757
 7587SOL    HW134394   3.211   4.552   0.669 -1.6828 -1.8299 -0.7007
 7587SOL    HW234395   3.234   4.408   0.651 -2.3245  0.3692 -1.0666
 7588SOL     OW34396   2.617   3.915   2.457  0.1139 -0.4037 -0.0456
 7588SOL    HW134397   2.673   3.951   2.525 -0.9480  0.3704  0.4285
 7588SOL    HW234398   2.638   3.969   2.380  1.4803 -0.1514  0.5064
 7589SOL     OW34399   3.770   1.161   6.492 -0.2560 -0.4614 -0.4971
 7589SOL    HW134400   3.862   1.166   6.465  0.2118  0.5523  1.3195
 7589SOL    HW234401   3.733   1.123   6.412  0.5023  2.5561 -2.3114
 7590SOL     OW34402   2.435   1.061  10.976  0.4214 -0.0574 -1.0412
 7590SOL    HW134403   2.523   1.039  11.005 -0.1892 -2.5185 -1.0120
 7590SOL    HW234404   2.449   1.083  10.884  0.7158  1.9776 -0.5090
 7591SOL     OW34405   3.141   1.490  16.510  0.1469 -0.2241  0.4781
 7591SOL    HW134406   3.201   1.416  16.507  0.1490 -0.1763 -1.1716
 7591SOL    HW234407   3.180   1.560  16.563  0.4171  0.0033 -0.0170
 7592SOL     OW34408   4.643   1.808  11.709 -0.0470  0.3264  0.0915
 7592SOL    HW134409   4.677   1.840  11.626 -1.3377 -0.2869 -0.6667
 7592SOL    HW234410   4.664   1.887  11.759 -0.3407 -0.8029  2.0001
 7593SOL     OW34411   0.949   0.891   8.884  0.4717 -0.0763  0.1870
 7593SOL    HW134412   0.957   0.862   8.974  0.1849  0.5199  0.4049
 7593SOL    HW234413   0.855   0.877   8.870  0.8394 -0.5875 -1.8124
 7594SOL     OW34414   4.566   0.199   9.399  0.0063 -0.0417 -0.1896
 7594SOL    HW134415   4.475   0.223   9.415 -0.0959 -0.3273 -0.3498
 7594SOL    HW234416   4.569   0.104   9.395  0.0037 -0.1193  1.4675
 7595SOL     OW34417   1.406   2.667   6.194  0.1683  0.1472  0.3785
 7595SOL    HW134418   1.384   2.602   6.260 -0.4277 -1.8337 -1.7895
 7595SOL    HW234419   1.426   2.743   6.249  1.2089  0.6040 -0.6329
 7596SOL     OW34420   0.585   1.781   7.375  0.2571 -0.1809 -0.3752
 7596SOL    HW134421   0.557   1.809   7.288  0.1144 -2.8286 -1.1556
 7596SOL    HW234422   0.677   1.806   7.367 -0.7410  2.8472 -2.7049
 7597SOL     OW34423   3.784   2.909  10.422  0.3743 -0.3444  0.3945
 7597SOL    HW134424   3.824   2.849  10.358 -3.4464 -1.7405 -0.6627
 7597SOL    HW234425   3.861   2.933  10.474  1.9832 -4.4005 -0.1343
 7598SOL     OW34426   4.430   2.701   4.328 -0.0858 -0.0248  1.0331
 7598SOL    HW134427   4.444   2.747   4.411 -1.1155 -0.1147  1.2522
 7598SOL    HW234428   4.443   2.779   4.273 -0.3559 -0.9592 -0.3656
 7599SOL     OW34429   2.235   1.637  14.722  0.1337 -0.2820 -0.2163
 7599SOL    HW134430   2.199   1.634  14.810 -0.5853  1.0185 -0.4635
 7599SOL    HW234431   2.205   1.551  14.692  1.1707 -0.1531 -1.6126
 7600SOL     OW34432   1.785   0.460  13.396 -0.2669 -0.4629 -0.2892
 7600SOL    HW134433   1.724   0.473  13.323  0.7308  0.5935 -0.9307
 7600SOL    HW234434   1.872   0.473  13.358  0.5462  0.0682  1.7374
 7601SOL     OW34435   4.088   1.555   8.765  0.1654 -0.0206  0.2661
 7601SOL    HW134436   4.160   1.616   8.749  1.6734 -1.6319  0.9050
 7601SOL    HW234437   4.148   1.483   8.787 -0.6121 -0.5387  0.6972
 7602SOL     OW34438   1.305   1.813   9.296 -0.0604  0.1794 -0.4973
 7602SOL    HW134439   1.312   1.843   9.205  1.0763 -1.9694 -1.0904
 7602SOL    HW234440   1.232   1.751   9.300  1.8467 -1.9128  1.3525
 7603SOL     OW34441   4.681   2.353   7.092  0.1852 -0.2949  0.1886
 7603SOL    HW134442   4.669   2.266   7.054  1.7425  0.2119 -1.4702
 7603SOL    HW234443   0.032   2.339   7.128  0.4728  1.0420 -0.0169
 7604SOL     OW34444   0.523   0.049   0.226 -0.2175  0.0579 -0.6129
 7604SOL    HW134445   0.500   0.126   0.279 -0.8945 -0.7614  0.2794
 7604SOL    HW234446   0.616   0.052   0.202 -0.8118  0.3455 -2.9171
 7605SOL     OW34447   0.248   0.219  13.383 -0.7353  0.4153  0.3825
 7605SOL    HW134448   0.241   0.308  13.348 -1.5170  0.8062  1.5313
 7605SOL    HW234449   0.330   0.234  13.429  0.4522 -1.3517 -1.1939
 7606SOL     OW34450   2.064   3.756   5.612  0.4428 -0.3741  0.1006
 7606SOL    HW134451   2.005   3.696   5.567  0.4329 -0.9744  0.9122
 7606SOL    HW234452   2.012   3.836   5.617  0.4850 -0.3392 -0.0234
 7607SOL     OW34453   1.592   1.000   5.920  0.2074 -0.3035  0.2789
 7607SOL    HW134454   1.534   1.074   5.935  0.1114 -0.4760  0.7615
 7607SOL    HW234455   1.556   0.967   5.837 -0.3910  1.6475 -0.2209
 7608SOL     OW34456   3.268   3.843   2.808  0.3841  0.0196 -0.0585
 7608SOL    HW134457   3.193   3.876   2.856  0.3244 -0.5762  0.2526
 7608SOL    HW234458   3.240   3.752   2.803 -0.8619  0.4585 -1.1131
 7609SOL     OW34459   4.088   4.335  10.851  0.0043  0.5965  0.0779
 7609SOL    HW134460   4.014   4.291  10.809  1.0547  0.8016 -1.9912
 7609SOL    HW234461   4.138   4.363  10.774 -0.1075  2.8182  0.8148
 7610SOL     OW34462   0.466   2.849   8.374  0.1718  0.5509 -0.6716
 7610SOL    HW134463   0.544   2.899   8.396 -0.5437  1.3850 -0.0084
 7610SOL    HW234464   0.402   2.920   8.379 -0.2735  0.0980  0.1694
 7611SOL     OW34465   0.778   1.785   6.635  0.3515 -0.4682  0.7399
 7611SOL    HW134466   0.830   1.785   6.555  0.7592 -0.9220  1.0049
 7611SOL    HW234467   0.748   1.696   6.619  2.6213 -0.6681 -2.4769
 7612SOL     OW34468   3.544   1.071  17.649 -0.5112 -0.0832  0.2494
 7612SOL    HW134469   3.503   1.119  17.721  2.5047 -0.4582  2.2176
 7612SOL    HW234470   3.584   0.994  17.689  0.0782 -0.6986 -1.5462
 7613SOL     OW34471   1.764   2.086   2.658  0.3254 -0.5653  0.4200
 7613SOL    HW134472   1.680   2.124   2.685  0.2739 -0.1186 -0.3599
 7613SOL    HW234473   1.817   2.084   2.738 -0.7630  0.5868  1.1590
 7614SOL     OW34474   3.631   2.688   4.933 -0.6768  0.5541 -0.3711
 7614SOL    HW134475   3.683   2.746   4.877  1.5138 -2.2434 -1.2358
 7614SOL    HW234476   3.627   2.742   5.012  1.0786  0.8389 -0.4808
 7615SOL     OW34477   1.941   2.412  11.368  0.3484  0.3859 -0.2936
 7615SOL    HW134478   1.991   2.368  11.437  0.2424  1.4983  0.4938
 7615SOL    HW234479   1.871   2.348  11.350 -1.0885  1.3043  1.9836
 7616SOL     OW34480   3.552   2.285   4.235 -0.1418 -0.1108  0.2210
 7616SOL    HW134481   3.471   2.237   4.220 -0.4071 -0.0882  1.5281
 7616SOL    HW234482   3.553   2.304   4.329 -1.4061  0.5541  0.1058
 7617SOL     OW34483   0.553   0.344  13.367 -0.0842  0.2253  0.5325
 7617SOL    HW134484   0.644   0.349  13.398 -0.2982  1.0890  1.0355
 7617SOL    HW234485   0.534   0.273  13.427  0.8766  0.5202  1.1950
 7618SOL     OW34486   4.110   0.866  12.628 -0.2124 -0.4970  0.3538
 7618SOL    HW134487   4.176   0.912  12.575 -1.6192  1.6564  0.4362
 7618SOL    HW234488   4.058   0.942  12.653 -1.1776 -0.9651 -0.2232
 7619SOL     OW34489   0.970   0.862   6.708  0.2075 -0.1790  0.5162
 7619SOL    HW134490   0.888   0.820   6.680 -0.3433  0.8731  0.5726
 7619SOL    HW234491   0.993   0.921   6.636 -0.4693  0.1827  0.5953
 7620SOL     OW34492   4.408   2.562   6.606  0.1023 -0.0934  0.1167
 7620SOL    HW134493   4.438   2.486   6.656 -2.9136 -1.2099  0.2479
 7620SOL    HW234494   4.331   2.535   6.555 -0.4640  0.1516  0.8373
 7621SOL     OW34495   3.522   3.925   2.839 -0.3305 -0.5342 -0.7710
 7621SOL    HW134496   3.430   3.897   2.838  0.1301 -2.0390  0.8572
 7621SOL    HW234497   3.561   3.847   2.878  0.3250 -0.3106 -0.9937
 7622SOL     OW34498   2.721   1.767   4.781  0.2238 -0.3442  0.1927
 7622SOL    HW134499   2.676   1.683   4.788 -0.2718 -0.2280 -1.5320
 7622SOL    HW234500   2.660   1.821   4.831 -1.9266 -1.7276 -0.9549
 7623SOL     OW34501   3.549   0.322   4.768 -0.6892  0.0568  0.7361
 7623SOL    HW134502   3.593   0.299   4.850  0.8714 -1.3522 -0.4865
 7623SOL    HW234503   3.568   0.415   4.776  0.6851 -0.2922  1.5810
 7624SOL     OW34504   1.508   0.337   7.703 -0.0031 -0.3385  0.0787
 7624SOL    HW134505   1.592   0.347   7.658  0.0171  1.2900  0.4965
 7624SOL    HW234506   1.529   0.271   7.770 -0.0182 -0.1100  0.3054
 7625SOL     OW34507   1.081   1.197  14.478 -0.2137 -0.1071 -0.2420
 7625SOL    HW134508   0.993   1.181  14.445 -0.1269  0.4903 -0.7686
 7625SOL    HW234509   1.067   1.187  14.572  3.1303  1.1593  0.3890
 7626SOL     OW34510   4.639   4.570   0.415  0.2873 -0.4018 -0.1092
 7626SOL    HW134511   4.661   4.502   0.351 -0.2788 -0.7006  0.0194
 7626SOL    HW234512   4.722   4.597   0.455 -0.8561  3.2701 -0.1824
 7627SOL     OW34513   3.994   0.208  12.349 -0.0094  0.9864  0.1938
 7627SOL    HW134514   4.046   0.135  12.314 -1.3016  0.6072 -0.9521
 7627SOL    HW234515   3.994   0.178  12.440 -0.6564 -0.3777 -0.2434
 7628SOL     OW34516   0.655   2.314   5.118  0.1489 -0.0432  0.2094
 7628SOL    HW134517   0.631   2.312   5.211  0.7574 -0.4571  0.3588
 7628SOL    HW234518   0.576   2.361   5.089  1.0103 -0.0572 -2.1607
 7629SOL     OW34519   0.542   3.144   8.513 -0.0682  0.6336  0.2078
 7629SOL    HW134520   0.457   3.183   8.536 -0.9962  0.0614 -2.2901
 7629SOL    HW234521   0.575   3.113   8.597 -0.7558  0.6568  0.4903
 7630SOL     OW34522   1.890   4.307  10.676 -1.2955 -0.2076 -0.0816
 7630SOL    HW134523   1.799   4.294  10.703 -1.3625 -0.5330 -0.4609
 7630SOL    HW234524   1.905   4.378  10.738  0.3657 -0.1664 -0.5330
 7631SOL     OW34525   0.982   3.773   8.252 -0.0920 -0.1003 -0.0803
 7631SOL    HW134526   1.020   3.716   8.185 -0.2282  0.9560 -1.0719
 7631SOL    HW234527   0.985   3.734   8.339 -0.6978 -2.3448 -1.0715
 7632SOL     OW34528   2.873   0.770   8.278  0.4962  0.4513 -0.2491
 7632SOL    HW134529   2.905   0.727   8.357 -2.4396  0.9964  1.2451
 7632SOL    HW234530   2.948   0.827   8.261  0.8657 -0.1033 -0.4657
 7633SOL     OW34531   2.021   4.668   6.609 -0.7238 -0.0255  0.5699
 7633SOL    HW134532   1.951   4.692   6.548  0.3806  0.2517 -0.6059
 7633SOL    HW234533   1.991   4.578   6.620  1.0907 -0.5137  1.4938
 7634SOL     OW34534   1.379   0.049   3.816 -0.0582 -0.3240 -0.1135
 7634SOL    HW134535   1.453   0.105   3.836  0.5315 -1.5550  1.1561
 7634SOL    HW234536   1.311   0.115   3.802 -1.4312 -1.5044  0.9487
 7635SOL     OW34537   2.665   4.275  15.899 -0.1203  0.2781 -0.1836
 7635SOL    HW134538   2.629   4.319  15.822 -1.5002 -0.9612 -0.2250
 7635SOL    HW234539   2.663   4.346  15.963 -0.4399 -0.7453  0.9412
 7636SOL     OW34540   0.898   3.097  17.531 -0.1537  0.1456 -1.0031
 7636SOL    HW134541   0.804   3.095  17.515 -0.3038 -1.2086  0.0864
 7636SOL    HW234542   0.908   3.112  17.625  4.1702  0.2960 -1.4718
 7637SOL     OW34543   4.347   0.881  15.141 -0.5621  0.8326  0.7149
 7637SOL    HW134544   4.280   0.821  15.173 -0.4527 -0.1218 -0.8846
 7637SOL    HW234545   4.401   0.873  15.220  1.9754  0.4400 -1.0785
 7638SOL     OW34546   4.360   3.659   0.600  0.4099 -0.5583 -0.0474
 7638SOL    HW134547   4.425   3.602   0.641  1.5988  0.8820  0.0772
 7638SOL    HW234548   4.327   3.609   0.525  3.7832  0.4225 -2.1588
 7639SOL     OW34549   3.243   4.314   8.354 -0.0302 -0.2612 -0.2527
 7639SOL    HW134550   3.181   4.262   8.406 -0.0518 -0.6969 -0.7227
 7639SOL    HW234551   3.207   4.400   8.379 -2.5473 -1.3250 -0.1655
 7640SOL     OW34552   0.110   4.524   6.540 -0.4217 -0.6402 -0.2694
 7640SOL    HW134553   0.048   4.567   6.598  0.3022 -0.0022  0.0438
 7640SOL    HW234554   0.060   4.528   6.458  0.0253  1.2816 -0.4668
 7641SOL     OW34555   1.635   1.358   7.873 -0.0643  0.2805 -0.3228
 7641SOL    HW134556   1.705   1.424   7.880  0.5470 -0.1507 -2.3234
 7641SOL    HW234557   1.691   1.285   7.847 -0.5154  0.2813 -1.3108
 7642SOL     OW34558   4.172   1.901   9.605  0.4250 -0.4169 -0.0265
 7642SOL    HW134559   4.199   1.846   9.679 -0.0356 -0.3107  0.2223
 7642SOL    HW234560   4.096   1.940   9.649  0.9003  0.1886  0.2670
 7643SOL     OW34561   4.083   3.750   1.835  0.2948 -0.4649 -0.2552
 7643SOL    HW134562   4.137   3.713   1.765  0.7539 -0.6827  0.2123
 7643SOL    HW234563   4.090   3.841   1.808 -0.2817 -0.3120  0.0980
 7644SOL     OW34564   0.527   2.530   9.769 -0.2773 -0.2911  0.3775
 7644SOL    HW134565   0.435   2.521   9.746 -0.5147 -0.0503  1.2388
 7644SOL    HW234566   0.518   2.545   9.863  1.9507 -0.3918  0.6066
 7645SOL     OW34567   1.988   1.861   0.631 -0.4296  0.1512 -0.5997
 7645SOL    HW134568   1.929   1.935   0.617  1.5985  2.3312  2.2223
 7645SOL    HW234569   1.952   1.825   0.712  2.0428  0.5618  0.7089
 7646SOL     OW34570   2.090   1.447  15.222  0.1746  0.3663 -0.0417
 7646SOL    HW134571   2.123   1.447  15.312  0.7012 -3.2897 -0.2368
 7646SOL    HW234572   2.116   1.357  15.200  2.5369  0.9094  0.5217
 7647SOL     OW34573   3.684   3.690   7.521 -0.1475 -0.1806 -0.7760
 7647SOL    HW134574   3.656   3.779   7.540 -0.5276 -0.1789 -1.3357
 7647SOL    HW234575   3.636   3.641   7.587  1.7515 -2.5195 -1.1406
 7648SOL     OW34576   3.998   1.134   2.251 -0.6514 -0.4454 -0.0889
 7648SOL    HW134577   4.036   1.064   2.199 -1.3116 -1.8239  1.2844
 7648SOL    HW234578   3.941   1.171   2.183  1.8206  0.5699 -1.6159
 7649SOL     OW34579   1.291   0.108   3.195 -0.0983 -0.0381 -0.6442
 7649SOL    HW134580   1.256   0.022   3.174  0.5647 -1.0954  2.5321
 7649SOL    HW234581   1.289   0.101   3.291  0.5408  0.1953 -0.6117
 7650SOL     OW34582   4.522   3.032  11.686  0.1292  0.3260  0.7369
 7650SOL    HW134583   4.469   3.108  11.660 -1.4488 -1.1637 -0.4131
 7650SOL    HW234584   4.558   3.007  11.600 -1.9419 -5.1925  1.4865
 7651SOL     OW34585   2.959   0.839   4.984 -0.6040  0.0402  0.2310
 7651SOL    HW134586   2.965   0.930   5.011  0.9869  0.4238 -1.4070
 7651SOL    HW234587   3.034   0.816   4.929  0.8021  1.3246  1.6270
 7652SOL     OW34588   4.450   2.331   3.724  0.0616  0.5301  0.4937
 7652SOL    HW134589   4.535   2.289   3.738  1.3346  1.7308 -3.5410
 7652SOL    HW234590   4.478   2.421   3.737  0.4845  0.5658 -0.6933
 7653SOL     OW34591   0.858   0.605   8.036  0.0750  0.3388 -0.3031
 7653SOL    HW134592   0.809   0.590   7.956 -1.2391 -0.2497  0.6179
 7653SOL    HW234593   0.899   0.518   8.040 -2.1416 -0.6461  1.1685
 7654SOL     OW34594   1.478   4.705   6.372 -0.0974 -0.0939  0.1954
 7654SOL    HW134595   1.398   0.016   6.347  0.3583  0.5889  0.0312
 7654SOL    HW234596   1.463   4.621   6.329  2.2320 -0.3872 -0.0378
 7655SOL     OW34597   3.195   2.225   8.869 -0.1618  0.2530 -0.3318
 7655SOL    HW134598   3.200   2.317   8.843 -0.7079  0.4122  0.1201
 7655SOL    HW234599   3.234   2.182   8.793 -2.7367 -0.7860 -1.0424
 7656SOL     OW34600   1.695   3.575   8.860 -0.3319  0.3002  0.2556
 7656SOL    HW134601   1.711   3.501   8.801 -1.9805 -0.9486  1.3797
 7656SOL    HW234602   1.663   3.532   8.939 -0.8952 -1.5067 -0.9500
 7657SOL     OW34603   0.230   1.212  16.754 -0.3031 -0.1304 -0.3806
 7657SOL    HW134604   0.156   1.172  16.800 -2.4771  4.1200 -0.1813
 7657SOL    HW234605   0.300   1.162  16.797 -0.8174  0.7676  1.4563
 7658SOL     OW34606   3.016   0.393   8.966  0.2298 -0.0066 -0.3458
 7658SOL    HW134607   2.987   0.353   8.884 -1.7330  2.3823 -0.8100
 7658SOL    HW234608   2.961   0.339   9.022 -1.6746  0.6382 -1.6155
 7659SOL     OW34609   1.618   2.971   3.975 -0.1730 -0.0996  0.0991
 7659SOL    HW134610   1.558   3.039   4.004 -0.2199  0.3167 -0.9783
 7659SOL    HW234611   1.627   2.988   3.881  2.4785  1.4241  0.6535
 7660SOL     OW34612   3.529   0.579   9.101  0.2178 -0.5726 -0.0484
 7660SOL    HW134613   3.517   0.654   9.158 -0.0840 -2.4055  2.3255
 7660SOL    HW234614   3.593   0.617   9.041 -0.2431  0.7696  0.3179
 7661SOL     OW34615   1.625   3.829   5.047 -0.6594 -0.6072  0.8267
 7661SOL    HW134616   1.717   3.851   5.058 -0.8768 -0.1736  1.8205
 7661SOL    HW234617   1.586   3.915   5.036 -2.3341 -1.4938 -0.2771
 7662SOL     OW34618   2.811   3.883   4.267  0.3385 -0.1357 -0.5040
 7662SOL    HW134619   2.767   3.803   4.297  0.9033 -0.0315  0.6048
 7662SOL    HW234620   2.735   3.933   4.238 -1.4933 -0.4547  3.6964
 7663SOL     OW34621   4.697   0.914   5.379  0.2933  0.4735  0.2023
 7663SOL    HW134622   4.662   0.956   5.457  0.3742  0.0234  0.4813
 7663SOL    HW234623   0.056   0.921   5.383  0.4042 -1.4211  1.1202
 7664SOL     OW34624   1.742   3.941  14.056  0.4481  0.5529 -0.9015
 7664SOL    HW134625   1.715   3.932  13.964  0.1455  0.1750 -0.7726
 7664SOL    HW234626   1.767   4.033  14.053  0.7704  0.4569 -1.2737
 7665SOL     OW34627   4.363   1.046  17.345  0.0380  0.0770 -0.3342
 7665SOL    HW134628   4.435   1.109  17.351  1.4392 -1.4835 -0.7934
 7665SOL    HW234629   4.375   0.998  17.262 -0.4916  0.0551 -0.3937
 7666SOL     OW34630   0.843   4.031  17.592 -0.4703  0.2600  0.4822
 7666SOL    HW134631   0.790   3.955  17.572  1.7053 -0.3088 -3.0462
 7666SOL    HW234632   0.818   4.035  17.684 -1.1085  0.9389  0.2830
 7667SOL     OW34633   2.331   3.704   4.237  0.3235  0.2975 -0.2220
 7667SOL    HW134634   2.267   3.690   4.306  0.8885  0.4868  0.3430
 7667SOL    HW234635   2.360   3.795   4.249  1.1064 -0.4642  3.7199
 7668SOL     OW34636   3.358   2.572   8.237  0.2177  0.9272 -0.5885
 7668SOL    HW134637   3.388   2.655   8.274 -0.1994  0.8241 -0.0295
 7668SOL    HW234638   3.417   2.558   8.162  1.7544  0.4046  0.7280
 7669SOL     OW34639   3.984   1.258   3.395 -0.5614 -0.2317 -0.0596
 7669SOL    HW134640   3.972   1.349   3.420  0.9560 -0.0200 -0.1146
 7669SOL    HW234641   4.063   1.255   3.341 -0.2092 -0.3596  0.4647
 7670SOL     OW34642   2.204   4.665   3.130 -0.1709  0.1877  0.3381
 7670SOL    HW134643   2.202   4.723   3.205 -0.9319 -1.1376  1.3513
 7670SOL    HW234644   2.199   4.731   3.061  0.4485 -0.3155 -0.1854
 7671SOL     OW34645   4.075   3.707   9.660 -0.5942 -0.3034  0.1277
 7671SOL    HW134646   4.055   3.712   9.753 -2.2893 -0.3885 -0.2271
 7671SOL    HW234647   4.141   3.638   9.669 -0.5936 -0.2595  0.4424
 7672SOL     OW34648   3.298   0.662   0.673 -0.2116 -0.2205 -0.4413
 7672SOL    HW134649   3.263   0.596   0.613 -0.4248  0.6957 -1.3380
 7672SOL    HW234650   3.392   0.647   0.659 -0.2129  0.1520 -0.8534
 7673SOL     OW34651   0.599   3.728   8.990 -0.0874 -0.6195 -0.2793
 7673SOL    HW134652   0.641   3.642   8.978 -1.6873 -1.1989 -1.6622
 7673SOL    HW234653   0.560   3.746   8.905  2.4935 -1.1656 -1.6044
 7674SOL     OW34654   1.764   3.356   2.305 -0.1671  0.4442  0.6485
 7674SOL    HW134655   1.765   3.278   2.250  1.3788  1.3589 -0.6264
 7674SOL    HW234656   1.852   3.358   2.344  1.5966  0.1092 -3.3328
 7675SOL     OW34657   3.415   1.189   8.601 -0.1911  0.1841  0.3009
 7675SOL    HW134658   3.468   1.147   8.534  0.3173  1.9723 -0.3996
 7675SOL    HW234659   3.477   1.240   8.653  1.4655  0.4097 -1.9290
 7676SOL     OW34660   2.209   2.421   8.038 -0.0803 -0.2670 -0.2376
 7676SOL    HW134661   2.127   2.371   8.034 -1.3733  1.7821  0.6558
 7676SOL    HW234662   2.187   2.498   8.089 -0.7489 -0.2693 -0.5248
 7677SOL     OW34663   0.985   1.270   5.093 -0.0218  0.1823  0.1214
 7677SOL    HW134664   0.936   1.332   5.147  3.5540  1.3059  2.0900
 7677SOL    HW234665   0.912   1.219   5.059 -0.4539 -0.9440  2.7210
 7678SOL     OW34666   1.039   1.490   9.067  0.3165 -0.5417 -0.7485
 7678SOL    HW134667   0.955   1.456   9.038 -0.7708  1.8525 -0.4228
 7678SOL    HW234668   1.072   1.514   8.981  3.1664  3.1892  1.3904
 7679SOL     OW34669   2.081   2.026   5.761  0.1836  0.1770 -0.1540
 7679SOL    HW134670   2.046   2.091   5.821  2.0867  2.8270 -1.8961
 7679SOL    HW234671   2.013   2.021   5.694  2.6434  0.8786 -2.7001
 7680SOL     OW34672   3.317   3.162   4.811  0.1148 -0.1890  0.1993
 7680SOL    HW134673   3.329   3.068   4.822 -0.0784 -0.1914  0.3705
 7680SOL    HW234674   3.270   3.168   4.728 -0.1299  1.9650  0.4699
 7681SOL     OW34675   4.577   0.899  16.814  1.2988 -0.3197 -0.1306
 7681SOL    HW134676   4.526   0.848  16.877  0.5131  0.7412  0.1021
 7681SOL    HW234677   4.628   0.827  16.777  0.6654 -1.0785  0.4678
 7682SOL     OW34678   0.020   2.757   6.961  0.4871 -0.1788 -0.3687
 7682SOL    HW134679   4.736   2.670   6.927  1.7006 -0.2435 -0.9420
 7682SOL    HW234680   0.039   2.799   6.877 -0.6960  1.3083  0.1029
 7683SOL     OW34681   2.890   0.272  17.497  0.3409  0.8071 -0.8949
 7683SOL    HW134682   2.872   0.195  17.552 -1.6713  0.4947 -2.0334
 7683SOL    HW234683   2.852   0.342  17.550  0.6174  1.5213 -1.6414
 7684SOL     OW34684   0.791   1.000   7.511  0.2974  0.0291 -0.3742
 7684SOL    HW134685   0.715   1.035   7.464 -0.2683  0.2185  0.6896
 7684SOL    HW234686   0.748   0.943   7.575  3.3439 -0.3721  1.2721
 7685SOL     OW34687   0.206   0.698  11.773 -0.3350 -0.2459 -0.1138
 7685SOL    HW134688   0.140   0.635  11.801 -0.4426  0.4696  1.1914
 7685SOL    HW234689   0.255   0.647  11.707 -2.3540 -2.8522  0.4253
 7686SOL     OW34690   0.646   4.626   5.313  0.1386 -0.4798  0.0787
 7686SOL    HW134691   0.631   4.557   5.378  2.4026  0.0478  1.1809
 7686SOL    HW234692   0.594   4.596   5.239 -0.8369  2.2439 -0.3480
 7687SOL     OW34693   1.452   0.324   3.676 -0.3984  0.0261 -0.3653
 7687SOL    HW134694   1.424   0.381   3.605  0.4415  0.0466 -0.6765
 7687SOL    HW234695   1.517   0.266   3.636 -0.7141  0.2880 -1.2551
 7688SOL     OW34696   1.833   4.562   8.450  0.1637  0.3676  0.1718
 7688SOL    HW134697   1.927   4.579   8.448 -0.1561  2.2607  0.8469
 7688SOL    HW234698   1.841   4.491   8.514 -1.1050  0.6219  0.6214
 7689SOL     OW34699   4.091   1.911   4.773  0.1359 -0.1351  0.5602
 7689SOL    HW134700   4.142   1.915   4.854  3.4798 -0.3544 -1.4918
 7689SOL    HW234701   4.134   1.984   4.726 -0.4444 -1.1177 -1.4994
 7690SOL     OW34702   0.937   2.730   7.413 -0.1735 -0.1262  0.1393
 7690SOL    HW134703   0.925   2.773   7.328 -1.3018 -2.2165 -0.7765
 7690SOL    HW234704   1.025   2.704   7.384 -0.4599 -1.2577  0.2963
 7691SOL     OW34705   3.021   1.731   2.052  0.1589  0.0969  0.0243
 7691SOL    HW134706   3.009   1.824   2.067  1.9240  0.4399 -0.5788
 7691SOL    HW234707   3.096   1.742   1.993  1.4341  1.6007  1.9593
 7692SOL     OW34708   1.304   0.491   1.956  0.3656 -0.4177 -0.1853
 7692SOL    HW134709   1.335   0.434   2.026  0.2131 -0.4576 -0.1499
 7692SOL    HW234710   1.371   0.559   1.945 -1.5424  1.2879 -1.2569
 7693SOL     OW34711   2.895   1.906   3.562 -0.1502 -0.3464  0.5325
 7693SOL    HW134712   2.968   1.950   3.603 -1.3453  0.8454  1.3506
 7693SOL    HW234713   2.945   1.832   3.527 -0.3846 -1.4087  2.4642
 7694SOL     OW34714   3.089   0.571   7.076  0.1643  0.3756 -0.2010
 7694SOL    HW134715   3.043   0.530   7.003 -2.8074  0.4555  1.6239
 7694SOL    HW234716   3.179   0.554   7.048 -0.7411  0.3826 -3.1423
 7695SOL     OW34717   0.834   3.264   1.025  0.0863  0.5928 -0.2291
 7695SOL    HW134718   0.870   3.218   1.101 -0.5905 -2.5196 -1.8080
 7695SOL    HW234719   0.877   3.224   0.949  0.2717  0.3710 -0.0096
 7696SOL     OW34720   3.026   3.703  12.650 -0.1740 -0.8335 -0.7494
 7696SOL    HW134721   3.041   3.717  12.744 -0.2987  2.3154 -1.2041
 7696SOL    HW234722   3.113   3.717  12.613 -0.5074 -1.5663 -1.8066
 7697SOL     OW34723   2.148   3.249   9.660 -0.1351 -0.1887 -0.3104
 7697SOL    HW134724   2.178   3.184   9.724  0.1278  0.2760  0.0485
 7697SOL    HW234725   2.232   3.293   9.643  0.5868 -0.8667  1.5108
 7698SOL     OW34726   0.195   3.230   7.443 -0.3568 -0.1472  0.3336
 7698SOL    HW134727   0.204   3.325   7.446 -1.2250 -0.0646  0.3412
 7698SOL    HW234728   0.285   3.211   7.416  0.3081 -0.6529  2.8968
 7699SOL     OW34729   0.313   0.478   7.163 -0.3806  0.2560 -0.1979
 7699SOL    HW134730   0.317   0.430   7.246  1.1146  0.7609  0.0183
 7699SOL    HW234731   0.398   0.460   7.123  0.0871  0.3470  0.7376
 7700SOL     OW34732   3.827   1.694   8.985 -0.3882 -0.0367  0.1280
 7700SOL    HW134733   3.852   1.606   9.012  1.5215  0.1076 -1.2471
 7700SOL    HW234734   3.897   1.750   9.018 -1.2084  0.6994  0.6220
 7701SOL     OW34735   2.028   1.182   9.436  0.0732  0.1778  0.6934
 7701SOL    HW134736   1.991   1.189   9.348 -1.6169 -1.7658  1.2326
 7701SOL    HW234737   1.963   1.235   9.483  3.5401  1.1701  4.3297
 7702SOL     OW34738   2.257   3.209  12.363  0.4552  0.2870 -0.4497
 7702SOL    HW134739   2.178   3.193  12.414  0.5396 -2.4769 -1.2075
 7702SOL    HW234740   2.271   3.298  12.395  1.8509  0.5752 -1.8373
 7703SOL     OW34741   4.655   1.246   6.807  0.3365 -0.4528  0.3219
 7703SOL    HW134742   4.728   1.199   6.768  0.0842  1.0656 -1.9369
 7703SOL    HW234743   4.582   1.206   6.761 -1.2501  0.9773  1.5729
 7704SOL     OW34744   4.097   2.024   8.324  0.0573 -0.2419 -0.6832
 7704SOL    HW134745   4.193   2.024   8.319 -0.0176  1.9380 -2.1065
 7704SOL    HW234746   4.082   2.000   8.415  2.0122 -0.0827 -0.2987
 7705SOL     OW34747   1.910   2.776   5.177  0.0573  0.4047 -0.6724
 7705SOL    HW134748   1.821   2.785   5.143  0.0319  0.9914 -0.4459
 7705SOL    HW234749   1.919   2.846   5.241  0.4814 -0.5755  0.3505
 7706SOL     OW34750   3.911   2.784   4.299  0.0103 -0.4145 -0.0968
 7706SOL    HW134751   3.863   2.808   4.220  1.9614  0.1781 -1.1187
 7706SOL    HW234752   3.993   2.824   4.271  0.0007  0.3190  0.9096
 7707SOL     OW34753   0.634   0.727   6.063  0.6845 -0.6851  0.3570
 7707SOL    HW134754   0.547   0.732   6.026  1.8417 -1.7844 -2.4634
 7707SOL    HW234755   0.621   0.672   6.141 -2.3234 -0.4248  0.0205
 7708SOL     OW34756   3.510   1.123   5.685  0.4881  0.4180 -0.0133
 7708SOL    HW134757   3.538   1.183   5.616 -1.0353  0.5612 -0.5068
 7708SOL    HW234758   3.597   1.104   5.721  1.0528 -0.1689 -1.6708
 7709SOL     OW34759   1.605   2.874  10.515  0.1779 -0.8231  0.0075
 7709SOL    HW134760   1.688   2.906  10.550  1.5985 -4.8846  0.2810
 7709SOL    HW234761   1.552   2.870  10.595  1.1346  0.7488  0.7327
 7710SOL     OW34762   1.780   3.850  10.623  0.5492  0.2092 -0.4728
 7710SOL    HW134763   1.778   3.875  10.716 -1.3430 -0.6562 -0.2802
 7710SOL    HW234764   1.707   3.789  10.624  1.2852 -0.6697 -1.2490
 7711SOL     OW34765   4.547   3.074   5.460  0.5134  0.1709 -0.4583
 7711SOL    HW134766   4.535   3.158   5.504  0.6338 -1.4297  2.6557
 7711SOL    HW234767   4.463   3.032   5.481  1.3911 -1.3986 -0.1356
 7712SOL     OW34768   2.786   0.755   4.073  0.2617 -0.3466  1.1057
 7712SOL    HW134769   2.823   0.841   4.054 -1.0322 -0.2533 -1.0277
 7712SOL    HW234770   2.735   0.784   4.149 -1.8451 -0.0370 -0.4213
 7713SOL     OW34771   1.403   3.140   4.047 -0.3429 -0.0279  0.5482
 7713SOL    HW134772   1.318   3.099   4.064 -0.1613 -0.4439  0.4406
 7713SOL    HW234773   1.391   3.187   3.965 -2.1170 -1.2507  0.0963
 7714SOL     OW34774   3.876   4.609  17.574  0.2360  0.5506  0.1743
 7714SOL    HW134775   3.803   4.598  17.635  0.2150  1.3359  0.2809
 7714SOL    HW234776   3.828   4.623  17.493  0.3605 -2.3760 -0.4149
 7715SOL     OW34777   1.576   2.998   5.962 -0.3006 -0.1004 -0.6704
 7715SOL    HW134778   1.624   3.020   6.042 -0.8289  0.2979 -0.4617
 7715SOL    HW234779   1.632   2.924   5.938 -0.9996 -0.5664 -0.8711
 7716SOL     OW34780   2.665   2.961   4.580  0.3845 -0.2980  0.0315
 7716SOL    HW134781   2.615   2.979   4.659 -0.1813  1.1141 -0.6563
 7716SOL    HW234782   2.747   2.938   4.624 -1.2247 -0.3382  3.0263
 7717SOL     OW34783   1.858   0.172   4.472 -0.0012  0.7391  0.0730
 7717SOL    HW134784   1.939   0.221   4.458  0.0716  0.6425  0.1604
 7717SOL    HW234785   1.887   0.145   4.559  1.2835 -1.2148 -0.9547
 7718SOL     OW34786   1.016   3.122   0.442  0.1815 -0.6033 -0.4213
 7718SOL    HW134787   1.065   3.193   0.402 -0.9224  1.3853  1.7424
 7718SOL    HW234788   0.935   3.165   0.472  0.9232  0.9101 -0.5988
 7719SOL     OW34789   3.945   0.651  10.095  0.3078 -0.5191  0.2892
 7719SOL    HW134790   3.929   0.603  10.176  2.1613  1.1597  1.6440
 7719SOL    HW234791   3.992   0.725  10.133 -0.1028  0.8716 -1.8900
 7720SOL     OW34792   2.842   1.312   1.573  0.2531  0.1091 -0.1415
 7720SOL    HW134793   2.925   1.312   1.525 -1.1295  2.1852 -2.6100
 7720SOL    HW234794   2.844   1.402   1.605 -1.7620 -0.2177  0.8943
 7721SOL     OW34795   0.739   4.201   8.647 -0.0488 -0.0340 -0.2788
 7721SOL    HW134796   0.706   4.287   8.622  2.3093  0.5378 -1.4073
 7721SOL    HW234797   0.731   4.216   8.741  2.2911  0.6421 -0.2047
 7722SOL     OW34798   2.463   2.478   9.000 -0.2075 -0.6787 -0.0568
 7722SOL    HW134799   2.530   2.466   9.067  1.2883 -4.2327 -2.1693
 7722SOL    HW234800   2.404   2.403   9.009 -0.7901 -0.2239 -0.0617
 7723SOL     OW34801   2.247   1.306   7.813  0.0158  0.0211  0.1175
 7723SOL    HW134802   2.331   1.340   7.846 -0.1506  0.7240 -0.1907
 7723SOL    HW234803   2.221   1.250   7.886  3.0340 -2.0529 -0.3784
 7724SOL     OW34804   3.782   4.025   2.716 -0.0968  0.4018  0.3579
 7724SOL    HW134805   3.817   3.973   2.643 -2.2396 -2.9185  1.7420
 7724SOL    HW234806   3.697   3.987   2.736  0.5855 -1.0085  0.6130
 7725SOL     OW34807   3.913   2.747   1.209  0.3786 -0.4366 -0.4417
 7725SOL    HW134808   3.836   2.700   1.179 -0.1354 -0.1652  0.4823
 7725SOL    HW234809   3.914   2.741   1.304 -0.5813  0.1264 -0.3978
 7726SOL     OW34810   4.113   3.476  11.638  0.5391  0.2139 -0.8967
 7726SOL    HW134811   4.188   3.496  11.581  0.7371 -1.5299 -1.2681
 7726SOL    HW234812   4.163   3.402  11.671 -0.2953 -0.0634 -0.2740
 7727SOL     OW34813   0.369   4.605   6.507  0.4446 -0.2092  0.2439
 7727SOL    HW134814   0.278   4.580   6.518  0.5310  0.4722  2.4456
 7727SOL    HW234815   0.397   4.620   6.597  1.0948 -0.3654  0.0677
 7728SOL     OW34816   4.516   3.687   9.886  0.2110 -0.1291 -0.5099
 7728SOL    HW134817   4.578   3.626   9.847  1.3686 -0.2133  1.4533
 7728SOL    HW234818   4.513   3.765   9.830  0.8611  1.6491  1.9404
 7729SOL     OW34819   4.697   3.456   0.181  0.1624 -0.7923 -0.1457
 7729SOL    HW134820   0.036   3.477   0.126  0.7996 -0.6070  0.8152
 7729SOL    HW234821   4.660   3.398   0.114  2.2260  0.9842 -2.8097
 7730SOL     OW34822   3.074   4.673  16.967  0.1480 -0.5865 -0.5368
 7730SOL    HW134823   3.003   4.676  16.903 -0.0726 -0.2315 -0.2765
 7730SOL    HW234824   3.079   4.578  16.980 -1.5105 -0.3761  1.6215
 7731SOL     OW34825   4.578   4.237  16.783  0.3846 -0.3470  0.2987
 7731SOL    HW134826   4.581   4.143  16.799 -0.6088 -0.4007  0.1570
 7731SOL    HW234827   4.525   4.239  16.703  1.2354  0.8144 -0.2285
 7732SOL     OW34828   0.350   4.484  12.165 -0.6069 -0.0361  0.5677
 7732SOL    HW134829   0.365   4.394  12.192 -0.3398  0.0819  0.8121
 7732SOL    HW234830   0.419   4.504  12.102  0.9167 -0.3573  2.1555
 7733SOL     OW34831   1.118   0.646   2.598 -0.0449 -0.1558 -0.1368
 7733SOL    HW134832   1.087   0.735   2.581  0.9529  0.3540  0.7319
 7733SOL    HW234833   1.063   0.614   2.669  1.3972 -1.6790  0.2811
 7734SOL     OW34834   4.491   3.383  16.634  0.2128 -0.7774 -0.0178
 7734SOL    HW134835   4.440   3.403  16.555 -0.1142  1.6266  0.7784
 7734SOL    HW234836   4.412   3.371  16.686  0.9041 -0.4816  1.1013
 7735SOL     OW34837   3.585   1.764   4.829  0.3499  0.5281 -0.6240
 7735SOL    HW134838   3.650   1.710   4.875  0.3543 -0.2208 -1.5125
 7735SOL    HW234839   3.568   1.836   4.890 -3.5924 -0.1688 -0.9093
 7736SOL     OW34840   2.596   1.869   9.196  0.0984  0.3261 -0.2551
 7736SOL    HW134841   2.565   1.927   9.265  0.7141  0.8610 -0.4368
 7736SOL    HW234842   2.543   1.793   9.222 -1.0567  1.2345  0.0289
 7737SOL     OW34843   0.825   3.279   1.768  0.3311 -0.6469 -0.1920
 7737SOL    HW134844   0.874   3.361   1.760 -1.6634  0.7038  1.3500
 7737SOL    HW234845   0.745   3.302   1.816  0.4420 -1.1911  0.2452
 7738SOL     OW34846   3.314   2.162   3.076 -0.1241  1.1318  0.1919
 7738SOL    HW134847   3.334   2.237   3.021 -0.4398 -0.6725 -2.3743
 7738SOL    HW234848   3.386   2.104   3.052 -0.9746  0.0568  0.2405
 7739SOL     OW34849   3.155   4.149   2.014 -0.5021 -0.6524 -0.1576
 7739SOL    HW134850   3.101   4.176   2.088 -1.6862 -0.0033 -1.2555
 7739SOL    HW234851   3.233   4.197   2.041 -1.7051  0.4550  1.3749
 7740SOL     OW34852   3.858   0.428  10.578 -0.2003 -0.6412 -0.4092
 7740SOL    HW134853   3.845   0.491  10.506  0.1252  0.0046  0.0953
 7740SOL    HW234854   3.769   0.413  10.608 -0.0292  0.3112  0.5794
 7741SOL     OW34855   1.409   1.734   6.086  0.4508  0.9880 -0.2897
 7741SOL    HW134856   1.483   1.770   6.135  0.4464 -1.0115  1.1543
 7741SOL    HW234857   1.365   1.812   6.051 -1.8672 -0.4094 -0.4932
 7742SOL     OW34858   0.459   0.589   3.393 -0.6671  0.5017 -0.0869
 7742SOL    HW134859   0.399   0.532   3.344 -0.8993 -0.2504  1.0846
 7742SOL    HW234860   0.538   0.535   3.394 -1.8099 -1.1779  0.9194
 7743SOL     OW34861   2.126   2.902  17.376  0.5047  0.0519 -0.2242
 7743SOL    HW134862   2.158   2.812  17.375 -0.0346 -0.1344 -0.8356
 7743SOL    HW234863   2.035   2.893  17.345  0.8893  4.4276 -2.5665
 7744SOL     OW34864   1.398   2.552   1.936  0.1003  0.0479 -0.1556
 7744SOL    HW134865   1.434   2.587   2.018  3.2649  0.3140 -1.6277
 7744SOL    HW234866   1.474   2.552   1.878  1.3112  3.8985  1.4037
 7745SOL     OW34867   3.259   3.355   5.071  0.1426  0.3224 -0.2232
 7745SOL    HW134868   3.332   3.363   5.010  1.4489 -0.9957  1.1758
 7745SOL    HW234869   3.205   3.286   5.032 -1.8479  1.4458  0.5953
 7746SOL     OW34870   4.523   1.306  17.356 -0.0921 -0.3544  0.5129
 7746SOL    HW134871   4.513   1.275  17.446 -1.0038 -0.2889  0.4296
 7746SOL    HW234872   4.430   1.315  17.338 -0.1822  0.1361  1.1891
 7747SOL     OW34873   1.531   1.695   5.152 -0.2725 -0.2829  0.8049
 7747SOL    HW134874   1.490   1.770   5.109 -1.8292 -0.9189  1.1976
 7747SOL    HW234875   1.508   1.623   5.094  0.3359 -0.0222  0.2312
 7748SOL     OW34876   4.102   4.057   2.049  0.2972  0.4352 -0.0926
 7748SOL    HW134877   4.062   4.034   1.965 -1.2452  0.3690  0.6537
 7748SOL    HW234878   4.154   3.979   2.068 -1.8881 -0.9582  0.1576
 7749SOL     OW34879   0.577   1.354   4.412  0.1774  0.8750  0.1357
 7749SOL    HW134880   0.667   1.386   4.409 -0.0905  1.6658  0.5231
 7749SOL    HW234881   0.524   1.430   4.385  0.1254 -0.2116 -2.8532
 7750SOL     OW34882   2.590   3.166   5.066 -0.0896 -0.0885 -0.3092
 7750SOL    HW134883   2.556   3.256   5.063  2.1930  0.7601 -0.6701
 7750SOL    HW234884   2.670   3.174   5.015  0.2130 -4.2790 -0.4870
 7751SOL     OW34885   0.607   3.590   7.527 -0.8981 -0.1056  0.9609
 7751SOL    HW134886   0.543   3.547   7.584 -3.2999 -0.5937 -2.1092
 7751SOL    HW234887   0.549   3.649   7.478  1.3072  3.0413  2.1289
 7752SOL     OW34888   2.617   3.049   9.426  0.2058 -0.3436  0.3362
 7752SOL    HW134889   2.638   3.117   9.362 -1.5135 -1.0594 -0.9905
 7752SOL    HW234890   2.525   3.068   9.445  0.1313 -0.7954  0.4319
 7753SOL     OW34891   3.238   2.549   8.482  0.1462  0.0542  0.1769
 7753SOL    HW134892   3.258   2.575   8.392 -2.9475 -0.2241 -0.6125
 7753SOL    HW234893   3.154   2.594   8.490 -0.5484 -1.2142  0.0010
 7754SOL     OW34894   3.203   0.373   5.317  0.2724  0.1836 -0.2018
 7754SOL    HW134895   3.245   0.374   5.403 -0.8605  0.6424  0.3464
 7754SOL    HW234896   3.122   0.334   5.349 -0.1055  1.3894  0.3246
 7755SOL     OW34897   2.100   4.570   8.100  0.3903 -0.3283 -0.0638
 7755SOL    HW134898   2.167   4.523   8.050  0.2512  0.8852 -1.3914
 7755SOL    HW234899   2.108   4.539   8.190 -0.8207 -1.2455 -0.2767
 7756SOL     OW34900   1.111   2.693  14.190 -0.5029  0.2943 -0.8083
 7756SOL    HW134901   1.155   2.667  14.109  0.7653  0.5861 -0.2145
 7756SOL    HW234902   1.154   2.778  14.190 -0.8899  0.4918 -0.8631
 7757SOL     OW34903   3.761   3.242   7.084  0.1448  0.3269 -0.2973
 7757SOL    HW134904   3.695   3.278   7.143  1.4391  0.6419  0.9643
 7757SOL    HW234905   3.735   3.150   7.095 -1.0601  0.5739 -1.0658
 7758SOL     OW34906   1.653   2.754   9.049  0.8624  0.1987 -0.0407
 7758SOL    HW134907   1.658   2.667   9.088 -1.0093 -0.1745 -0.6565
 7758SOL    HW234908   1.682   2.818   9.114 -1.3727  0.7932  0.3687
 7759SOL     OW34909   3.862   3.106  13.185 -0.1394 -0.3659  0.4718
 7759SOL    HW134910   3.931   3.140  13.243 -0.5994 -0.2809  0.9677
 7759SOL    HW234911   3.831   3.186  13.143 -2.7500 -0.7917  1.6019
 7760SOL     OW34912   4.111   0.961   2.066 -0.4170 -0.1745  0.2827
 7760SOL    HW134913   4.129   0.893   2.000 -0.2638  0.3021 -0.1643
 7760SOL    HW234914   4.175   1.020   2.027  0.5587  0.3366  2.6634
 7761SOL     OW34915   1.354   0.903  15.950  0.2037 -0.1492  0.3141
 7761SOL    HW134916   1.340   0.971  16.015 -0.4516  0.0899 -0.0746
 7761SOL    HW234917   1.266   0.910  15.912 -0.2728 -0.1880  1.4149
 7762SOL     OW34918   0.956   1.307   7.711 -0.2257  0.8765 -0.5610
 7762SOL    HW134919   0.922   1.234   7.762  0.8292  1.5025  1.0370
 7762SOL    HW234920   1.049   1.291   7.726 -0.3876  0.6981  0.2744
 7763SOL     OW34921   0.793   2.334  10.956  0.1227  0.1405 -0.6954
 7763SOL    HW134922   0.862   2.320  11.020 -0.8029  0.7916  0.4399
 7763SOL    HW234923   0.770   2.426  10.963 -1.5840 -0.3464  0.1118
 7764SOL     OW34924   2.247   0.051   9.645  0.3280  0.5654 -0.3352
 7764SOL    HW134925   2.297   0.080   9.721  2.4496 -2.6126 -0.4959
 7764SOL    HW234926   2.182   0.121   9.642 -0.5940 -0.2819 -0.1460
 7765SOL     OW34927   3.590   4.391   9.606  0.1332 -0.3718 -0.2092
 7765SOL    HW134928   3.670   4.371   9.557  0.1122  1.8107 -1.1154
 7765SOL    HW234929   3.530   4.330   9.563  0.8964 -1.7723  0.7222
 7766SOL     OW34930   4.567   4.637   4.625  0.2248  0.0930 -0.1830
 7766SOL    HW134931   4.661   4.635   4.605  1.0296 -0.9835  3.6908
 7766SOL    HW234932   4.554   4.724   4.589  0.3387 -0.3754 -1.3699
 7767SOL     OW34933   2.485   2.015   6.641  0.0813  0.0889 -0.2263
 7767SOL    HW134934   2.519   1.998   6.553  1.7874  2.8298 -0.0988
 7767SOL    HW234935   2.392   2.024   6.622  0.0446  2.7436  1.2747
 7768SOL     OW34936   2.432   1.879   2.657  0.3708 -0.3445 -0.1869
 7768SOL    HW134937   2.416   1.937   2.731  0.7766 -1.8285  1.0452
 7768SOL    HW234938   2.519   1.847   2.681  2.5704  3.1145 -3.4319
 7769SOL     OW34939   1.179   1.933   6.536 -0.5004 -0.7504  0.2659
 7769SOL    HW134940   1.140   1.907   6.620 -1.4650  2.1516  0.7001
 7769SOL    HW234941   1.103   1.918   6.479 -1.7183 -0.6300  1.8523
 7770SOL     OW34942   0.332   1.332   5.713  0.7418  0.3202 -0.4803
 7770SOL    HW134943   0.383   1.369   5.786 -0.9001 -0.9743  1.3138
 7770SOL    HW234944   0.293   1.410   5.674 -1.1800 -0.5278 -0.2584
 7771SOL     OW34945   3.629   4.338   8.963  0.6438  0.4301  0.5557
 7771SOL    HW134946   3.542   4.376   8.947 -0.2086 -0.7803  2.3224
 7771SOL    HW234947   3.648   4.293   8.881  0.3551  0.5801  0.4054
 7772SOL     OW34948   0.878   1.516   3.854 -0.1411  0.2047 -0.1415
 7772SOL    HW134949   0.962   1.547   3.887 -1.2017  2.9225 -0.0619
 7772SOL    HW234950   0.833   1.600   3.847  0.9098  0.5660 -2.8159
 7773SOL     OW34951   2.709   3.138   7.248 -0.0956 -0.5197 -0.3881
 7773SOL    HW134952   2.620   3.119   7.221 -0.4636  0.0834  0.3864
 7773SOL    HW234953   2.744   3.140   7.159  1.1157  1.5766  0.1233
 7774SOL     OW34954   1.839   4.483   2.595  0.7327 -0.1885 -0.0360
 7774SOL    HW134955   1.893   4.463   2.519 -0.8595 -0.7973 -0.9922
 7774SOL    HW234956   1.892   4.558   2.625 -0.0683 -0.0466  1.0478
 7775SOL     OW34957   3.690   2.273   3.625  0.3723 -0.1253  0.4416
 7775SOL    HW134958   3.616   2.273   3.564  0.3636 -0.0323  0.4523
 7775SOL    HW234959   3.763   2.315   3.579  1.1510 -0.1577  1.6479
 7776SOL     OW34960   3.572   1.695   6.371 -0.2296  0.3459  0.1894
 7776SOL    HW134961   3.594   1.607   6.402  0.8545  0.9736  1.2121
 7776SOL    HW234962   3.488   1.680   6.328  0.9244 -0.7773 -1.6889
 7777SOL     OW34963   3.933   3.178  16.159  0.0413  0.5665  0.2072
 7777SOL    HW134964   3.882   3.143  16.231 -2.2142  1.5037 -0.9307
 7777SOL    HW234965   3.971   3.261  16.189  0.5553 -0.8453  3.3825
 7778SOL     OW34966   0.897   2.876  13.476  0.0890 -0.1151  0.6969
 7778SOL    HW134967   0.918   2.794  13.431  1.2743  1.4483 -1.5861
 7778SOL    HW234968   0.802   2.864  13.479  0.0705 -0.0528  0.3183
 7779SOL     OW34969   1.031   4.265   4.154  0.0638  0.0882 -0.0816
 7779SOL    HW134970   1.114   4.217   4.163 -1.1326 -1.6608  1.5821
 7779SOL    HW234971   1.036   4.319   4.075 -0.2023 -0.1905 -0.2876
 7780SOL     OW34972   4.170   2.882  13.097 -0.4883 -0.2214 -0.1360
 7780SOL    HW134973   4.140   2.838  13.177 -0.8910  1.8826  0.8523
 7780SOL    HW234974   4.163   2.818  13.026 -0.4826  0.2891 -0.5914
 7781SOL     OW34975   2.004   4.446  16.182  0.3363  0.0384  0.7947
 7781SOL    HW134976   2.048   4.494  16.251  1.6592  1.4456 -1.0435
 7781SOL    HW234977   1.926   4.411  16.227  1.0116  0.2347  2.1008
 7782SOL     OW34978   3.491   0.851   7.440 -0.0068  0.1538 -0.4195
 7782SOL    HW134979   3.431   0.849   7.515  0.3222  1.2198 -0.1322
 7782SOL    HW234980   3.494   0.944   7.419 -0.8955 -0.0420 -1.4068
 7783SOL     OW34981   1.591   1.695   5.684  0.3645 -0.1090 -0.0035
 7783SOL    HW134982   1.641   1.776   5.696  0.1292 -0.2429  1.9726
 7783SOL    HW234983   1.566   1.699   5.592  0.9777 -1.8426 -0.2468
 7784SOL     OW34984   2.956   2.554  10.701  0.3856 -0.1425  0.2716
 7784SOL    HW134985   2.928   2.490  10.766  2.9922 -0.6140  0.9023
 7784SOL    HW234986   3.032   2.582  10.751  0.5801 -3.6296  1.9322
 7785SOL     OW34987   0.013   3.104   6.602  0.4377  0.4932  0.2588
 7785SOL    HW134988   0.052   3.192   6.608 -0.1322  0.6508  1.7413
 7785SOL    HW234989   4.684   3.114   6.671  1.4841 -0.3008  1.3731
 7786SOL     OW34990   1.520   4.702  16.303  0.3444  0.6037  0.1559
 7786SOL    HW134991   1.604   4.680  16.264  0.8132  0.8586  1.0320
 7786SOL    HW234992   1.501   4.613  16.331  0.4093  0.2856 -0.8083
 7787SOL     OW34993   4.011   0.179   2.186  0.1898  0.4872  0.3963
 7787SOL    HW134994   3.980   0.236   2.117  0.2221  0.9905  0.7955
 7787SOL    HW234995   3.951   0.213   2.252  0.2142  0.5236  0.4002
 7788SOL     OW34996   2.788   2.270   3.819  0.3744 -0.2248  0.0324
 7788SOL    HW134997   2.878   2.264   3.789  0.4137  0.6377 -0.0062
 7788SOL    HW234998   2.761   2.181   3.794  0.1611  0.4815 -2.2116
 7789SOL     OW34999   2.761   2.213  14.142 -0.2641  0.2967 -0.4588
 7789SOL    HW135000   2.794   2.161  14.215  0.9095 -0.0976 -1.2703
 7789SOL    HW235001   2.698   2.153  14.102 -0.1065 -2.4815  3.5141
 7790SOL     OW35002   1.396   3.419   2.912  0.1602  0.4640 -0.6529
 7790SOL    HW135003   1.334   3.354   2.946  0.7297 -1.0821 -2.5748
 7790SOL    HW235004   1.353   3.431   2.828 -1.0864 -0.6222 -0.1775
 7791SOL     OW35005   2.439   4.240  17.620 -0.0398  0.3113  0.1783
 7791SOL    HW135006   2.417   4.155  17.656 -0.4930  0.7625  0.9693
 7791SOL    HW235007   2.389   4.295  17.681 -0.7365 -0.0246 -0.0923
 7792SOL     OW35008   4.305   1.128  15.060 -0.1123  0.5804 -0.1228
 7792SOL    HW135009   4.357   1.132  14.980  1.4182 -2.7906  0.7196
 7792SOL    HW235010   4.313   1.038  15.090 -0.0556  0.7973  0.5164
 7793SOL     OW35011   1.009   0.715   3.839 -0.9203  0.2475  0.1732
 7793SOL    HW135012   1.012   0.676   3.752 -1.5283 -0.4135  0.4468
 7793SOL    HW235013   0.915   0.718   3.858 -1.4812 -0.2026 -2.5966
 7794SOL     OW35014   4.733   1.084   9.301 -0.4211 -0.3110  0.1565
 7794SOL    HW135015   4.643   1.085   9.334 -0.7267 -4.2749 -0.5914
 7794SOL    HW235016   0.011   1.169   9.258  0.8858  1.1287  3.4852
 7795SOL     OW35017   0.503   0.134  13.558 -0.1457 -0.2725 -0.0839
 7795SOL    HW135018   0.512   0.043  13.531 -0.3759 -0.1012 -0.7530
 7795SOL    HW235019   0.441   0.110  13.626  1.3834  0.4350  1.5498
 7796SOL     OW35020   1.169   2.148   8.798  0.1349 -0.0191 -0.6455
 7796SOL    HW135021   1.176   2.147   8.702  0.2077  2.5058 -0.6598
 7796SOL    HW235022   1.118   2.068   8.811 -0.6427  0.4664 -0.7241
 7797SOL     OW35023   0.585   3.311   8.063  0.5097  0.0360 -0.0942
 7797SOL    HW135024   0.629   3.392   8.089  0.5095 -0.2770  0.8711
 7797SOL    HW235025   0.611   3.243   8.125 -1.8885 -1.9692 -1.2991
 7798SOL     OW35026   2.215   2.397   9.805 -0.7310 -0.2566  0.1999
 7798SOL    HW135027   2.296   2.448   9.816 -0.8384 -0.2534  0.9793
 7798SOL    HW235028   2.228   2.361   9.718  1.2802 -0.3476  0.5240
 7799SOL     OW35029   4.519   4.045   5.613  0.2734 -0.3632 -0.0868
 7799SOL    HW135030   4.445   4.080   5.564  0.4639 -0.9458 -0.8115
 7799SOL    HW235031   4.599   4.035   5.560  0.7697  1.5213  0.3059
 7800SOL     OW35032   0.968   0.201   5.070 -0.4159 -0.0218 -0.0732
 7800SOL    HW135033   0.951   0.262   5.142 -0.1925 -0.4108  0.3111
 7800SOL    HW235034   0.908   0.134   5.102  0.4695 -0.0394  1.5405
 7801SOL     OW35035   1.187   4.030   3.031 -0.2444  0.3519  0.6165
 7801SOL    HW135036   1.237   3.983   3.097  1.2681 -0.6702 -1.2429
 7801SOL    HW235037   1.108   3.976   3.033  0.5191 -0.8624 -1.5706
 7802SOL     OW35038   0.060   3.557   0.948  0.0604  0.3609 -0.4951
 7802SOL    HW135039   0.025   3.619   1.011 -3.5164 -1.1600 -0.9576
 7802SOL    HW235040   0.000   3.568   0.874 -0.7438 -1.6182 -0.1476
 7803SOL     OW35041   0.218   3.866   8.498 -0.4920 -0.6776  0.1866
 7803SOL    HW135042   0.205   3.906   8.584 -0.3602 -0.3476  0.0540
 7803SOL    HW235043   0.216   3.774   8.525  1.1090 -1.1157 -1.2117
 7804SOL     OW35044   1.814   3.086   5.239  0.2176  0.2502  0.7849
 7804SOL    HW135045   1.793   3.013   5.296  2.7032  0.4766  2.0112
 7804SOL    HW235046   1.812   3.167   5.291 -1.0014  0.1241  0.9291
 7805SOL     OW35047   4.686   1.181   7.232 -0.2243 -0.1142 -0.3080
 7805SOL    HW135048   0.012   1.214   7.168  0.1555 -0.6818 -0.2337
 7805SOL    HW235049   4.682   1.243   7.304 -2.0506 -0.4667 -0.0946
 7806SOL     OW35050   4.343   2.342   3.164 -0.5227  0.2459  0.0607
 7806SOL    HW135051   4.430   2.377   3.145  0.6100 -2.7173 -0.2026
 7806SOL    HW235052   4.296   2.421   3.192  2.1031  1.9157 -0.2841
 7807SOL     OW35053   1.134   2.897   3.322 -0.2219  0.5574  0.3178
 7807SOL    HW135054   1.200   2.945   3.272 -2.6652  0.9235 -2.5480
 7807SOL    HW235055   1.097   2.969   3.373  0.3659  0.3663  1.0142
 7808SOL     OW35056   0.742   3.207   5.324  0.2182 -0.1156  0.3409
 7808SOL    HW135057   0.708   3.226   5.237  1.7201 -0.4544 -0.3161
 7808SOL    HW235058   0.766   3.115   5.322 -1.8451 -0.6884  1.8761
 7809SOL     OW35059   2.958   1.181   3.144 -0.3971 -0.1737 -0.5406
 7809SOL    HW135060   3.037   1.149   3.101 -0.6823 -1.3488 -0.1801
 7809SOL    HW235061   2.970   1.156   3.235 -0.1418  0.7872 -0.3087
 7810SOL     OW35062   0.447   2.473   3.485  0.1002 -0.5457  0.0946
 7810SOL    HW135063   0.468   2.380   3.485 -0.8908 -0.7631  0.5745
 7810SOL    HW235064   0.426   2.494   3.393 -1.9023  1.6803  1.0518
 7811SOL     OW35065   2.625   3.369  13.714  0.0743  0.2249 -0.3158
 7811SOL    HW135066   2.623   3.278  13.682 -0.4175 -1.1342  3.6473
 7811SOL    HW235067   2.639   3.348  13.806 -0.5754 -0.5024 -0.3811
 7812SOL     OW35068   3.592   2.981   5.624 -0.2006 -0.4266  0.1137
 7812SOL    HW135069   3.669   2.931   5.652  0.8199  0.0868 -1.7861
 7812SOL    HW235070   3.536   2.968   5.700 -1.0234 -0.7339 -0.5461
 7813SOL     OW35071   3.867   3.869   4.733  0.1873  0.4619 -0.3977
 7813SOL    HW135072   3.919   3.908   4.663  1.5191  0.3900  0.5490
 7813SOL    HW235073   3.893   3.777   4.729 -0.2472  0.3277 -0.1017
 7814SOL     OW35074   1.755   3.108   8.533  0.0766  0.5965  0.5214
 7814SOL    HW135075   1.669   3.138   8.505  0.2920 -0.4806 -1.2996
 7814SOL    HW235076   1.734   3.083   8.622 -2.0690 -2.5175 -0.8547
 7815SOL     OW35077   4.416   3.028   6.801 -0.5119  0.1478  0.2282
 7815SOL    HW135078   4.491   3.074   6.839  0.2045 -1.2707  0.5644
 7815SOL    HW235079   4.448   2.937   6.805 -2.2748 -0.4395  0.7315
 7816SOL     OW35080   3.357   1.265   5.880  0.4188  0.2049 -0.3484
 7816SOL    HW135081   3.414   1.339   5.862  1.2144 -0.5197 -0.7561
 7816SOL    HW235082   3.370   1.208   5.805  1.0001  0.3658 -0.3627
 7817SOL     OW35083   3.324   3.178   6.614 -0.2789  0.5267  0.1397
 7817SOL    HW135084   3.234   3.165   6.642  0.1060 -0.9860  0.6803
 7817SOL    HW235085   3.319   3.261   6.568 -1.0660 -1.2610 -3.0020
 7818SOL     OW35086   3.280   4.178   5.391  0.3800  0.3013 -0.1371
 7818SOL    HW135087   3.261   4.184   5.298  0.5958 -0.1179 -0.2084
 7818SOL    HW235088   3.285   4.272   5.407 -0.7371  0.4930 -0.9430
 7819SOL     OW35089   4.412   3.323   6.504  0.4005 -0.6014  0.2777
 7819SOL    HW135090   4.471   3.312   6.429  0.4468  0.4613  0.1688
 7819SOL    HW235091   4.463   3.391   6.547  0.3260 -0.6964  0.5218
 7820SOL     OW35092   3.740   0.266   9.284 -0.0233 -0.4196 -0.2122
 7820SOL    HW135093   3.779   0.183   9.313  1.1164  0.0077 -0.5548
 7820SOL    HW235094   3.657   0.264   9.332  0.9459 -1.1251  1.4079
 7821SOL     OW35095   3.658   1.081   6.237  0.0337  0.2525 -0.7538
 7821SOL    HW135096   3.659   0.986   6.239  0.2790  0.2578 -0.6196
 7821SOL    HW235097   3.579   1.104   6.188 -2.6388 -0.8559  3.0413
 7822SOL     OW35098   1.428   3.093   5.543  0.1438  0.5443 -0.1807
 7822SOL    HW135099   1.424   2.998   5.546  1.9798  0.4893  0.3720
 7822SOL    HW235100   1.436   3.120   5.634  0.0335  1.1259 -0.3372
 7823SOL     OW35101   3.635   1.627   9.415 -0.6643 -0.3242 -0.0951
 7823SOL    HW135102   3.560   1.570   9.432  0.2193 -1.5394 -0.2710
 7823SOL    HW235103   3.588   1.683   9.352  0.3942  0.0362 -0.5626
 7824SOL     OW35104   0.471   1.534   7.425 -0.3921  0.0984 -0.5233
 7824SOL    HW135105   0.518   1.618   7.422 -0.6158  0.2338 -0.2350
 7824SOL    HW235106   0.383   1.560   7.451 -0.5730  0.8939 -1.9589
 7825SOL     OW35107   3.053   3.179   6.702 -0.3722  0.7036  0.4344
 7825SOL    HW135108   2.991   3.115   6.736  0.2271  0.6199  1.3758
 7825SOL    HW235109   3.000   3.214   6.630  0.2413  0.8858  0.0695
 7826SOL     OW35110   3.537   2.773  11.276 -0.0297 -0.0120  0.6922
 7826SOL    HW135111   3.618   2.729  11.305 -0.1101  0.0530  1.0092
 7826SOL    HW235112   3.572   2.851  11.233  1.9505 -1.2766 -0.0387
 7827SOL     OW35113   1.276   1.380   6.970  0.0077 -0.4497  1.0154
 7827SOL    HW135114   1.351   1.434   6.994  0.7916 -0.8250 -0.5849
 7827SOL    HW235115   1.306   1.300   7.014  0.2213  0.2382  2.1118
 7828SOL     OW35116   4.081   1.539   7.026 -0.7323  0.0260  0.0349
 7828SOL    HW135117   4.116   1.464   7.073  0.3327  1.0720  0.9124
 7828SOL    HW235118   4.005   1.510   6.975 -1.4560 -1.1092  1.8009
 7829SOL     OW35119   4.526   3.871   6.984  0.4030  0.3631 -0.2710
 7829SOL    HW135120   4.548   3.778   6.990 -2.9018 -0.4872 -1.1994
 7829SOL    HW235121   4.573   3.898   6.905 -1.0789  1.6722 -0.7032
 7830SOL     OW35122   3.558   1.295   5.475  0.2237  0.4638  0.0444
 7830SOL    HW135123   3.585   1.385   5.491 -0.9037  1.0472 -1.3847
 7830SOL    HW235124   3.552   1.289   5.380 -0.4813  1.2959  0.0381
 7831SOL     OW35125   2.559   2.591   5.064 -0.0229  0.3125 -0.2107
 7831SOL    HW135126   2.541   2.659   5.129  1.1359 -0.4632  0.9351
 7831SOL    HW235127   2.634   2.546   5.104 -1.1473 -2.6265 -1.3965
 7832SOL     OW35128   4.403   0.147   6.594 -0.3339 -0.0125 -0.4378
 7832SOL    HW135129   4.490   0.122   6.563 -0.1015  1.0341 -0.6150
 7832SOL    HW235130   4.367   0.059   6.605  0.9412 -0.4290  0.3271
 7833SOL     OW35131   4.040   0.579  12.605 -0.7805 -0.3266 -0.0875
 7833SOL    HW135132   3.960   0.600  12.653 -0.8300  0.9974 -0.7779
 7833SOL    HW235133   4.094   0.657  12.620 -2.6103  1.2534 -1.8903
 7834SOL     OW35134   3.223   1.285   0.782 -0.5362  0.1888 -0.2147
 7834SOL    HW135135   3.196   1.209   0.833  1.8047 -0.0360  0.6847
 7834SOL    HW235136   3.144   1.330   0.752 -0.9056 -0.1175  0.3112
 7835SOL     OW35137   3.965   3.487  16.201  0.2903  0.2789  0.1314
 7835SOL    HW135138   4.053   3.459  16.176 -0.8999 -3.1849 -0.0843
 7835SOL    HW235139   3.974   3.493  16.296 -1.3640 -0.6450  0.3429
 7836SOL     OW35140   3.557   0.374   3.674  0.4807 -0.2218  0.2052
 7836SOL    HW135141   3.638   0.391   3.626  0.3961  0.3966  0.2902
 7836SOL    HW235142   3.545   0.285   3.640 -1.0791 -1.2292  3.3379
 7837SOL     OW35143   2.916   4.097  15.207 -0.1778  0.5123  0.5151
 7837SOL    HW135144   2.829   4.060  15.222  0.7247 -0.9422  2.1603
 7837SOL    HW235145   2.927   4.157  15.281 -2.0845 -1.1214  2.1083
 7838SOL     OW35146   3.760   1.753  13.446 -0.3330 -0.3022  0.1189
 7838SOL    HW135147   3.830   1.731  13.508  1.3556 -0.2682 -1.7831
 7838SOL    HW235148   3.691   1.702  13.489 -0.8407 -1.0530 -1.6019
 7839SOL     OW35149   1.575   0.341   5.303  0.3468  0.2290 -0.3870
 7839SOL    HW135150   1.494   0.385   5.332  1.0725  1.2991  0.0512
 7839SOL    HW235151   1.645   0.386   5.351  1.1979 -1.7251  0.1734
 7840SOL     OW35152   0.164   1.347  15.349 -0.1837 -0.4512 -0.2579
 7840SOL    HW135153   0.230   1.329  15.282  0.8525 -1.0004  0.9149
 7840SOL    HW235154   0.088   1.311  15.304 -0.3498  0.8259 -0.9921
 7841SOL     OW35155   2.092   1.187   2.868  0.2297 -0.6613  0.1785
 7841SOL    HW135156   2.122   1.127   2.936 -0.8706 -0.7466  0.5823
 7841SOL    HW235157   2.020   1.232   2.912 -0.4551  0.6838 -2.2898
 7842SOL     OW35158   4.628   1.584  17.626  0.0677  0.2453  0.7536
 7842SOL    HW135159   4.690   1.638  17.676 -0.7320  1.4314  0.4617
 7842SOL    HW235160   4.631   1.494  17.660 -0.7941 -0.0233  0.1169
 7843SOL     OW35161   3.367   2.846   8.015  1.0117  0.5223  0.5627
 7843SOL    HW135162   3.413   2.924   7.984  0.9994 -1.5387 -4.5640
 7843SOL    HW235163   3.414   2.830   8.097  0.1914 -0.0945  0.9067
 7844SOL     OW35164   0.452   0.709   8.568  0.4447  0.1694  0.5332
 7844SOL    HW135165   0.486   0.659   8.642 -0.0164 -1.7492 -0.5784
 7844SOL    HW235166   0.358   0.701   8.584  0.2723 -0.9773 -1.1598
 7845SOL     OW35167   0.272   4.478   5.311  0.8222  0.5203  0.3118
 7845SOL    HW135168   0.178   4.490   5.300  0.9529  2.1178  0.9186
 7845SOL    HW235169   0.274   4.388   5.346 -1.1603 -0.3413 -1.8389
 7846SOL     OW35170   1.132   3.039  12.373 -0.4214 -0.4469 -0.1300
 7846SOL    HW135171   1.118   2.988  12.452 -1.2851  1.5540  1.0068
 7846SOL    HW235172   1.177   2.972  12.321 -1.1379 -0.4031 -0.8051
 7847SOL     OW35173   1.826   3.128   1.880  0.3961  0.7255  0.0433
 7847SOL    HW135174   1.797   3.123   1.971  2.0083 -1.1741  0.4494
 7847SOL    HW235175   1.887   3.054   1.879  1.2148  1.3813  1.1801
 7848SOL     OW35176   0.093   3.835  11.978 -0.3119 -0.2483  0.3336
 7848SOL    HW135177   0.058   3.903  11.921  1.5496  0.6396  0.2744
 7848SOL    HW235178   0.025   3.767  11.973 -1.0447  0.5175 -0.1590
 7849SOL     OW35179   3.581   1.732   9.126  0.3104  0.3652  0.0340
 7849SOL    HW135180   3.665   1.705   9.088  0.7670 -0.9812  1.9950
 7849SOL    HW235181   3.519   1.733   9.053 -1.7134  0.5954  1.7535
 7850SOL     OW35182   2.496   3.473   5.006  0.3164  0.2580  0.6932
 7850SOL    HW135183   2.424   3.495   4.947  2.5224 -0.4395 -2.2437
 7850SOL    HW235184   2.574   3.515   4.972 -0.1502 -0.9844 -1.9784
 7851SOL     OW35185   3.132   4.518   9.370 -0.4607 -0.1324 -0.1012
 7851SOL    HW135186   3.061   4.465   9.336 -2.1827  0.6664  2.2748
 7851SOL    HW235187   3.168   4.474   9.447  0.9106 -0.6896 -1.0481
 7852SOL     OW35188   1.857   2.774   4.279  0.1189  0.5245 -0.3397
 7852SOL    HW135189   1.808   2.729   4.211  0.5724  0.3297 -0.5378
 7852SOL    HW235190   1.857   2.706   4.346 -0.4265 -0.2295 -1.1047
 7853SOL     OW35191   2.345   0.999   8.927  0.3714  0.2978  0.7861
 7853SOL    HW135192   2.277   1.060   8.957  0.4623  0.1301  1.3393
 7853SOL    HW235193   2.372   0.966   9.013  2.6918  0.9356  0.2907
 7854SOL     OW35194   4.299   0.003   9.349  0.5228 -0.1648 -0.2279
 7854SOL    HW135195   4.282   0.071   9.414 -0.4731 -0.5018 -0.1378
 7854SOL    HW235196   4.236   0.040   9.287 -1.1480  1.8480  2.6863
 7855SOL     OW35197   3.514   3.437   3.471  0.0692  0.2997  0.3337
 7855SOL    HW135198   3.486   3.346   3.459 -0.4235  0.4308  0.4654
 7855SOL    HW235199   3.582   3.421   3.536  0.7717 -1.3242 -0.8117
 7856SOL     OW35200   3.637   1.473  16.968 -0.0904  0.5259  0.2121
 7856SOL    HW135201   3.689   1.553  16.958  1.0023 -0.2277 -0.1271
 7856SOL    HW235202   3.665   1.458  17.058 -0.1567  0.5274  0.2330
 7857SOL     OW35203   2.417   4.524   8.282  0.1168  0.1328 -0.0483
 7857SOL    HW135204   2.418   4.493   8.192  1.5863  0.1652 -0.0392
 7857SOL    HW235205   2.469   4.603   8.272  1.2941 -0.5938  0.2613
 7858SOL     OW35206   3.417   1.566   7.924  0.0367 -0.5558  0.5740
 7858SOL    HW135207   3.475   1.627   7.879  1.3690 -0.5764  2.2519
 7858SOL    HW235208   3.474   1.546   7.998 -1.7288 -0.4917  1.9500
 7859SOL     OW35209   3.191   1.583  10.894  0.3412  0.2655 -0.4913
 7859SOL    HW135210   3.250   1.571  10.820 -1.3135  1.4542 -1.9991
 7859SOL    HW235211   3.104   1.559  10.862 -0.2066 -1.2656  2.1579
 7860SOL     OW35212   3.446   2.848   8.806  0.1922  0.6320 -0.1547
 7860SOL    HW135213   3.472   2.763   8.843  0.8605  0.3218 -1.3214
 7860SOL    HW235214   3.420   2.837   8.714 -0.8038  1.9862 -0.0349
 7861SOL     OW35215   0.860   4.268  11.395 -0.2422  0.8640  0.2616
 7861SOL    HW135216   0.790   4.204  11.412  0.5404  0.0957  0.6057
 7861SOL    HW235217   0.874   4.255  11.301 -1.1151  1.1802  0.0857
 7862SOL     OW35218   1.261   1.907   5.950 -0.0294  0.0036  0.4099
 7862SOL    HW135219   1.295   1.996   5.962  1.1566 -0.6217  1.5927
 7862SOL    HW235220   1.248   1.901   5.855 -0.1088 -1.9359  0.5527
 7863SOL     OW35221   1.943   2.691   2.623  0.0825 -0.3471  0.2378
 7863SOL    HW135222   1.901   2.672   2.707 -1.7276 -2.2138 -1.0776
 7863SOL    HW235223   1.998   2.765   2.649 -1.9297  0.6860  1.5712
 7864SOL     OW35224   0.069   3.996   4.325  0.2906 -0.2790 -1.0878
 7864SOL    HW135225   0.071   3.915   4.375  0.5139  2.6838  3.7405
 7864SOL    HW235226   0.155   4.001   4.284 -0.3833 -0.2204 -2.4876
 7865SOL     OW35227   0.287   2.989   9.783 -0.8096 -0.2434  0.2507
 7865SOL    HW135228   0.203   3.014   9.823 -0.1417 -1.5669  2.4618
 7865SOL    HW235229   0.346   2.994   9.858 -1.9160 -3.4347  1.2992
 7866SOL     OW35230   1.720   2.914  11.223  0.0008  0.7666 -0.6851
 7866SOL    HW135231   1.680   2.827  11.233 -0.6868  1.1055 -0.4588
 7866SOL    HW235232   1.660   2.965  11.277 -1.3333 -0.4935 -0.9576
 7867SOL     OW35233   4.513   4.670  10.431  0.0867  0.3197 -0.2835
 7867SOL    HW135234   4.427   4.646  10.466 -0.0735  0.9441 -0.2590
 7867SOL    HW235235   4.569   4.674  10.509 -1.1864 -0.0959  0.6487
 7868SOL     OW35236   4.295   0.878   3.180 -0.4726 -0.1360  0.1915
 7868SOL    HW135237   4.271   0.967   3.205 -0.2900 -0.3741  1.1943
 7868SOL    HW235238   4.347   0.863   3.259 -1.2303 -0.9275  0.5480
 7869SOL     OW35239   1.381   4.283  10.065  0.0794  0.1335  0.3452
 7869SOL    HW135240   1.364   4.271  10.159 -0.0606  0.2702  0.3371
 7869SOL    HW235241   1.366   4.195  10.031 -2.6032  1.5111 -2.0365
 7870SOL     OW35242   2.728   4.302  12.214 -0.1190 -0.1030 -0.2861
 7870SOL    HW135243   2.665   4.328  12.147 -1.4802 -1.6516  0.4054
 7870SOL    HW235244   2.723   4.375  12.276 -0.3993 -0.6493  0.3384
 7871SOL     OW35245   4.220   2.693   6.822  0.0521 -0.3186 -0.4259
 7871SOL    HW135246   4.259   2.612   6.787  0.9057 -0.1736  0.1797
 7871SOL    HW235247   4.295   2.750   6.807  0.3610 -0.4703  0.5676
 7872SOL     OW35248   0.101   3.311   2.201 -0.1132  0.2674  0.0942
 7872SOL    HW135249   0.013   3.273   2.200 -0.6181  1.4527 -0.4027
 7872SOL    HW235250   0.157   3.254   2.253  1.3471  1.7240  0.1129
 7873SOL     OW35251   0.770   2.341   7.513  0.6591  0.5705  0.3067
 7873SOL    HW135252   0.683   2.319   7.545 -0.0400  0.0142 -2.0019
 7873SOL    HW235253   0.763   2.429   7.474 -1.1738 -0.4668 -1.6935
 7874SOL     OW35254   3.608   1.385   5.212 -0.3756  0.3873  0.2356
 7874SOL    HW135255   3.632   1.461   5.159 -1.3111  0.1434 -0.5563
 7874SOL    HW235256   3.622   1.304   5.162  1.9062  1.6770 -1.1688
 7875SOL     OW35257   2.691   1.946   3.376 -0.3444  0.1330  0.2721
 7875SOL    HW135258   2.739   1.951   3.459 -0.6935 -0.0887  0.4852
 7875SOL    HW235259   2.774   1.941   3.328 -0.9909 -1.7163 -0.6666
 7876SOL     OW35260   0.305   1.355  12.979  0.4009 -0.5744  0.6104
 7876SOL    HW135261   0.236   1.386  13.038 -0.6897 -0.8818 -0.5178
 7876SOL    HW235262   0.382   1.367  13.035 -0.4982 -2.0168  2.1357
 7877SOL     OW35263   2.996   1.654  12.622  0.3486  0.1159  0.8260
 7877SOL    HW135264   2.958   1.701  12.548  1.8365 -0.0348 -0.0361
 7877SOL    HW235265   2.922   1.605  12.658 -1.1863  1.7844 -0.0524
 7878SOL     OW35266   4.585   3.570   6.256 -0.0124  0.2100  0.2015
 7878SOL    HW135267   4.659   3.536   6.306 -0.1175 -2.1148 -1.2299
 7878SOL    HW235268   4.621   3.584   6.169  0.1167  2.0243  0.5480
 7879SOL     OW35269   0.638   2.272   3.500  0.0210 -0.0835  0.8012
 7879SOL    HW135270   0.636   2.178   3.486  1.1503 -0.2773  1.9338
 7879SOL    HW235271   0.705   2.297   3.436 -0.1172  0.6724  0.9502
 7880SOL     OW35272   0.025   0.700   1.872  0.3933  0.3575  0.2653
 7880SOL    HW135273   0.011   0.632   1.938  1.5460 -2.4398 -2.3275
 7880SOL    HW235274   0.120   0.705   1.868  0.3464  0.5057 -0.8287
 7881SOL     OW35275   0.117   2.680  12.254  0.0274 -0.4845 -0.1630
 7881SOL    HW135276   0.162   2.679  12.169  1.5305  0.5829  0.6099
 7881SOL    HW235277   0.026   2.671  12.227  0.2339 -2.6320 -0.1732
 7882SOL     OW35278   4.404   0.679  15.635 -0.2860  0.1746 -0.3078
 7882SOL    HW135279   4.490   0.645  15.661  0.7426  2.8426 -0.2063
 7882SOL    HW235280   4.362   0.682  15.721  1.2948  1.4746  0.4042
 7883SOL     OW35281   2.457   1.919  14.269  0.4660  0.4553 -0.3732
 7883SOL    HW135282   2.515   1.945  14.198 -0.3013  0.0778 -1.1350
 7883SOL    HW235283   2.376   1.913  14.218 -0.1888  2.4488  0.4247
 7884SOL     OW35284   1.654   1.279  10.526  0.3120 -0.6109 -0.2380
 7884SOL    HW135285   1.590   1.349  10.511 -1.5770 -2.6918 -1.8518
 7884SOL    HW235286   1.603   1.217  10.577  0.4871  0.2310  0.9649
 7885SOL     OW35287   1.536   2.646   5.299  0.2514 -0.2725 -0.1627
 7885SOL    HW135288   1.562   2.725   5.250 -0.5167 -0.5337 -0.9708
 7885SOL    HW235289   1.442   2.661   5.308  0.8339  2.0224  2.0837
 7886SOL     OW35290   2.478   3.595   8.272 -0.5708 -0.1507  0.2871
 7886SOL    HW135291   2.417   3.582   8.199  0.6606  2.2302 -1.1971
 7886SOL    HW235292   2.475   3.507   8.308 -0.0593 -0.9669 -1.6307
 7887SOL     OW35293   3.881   2.646   6.973 -0.1828  0.3521 -0.0155
 7887SOL    HW135294   3.969   2.678   6.996  1.0184 -2.0393 -1.3265
 7887SOL    HW235295   3.887   2.554   6.999  1.4826  0.7086  0.9106
 7888SOL     OW35296   1.888   3.250  11.041 -0.5151 -0.6991 -0.1389
 7888SOL    HW135297   1.825   3.309  11.082  0.0644  0.3069 -0.7207
 7888SOL    HW235298   1.835   3.172  11.022 -2.3919  1.0197 -1.9869
 7889SOL     OW35299   3.632   3.358   0.202 -0.5297 -0.3283 -0.4738
 7889SOL    HW135300   3.571   3.320   0.139 -0.0314 -2.2120  0.1756
 7889SOL    HW235301   3.700   3.291   0.206  0.2556  0.5884  1.4127
 7890SOL     OW35302   2.251   3.940  14.290  0.0578  0.6361  0.0700
 7890SOL    HW135303   2.345   3.938  14.272  0.4589  1.5480  2.0952
 7890SOL    HW235304   2.251   4.001  14.364  1.6699 -1.2127  1.5612
 7891SOL     OW35305   3.293   2.266   9.486  0.0239 -0.1012 -0.3010
 7891SOL    HW135306   3.253   2.269   9.399  2.4514  0.2847 -1.4050
 7891SOL    HW235307   3.285   2.174   9.513 -3.5594  0.2141 -0.2227
 7892SOL     OW35308   2.010   0.602   9.314 -0.0175 -0.0781 -0.7298
 7892SOL    HW135309   2.045   0.691   9.321  1.4447 -0.7992  1.0358
 7892SOL    HW235310   1.917   0.618   9.329  0.1608  0.3214 -0.0592
 7893SOL     OW35311   4.523   3.200   8.446  0.3011  0.0086 -0.1802
 7893SOL    HW135312   4.521   3.217   8.352  1.4979  1.7787  0.1192
 7893SOL    HW235313   4.595   3.257   8.471  0.5348  0.6924 -2.4348
 7894SOL     OW35314   0.775   2.496   4.869  0.0916  0.3028 -0.8309
 7894SOL    HW135315   0.839   2.436   4.907  0.5532  0.8936 -0.6752
 7894SOL    HW235316   0.722   2.438   4.815  0.3439 -1.5757  0.9218
 7895SOL     OW35317   3.320   0.138   9.288  0.3058  0.3290 -0.0248
 7895SOL    HW135318   3.346   0.047   9.301 -0.7504  0.0946  0.4107
 7895SOL    HW235319   3.385   0.184   9.342 -0.1734 -0.9855  1.6630
 7896SOL     OW35320   4.526   2.280  13.699  0.4704  0.1910 -0.2671
 7896SOL    HW135321   4.568   2.347  13.753 -0.4140  0.5941 -0.0825
 7896SOL    HW235322   4.440   2.266  13.738  0.2574 -1.7692 -1.4251
 7897SOL     OW35323   1.026   4.433   7.993 -0.2234  0.6845 -0.3994
 7897SOL    HW135324   0.991   4.477   7.916 -0.5533  1.1070 -0.0132
 7897SOL    HW235325   0.942   4.408   8.031 -0.2594 -1.2007 -1.7217
 7898SOL     OW35326   2.846   0.507  13.096 -0.2073 -0.4081  0.5120
 7898SOL    HW135327   2.879   0.497  13.185  0.3843  0.1836  0.3645
 7898SOL    HW235328   2.829   0.420  13.060 -0.3442 -0.3450  0.4225
 7899SOL     OW35329   1.962   2.859   6.405 -0.6656  0.3939 -0.1099
 7899SOL    HW135330   2.001   2.873   6.319 -3.3560 -0.3353 -1.4536
 7899SOL    HW235331   2.043   2.872   6.454 -1.9393 -1.6108  2.5516
 7900SOL     OW35332   1.578   4.074   3.883 -0.0445 -0.7835  0.5681
 7900SOL    HW135333   1.539   4.162   3.881  0.0058 -0.7015  2.8275
 7900SOL    HW235334   1.671   4.094   3.877 -0.2410  0.3867  1.3968
 7901SOL     OW35335   2.069   4.167   6.987 -0.0967  0.1194  0.8053
 7901SOL    HW135336   2.080   4.263   6.984 -0.0480  0.0820 -0.0704
 7901SOL    HW235337   2.140   4.145   7.048  2.2759  0.1038 -1.9373
 7902SOL     OW35338   4.499   3.952  14.588 -0.0012 -0.2876  0.2560
 7902SOL    HW135339   4.541   3.959  14.502  0.8854  0.4464  0.7516
 7902SOL    HW235340   4.566   3.974  14.653 -1.1030  0.1470  1.2417
 7903SOL     OW35341   0.995   3.266  14.411  0.2578 -0.3634 -0.2503
 7903SOL    HW135342   1.007   3.206  14.337  1.2521 -0.2568 -0.1776
 7903SOL    HW235343   1.040   3.208  14.472 -1.5583  1.5810  2.9686
 7904SOL     OW35344   0.061   3.298   7.171 -0.4758 -0.5944  0.2885
 7904SOL    HW135345   0.062   3.211   7.211  1.2464 -0.0690  1.3696
 7904SOL    HW235346   0.149   3.328   7.194 -0.0320 -2.3383  0.9155
 7905SOL     OW35347   1.832   4.631   1.703  0.6180 -0.1982 -0.1319
 7905SOL    HW135348   1.751   4.584   1.689  0.2295  0.4809 -0.1803
 7905SOL    HW235349   1.893   4.567   1.666  0.1258 -1.8791  1.9675
 7906SOL     OW35350   1.366   0.549   9.217 -0.0668 -0.1062 -0.2888
 7906SOL    HW135351   1.415   0.601   9.154  1.5239 -2.0911 -0.6926
 7906SOL    HW235352   1.325   0.483   9.161  0.5755 -1.5467  0.9082
 7907SOL     OW35353   2.283   2.855   6.219  0.2674 -0.1266  0.6547
 7907SOL    HW135354   2.353   2.806   6.176  0.0537  1.5278 -1.6181
 7907SOL    HW235355   2.322   2.844   6.305 -0.0459 -1.4323  0.6224
 7908SOL     OW35356   4.044   0.470   5.285  0.3717 -0.4011  0.2605
 7908SOL    HW135357   4.111   0.467   5.353  0.6455 -2.1967 -0.0859
 7908SOL    HW235358   4.055   0.559   5.252 -0.0405 -0.2364  0.5626
 7909SOL     OW35359   3.799   4.084  14.616  0.4056  0.1940  0.8081
 7909SOL    HW135360   3.781   4.092  14.522 -2.4642  0.2995  1.3845
 7909SOL    HW235361   3.867   4.151  14.627 -0.6980  1.3357  0.7167
 7910SOL     OW35362   0.638   2.883   9.239 -0.2123 -0.4418  0.0876
 7910SOL    HW135363   0.699   2.873   9.166 -1.0923  0.5403 -0.7869
 7910SOL    HW235364   0.611   2.792   9.250  0.1289 -0.5985 -0.3551
 7911SOL     OW35365   1.596   1.422  14.772 -0.4683 -0.0848  0.2924
 7911SOL    HW135366   1.653   1.454  14.702 -2.5726  2.5186 -0.2295
 7911SOL    HW235367   1.648   1.353  14.812 -0.2201 -0.5853 -0.8987
 7912SOL     OW35368   3.600   2.318   0.786 -0.4754 -0.2385  0.0650
 7912SOL    HW135369   3.537   2.352   0.850 -0.2568  1.6959 -0.7315
 7912SOL    HW235370   3.533   2.300   0.720  0.0705  1.8459 -1.0694
 7913SOL     OW35371   4.314   4.588   5.657 -0.2634 -0.6411  0.0846
 7913SOL    HW135372   4.228   4.570   5.619  0.0922  0.2196 -1.1257
 7913SOL    HW235373   4.372   4.538   5.600 -0.1635 -1.7310  1.1405
 7914SOL     OW35374   2.183   3.243   0.963  0.2183 -0.1434  0.1740
 7914SOL    HW135375   2.108   3.247   0.903  0.3785 -1.1340 -0.0888
 7914SOL    HW235376   2.232   3.323   0.940  2.6705 -0.9984  2.3854
 7915SOL     OW35377   1.479   0.702  12.728  0.5188 -0.2136 -0.3190
 7915SOL    HW135378   1.408   0.746  12.681 -0.7476 -0.4583  1.3698
 7915SOL    HW235379   1.503   0.755  12.804 -1.3221 -0.4145  0.4075
 7916SOL     OW35380   1.822   2.851   6.868 -0.0030  0.0494 -0.1007
 7916SOL    HW135381   1.761   2.778   6.870  2.9743 -2.4486 -1.3944
 7916SOL    HW235382   1.861   2.835   6.953 -2.1921 -2.1380  0.4848
 7917SOL     OW35383   1.111   3.700   2.698 -0.2852  0.0175 -0.3045
 7917SOL    HW135384   1.158   3.780   2.722 -1.2871  0.1383  1.2421
 7917SOL    HW235385   1.184   3.669   2.643  1.2360  0.2579  1.5804
 7918SOL     OW35386   2.128   4.274   7.933 -0.1580 -0.0928  0.0838
 7918SOL    HW135387   2.062   4.268   8.002  1.5250  1.2408  1.8089
 7918SOL    HW235388   2.078   4.286   7.852  0.3601 -0.9246 -0.3521
 7919SOL     OW35389   1.735   3.524   2.098 -0.1785  0.0141 -0.4153
 7919SOL    HW135390   1.664   3.536   2.161 -0.0387 -0.0017 -0.2551
 7919SOL    HW235391   1.789   3.457   2.141 -1.1914  0.2788  1.2927
 7920SOL     OW35392   4.566   1.052   8.600  0.7791 -0.1897 -0.3113
 7920SOL    HW135393   4.513   0.973   8.586  0.5448 -0.3233  1.2631
 7920SOL    HW235394   4.641   1.024   8.652  0.2527 -2.7995 -0.9604
 7921SOL     OW35395   4.557   0.413   4.345  0.1537 -0.6439  0.5422
 7921SOL    HW135396   4.642   0.456   4.331  0.3981 -1.6298 -1.0080
 7921SOL    HW235397   4.575   0.321   4.363 -2.3323 -1.3568 -0.6611
 7922SOL     OW35398   0.655   1.204  16.329 -0.3827 -0.3628  0.1826
 7922SOL    HW135399   0.668   1.288  16.284 -2.0520 -1.6555 -2.7018
 7922SOL    HW235400   0.655   1.140  16.258  0.2738 -0.5635  0.3687
 7923SOL     OW35401   2.918   1.450  13.086 -0.0852 -0.0978 -0.2490
 7923SOL    HW135402   2.964   1.532  13.070 -0.5599  0.3956  0.8995
 7923SOL    HW235403   2.916   1.403  13.003 -1.0806  1.9282 -1.3706
 7924SOL     OW35404   1.463   2.681   3.028  0.5104 -0.3246 -0.2395
 7924SOL    HW135405   1.416   2.673   2.945  0.4138 -1.9375 -0.0314
 7924SOL    HW235406   1.489   2.773   3.036  0.5978 -0.3678 -0.0332
 7925SOL     OW35407   0.749   3.553  10.107 -0.2534 -0.0803 -0.7259
 7925SOL    HW135408   0.734   3.603  10.187  1.0043  1.0325 -1.1951
 7925SOL    HW235409   0.719   3.620  10.046 -1.8106 -1.9091 -1.9730
 7926SOL     OW35410   3.582   2.945   2.636 -0.8354 -0.5078 -0.1840
 7926SOL    HW135411   3.661   2.967   2.587 -0.0958 -0.9851  0.7854
 7926SOL    HW235412   3.518   2.992   2.584 -1.5582  0.2401  1.3900
 7927SOL     OW35413   2.269   4.467  11.911 -0.5937  0.2792 -0.5181
 7927SOL    HW135414   2.273   4.552  11.954 -1.5284 -0.1057  0.3221
 7927SOL    HW235415   2.343   4.425  11.955 -0.8029 -1.5130 -1.8389
 7928SOL     OW35416   1.420   0.068   8.252 -0.3942  0.4705  0.1317
 7928SOL    HW135417   1.462   0.037   8.332  1.0271 -0.8237 -1.1058
 7928SOL    HW235418   1.363   4.731   8.228 -0.3886  0.2056  0.9244
 7929SOL     OW35419   1.007   2.879   7.884 -0.4321  0.0747  0.3775
 7929SOL    HW135420   1.043   2.808   7.936  0.0085  0.8240  1.1074
 7929SOL    HW235421   0.977   2.838   7.803  0.0988 -0.5988  0.5279
 7930SOL     OW35422   1.724   0.131   7.570 -0.2488 -0.0108  0.0049
 7930SOL    HW135423   1.746   0.224   7.567  1.3414 -0.4088 -0.6890
 7930SOL    HW235424   1.697   0.129   7.662  2.4720  1.8457  0.8261
 7931SOL     OW35425   0.009   1.747   6.461  0.4487 -0.6733 -0.4163
 7931SOL    HW135426   4.656   1.714   6.455  1.1523 -2.2396 -2.3830
 7931SOL    HW235427   0.052   1.663   6.450 -0.1573 -1.0273 -0.0960
 7932SOL     OW35428   2.644   1.370   8.213  0.0122 -0.2636 -0.0445
 7932SOL    HW135429   2.697   1.368   8.293 -1.1308 -0.0168  0.7300
 7932SOL    HW235430   2.689   1.426   8.150  0.5210 -3.3436 -2.4264
 7933SOL     OW35431   1.710   2.751   6.253 -0.5436 -0.1906  1.0865
 7933SOL    HW135432   1.633   2.776   6.303  0.5888  0.6648  2.3900
 7933SOL    HW235433   1.701   2.822   6.189 -0.3807 -4.0318 -3.2207
 7934SOL     OW35434   0.569   0.293   8.133 -0.4860 -0.6601  0.1619
 7934SOL    HW135435   0.607   0.268   8.049  0.1559 -1.0467  0.5698
 7934SOL    HW235436   0.519   0.371   8.112  0.9754  0.5972  1.2817
 7935SOL     OW35437   3.724   0.650   5.841  0.0865 -0.3286 -0.0173
 7935SOL    HW135438   3.798   0.666   5.783 -0.5244  0.5628 -0.5509
 7935SOL    HW235439   3.706   0.558   5.822  1.0170 -0.6415  0.6287
 7936SOL     OW35440   2.212   0.082   3.389 -0.4013 -0.1048  0.3156
 7936SOL    HW135441   2.149   0.119   3.451  3.0495  1.9935  2.5573
 7936SOL    HW235442   2.244   0.163   3.349  0.0434 -0.9578 -1.0729
 7937SOL     OW35443   1.131   1.145   5.569 -0.2887  0.0891  0.3692
 7937SOL    HW135444   1.054   1.118   5.520  1.0659 -2.2213 -0.4705
 7937SOL    HW235445   1.204   1.163   5.509 -1.1059 -1.8797 -1.1785
 7938SOL     OW35446   0.952   1.368   1.030  0.4751  0.2362 -0.7044
 7938SOL    HW135447   1.043   1.350   1.008  0.0130 -2.1946 -0.6217
 7938SOL    HW235448   0.961   1.446   1.085  0.7704  0.8559 -1.6337
 7939SOL     OW35449   2.527   3.640   1.806 -0.0545  0.4586  0.2420
 7939SOL    HW135450   2.440   3.679   1.791 -0.5120  0.1232  2.1010
 7939SOL    HW235451   2.554   3.645   1.714 -1.5208  0.1362 -0.2079
 7940SOL     OW35452   2.811   0.746   3.216 -0.0073  0.1699  0.1127
 7940SOL    HW135453   2.804   0.770   3.308  2.1470  0.7272  0.1176
 7940SOL    HW235454   2.834   0.654   3.230  0.1913  0.2582  0.3560
 7941SOL     OW35455   0.507   4.559  16.561  0.3465  0.0251  0.1823
 7941SOL    HW135456   0.487   4.652  16.549  1.1976 -0.1073 -2.1454
 7941SOL    HW235457   0.600   4.559  16.585  0.3650 -0.1005  0.1105
 7942SOL     OW35458   1.995   3.707  14.126 -0.0189  0.2586 -0.1443
 7942SOL    HW135459   1.927   3.640  14.131 -1.0172  1.3740  1.1362
 7942SOL    HW235460   1.969   3.770  14.193 -0.8929  0.3657 -0.5831
 7943SOL     OW35461   1.784   2.240   6.096  0.0491 -0.4428 -0.3117
 7943SOL    HW135462   1.779   2.179   6.169  1.3300 -0.3397 -0.1456
 7943SOL    HW235463   1.779   2.328   6.133 -0.5049  0.4904 -2.5534
 7944SOL     OW35464   0.928   3.318   3.147  0.0262  0.1143  0.5334
 7944SOL    HW135465   0.891   3.384   3.088  0.7202 -1.1702 -1.3483
 7944SOL    HW235466   0.850   3.267   3.169 -0.8038  2.4178  2.9712
 7945SOL     OW35467   1.893   1.940   1.722  0.3716 -0.1527  0.3950
 7945SOL    HW135468   1.882   1.890   1.641  1.2386  0.5900 -0.1875
 7945SOL    HW235469   1.860   1.884   1.791  0.5380 -2.3395 -1.3083
 7946SOL     OW35470   2.487   0.667  15.019 -0.2869 -0.7383 -0.0673
 7946SOL    HW135471   2.399   0.633  15.004 -1.2196  1.9680 -0.7271
 7946SOL    HW235472   2.486   0.746  14.966  1.3593 -0.9526 -0.4247
 7947SOL     OW35473   1.691   3.477   8.348  0.1481  0.3862  1.0968
 7947SOL    HW135474   1.686   3.426   8.429 -0.1212  1.6830  1.8791
 7947SOL    HW235475   1.602   3.511   8.337 -0.8997 -2.1597  1.7062
 7948SOL     OW35476   3.667   0.787   8.295  0.8878 -0.2712 -0.0998
 7948SOL    HW135477   3.687   0.829   8.211  3.2678 -0.7337  0.2159
 7948SOL    HW235478   3.586   0.744   8.267  0.7443  2.1199 -3.4068
 7949SOL     OW35479   1.448   4.494   3.286 -0.0138 -0.0181  0.5348
 7949SOL    HW135480   1.479   4.461   3.370  2.5181  0.1972 -0.3071
 7949SOL    HW235481   1.448   4.414   3.234 -1.6373 -0.8443  1.8335
 7950SOL     OW35482   0.231   0.941  16.464  0.2736 -0.3338 -0.1047
 7950SOL    HW135483   0.283   0.875  16.419 -1.7728 -1.1673 -1.2663
 7950SOL    HW235484   0.266   1.024  16.432 -0.1127 -0.8214 -1.8152
 7951SOL     OW35485   3.206   4.437   3.580 -0.0079  0.6992  0.0262
 7951SOL    HW135486   3.175   4.351   3.549 -0.0676 -0.0790  2.2823
 7951SOL    HW235487   3.288   4.422   3.627  1.0671  1.5889 -1.5599
 7952SOL     OW35488   2.525   1.546   9.253  0.0073 -0.1092 -0.8743
 7952SOL    HW135489   2.537   1.465   9.304 -0.0184  1.0974  1.0534
 7952SOL    HW235490   2.474   1.599   9.315 -0.6348 -3.0421  1.1169
 7953SOL     OW35491   2.999   0.958   2.851  0.2698  0.3064  0.0660
 7953SOL    HW135492   3.047   0.907   2.786 -1.1767 -0.2656 -0.5606
 7953SOL    HW235493   3.019   1.049   2.829  0.6016  0.5259  1.3104
 7954SOL     OW35494   4.116   3.527   4.568  0.6545  0.5886 -0.3220
 7954SOL    HW135495   4.154   3.599   4.517 -0.9795  1.2689 -0.5783
 7954SOL    HW235496   4.098   3.470   4.493  0.8168 -0.8689  0.7736
 7955SOL     OW35497   2.099   3.400   6.829 -0.9544  0.6445 -0.1688
 7955SOL    HW135498   2.093   3.361   6.916  0.3335  2.8538  0.8977
 7955SOL    HW235499   2.065   3.329   6.775  2.3526  0.7946 -2.4549
 7956SOL     OW35500   0.222   0.029  12.066  0.1983  0.1049 -0.1263
 7956SOL    HW135501   0.268   0.086  12.128 -0.1274  0.8462 -0.5631
 7956SOL    HW235502   0.135   0.016  12.104  0.8585 -0.1214  1.3339
 7957SOL     OW35503   2.624   3.264   4.750 -0.2779 -0.0447  0.4497
 7957SOL    HW135504   2.535   3.231   4.735  0.1340 -0.5376 -0.8277
 7957SOL    HW235505   2.623   3.354   4.719 -0.9615  0.2868  1.4106
 7958SOL     OW35506   2.452   0.509   6.019  0.1735  0.2422  0.0154
 7958SOL    HW135507   2.461   0.460   6.101 -1.5582 -0.5929 -0.2802
 7958SOL    HW235508   2.369   0.553   6.037 -0.0558  0.3868 -1.3930
 7959SOL     OW35509   1.092   4.009   3.960  0.3304 -0.3329 -0.0014
 7959SOL    HW135510   1.016   4.000   3.903 -0.0136  0.7031  0.2887
 7959SOL    HW235511   1.048   4.015   4.045 -1.5981 -2.0013 -0.8720
 7960SOL     OW35512   0.715   0.021   8.303  0.1688 -0.0590  0.2588
 7960SOL    HW135513   0.687   4.714   8.383 -0.9157 -0.3722 -0.2862
 7960SOL    HW235514   0.631   0.066   8.297  0.6347  0.6252 -1.0792
 7961SOL     OW35515   3.178   3.091   8.099  0.0676  0.1828  0.0088
 7961SOL    HW135516   3.186   3.157   8.168  1.4045  0.6501 -0.5972
 7961SOL    HW235517   3.223   3.145   8.034  2.3271 -1.0646  0.5290
 7962SOL     OW35518   2.524   0.334   8.820  0.1754  0.0712 -0.6468
 7962SOL    HW135519   2.564   0.420   8.828  1.4371 -0.4616 -1.1577
 7962SOL    HW235520   2.437   0.361   8.790  0.4412 -0.7851 -2.1773
 7963SOL     OW35521   2.427   2.110   2.776 -0.0563  0.0943  0.4694
 7963SOL    HW135522   2.516   2.143   2.760 -1.0834  1.2009 -2.8346
 7963SOL    HW235523   2.375   2.178   2.734  1.5631  0.7106 -0.5433
 7964SOL     OW35524   1.880   2.630  11.602 -0.5685  0.2352 -0.2939
 7964SOL    HW135525   1.866   2.656  11.694  1.4803 -1.0080  0.3586
 7964SOL    HW235526   1.944   2.560  11.616  0.7008  1.3357 -0.6673
 7965SOL     OW35527   3.683   3.057   4.926  0.4559 -0.2424  0.4944
 7965SOL    HW135528   3.640   3.108   4.995 -2.3584  0.8080 -2.0086
 7965SOL    HW235529   3.763   3.018   4.959  0.9912  1.4287  1.1850
 7966SOL     OW35530   4.022   1.857   9.375  0.0043  0.2099 -0.3031
 7966SOL    HW135531   3.962   1.823   9.441 -1.3713 -0.2379 -1.7933
 7966SOL    HW235532   4.108   1.856   9.418 -1.3584 -0.0534  2.3586
 7967SOL     OW35533   2.781   2.659   5.998  0.3529  0.6098 -0.6367
 7967SOL    HW135534   2.763   2.623   5.911 -0.3361  1.3180 -0.7879
 7967SOL    HW235535   2.875   2.642   6.002 -0.4005 -3.0825  1.3623
 7968SOL     OW35536   2.832   3.195  17.604 -0.0225  0.3132  0.6229
 7968SOL    HW135537   2.927   3.203  17.612  0.0681 -0.2827  0.1795
 7968SOL    HW235538   2.811   3.269  17.662 -0.3806  1.5120 -1.0388
 7969SOL     OW35539   2.457   0.200   1.688  0.1142 -0.4476  0.5757
 7969SOL    HW135540   2.415   0.266   1.743  0.7383  0.1486  0.3478
 7969SOL    HW235541   2.538   0.246   1.665  0.2371 -1.1078 -0.2946
 7970SOL     OW35542   1.684   2.052   2.014  0.1579 -0.3043 -0.3768
 7970SOL    HW135543   1.650   1.968   2.046  1.3040 -0.4804  0.3533
 7970SOL    HW235544   1.775   2.043   2.041  0.7484 -0.6175 -2.4610
 7971SOL     OW35545   1.467   1.413   4.657 -0.2626  0.2538 -0.9315
 7971SOL    HW135546   1.449   1.392   4.565 -1.7348  0.8502 -0.7792
 7971SOL    HW235547   1.429   1.500   4.671 -1.3401 -0.5169  0.9681
 7972SOL     OW35548   4.317   1.029  11.917  0.2654 -0.3132  0.2819
 7972SOL    HW135549   4.354   1.091  11.854 -4.1681  1.6639 -0.3672
 7972SOL    HW235550   4.287   0.961  11.856  1.3372 -0.2634 -0.2949
 7973SOL     OW35551   3.472   1.160   7.351  0.1612 -0.2269 -0.0614
 7973SOL    HW135552   3.488   1.138   7.259  2.3662 -1.0743  0.5355
 7973SOL    HW235553   3.382   1.129   7.359  1.0682 -2.9765 -0.4504
 7974SOL     OW35554   4.052   2.226   3.446 -0.2407  0.3372  0.2237
 7974SOL    HW135555   4.019   2.309   3.478 -1.4814 -0.0031 -0.1623
 7974SOL    HW235556   3.991   2.213   3.373  0.1960 -0.1206 -0.0546
 7975SOL     OW35557   3.917   2.153   4.711 -0.1814  0.1721 -0.4474
 7975SOL    HW135558   3.913   2.103   4.630  1.3164  1.2801 -1.2042
 7975SOL    HW235559   3.947   2.085   4.772  0.3654  0.9350  0.1382
 7976SOL     OW35560   2.004   0.919   5.103  0.4204  0.7150  0.3905
 7976SOL    HW135561   2.084   0.943   5.151  1.3998 -1.9619  0.0634
 7976SOL    HW235562   1.942   0.966   5.159  0.1182  1.6690 -0.7459
 7977SOL     OW35563   3.436   1.244  16.657 -0.1418  0.6413 -0.0291
 7977SOL    HW135564   3.372   1.176  16.676 -0.6354  1.1131  0.0120
 7977SOL    HW235565   3.487   1.244  16.738 -2.1427  2.7251  1.2364
 7978SOL     OW35566   1.866   0.495   6.554  0.3162 -0.1620  0.4138
 7978SOL    HW135567   1.785   0.447   6.538  0.1517  0.1756  0.2238
 7978SOL    HW235568   1.917   0.466   6.479 -1.0711 -2.7301  0.4360
 7979SOL     OW35569   2.727   1.033   4.546  0.4249  0.0487 -0.4601
 7979SOL    HW135570   2.780   0.970   4.498  2.0296  0.2220  1.0936
 7979SOL    HW235571   2.793   1.068   4.606 -0.8857 -0.6548  1.3881
 7980SOL     OW35572   0.268   0.254   5.113  0.0934  0.0504 -0.7910
 7980SOL    HW135573   0.330   0.321   5.140  0.4809 -0.0687 -1.3888
 7980SOL    HW235574   0.192   0.309   5.091  0.8868  2.0123  1.4515
 7981SOL     OW35575   1.048   1.306  11.930  0.8513  0.1059  0.1391
 7981SOL    HW135576   1.020   1.332  12.018 -1.7992  0.0276 -0.6955
 7981SOL    HW235577   1.125   1.362  11.935 -0.7784  2.2641  0.8408
 7982SOL     OW35578   2.882   3.224   0.662 -0.1812 -0.5761  0.1287
 7982SOL    HW135579   2.944   3.215   0.734 -1.0973  1.7183  1.2202
 7982SOL    HW235580   2.802   3.189   0.701 -1.1657  0.9255 -0.5524
 7983SOL     OW35581   1.482   0.538   9.585  0.3080 -0.3579 -0.4500
 7983SOL    HW135582   1.400   0.542   9.536  0.3975  2.3785 -0.3993
 7983SOL    HW235583   1.457   0.551   9.676  0.2006  0.7916 -0.6454
 7984SOL     OW35584   3.305   1.736  11.102  0.7301 -0.2540  0.2611
 7984SOL    HW135585   3.242   1.694  11.044 -0.0313  1.8346 -0.4203
 7984SOL    HW235586   3.380   1.676  11.099  0.5404 -0.5299  1.1121
 7985SOL     OW35587   2.852   2.941   8.835 -0.2327  0.1477  0.4006
 7985SOL    HW135588   2.815   2.918   8.920  0.1418 -0.7613  0.3216
 7985SOL    HW235589   2.919   2.874   8.818  0.8510  1.3903 -0.1957
 7986SOL     OW35590   3.201   3.909  14.960 -0.7138 -0.1942  0.6166
 7986SOL    HW135591   3.293   3.884  14.946 -1.2317 -2.1589  0.6676
 7986SOL    HW235592   3.156   3.854  14.896  0.6062 -1.9176  1.1450
 7987SOL     OW35593   0.320   3.336   9.336  0.3719 -0.0539 -0.4316
 7987SOL    HW135594   0.303   3.333   9.430  2.0852  0.0788 -0.1186
 7987SOL    HW235595   0.412   3.308   9.333  0.7105  0.6639  3.7462
 7988SOL     OW35596   1.643   0.819   6.800 -0.1512 -0.1956  0.2117
 7988SOL    HW135597   1.563   0.871   6.806  1.0071  1.8285 -1.6366
 7988SOL    HW235598   1.676   0.839   6.713 -1.3045  2.2448  0.3287
 7989SOL     OW35599   2.389   3.692   9.277 -0.9604  0.5481 -0.0484
 7989SOL    HW135600   2.329   3.643   9.333  2.3388 -4.4730 -0.8691
 7989SOL    HW235601   2.457   3.717   9.339  1.4657 -0.8379 -2.1500
 7990SOL     OW35602   2.000   3.026  16.954 -0.1091  0.1512  0.5221
 7990SOL    HW135603   2.017   3.114  16.922  0.2280 -0.7551 -1.8304
 7990SOL    HW235604   2.091   3.001  16.974 -0.7447 -0.5397  2.5183
 7991SOL     OW35605   0.556   3.238   8.776 -0.6530  0.7006 -0.5896
 7991SOL    HW135606   0.560   3.153   8.820 -2.9095  0.1100 -1.5495
 7991SOL    HW235607   0.476   3.237   8.725 -1.8438 -1.3210  1.3044
 7992SOL     OW35608   2.601   1.788  16.870  0.0244 -0.8016  0.0040
 7992SOL    HW135609   2.607   1.883  16.853  1.9323 -1.0903 -0.9350
 7992SOL    HW235610   2.669   1.782  16.936 -0.5751 -0.0504  0.6985
 7993SOL     OW35611   0.730   2.251   0.696 -0.0831  0.0328  0.4285
 7993SOL    HW135612   0.778   2.178   0.737  1.5460  0.9383  0.1207
 7993SOL    HW235613   0.729   2.218   0.606 -1.7599  0.5875  0.2537
 7994SOL     OW35614   2.929   2.530   7.195 -0.3474  0.0186 -0.5005
 7994SOL    HW135615   3.005   2.570   7.237 -1.2609 -0.7168  1.8633
 7994SOL    HW235616   2.967   2.460   7.142 -0.3750 -1.7343  1.7617
 7995SOL     OW35617   3.434   0.671   6.050 -0.5428  0.6870  0.3621
 7995SOL    HW135618   3.410   0.751   6.003 -0.7924  0.0052 -0.6770
 7995SOL    HW235619   3.384   0.684   6.130 -1.1723  1.3569 -0.1392
 7996SOL     OW35620   2.963   4.736  13.775 -0.2315  0.3962 -0.3987
 7996SOL    HW135621   3.027   4.666  13.790 -0.6076  0.5433  1.8805
 7996SOL    HW235622   2.931   0.008  13.864  0.3520 -2.5847  0.1317
 7997SOL     OW35623   4.556   1.818   7.094 -0.1258 -0.1118  0.5107
 7997SOL    HW135624   4.558   1.836   7.000  1.5280  2.4987  1.0460
 7997SOL    HW235625   4.499   1.742   7.088  0.1765 -0.2169 -1.1659
 7998SOL     OW35626   2.358   3.190   4.762  0.3304 -0.3905  0.3030
 7998SOL    HW135627   2.351   3.099   4.791 -2.1806 -0.7621 -1.4835
 7998SOL    HW235628   2.265   3.213   4.763  0.4495  0.0071  1.9195
 7999SOL     OW35629   3.144   2.453   7.606 -0.0154 -0.4009  0.4144
 7999SOL    HW135630   3.131   2.465   7.701  1.4728 -0.1383  0.5902
 7999SOL    HW235631   3.178   2.540   7.584 -1.2609 -0.4520 -1.6371
 8000SOL     OW35632   3.448   2.238   0.481  0.1883  0.3387 -0.0018
 8000SOL    HW135633   3.428   2.252   0.389  3.6121 -0.1633 -0.8032
 8000SOL    HW235634   3.382   2.291   0.527  1.6718  1.0791  1.2424
 8001SOL     OW35635   1.272   3.867   1.108  0.6086 -0.1728 -0.1125
 8001SOL    HW135636   1.209   3.851   1.178 -0.1436  1.2986 -0.4658
 8001SOL    HW235637   1.354   3.836   1.147 -0.5202 -2.9162  0.1223
 8002SOL     OW35638   2.140   1.144  14.054  0.1606 -0.3465 -0.0889
 8002SOL    HW135639   2.233   1.166  14.047 -0.2055  1.2818 -0.0199
 8002SOL    HW235640   2.118   1.074  13.993  0.5882 -0.9218  0.4248
 8003SOL     OW35641   3.684   4.161   6.443 -0.4369 -0.3463 -0.1959
 8003SOL    HW135642   3.743   4.154   6.368  0.6055  0.7258  0.5222
 8003SOL    HW235643   3.717   4.090   6.496 -1.3327 -0.1696  0.6078
 8004SOL     OW35644   2.348   3.457  12.445 -0.2224 -0.2261 -0.6767
 8004SOL    HW135645   2.429   3.506  12.434 -0.9528  0.6468 -2.0678
 8004SOL    HW235646   2.296   3.501  12.378 -1.3755  1.4810  1.3169
 8005SOL     OW35647   0.735   0.435   8.404 -0.1207 -0.2347 -0.1136
 8005SOL    HW135648   0.649   0.452   8.367 -0.4143 -1.0704  0.1837
 8005SOL    HW235649   0.711   0.353   8.447  1.0002  0.3751  1.6425
 8006SOL     OW35650   3.332   2.662   2.586 -0.6375  0.2890  0.2137
 8006SOL    HW135651   3.304   2.735   2.641 -4.4035 -0.4552 -0.7814
 8006SOL    HW235652   3.249   2.638   2.545 -0.0559 -0.2103 -0.6963
 8007SOL     OW35653   3.331   0.025  17.061 -0.4254  0.4558  0.5751
 8007SOL    HW135654   3.250   0.011  17.013 -0.4847 -1.9189  1.3794
 8007SOL    HW235655   3.400   0.024  16.994 -2.1635  0.4626 -1.1937
 8008SOL     OW35656   4.716   0.249   6.818  0.0993  0.2682 -0.3258
 8008SOL    HW135657   4.730   0.321   6.880  0.9557 -0.8840  0.8219
 8008SOL    HW235658   4.626   0.231   6.846 -0.1258  1.3242 -0.3804
 8009SOL     OW35659   1.932   1.403   9.268 -0.1223 -0.5061  0.6174
 8009SOL    HW135660   1.872   1.473   9.295 -0.2530 -0.1673 -0.5486
 8009SOL    HW235661   1.957   1.440   9.183 -0.9002 -0.6999  0.3021
 8010SOL     OW35662   2.091   3.586   8.766  0.3037  0.2967 -0.1234
 8010SOL    HW135663   2.067   3.629   8.684 -1.6217 -1.4406 -0.4543
 8010SOL    HW235664   2.019   3.526   8.784 -0.1129  0.8508  0.0788
 8011SOL     OW35665   1.609   2.357   9.842  0.4151  0.3334 -0.2977
 8011SOL    HW135666   1.535   2.412   9.816  1.3611  1.2978 -0.9264
 8011SOL    HW235667   1.620   2.306   9.762 -0.8579  0.3840 -0.5142
 8012SOL     OW35668   2.846   0.018  10.717  0.1791  0.0076 -0.2907
 8012SOL    HW135669   2.799   0.028  10.634 -1.0416 -0.8095  0.2964
 8012SOL    HW235670   2.931   0.005  10.675  0.8002 -0.7114  1.2102
 8013SOL     OW35671   1.369   1.691  10.099 -0.4241 -0.3249 -0.3066
 8013SOL    HW135672   1.454   1.733  10.117 -0.1179 -0.6118 -1.0894
 8013SOL    HW235673   1.359   1.686  10.004  0.7624  1.8007 -0.5580
 8014SOL     OW35674   1.818   1.882   1.276  0.1472 -0.8021 -0.1656
 8014SOL    HW135675   1.783   1.914   1.193 -2.6703 -2.5568  0.3780
 8014SOL    HW235676   1.892   1.941   1.291 -1.3369  1.1869 -0.7927
 8015SOL     OW35677   3.091   1.515  12.878  0.1273  0.0313 -0.3760
 8015SOL    HW135678   3.097   1.564  12.796  1.5414 -0.2873 -0.4631
 8015SOL    HW235679   3.127   1.427  12.865 -1.9558 -0.7072 -1.1104
 8016SOL     OW35680   1.870   2.722   5.707 -0.1483 -0.2672  0.5509
 8016SOL    HW135681   1.889   2.689   5.620 -0.2602 -0.5433  0.6295
 8016SOL    HW235682   1.788   2.770   5.694  0.5263  0.9874  0.9038
 8017SOL     OW35683   1.502   2.828   5.628  0.0592  0.1922  0.2081
 8017SOL    HW135684   1.481   2.735   5.615  2.2982 -0.2702 -0.0117
 8017SOL    HW235685   1.475   2.849   5.717 -0.1709  1.9130 -0.2648
 8018SOL     OW35686   1.869   0.041   2.321 -0.7925 -0.5913  0.1160
 8018SOL    HW135687   1.854   4.689   2.290 -1.2547 -0.9340  1.3265
 8018SOL    HW235688   1.957   0.046   2.359 -0.9721  3.0391  0.1147
 8019SOL     OW35689   3.246   2.229   7.908  0.4525 -0.1046  0.2775
 8019SOL    HW135690   3.191   2.289   7.959  0.3568 -0.2031  0.2930
 8019SOL    HW235691   3.187   2.154   7.894  2.0360 -1.9554  3.4563
 8020SOL     OW35692   2.934   2.660  14.024  0.6107  0.6411 -0.1328
 8020SOL    HW135693   3.020   2.645  13.984  0.2721  1.3500 -1.1213
 8020SOL    HW235694   2.912   2.574  14.060  0.8936  0.3715 -0.6054
 8021SOL     OW35695   2.125   2.364   1.712  0.1244 -0.2811 -0.6109
 8021SOL    HW135696   2.162   2.387   1.798 -1.2456  1.0828 -0.3959
 8021SOL    HW235697   2.042   2.323   1.734 -1.0622  3.4456  1.7115
 8022SOL     OW35698   0.547   4.695  12.766  0.0110  0.2850  0.4695
 8022SOL    HW135699   0.539   4.734  12.853  1.4099  0.3012  0.5992
 8022SOL    HW235700   0.490   0.012  12.712  2.8601  1.9469 -0.8865
 8023SOL     OW35701   3.297   4.131   5.074 -0.0162 -0.0618 -0.1418
 8023SOL    HW135702   3.251   4.057   5.115 -2.4792  0.6758 -1.5877
 8023SOL    HW235703   3.338   4.091   4.997  0.0060 -0.2815 -0.0153
 8024SOL     OW35704   3.440   3.094   5.837  0.6443 -0.1562  0.1458
 8024SOL    HW135705   3.499   3.168   5.851 -1.0600  0.8871  1.7954
 8024SOL    HW235706   3.362   3.140   5.806  0.6009  0.6835  1.5160
 8025SOL     OW35707   0.948   0.897  16.154 -0.1003 -0.4146  0.7684
 8025SOL    HW135708   0.892   0.944  16.216  0.2968  0.7810  0.2131
 8025SOL    HW235709   0.892   0.883  16.077  2.3934 -0.5369 -1.0150
 8026SOL     OW35710   1.133   1.095   2.880  0.1959  0.7490  0.0469
 8026SOL    HW135711   1.051   1.140   2.901 -0.4805  0.1622 -1.3041
 8026SOL    HW235712   1.128   1.013   2.930 -2.1782 -0.1349 -1.6003
 8027SOL     OW35713   2.635   2.894   3.575  0.0196 -0.0469 -0.2336
 8027SOL    HW135714   2.597   2.806   3.574 -0.3662  0.1255 -0.5607
 8027SOL    HW235715   2.647   2.906   3.669 -1.2408 -2.0220  0.1728
 8028SOL     OW35716   2.930   1.727   6.187  0.0294  0.5039  0.2774
 8028SOL    HW135717   2.892   1.644   6.215 -1.5070  0.9273 -0.5655
 8028SOL    HW235718   2.968   1.773   6.262 -2.3081  1.4454  0.8893
 8029SOL     OW35719   3.878   0.047  17.262 -0.5714 -0.3116  0.0540
 8029SOL    HW135720   3.888   0.123  17.318 -2.1704 -0.4235  0.4849
 8029SOL    HW235721   3.785   0.037  17.244 -1.1127 -0.9736  3.1637
 8030SOL     OW35722   0.745   2.224   9.414  0.2909  0.7933 -0.2225
 8030SOL    HW135723   0.788   2.161   9.356  1.1671  2.1575 -1.0846
 8030SOL    HW235724   0.826   2.234   9.464 -0.4323 -0.6437  1.2259
 8031SOL     OW35725   3.240   2.469   6.664  0.2644 -0.2945 -0.2539
 8031SOL    HW135726   3.302   2.535   6.633  1.2596 -0.3585  1.6233
 8031SOL    HW235727   3.287   2.428   6.736  1.1462  0.5641 -0.3343
 8032SOL     OW35728   3.094   3.778   3.864  0.1907 -0.5971 -0.3126
 8032SOL    HW135729   3.141   3.857   3.841  0.2957 -1.0260 -1.5743
 8032SOL    HW235730   3.045   3.804   3.942 -1.6814  1.1061 -2.0582
 8033SOL     OW35731   2.335   2.410   4.818  0.0246 -0.0945 -0.3555
 8033SOL    HW135732   2.393   2.480   4.788 -0.5693  0.5832  0.0480
 8033SOL    HW235733   2.399   2.342   4.836  0.9083  0.5203 -1.1880
 8034SOL     OW35734   1.933   2.649   8.052 -0.6595  0.0723 -0.6250
 8034SOL    HW135735   1.959   2.740   8.069  2.6327 -1.2102  1.1387
 8034SOL    HW235736   1.924   2.613   8.140 -1.1908 -0.4733 -0.9025
 8035SOL     OW35737   3.051   1.587   8.665  0.5332  0.1000  0.2118
 8035SOL    HW135738   3.003   1.529   8.723 -0.2588  0.0041 -0.5430
 8035SOL    HW235739   3.124   1.532   8.635 -0.7494 -1.0719 -0.7404
 8036SOL     OW35740   0.473   2.322   9.216 -0.0437 -0.2110  0.7319
 8036SOL    HW135741   0.566   2.337   9.236  0.4302 -0.2851 -1.4140
 8036SOL    HW235742   0.454   2.264   9.290 -0.8949  1.6524  1.9365
 8037SOL     OW35743   3.471   0.447   0.320  0.0760 -0.5074 -0.8087
 8037SOL    HW135744   3.416   0.402   0.256 -0.1168 -0.9496 -0.3392
 8037SOL    HW235745   3.478   0.374   0.382 -1.5361 -0.1914 -0.2594
 8038SOL     OW35746   1.524   4.312  14.059  0.0559 -0.1167  0.7325
 8038SOL    HW135747   1.594   4.303  13.995 -0.2348  2.6985  0.0306
 8038SOL    HW235748   1.465   4.240  14.036 -0.2101  0.0788  0.8002
 8039SOL     OW35749   3.639   3.441   3.716 -0.4791  0.0813  0.7396
 8039SOL    HW135750   3.557   3.463   3.761 -1.1124 -1.7690  0.5130
 8039SOL    HW235751   3.656   3.348   3.735  0.3861  0.3796  1.4367
 8040SOL     OW35752   1.957   0.348   3.903  0.4122 -0.2909 -0.4081
 8040SOL    HW135753   1.896   0.418   3.878 -1.6862 -1.2115  2.0375
 8040SOL    HW235754   1.996   0.374   3.986 -0.0023  1.2196 -0.6824
 8041SOL     OW35755   4.312   1.259  10.531 -0.0348  0.0190 -0.9078
 8041SOL    HW135756   4.246   1.191  10.544  0.9265 -0.9499 -1.0190
 8041SOL    HW235757   4.272   1.320  10.470 -0.6067  1.3707  0.8257
 8042SOL     OW35758   3.567   3.750  13.037 -0.3531 -0.0203  0.3097
 8042SOL    HW135759   3.496   3.703  13.079 -0.8563 -0.2870 -0.8319
 8042SOL    HW235760   3.627   3.682  13.006 -0.2193  0.3877 -0.3431
 8043SOL     OW35761   1.080   3.775  17.443 -0.6009  0.1325  1.0740
 8043SOL    HW135762   0.985   3.784  17.430 -0.7259 -1.1562  1.0379
 8043SOL    HW235763   1.085   3.712  17.516  0.8669  1.1773  1.8577
 8044SOL     OW35764   4.527   3.444   3.639  0.2902 -0.0418  0.5512
 8044SOL    HW135765   4.616   3.480   3.638  0.4960 -0.5235  1.2941
 8044SOL    HW235766   4.482   3.514   3.687 -1.3687 -3.8194  4.4990
 8045SOL     OW35767   0.508   0.567   8.846 -0.3873 -0.1717  0.4052
 8045SOL    HW135768   0.469   0.492   8.892  0.7100 -2.3976 -2.2790
 8045SOL    HW235769   0.599   0.538   8.847  0.6206  3.0297 -1.6409
 8046SOL     OW35770   2.348   0.717   3.220 -0.1272  0.6266  0.2214
 8046SOL    HW135771   2.414   0.719   3.151  0.2563 -1.2645  0.5204
 8046SOL    HW235772   2.313   0.629   3.204  2.2907  0.0201 -1.7768
 8047SOL     OW35773   1.814   0.427   0.197 -0.2817  0.0610  0.2950
 8047SOL    HW135774   1.806   0.424   0.102  0.1341  1.5341  0.2066
 8047SOL    HW235775   1.777   0.340   0.215  2.5432 -1.1740  0.0424
 8048SOL     OW35776   1.261   0.215  14.028  0.7245  0.1127  0.5623
 8048SOL    HW135777   1.303   0.199  13.943 -0.1987 -0.9643  0.3117
 8048SOL    HW235778   1.312   0.156  14.084 -0.9768 -1.7265  0.1560
 8049SOL     OW35779   3.176   1.488   6.196 -0.1582  0.2525 -0.2409
 8049SOL    HW135780   3.151   1.442   6.276 -1.4785  0.4313 -0.5662
 8049SOL    HW235781   3.272   1.482   6.202 -0.2311 -1.1001 -0.3192
 8050SOL     OW35782   4.017   1.502   3.533 -0.3611 -0.2861  0.2870
 8050SOL    HW135783   4.032   1.581   3.586 -1.1939  1.1330 -1.5958
 8050SOL    HW235784   4.087   1.449   3.572 -0.3056 -0.7547 -0.4409
 8051SOL     OW35785   4.545   2.381  10.588 -0.8509 -0.3719  0.0793
 8051SOL    HW135786   4.588   2.441  10.650  0.0444 -2.4105  1.4321
 8051SOL    HW235787   4.559   2.297  10.631  1.8412  0.4651  0.8116
 8052SOL     OW35788   0.671   0.309   1.760 -0.4708  0.1598 -0.1076
 8052SOL    HW135789   0.620   0.275   1.834  0.0151  1.8673  0.9837
 8052SOL    HW235790   0.598   0.322   1.700  0.4294  1.4322 -0.9098
 8053SOL     OW35791   0.153   3.481  13.954 -0.6995  0.3337  0.1738
 8053SOL    HW135792   0.160   3.467  13.860 -0.5625 -1.9965  0.5262
 8053SOL    HW235793   0.140   3.392  13.987  1.8212  1.1827  3.5006
 8054SOL     OW35794   0.592   2.150   8.841  0.2964  0.0945 -0.3049
 8054SOL    HW135795   0.579   2.112   8.755  0.5831 -3.5288  1.2784
 8054SOL    HW235796   0.680   2.118   8.856 -1.2126 -2.6570  2.6664
 8055SOL     OW35797   0.947   3.606   2.477  0.0656  0.1912 -0.6468
 8055SOL    HW135798   1.011   3.669   2.511  1.0216 -0.4638 -1.2380
 8055SOL    HW235799   0.957   3.630   2.385  0.7333  0.7632 -0.4341
 8056SOL     OW35800   4.663   0.153   0.630 -0.4900 -0.0117 -0.1222
 8056SOL    HW135801   4.642   0.237   0.588 -0.3901  0.4286  0.7117
 8056SOL    HW235802   4.727   0.115   0.570  0.3923  2.0541 -0.4946
 8057SOL     OW35803   3.924   3.925   4.488  0.2209  0.3689 -0.0453
 8057SOL    HW135804   3.945   4.018   4.479  1.2354  0.0761 -0.6807
 8057SOL    HW235805   3.856   3.914   4.422 -0.7053  0.6425  0.8663
 8058SOL     OW35806   1.954   2.536   7.436  0.5980 -0.0756 -0.6017
 8058SOL    HW135807   1.907   2.453   7.434  1.4103 -0.5484 -0.2466
 8058SOL    HW235808   1.999   2.541   7.351 -0.9334 -3.0469 -1.6096
 8059SOL     OW35809   3.577   1.142   8.379  0.1157  0.1134 -0.7246
 8059SOL    HW135810   3.513   1.147   8.308  0.6676 -0.7112 -1.2686
 8059SOL    HW235811   3.620   1.226   8.367 -0.3457  0.5874  0.9022
 8060SOL     OW35812   3.765   0.885   0.313 -0.2782  0.6116 -0.7131
 8060SOL    HW135813   3.731   0.900   0.225 -0.1270  0.9232 -0.7179
 8060SOL    HW235814   3.692   0.915   0.367 -0.4383 -0.5574 -0.2563
 8061SOL     OW35815   2.049   0.707   2.174 -0.6548  0.3715  0.1025
 8061SOL    HW135816   2.040   0.626   2.124  3.8088 -0.5158  0.7145
 8061SOL    HW235817   1.978   0.752   2.128 -1.3997 -0.6153  0.3025
 8062SOL     OW35818   0.912   2.081   6.866 -0.2166  0.9373  0.1408
 8062SOL    HW135819   0.999   2.092   6.906  0.1905  1.5926 -0.9404
 8062SOL    HW235820   0.861   2.162   6.879 -0.0590  1.1706 -0.7182
 8063SOL     OW35821   1.615   0.991  10.872  0.5160  0.1788 -0.0236
 8063SOL    HW135822   1.567   1.004  10.790  2.5408 -1.0044 -1.3852
 8063SOL    HW235823   1.541   1.007  10.930 -0.7615 -0.1548 -1.5706
 8064SOL     OW35824   0.694   1.870   5.189 -0.4521  0.3936 -0.2943
 8064SOL    HW135825   0.769   1.876   5.247 -0.0668 -1.4336 -0.6093
 8064SOL    HW235826   0.739   1.901   5.111 -1.6774  1.5452 -0.5390
 8065SOL     OW35827   1.135   2.486   3.007  0.2327  0.0812  0.2184
 8065SOL    HW135828   1.220   2.472   3.049  0.3703 -2.0954 -0.7808
 8065SOL    HW235829   1.150   2.446   2.921 -0.6500  1.1321 -0.4140
 8066SOL     OW35830   0.321   1.944   3.435  1.0963 -0.2807 -0.5567
 8066SOL    HW135831   0.263   1.883   3.392 -1.6939  0.0537  2.7419
 8066SOL    HW235832   0.335   1.899   3.518 -0.0518 -0.2965 -0.3761
 8067SOL     OW35833   4.082   2.670   0.140 -0.2377  0.2222 -0.2140
 8067SOL    HW135834   4.142   2.600   0.118 -0.0540  0.5046 -0.6214
 8067SOL    HW235835   4.081   2.723   0.060 -1.2522  0.0502 -0.3175
 8068SOL     OW35836   3.850   3.740   8.895 -0.4944 -0.1956 -0.8352
 8068SOL    HW135837   3.861   3.800   8.968 -3.7284  0.4091 -0.8400
 8068SOL    HW235838   3.792   3.673   8.931 -1.3116  1.4562  0.9126
 8069SOL     OW35839   3.775   1.867   2.514 -0.4043  0.3823 -0.6992
 8069SOL    HW135840   3.700   1.894   2.566 -0.7113  0.5516 -1.2332
 8069SOL    HW235841   3.849   1.866   2.575  1.3607 -0.5387 -2.8266
 8070SOL     OW35842   2.789   3.191   5.683  0.1729 -0.0157 -0.2218
 8070SOL    HW135843   2.703   3.189   5.640  0.0976  2.0657 -0.1728
 8070SOL    HW235844   2.843   3.215   5.608  1.4152  0.3011  0.7742
 8071SOL     OW35845   3.400   0.063   2.752  0.1497 -0.2566 -0.1746
 8071SOL    HW135846   3.455   0.058   2.674 -0.1955  1.8510 -0.5502
 8071SOL    HW235847   3.406   4.715   2.796 -0.3489 -0.7432 -1.0594
 8072SOL     OW35848   3.915   0.407   7.928  0.7470 -0.1000 -0.2364
 8072SOL    HW135849   3.829   0.445   7.945  1.0211 -0.6104  2.3311
 8072SOL    HW235850   3.910   0.321   7.969 -0.4026  1.4464  2.8531
 8073SOL     OW35851   1.965   2.641   6.056 -0.3797  0.0346 -0.2563
 8073SOL    HW135852   2.031   2.571   6.055  0.3754  0.7294  2.0853
 8073SOL    HW235853   2.022   2.717   6.060 -0.0673 -0.4254  3.6221
 8074SOL     OW35854   4.385   2.143   5.933  0.5893 -0.1207 -0.0499
 8074SOL    HW135855   4.310   2.093   5.900 -0.0232  1.6312 -1.3252
 8074SOL    HW235856   4.429   2.165   5.851  1.1322 -2.2616 -0.3342
 8075SOL     OW35857   0.248   4.621  17.044 -0.3705  0.2017  0.5178
 8075SOL    HW135858   0.243   4.714  17.067  3.4994  0.6351 -0.3692
 8075SOL    HW235859   0.264   4.633  16.951 -2.3915 -0.9304  0.0156
 8076SOL     OW35860   3.151   0.518   6.562  1.2995  0.0570 -0.0194
 8076SOL    HW135861   3.213   0.452   6.593  0.3862 -0.7075  0.1768
 8076SOL    HW235862   3.139   0.485   6.473 -1.4045  1.8470 -0.3208
 8077SOL     OW35863   1.049   0.767   5.683 -0.0568  0.0787  0.2251
 8077SOL    HW135864   0.996   0.741   5.758  0.1377  0.5361  0.5204
 8077SOL    HW235865   1.114   0.819   5.730 -0.5185 -0.0178  0.9693
 8078SOL     OW35866   2.100   0.461  12.700  0.0014  0.1439  0.1092
 8078SOL    HW135867   2.103   0.435  12.792 -0.8071 -2.6494 -0.6449
 8078SOL    HW235868   2.193   0.453  12.678  0.4271 -0.8848  2.2523
 8079SOL     OW35869   0.155   0.301   0.483  0.1146  0.4344  0.3871
 8079SOL    HW135870   0.067   0.327   0.509  0.8084  1.0540  2.1352
 8079SOL    HW235871   0.212   0.371   0.516  0.3221  0.3180  0.2814
 8080SOL     OW35872   2.573   3.240  13.984  0.0591  0.3356  0.1106
 8080SOL    HW135873   2.508   3.174  13.960 -0.4716  0.8978  0.0072
 8080SOL    HW235874   2.608   3.200  14.064  1.0613  2.1598  0.5750
 8081SOL     OW35875   3.545   2.691  16.077 -0.1643  0.1045 -0.2304
 8081SOL    HW135876   3.638   2.679  16.056 -0.5712 -0.8699 -1.4707
 8081SOL    HW235877   3.546   2.768  16.134  3.5419  2.6021 -3.6560
 8082SOL     OW35878   3.674   2.636   1.007  0.8447 -0.2561  0.1324
 8082SOL    HW135879   3.718   2.574   0.949 -0.0945 -0.2126 -0.6311
 8082SOL    HW235880   3.587   2.599   0.990  0.3491  0.3591  1.2699
 8083SOL     OW35881   0.943   0.262   3.277  0.1142  0.1411  0.5571
 8083SOL    HW135882   0.965   0.178   3.318 -0.0761  0.4707  1.3410
 8083SOL    HW235883   0.953   0.325   3.348  0.1146  1.9043 -1.0073
 8084SOL     OW35884   0.616   2.966   4.965 -0.0917 -0.0193 -0.0553
 8084SOL    HW135885   0.590   2.874   4.957  0.9703 -0.3229 -0.1096
 8084SOL    HW235886   0.606   2.970   5.060  1.7099 -1.8798  0.2395
 8085SOL     OW35887   1.458   3.444   6.191  0.1491 -0.2080 -0.0345
 8085SOL    HW135888   1.436   3.515   6.131  0.8386 -1.7114 -2.0680
 8085SOL    HW235889   1.473   3.490   6.273 -3.2980  2.5426 -0.9493
 8086SOL     OW35890   3.963   0.455   5.778  0.0284 -0.6029 -0.3449
 8086SOL    HW135891   3.971   0.490   5.866  0.3628 -0.4797 -0.4242
 8086SOL    HW235892   4.005   0.369   5.781 -1.3027 -1.2677 -0.5659
 8087SOL     OW35893   2.142   1.930  12.797 -0.2248  0.6463  0.1584
 8087SOL    HW135894   2.071   1.877  12.833  2.5265 -2.2284  1.2906
 8087SOL    HW235895   2.201   1.867  12.755  1.2657  2.3538 -0.3247
 8088SOL     OW35896   3.308   4.339  12.088 -0.6406  0.2486 -0.0885
 8088SOL    HW135897   3.390   4.372  12.050 -0.8039 -1.4010 -1.8803
 8088SOL    HW235898   3.270   4.294  12.012 -1.5511 -0.4607  0.7926
 8089SOL     OW35899   2.229   3.561   2.947 -0.3442  0.0405 -0.3839
 8089SOL    HW135900   2.278   3.643   2.946  0.5115 -0.4718 -1.5915
 8089SOL    HW235901   2.198   3.566   2.856 -2.0517  1.3161  0.2807
 8090SOL     OW35902   1.828   1.870  15.021 -0.0690  0.3926 -0.3317
 8090SOL    HW135903   1.919   1.860  14.992 -0.3237 -0.3262 -0.9099
 8090SOL    HW235904   1.853   1.930  15.091  0.3051 -0.2756  0.1114
 8091SOL     OW35905   0.863   4.256   9.575  0.0639  0.1336  0.2194
 8091SOL    HW135906   0.769   4.254   9.589  0.3487  2.5057  2.3867
 8091SOL    HW235907   0.875   4.274   9.481  1.0333 -0.4454  0.2380
 8092SOL     OW35908   0.221   3.292   2.920 -0.0590 -0.3666  0.1602
 8092SOL    HW135909   0.189   3.356   2.856 -0.0388 -1.6101 -1.0959
 8092SOL    HW235910   0.139   3.269   2.965  0.0724 -0.6199  0.2686
 8093SOL     OW35911   1.237   4.362   9.723 -0.5342  0.0473 -0.0735
 8093SOL    HW135912   1.252   4.456   9.727 -0.1151  0.0525 -1.9063
 8093SOL    HW235913   1.322   4.328   9.753 -0.0897  3.0292  2.1334
 8094SOL     OW35914   1.879   1.229   4.562 -0.3393  0.3371 -0.2451
 8094SOL    HW135915   1.966   1.204   4.533  0.3579 -0.2614  2.3717
 8094SOL    HW235916   1.882   1.233   4.657  0.7805 -0.8984 -0.2292
 8095SOL     OW35917   2.045   3.836  17.239  0.1645 -0.0296  0.3029
 8095SOL    HW135918   2.106   3.762  17.239 -1.8842 -1.7281 -0.9710
 8095SOL    HW235919   2.015   3.836  17.148  0.6880  1.8697  0.1307
 8096SOL     OW35920   0.900   3.352   8.630 -0.2431  0.2361  0.0351
 8096SOL    HW135921   0.891   3.307   8.714  2.5546 -0.7955 -0.2152
 8096SOL    HW235922   0.829   3.415   8.643  1.0404  1.1077  2.7972
 8097SOL     OW35923   3.873   3.116   1.952 -0.0148 -0.0113  0.0415
 8097SOL    HW135924   3.894   3.057   1.879 -1.2032  0.4522 -0.6590
 8097SOL    HW235925   3.920   3.195   1.924 -0.5031 -0.0169 -0.7916
 8098SOL     OW35926   0.207   4.624   0.454  0.2082  0.0619 -0.0254
 8098SOL    HW135927   0.221   4.530   0.440 -0.0193  0.4548 -2.8397
 8098SOL    HW235928   0.222   4.658   0.366  1.3942 -0.6929 -0.1104
 8099SOL     OW35929   0.875   2.168   4.460  0.2772 -1.0309  0.5232
 8099SOL    HW135930   0.933   2.093   4.448  1.9903  0.3803  0.0577
 8099SOL    HW235931   0.807   2.142   4.522  0.9952  1.1047  2.1858
 8100SOL     OW35932   0.649   2.589  10.053  0.1997 -0.1614 -0.0707
 8100SOL    HW135933   0.736   2.630  10.058 -0.6162  1.7026 -1.5702
 8100SOL    HW235934   0.645   2.554  10.142  0.5209 -1.3395 -0.5116
 8101SOL     OW35935   0.824   3.718   3.303  0.0682 -0.1771  0.1807
 8101SOL    HW135936   0.881   3.658   3.351 -0.5282 -0.6801  0.2628
 8101SOL    HW235937   0.753   3.671   3.260  0.4107 -1.4696  1.0144
 8102SOL     OW35938   0.969   2.191   2.204  0.0551 -0.0452  0.4254
 8102SOL    HW135939   0.990   2.180   2.111 -0.9731 -2.9508  0.5239
 8102SOL    HW235940   0.926   2.109   2.228  0.2600 -0.1965  0.2847
 8103SOL     OW35941   2.440   3.103   7.880  0.3353 -0.3394 -0.0233
 8103SOL    HW135942   2.437   3.119   7.785  0.4498 -2.0137 -0.3195
 8103SOL    HW235943   2.443   3.007   7.889  3.0553  0.0063  2.6358
 8104SOL     OW35944   0.719   4.374  10.437  0.3985  0.2259  0.6633
 8104SOL    HW135945   0.783   4.446  10.435 -0.4082  0.8876 -1.1467
 8104SOL    HW235946   0.723   4.346  10.345 -2.8607 -1.0905  0.9347
 8105SOL     OW35947   0.343   0.391   3.234  0.2278  0.4181 -0.0766
 8105SOL    HW135948   0.277   0.388   3.303  1.9777 -0.2164  1.5959
 8105SOL    HW235949   0.347   0.298   3.212 -0.4462 -0.0402  1.7064
 8106SOL     OW35950   0.933   2.823  13.878 -0.0091 -0.2305 -0.7807
 8106SOL    HW135951   0.881   2.837  13.957  0.7028  1.5098 -0.6156
 8106SOL    HW235952   1.003   2.888  13.886  0.7810 -0.7691 -3.3107
 8107SOL     OW35953   3.145   0.619   1.364 -0.4237 -0.8229  0.0052
 8107SOL    HW135954   3.224   0.607   1.416  0.7581 -0.4509 -1.6946
 8107SOL    HW235955   3.089   0.547   1.395  0.9611 -1.1928  1.6238
 8108SOL     OW35956   0.119   4.238   5.687 -0.9014 -0.1838 -0.0454
 8108SOL    HW135957   0.104   4.224   5.781  3.1169  0.3815  0.6790
 8108SOL    HW235958   0.054   4.181   5.648 -1.6509 -0.8381  2.1423
 8109SOL     OW35959   2.165   3.322   6.187  0.5589  0.3769  0.4992
 8109SOL    HW135960   2.241   3.348   6.135  0.7297 -1.7545 -0.3233
 8109SOL    HW235961   2.100   3.308   6.118  1.8709  0.8499 -0.8624
 8110SOL     OW35962   4.733   3.272   9.705 -0.3856  0.3574 -0.3324
 8110SOL    HW135963   0.003   3.193   9.759 -0.0408  0.3905 -0.3254
 8110SOL    HW235964   4.694   3.330   9.770 -1.8714 -2.2575  1.1232
 8111SOL     OW35965   2.553   4.156   4.209  0.0186  0.0534  0.2593
 8111SOL    HW135966   2.637   4.144   4.165  1.3594  1.3360  2.4941
 8111SOL    HW235967   2.500   4.146   4.130  1.6036  0.5673 -0.8844
 8112SOL     OW35968   1.786   1.797   1.520  0.3082 -0.3706 -0.1407
 8112SOL    HW135969   1.744   1.712   1.510 -1.5466  0.8264 -2.4341
 8112SOL    HW235970   1.794   1.823   1.428 -0.0779  0.6678  0.1180
 8113SOL     OW35971   3.392   4.008   7.561 -0.9446  0.6538 -0.0004
 8113SOL    HW135972   3.329   4.009   7.633  0.6202  0.2305  1.3580
 8113SOL    HW235973   3.344   4.057   7.494 -0.4502  1.5919  0.3356
 8114SOL     OW35974   4.224   1.100   5.420 -0.1322 -0.9103  0.0973
 8114SOL    HW135975   4.239   1.143   5.336 -1.4160  0.3649  0.5368
 8114SOL    HW235976   4.142   1.056   5.398 -1.0441  1.0385 -0.3029
 8115SOL     OW35977   0.316   0.149   3.106 -0.1490 -0.2164 -0.6793
 8115SOL    HW135978   0.360   0.108   3.032 -2.4875 -1.2521 -1.4934
 8115SOL    HW235979   0.232   0.108   3.089  0.3300 -1.2357 -0.5687
 8116SOL     OW35980   1.806   1.571   9.429 -0.0726  0.0475 -0.2025
 8116SOL    HW135981   1.854   1.652   9.449  0.2988  0.4706 -2.8302
 8116SOL    HW235982   1.781   1.539   9.516  2.1194  1.8452  1.1162
 8117SOL     OW35983   0.563   1.518   6.899  0.0901  0.2090 -0.2669
 8117SOL    HW135984   0.654   1.530   6.924  0.3882 -1.9793 -0.2837
 8117SOL    HW235985   0.519   1.585   6.953  0.2008 -0.6918  0.9571
 8118SOL     OW35986   1.940   1.987   6.203  0.4172  0.2357  0.2108
 8118SOL    HW135987   1.979   1.941   6.129 -0.9254 -1.1706  0.3820
 8118SOL    HW235988   1.889   2.043   6.144  0.0619  1.6633  1.8703
 8119SOL     OW35989   2.230   4.584   6.780 -0.1127 -0.2761 -0.0396
 8119SOL    HW135990   2.152   4.552   6.826  0.7134 -1.2431  0.6754
 8119SOL    HW235991   2.193   4.597   6.693 -0.4914  0.0190  0.1656
 8120SOL     OW35992   2.716   2.756   1.958 -0.1194  0.0763 -0.3132
 8120SOL    HW135993   2.762   2.693   1.902 -2.5276 -0.7626 -1.3207
 8120SOL    HW235994   2.632   2.749   1.913 -0.4793 -0.7611  0.4811
 8121SOL     OW35995   3.879   3.338   6.233 -0.9844 -0.1816 -0.0308
 8121SOL    HW135996   3.835   3.421   6.251  0.7192  1.2732 -2.6610
 8121SOL    HW235997   3.898   3.308   6.322 -1.6405  0.4543  0.3253
 8122SOL     OW35998   3.724   1.550   1.380 -0.2674  0.0423 -0.3194
 8122SOL    HW135999   3.760   1.606   1.448  1.2642 -0.5185 -0.6713
 8122SOL    HW236000   3.639   1.593   1.365  1.3289  1.8416 -4.1188
 8123SOL     OW36001   2.014   3.767   6.355 -0.1676  0.1317 -0.6205
 8123SOL    HW136002   2.057   3.803   6.433 -0.6338  0.6242 -0.5928
 8123SOL    HW236003   2.070   3.691   6.339  0.3555  0.3657  0.0595
 8124SOL     OW36004   2.617   4.503  12.358 -0.0953  0.2074 -0.0817
 8124SOL    HW136005   2.678   4.559  12.309 -0.1147 -1.1101 -1.5914
 8124SOL    HW236006   2.599   4.554  12.437 -1.0401  0.1096 -0.2430
 8125SOL     OW36007   2.530   2.077   3.182 -0.2167 -0.2717  0.1636
 8125SOL    HW136008   2.559   2.008   3.243  0.4445 -0.1606 -0.0269
 8125SOL    HW236009   2.566   2.155   3.224  0.7659 -1.9718  2.4894
 8126SOL     OW36010   0.175   4.398   8.261 -0.0718  0.0839 -0.4111
 8126SOL    HW136011   0.220   4.437   8.337  0.7135  1.5760 -1.6526
 8126SOL    HW236012   0.213   4.457   8.196  1.6699  0.6991  1.1645
 8127SOL     OW36013   1.495   2.344  16.820  0.7412 -0.2269 -0.8823
 8127SOL    HW136014   1.405   2.320  16.842  0.0926  2.6799 -0.4359
 8127SOL    HW236015   1.511   2.420  16.875  1.7233 -2.0080  1.2697
 8128SOL     OW36016   1.863   3.458   9.534  0.3531 -0.0405 -0.2863
 8128SOL    HW136017   1.923   3.516   9.580 -0.5858  0.6361  0.1012
 8128SOL    HW236018   1.898   3.468   9.446 -0.7584 -0.8243 -0.8302
 8129SOL     OW36019   2.811   2.710   4.983 -0.3369 -0.0954 -0.3410
 8129SOL    HW136020   2.816   2.740   4.892  1.0444  1.6362  0.3024
 8129SOL    HW236021   2.755   2.778   5.019  1.6679  1.0074  0.7151
 8130SOL     OW36022   1.666   3.212   6.622  0.0558 -0.0589  0.2631
 8130SOL    HW136023   1.706   3.126   6.611  0.7102  0.2831 -0.0162
 8130SOL    HW236024   1.740   3.271   6.610  1.8720 -2.5233 -0.7762
 8131SOL     OW36025   1.995   0.971  10.480  0.5451 -0.3095  0.0927
 8131SOL    HW136026   1.971   1.049  10.430 -3.9254 -1.6912  0.1105
 8131SOL    HW236027   2.088   0.983  10.503  0.1050 -0.0018  1.7288
 8132SOL     OW36028   1.078   3.737  13.412  0.3153  0.0298  0.3067
 8132SOL    HW136029   1.113   3.654  13.444  1.9312  0.6582  0.1616
 8132SOL    HW236030   1.142   3.769  13.349 -0.5451  0.2749 -0.4492
 8133SOL     OW36031   1.777   0.662   6.992  0.0879 -0.0160  0.1694
 8133SOL    HW136032   1.843   0.620   6.938 -0.8547  2.0310 -2.6084
 8133SOL    HW236033   1.726   0.713   6.928  0.2828  0.0351  0.0566
 8134SOL     OW36034   2.440   1.134   2.877 -0.0057 -0.2541  0.0487
 8134SOL    HW136035   2.518   1.185   2.898 -0.8842  1.5604 -1.0536
 8134SOL    HW236036   2.369   1.198   2.871  0.5650  0.3598 -0.1194
 8135SOL     OW36037   3.357   0.702   0.188  0.4523 -0.1944  0.0272
 8135SOL    HW136038   3.343   0.738   0.276  0.2229  0.3064 -0.2144
 8135SOL    HW236039   3.309   0.620   0.187  2.6444 -1.4821  1.0824
 8136SOL     OW36040   3.796   0.938   4.652 -0.2797  0.2161  0.4179
 8136SOL    HW136041   3.806   0.849   4.685  0.4255 -1.2008 -3.5466
 8136SOL    HW236042   3.706   0.954   4.678 -0.9501 -1.1910 -1.0920
 8137SOL     OW36043   3.391   0.350  15.345  1.1013  0.6304 -0.2861
 8137SOL    HW136044   3.350   0.265  15.328  3.0699 -0.3458 -0.2385
 8137SOL    HW236045   3.382   0.354  15.440  1.7771 -0.8726 -0.1624
 8138SOL     OW36046   0.824   2.350   9.151  0.6961 -0.3987  0.2744
 8138SOL    HW136047   0.878   2.416   9.107 -1.3989  0.4358 -1.0682
 8138SOL    HW236048   0.855   2.273   9.103 -1.1569 -0.9315 -0.0467
 8139SOL     OW36049   0.063   3.604   5.476  0.3526  0.4607 -0.3899
 8139SOL    HW136050   4.710   3.601   5.509  0.8989  0.0886  1.0528
 8139SOL    HW236051   0.065   3.529   5.417 -2.6386  0.7756 -0.8902
 8140SOL     OW36052   1.469   2.192  10.005 -0.4507 -0.3396 -0.5534
 8140SOL    HW136053   1.540   2.129  10.014  0.7096  0.7475 -1.9642
 8140SOL    HW236054   1.521   2.269   9.980 -2.7405  1.0436 -1.0609
 8141SOL     OW36055   2.971   4.159  11.489 -0.0291 -0.0996  0.0194
 8141SOL    HW136056   2.928   4.238  11.455 -0.2784 -0.4872 -0.5826
 8141SOL    HW236057   3.055   4.165  11.443 -0.0640  2.7258  0.3258
 8142SOL     OW36058   2.817   3.716   7.678 -0.2210 -0.4615 -0.2590
 8142SOL    HW136059   2.823   3.681   7.589  1.7285  0.5881 -0.5441
 8142SOL    HW236060   2.877   3.652   7.717 -0.8255 -2.3938 -2.4853
 8143SOL     OW36061   2.467   1.592   6.269 -0.1587 -0.4362 -0.1628
 8143SOL    HW136062   2.535   1.527   6.281 -0.6507 -1.2725 -1.9908
 8143SOL    HW236063   2.389   1.540   6.289  0.3346 -1.3147 -0.5079
 8144SOL     OW36064   3.382   3.532   1.857  0.5562 -0.1071  0.0746
 8144SOL    HW136065   3.466   3.509   1.817  1.0606 -1.5363  1.9558
 8144SOL    HW236066   3.395   3.490   1.942  0.6850  0.5090  0.3616
 8145SOL     OW36067   3.321   3.849  15.516  0.1058  0.0486  0.3219
 8145SOL    HW136068   3.361   3.917  15.570 -0.5847  1.0265 -0.3916
 8145SOL    HW236069   3.350   3.769  15.559  0.9951  0.7533  1.0318
 8146SOL     OW36070   2.821   1.852  14.014  0.2765 -0.0746  0.7867
 8146SOL    HW136071   2.822   1.756  14.020  4.3453 -0.1166 -1.0267
 8146SOL    HW236072   2.879   1.878  14.086  3.3477  0.7597 -2.0165
 8147SOL     OW36073   1.462   1.091   6.284  0.9441  0.1135  0.1162
 8147SOL    HW136074   1.468   1.111   6.378  0.7636 -1.8194  0.5399
 8147SOL    HW236075   1.435   1.000   6.291  3.9490 -0.8093 -0.6252
 8148SOL     OW36076   1.023   1.274  17.695 -0.4358 -0.6132 -0.2259
 8148SOL    HW136077   1.011   1.180  17.711  2.2600 -0.7275  1.1588
 8148SOL    HW236078   1.039   1.313   0.035 -2.4788  2.1897 -1.1249
 8149SOL     OW36079   2.419   2.794  16.951 -0.5710 -0.9055  0.5959
 8149SOL    HW136080   2.416   2.713  16.901  0.0139 -0.3059 -0.4197
 8149SOL    HW236081   2.470   2.851  16.894 -1.1819  0.3019  1.2438
 8150SOL     OW36082   1.507   2.271   6.104 -0.1733  0.2410 -0.0158
 8150SOL    HW136083   1.499   2.367   6.103 -1.1534  0.1697  2.1351
 8150SOL    HW236084   1.600   2.257   6.088  0.6310  4.7220  0.7144
 8151SOL     OW36085   4.476   1.012   9.647  0.2981 -0.4258  0.4187
 8151SOL    HW136086   4.414   0.957   9.599 -0.3508  1.0321 -0.4258
 8151SOL    HW236087   4.473   1.089   9.590  0.0189  0.3647  1.5061
 8152SOL     OW36088   1.262   3.949   1.749 -0.1324 -0.2690  0.8411
 8152SOL    HW136089   1.237   4.005   1.676  0.6921 -0.7158  0.2176
 8152SOL    HW236090   1.306   4.008   1.811  3.3831 -0.2219 -1.7115
 8153SOL     OW36091   2.303   3.761   5.371  0.6182  0.6467 -0.2154
 8153SOL    HW136092   2.320   3.835   5.428 -1.6044  1.8263 -1.0810
 8153SOL    HW236093   2.248   3.718   5.437  0.0254  0.9248 -0.5314
 8154SOL     OW36094   3.498   1.341   1.288 -0.2551 -0.3888 -0.4032
 8154SOL    HW136095   3.568   1.372   1.346 -2.2471 -0.7028  2.1643
 8154SOL    HW236096   3.511   1.409   1.221  2.1392 -2.2810 -1.8423
 8155SOL     OW36097   2.234   3.529   7.691  0.1966  0.0147 -0.4907
 8155SOL    HW136098   2.240   3.612   7.643  0.9735 -0.3380 -0.9948
 8155SOL    HW236099   2.254   3.562   7.779  0.0884  2.3611 -1.3382
 8156SOL     OW36100   4.006   0.841   8.606  0.3542 -0.0840 -0.8541
 8156SOL    HW136101   3.997   0.855   8.512 -2.5758  1.0964 -0.4146
 8156SOL    HW236102   3.971   0.753   8.618  1.2805 -0.3488 -0.0924
 8157SOL     OW36103   1.733   2.612  12.747 -0.1131  0.6561  0.2119
 8157SOL    HW136104   1.679   2.533  12.747 -2.6797  2.4467  2.2056
 8157SOL    HW236105   1.699   2.664  12.819 -0.2790  1.4635 -0.4458
 8158SOL     OW36106   1.761   2.915  16.886  0.4453  0.4600 -0.1491
 8158SOL    HW136107   1.837   2.945  16.936  0.4497 -0.3994  0.3586
 8158SOL    HW236108   1.751   2.822  16.908 -2.4220  0.9576  0.6831
 8159SOL     OW36109   1.262   0.532   6.561 -0.3332  0.4653 -0.4156
 8159SOL    HW136110   1.357   0.522   6.559 -0.2844  0.3338  2.6094
 8159SOL    HW236111   1.236   0.559   6.473  4.1971  3.2340 -0.8902
 8160SOL     OW36112   2.094   3.518   3.202 -0.3005 -0.2362 -0.1013
 8160SOL    HW136113   2.128   3.548   3.117  0.0341  2.0095  0.8231
 8160SOL    HW236114   2.023   3.465   3.167 -0.2905  0.4778 -1.1965
 8161SOL     OW36115   1.161   0.019   4.713 -0.2782  0.0532  0.4689
 8161SOL    HW136116   1.113   4.697   4.771 -1.3309 -0.2848 -0.7405
 8161SOL    HW236117   1.116   0.103   4.708 -1.2305 -0.3431  2.5033
 8162SOL     OW36118   4.261   4.382   2.604  0.4661 -0.4691  0.1577
 8162SOL    HW136119   4.268   4.353   2.514  0.2840 -0.5431  0.1678
 8162SOL    HW236120   4.228   4.471   2.589  0.1985 -0.7073 -0.6222
 8163SOL     OW36121   2.875   1.183   6.575 -0.0973  0.4113  0.3753
 8163SOL    HW136122   2.847   1.143   6.492 -1.6851  3.1536 -0.4034
 8163SOL    HW236123   2.865   1.111   6.638 -0.9131 -1.0077 -1.3455
 8164SOL     OW36124   3.420   3.116   9.785 -0.3079 -0.6243 -0.1795
 8164SOL    HW136125   3.426   3.114   9.689 -1.3368  1.0264 -0.2650
 8164SOL    HW236126   3.440   3.026   9.812  0.7103 -0.6957 -1.1425
 8165SOL     OW36127   3.931   0.714   7.920  0.6148  0.6974 -0.0762
 8165SOL    HW136128   4.008   0.734   7.973 -0.2123  3.3988  0.0985
 8165SOL    HW236129   3.910   0.629   7.957 -1.1568  0.7926 -0.8647
 8166SOL     OW36130   0.877   3.123  13.060 -0.1554  0.3416 -0.3812
 8166SOL    HW136131   0.855   3.212  13.035  0.5496  0.7981  0.6051
 8166SOL    HW236132   0.802   3.092  13.110 -1.5090 -1.4465 -3.5323
 8167SOL     OW36133   3.632   1.845  17.020 -0.3653 -0.3827 -0.0074
 8167SOL    HW136134   3.709   1.790  17.004 -0.5272 -1.2442  2.2049
 8167SOL    HW236135   3.685   1.923  17.036 -0.7838  0.0659 -0.8439
 8168SOL     OW36136   0.902   2.716   8.635 -0.1178 -0.0309  0.5336
 8168SOL    HW136137   0.973   2.738   8.575 -1.0239  0.2076 -0.4652
 8168SOL    HW236138   0.841   2.666   8.580  0.5556  1.1949 -1.3046
 8169SOL     OW36139   1.640   3.920   7.365  0.7424 -0.0801  0.0129
 8169SOL    HW136140   1.602   3.998   7.404 -0.4124  0.1564 -1.5623
 8169SOL    HW236141   1.562   3.882   7.325  1.0666  0.6842 -1.3804
 8170SOL     OW36142   0.197   1.159   5.940  0.4716  0.3976 -0.3443
 8170SOL    HW136143   0.291   1.167   5.921 -0.3614  0.1821 -4.5264
 8170SOL    HW236144   0.204   1.065   5.957 -0.9997  0.6392  1.6514
 8171SOL     OW36145   0.364   2.137   3.849 -0.4690 -0.1766 -0.2784
 8171SOL    HW136146   0.454   2.158   3.826 -1.3481  2.3196 -1.4816
 8171SOL    HW236147   0.316   2.167   3.772 -0.2380 -0.2836 -0.4624
 8172SOL     OW36148   0.173   1.317   4.081 -0.3629  0.2142  0.1953
 8172SOL    HW136149   0.248   1.276   4.125 -0.4852 -1.6402 -1.3375
 8172SOL    HW236150   0.155   1.255   4.011 -0.0422  0.7194 -0.3346
 8173SOL     OW36151   4.552   1.634   6.670  0.0420 -0.1272 -0.1564
 8173SOL    HW136152   4.528   1.542   6.653 -0.1130 -0.0379 -0.4301
 8173SOL    HW236153   4.646   1.627   6.654  0.1122  2.4868 -0.8676
 8174SOL     OW36154   3.005   1.100   7.723  0.2241  0.1405 -0.5751
 8174SOL    HW136155   3.064   1.050   7.778 -1.4855  0.8107  1.8428
 8174SOL    HW236156   3.070   1.145   7.668  2.1971 -0.2364  1.4919
 8175SOL     OW36157   3.917   2.523   4.947  0.1070 -0.4612 -0.1774
 8175SOL    HW136158   4.004   2.482   4.944  0.1640 -0.2435 -1.4572
 8175SOL    HW236159   3.896   2.535   4.854  0.8316  0.8269 -0.1733
 8176SOL     OW36160   3.449   0.596   7.954 -0.2486 -0.5076  0.2299
 8176SOL    HW136161   3.362   0.577   7.917  0.1049  0.0829 -0.9062
 8176SOL    HW236162   3.519   0.591   7.889  0.9996 -0.3679  1.5623
 8177SOL     OW36163   4.190   0.802   6.661 -0.1501 -0.0594 -0.8105
 8177SOL    HW136164   4.218   0.773   6.748  2.1825  0.8141 -1.2636
 8177SOL    HW236165   4.130   0.733   6.635 -1.5538  0.6502  0.5247
 8178SOL     OW36166   0.210   2.707   9.383  0.1033 -0.1377 -0.0658
 8178SOL    HW136167   0.220   2.740   9.472  1.5056 -1.6434  0.3310
 8178SOL    HW236168   0.262   2.628   9.396  1.1751  0.4510 -0.6974
 8179SOL     OW36169   2.700   0.049   3.091  0.3578  0.0907 -0.1083
 8179SOL    HW136170   2.654   4.701   3.091 -4.0367  2.4897 -1.0490
 8179SOL    HW236171   2.741   0.049   3.005  2.0310 -1.6732  0.6832
 8180SOL     OW36172   0.952   1.924   5.278  0.3251  0.5050  0.4214
 8180SOL    HW136173   0.991   1.846   5.239 -2.4355 -1.0872  0.7864
 8180SOL    HW236174   0.992   1.987   5.219  1.8167 -0.3430  0.5456
 8181SOL     OW36175   2.572   1.071   9.590  0.2279 -0.2618  0.4102
 8181SOL    HW136176   2.521   1.106   9.664 -0.6744  0.0553 -0.3605
 8181SOL    HW236177   2.527   0.986   9.584 -1.2911  0.6013 -0.4161
 8182SOL     OW36178   3.054   1.566   2.267  0.0107  0.1499 -0.1640
 8182SOL    HW136179   3.066   1.597   2.178 -0.7495 -0.2293 -0.3981
 8182SOL    HW236180   2.968   1.526   2.258 -0.2588  0.5266  0.7317
 8183SOL     OW36181   4.158   0.685   3.043  0.3100 -0.7711 -0.4863
 8183SOL    HW136182   4.152   0.630   3.122  0.1012  0.9936  0.7359
 8183SOL    HW236183   4.214   0.755   3.078  0.6490 -1.4088  0.2544
 8184SOL     OW36184   2.813   3.361   2.947 -0.3234  0.0785  0.1538
 8184SOL    HW136185   2.858   3.444   2.964 -1.8859  1.4831 -2.5870
 8184SOL    HW236186   2.722   3.390   2.949  0.0417  1.2945 -0.8113
 8185SOL     OW36187   4.052   2.959   8.715  0.3639 -0.5276 -0.1389
 8185SOL    HW136188   4.101   2.947   8.633 -0.4971  0.9264 -0.8524
 8185SOL    HW236189   3.961   2.980   8.698  0.0521 -1.9148 -0.1922
 8186SOL     OW36190   3.003   0.947   8.709  0.5399  0.0661  0.4204
 8186SOL    HW136191   2.949   0.869   8.725  1.9932 -0.4985  2.5943
 8186SOL    HW236192   2.971   0.971   8.622  0.2508 -0.1155  0.4750
 8187SOL     OW36193   1.940   4.552   7.163  1.0082  0.3788 -0.1992
 8187SOL    HW136194   1.937   4.492   7.237 -0.5032  2.0395  1.0973
 8187SOL    HW236195   1.860   4.606   7.166  0.4208 -0.6933  2.8224
 8188SOL     OW36196   1.880   1.366   7.608 -0.1675 -0.4901  0.3285
 8188SOL    HW136197   1.801   1.315   7.594 -0.0765 -0.0289 -1.8927
 8188SOL    HW236198   1.853   1.458   7.613 -0.2907 -0.6029  1.7289
 8189SOL     OW36199   4.554   2.190   6.147 -0.4193  0.6548 -0.8894
 8189SOL    HW136200   4.497   2.164   6.075  1.1065 -0.3683 -1.7468
 8189SOL    HW236201   4.535   2.113   6.201  1.9505 -0.4900 -1.6696
 8190SOL     OW36202   1.638   3.596   2.368 -0.1559  0.1857 -0.2941
 8190SOL    HW136203   1.655   3.502   2.372 -0.4502  0.0252 -2.6458
 8190SOL    HW236204   1.591   3.601   2.452  0.7751 -1.0312  0.2867
 8191SOL     OW36205   1.409   4.295  13.093 -0.1026 -0.7425 -0.3802
 8191SOL    HW136206   1.369   4.261  13.013 -0.9382 -0.0633 -0.2495
 8191SOL    HW236207   1.420   4.387  13.071  1.5920 -1.1243 -1.1288
 8192SOL     OW36208   2.980   1.696   5.158  0.2440 -0.1159  0.2650
 8192SOL    HW136209   2.970   1.789   5.178 -1.1909 -0.4327  1.0755
 8192SOL    HW236210   3.075   1.685   5.160  0.4686  2.1554  2.3658
 8193SOL     OW36211   0.469   4.341   1.630  0.1048 -0.1172 -0.5156
 8193SOL    HW136212   0.503   4.404   1.694  1.0878 -0.7779 -0.3917
 8193SOL    HW236213   0.478   4.392   1.549  1.8994 -1.2939 -1.0538
 8194SOL     OW36214   0.093   3.552   8.294 -0.3658 -0.7507 -0.1830
 8194SOL    HW136215   0.054   3.639   8.288  1.9681  0.2197 -1.1415
 8194SOL    HW236216   0.118   3.546   8.202  1.6619 -1.2278  0.4000
 8195SOL     OW36217   4.632   0.652  15.341  0.1927  0.6927 -0.0606
 8195SOL    HW136218   4.641   0.745  15.363 -0.6312  0.3859  1.6016
 8195SOL    HW236219   4.538   0.642  15.356  0.5140 -1.5413  0.4620
 8196SOL     OW36220   0.515   0.178   9.059 -0.1593  0.2273  0.1502
 8196SOL    HW136221   0.607   0.165   9.083  0.1389  2.9676  0.5112
 8196SOL    HW236222   0.465   0.132   9.127 -3.0997  0.6401 -1.7366
 8197SOL     OW36223   2.732   3.513   3.169  0.2429 -0.2819 -0.4832
 8197SOL    HW136224   2.752   3.423   3.194  0.3662 -0.1834 -0.2239
 8197SOL    HW236225   2.808   3.560   3.203  0.1010 -1.8065  1.9526
 8198SOL     OW36226   2.402   2.822  16.637  0.1248  0.2462 -0.2260
 8198SOL    HW136227   2.472   2.878  16.603  2.7571 -0.9048  3.2593
 8198SOL    HW236228   2.340   2.890  16.660 -1.7574 -2.1309  1.7178
 8199SOL     OW36229   3.904   0.579   8.600  0.1939 -0.3788  0.6006
 8199SOL    HW136230   3.989   0.537   8.614  1.5547  1.8011 -1.0303
 8199SOL    HW236231   3.851   0.550   8.673  0.9525 -2.4146  0.3321
 8200SOL     OW36232   4.028   0.960  10.501  0.2222 -0.8543  0.0444
 8200SOL    HW136233   4.112   0.975  10.458  1.4910 -0.3054  2.7048
 8200SOL    HW236234   4.035   0.975  10.595 -1.1255  0.0941 -0.0070
 8201SOL     OW36235   1.463   2.558  17.333  0.1902 -0.1725  0.8266
 8201SOL    HW136236   1.382   2.592  17.294  0.4019 -0.5594  0.0624
 8201SOL    HW236237   1.424   2.530  17.416  2.7836  2.1008  2.7901
 8202SOL     OW36238   3.814   0.042   6.374  0.0552  0.5500  0.3799
 8202SOL    HW136239   3.788   0.000   6.456 -1.8587 -0.6801 -0.8381
 8202SOL    HW236240   3.896   4.732   6.359  0.2455  1.2412 -0.7856
 8203SOL     OW36241   3.344   3.988   6.358  0.1558  0.0522 -0.0085
 8203SOL    HW136242   3.402   3.935   6.412 -1.5423 -1.3089  0.4747
 8203SOL    HW236243   3.411   4.024   6.300 -0.2084  0.3493 -0.2533
 8204SOL     OW36244   1.454   2.677   1.539 -0.2846 -0.0407  0.3223
 8204SOL    HW136245   1.411   2.629   1.468  0.3615  0.4977 -0.4352
 8204SOL    HW236246   1.382   2.674   1.602 -0.8053  1.3727 -0.2004
 8205SOL     OW36247   2.876   2.177   8.182 -0.3470 -0.2775 -0.2367
 8205SOL    HW136248   2.809   2.139   8.239  1.5777 -0.7070  1.7279
 8205SOL    HW236249   2.955   2.171   8.236  0.9056  1.2067 -1.9091
 8206SOL     OW36250   1.364   1.306  14.654 -0.3186 -0.3242  0.0220
 8206SOL    HW136251   1.432   1.348  14.707 -0.2946 -0.2334 -0.0795
 8206SOL    HW236252   1.422   1.267  14.589 -0.8216 -0.6979 -0.2004
 8207SOL     OW36253   2.033   0.818   8.960 -0.5138 -0.0992  0.0869
 8207SOL    HW136254   1.997   0.757   9.025 -0.4158  0.3909  0.5991
 8207SOL    HW236255   1.955   0.848   8.913  0.8899  2.0703 -0.8171
 8208SOL     OW36256   1.012   0.816   7.771 -0.3390  0.5057 -0.4365
 8208SOL    HW136257   0.952   0.819   7.845  2.7197 -0.7451  2.0889
 8208SOL    HW236258   0.999   0.733   7.725 -0.7437 -0.4566  1.4465
 8209SOL     OW36259   0.413   0.101   6.340 -0.4013  0.0039  0.2919
 8209SOL    HW136260   0.451   0.164   6.400  2.8166 -2.6293  0.9948
 8209SOL    HW236261   0.402   0.025   6.396  1.0243  0.0536  0.6264
 8210SOL     OW36262   0.754   2.408   2.434 -0.0938  0.3040  0.4641
 8210SOL    HW136263   0.837   2.440   2.399  1.2519 -1.3049  2.2103
 8210SOL    HW236264   0.750   2.461   2.513 -0.5410  0.4944  0.3147
 8211SOL     OW36265   3.933   3.164   9.606  0.1866  0.1427 -0.2083
 8211SOL    HW136266   3.991   3.113   9.663 -0.8653  0.1255  0.8328
 8211SOL    HW236267   3.902   3.097   9.546  0.3094  0.3860 -0.5488
 8212SOL     OW36268   3.104   0.001  10.641  0.0680  0.0793 -0.0391
 8212SOL    HW136269   3.132   0.019  10.551  1.2372 -1.7788 -0.0309
 8212SOL    HW236270   3.185   4.711  10.684 -1.1004 -1.3997  1.2549
 8213SOL     OW36271   2.113   4.263  14.371 -0.0024  0.3875  0.3083
 8213SOL    HW136272   2.171   4.248  14.446 -0.7513 -3.7805  0.0377
 8213SOL    HW236273   2.116   4.359  14.370 -1.4316  0.4162 -0.2738
 8214SOL     OW36274   1.346   3.958  10.422  0.0311  0.0312 -0.2178
 8214SOL    HW136275   1.347   3.922  10.510  1.4052 -0.7335 -0.5416
 8214SOL    HW236276   1.411   3.905  10.376  1.9494  2.6770 -0.5514
 8215SOL     OW36277   0.470   3.724   8.744 -0.4639 -0.2066  0.1708
 8215SOL    HW136278   0.391   3.677   8.718 -0.5154  1.8238 -3.3389
 8215SOL    HW236279   0.478   3.789   8.674 -0.3902  1.4318  1.6824
 8216SOL     OW36280   2.790   0.673   2.926  0.2682 -0.1419 -0.2969
 8216SOL    HW136281   2.828   0.591   2.895 -1.2532 -1.2623  0.7764
 8216SOL    HW236282   2.762   0.715   2.845 -1.5130  1.4219  1.1238
 8217SOL     OW36283   0.818   3.713  14.224 -0.9498 -0.1901 -0.0992
 8217SOL    HW136284   0.780   3.658  14.293  2.2504 -0.2023  1.6597
 8217SOL    HW236285   0.908   3.695  14.252 -0.0917  1.3947 -1.8176
 8218SOL     OW36286   2.526   0.586   3.007 -0.5520 -0.0527  0.8730
 8218SOL    HW136287   2.557   0.497   2.987 -1.5011 -0.0256 -0.7803
 8218SOL    HW236288   2.607   0.636   3.012 -0.3738 -0.4473  1.8306
 8219SOL     OW36289   1.642   3.216   5.086 -0.2613  0.1292 -0.3129
 8219SOL    HW136290   1.700   3.154   5.130  0.5991  0.0182 -1.5976
 8219SOL    HW236291   1.556   3.202   5.127  1.2517 -1.0328  2.4768
 8220SOL     OW36292   2.553   2.537   9.445  0.3285 -0.1685 -0.8655
 8220SOL    HW136293   2.538   2.627   9.474 -0.7616 -0.2473 -1.1546
 8220SOL    HW236294   2.618   2.503   9.506  0.4057  0.6872 -0.4692
 8221SOL     OW36295   3.605   4.503  17.736  0.3664 -0.4951  0.0085
 8221SOL    HW136296   3.689   4.482   0.030 -0.8271 -1.3206  2.1153
 8221SOL    HW236297   3.561   4.418  17.736 -1.1122  0.2645  0.0178
 8222SOL     OW36298   1.056   0.650   4.429  0.6114 -0.4721 -0.3357
 8222SOL    HW136299   1.120   0.696   4.375  1.7993 -2.1744 -0.4107
 8222SOL    HW236300   1.109   0.609   4.497  0.2979  0.5940  0.5426
 8223SOL     OW36301   4.521   4.516  11.686 -0.4504  0.4898 -0.1138
 8223SOL    HW136302   4.474   4.578  11.741 -3.6960 -1.7740 -0.2793
 8223SOL    HW236303   4.488   4.552  11.603  1.7504  2.0644 -0.2776
 8224SOL     OW36304   0.654   2.984   7.562  0.1164 -0.6815 -0.6555
 8224SOL    HW136305   0.720   2.920   7.534 -0.4593 -2.2511  1.6239
 8224SOL    HW236306   0.668   2.970   7.655 -1.8721  2.4098  0.1112
 8225SOL     OW36307   3.374   1.741   5.503 -0.2261 -0.3703  0.4439
 8225SOL    HW136308   3.429   1.731   5.425 -0.3049  1.2309  0.1678
 8225SOL    HW236309   3.343   1.830   5.487 -1.0856 -0.6734  0.4577
 8226SOL     OW36310   0.275   2.201   3.069 -0.3071 -0.3328  0.3363
 8226SOL    HW136311   0.369   2.198   3.049 -0.4725 -0.3848 -0.4280
 8226SOL    HW236312   0.245   2.282   3.028  0.9918  0.4630  0.9466
 8227SOL     OW36313   3.778   1.973   2.027 -0.1166  0.1233  0.6054
 8227SOL    HW136314   3.812   1.909   1.965  1.5179  2.4053 -0.8957
 8227SOL    HW236315   3.838   1.948   2.097  0.2051  0.8744  0.6077
 8228SOL     OW36316   1.626   3.678  16.581  0.1309  0.2893  0.0290
 8228SOL    HW136317   1.719   3.692  16.600  0.0122 -0.5789  1.2382
 8228SOL    HW236318   1.590   3.644  16.663 -0.6733 -1.2445 -0.9416
 8229SOL     OW36319   1.947   3.072   8.960  0.1398  0.6338  0.4157
 8229SOL    HW136320   1.945   3.046   9.052 -0.3873 -0.2513  0.1510
 8229SOL    HW236321   2.040   3.052   8.951 -0.0431 -0.1053  0.1417
 8230SOL     OW36322   0.822   2.527   5.734 -0.1735 -0.1957 -0.0814
 8230SOL    HW136323   0.767   2.469   5.787  2.2332 -2.3304  0.0625
 8230SOL    HW236324   0.779   2.610   5.757  0.0401  0.3255 -1.5672
 8231SOL     OW36325   0.725   2.720   6.416 -0.2653 -0.1871  0.2647
 8231SOL    HW136326   0.756   2.801   6.457  0.8965  0.3124 -1.6442
 8231SOL    HW236327   0.788   2.651   6.435  1.9184  1.7305 -0.1149
 8232SOL     OW36328   1.212   3.983   2.757  0.0675  0.5357  0.0178
 8232SOL    HW136329   1.290   4.038   2.763 -0.6656  1.5374  0.3086
 8232SOL    HW236330   1.177   3.989   2.846  0.7575 -1.8027  0.4585
 8233SOL     OW36331   3.694   0.328   5.776 -0.0560 -0.4906  0.1423
 8233SOL    HW136332   3.649   0.263   5.722 -0.4453  1.0163 -1.3414
 8233SOL    HW236333   3.776   0.340   5.728 -0.6292  2.6655 -0.0538
 8234SOL     OW36334   0.361   2.811  16.887  0.2890  0.6279 -0.1771
 8234SOL    HW136335   0.435   2.847  16.935 -1.2905 -0.1863  2.8646
 8234SOL    HW236336   0.296   2.881  16.887  0.8125  1.1147  0.2959
 8235SOL     OW36337   4.189   3.076   9.347  0.7193 -0.1553  0.4685
 8235SOL    HW136338   4.106   3.051   9.388  0.7839 -1.5147 -0.2083
 8235SOL    HW236339   4.183   3.170   9.361 -0.8285 -0.3579  1.1213
 8236SOL     OW36340   2.539   3.142   5.563 -0.1331 -0.2402  0.1122
 8236SOL    HW136341   2.530   3.164   5.471 -0.6926 -0.2431  0.1694
 8236SOL    HW236342   2.446   3.143   5.585  0.0055  1.5224  0.6505
 8237SOL     OW36343   2.497   1.270   1.994  0.2141  0.2256 -0.0577
 8237SOL    HW136344   2.539   1.211   2.055  0.5642  0.0960 -0.4201
 8237SOL    HW236345   2.470   1.336   2.058 -1.8170  0.7876 -1.4965
 8238SOL     OW36346   0.633   0.763  16.333  0.2356  0.3399  0.3879
 8238SOL    HW136347   0.672   0.683  16.366 -3.1541 -0.7716  1.6900
 8238SOL    HW236348   0.540   0.741  16.329  0.8016 -2.3167  1.9733
 8239SOL     OW36349   2.280   4.205   3.531  0.3044  0.0476 -0.0361
 8239SOL    HW136350   2.256   4.131   3.588 -0.4936  1.4078  1.3916
 8239SOL    HW236351   2.197   4.250   3.521 -0.4931 -1.0476  1.5105
 8240SOL     OW36352   2.756   0.812   0.168 -0.7138 -0.1826 -0.1593
 8240SOL    HW136353   2.797   0.739   0.214 -1.5093 -1.6278 -1.7315
 8240SOL    HW236354   2.824   0.825   0.102  0.3753 -2.1825  0.5857
 8241SOL     OW36355   3.638   2.709   7.132  0.1687 -0.7630 -0.1526
 8241SOL    HW136356   3.559   2.745   7.174  0.5118  0.3956 -0.5192
 8241SOL    HW236357   3.625   2.623   7.173 -2.6090 -0.0414  0.4952
 8242SOL     OW36358   1.649   3.566   1.107 -0.5471 -0.0994 -0.2286
 8242SOL    HW136359   1.738   3.533   1.091  0.2119  0.3846  2.8189
 8242SOL    HW236360   1.617   3.524   1.187  0.3771  0.3797  0.4009
 8243SOL     OW36361   3.433   3.040   2.853 -0.1368  0.1508  0.5491
 8243SOL    HW136362   3.483   2.976   2.802 -1.1406 -0.9671  0.9750
 8243SOL    HW236363   3.369   2.987   2.900 -0.7283 -1.4322 -2.0846
 8244SOL     OW36364   0.811   4.149   2.940 -0.5462 -0.0880 -0.0544
 8244SOL    HW136365   0.717   4.130   2.944 -0.5172 -0.4911 -1.3365
 8244SOL    HW236366   0.836   4.155   3.032 -1.1029 -1.4547  0.1845
 8245SOL     OW36367   2.910   1.450   5.251  0.2034  0.1360 -0.2028
 8245SOL    HW136368   2.894   1.501   5.330 -4.0505  0.7807 -1.4503
 8245SOL    HW236369   2.941   1.522   5.196 -1.2849 -0.1794 -1.4577
 8246SOL     OW36370   4.445   1.144   6.624  0.2502  0.0959 -0.6443
 8246SOL    HW136371   4.467   1.095   6.544 -1.2947 -1.6351 -0.0013
 8246SOL    HW236372   4.356   1.111   6.634  0.5859 -0.3657  0.6551
 8247SOL     OW36373   3.111   2.377   8.092 -0.1789 -0.1097 -0.4098
 8247SOL    HW136374   3.028   2.350   8.132 -0.0592 -0.5747 -0.4748
 8247SOL    HW236375   3.164   2.395   8.169 -1.1859 -0.8749  0.4660
 8248SOL     OW36376   1.576   0.543   2.245 -0.7415 -0.4114  0.0374
 8248SOL    HW136377   1.630   0.498   2.310  0.8539 -1.5016 -2.0351
 8248SOL    HW236378   1.496   0.492   2.233 -0.7636 -0.2953 -0.2850
 8249SOL     OW36379   4.193   4.139   9.336 -0.5021  0.4455 -0.3899
 8249SOL    HW136380   4.118   4.166   9.388 -0.8723 -1.7448  0.1831
 8249SOL    HW236381   4.157   4.055   9.308  0.6734 -0.3990  0.6409
 8250SOL     OW36382   2.276   1.940   8.634  0.1961  0.1448 -0.0699
 8250SOL    HW136383   2.305   1.878   8.567  2.3135  1.6379 -0.5346
 8250SOL    HW236384   2.340   1.910   8.699  0.1206  0.6578  0.2386
 8251SOL     OW36385   0.050   4.326   4.301  0.4507 -0.5988 -0.0194
 8251SOL    HW136386   0.010   4.264   4.241  0.9813 -0.7060 -0.2544
 8251SOL    HW236387   0.082   4.275   4.375  1.9228 -0.3041 -0.4618
 8252SOL     OW36388   0.731   3.588   2.659  0.3720  0.2232  0.1910
 8252SOL    HW136389   0.711   3.682   2.655  0.2158  0.2252  1.0832
 8252SOL    HW236390   0.796   3.583   2.589  0.1108 -1.0219  0.0440
 8253SOL     OW36391   2.634   3.433   2.646 -0.0917 -0.1313 -0.0672
 8253SOL    HW136392   2.584   3.423   2.727  1.4119 -1.5213  0.6936
 8253SOL    HW236393   2.564   3.426   2.580 -0.9592 -2.6585  1.1262
 8254SOL     OW36394   1.539   0.291  13.152  0.0040 -0.2625  0.2248
 8254SOL    HW136395   1.630   0.267  13.134  0.4399  1.5813 -0.0428
 8254SOL    HW236396   1.526   0.372  13.102 -2.4755 -0.2494  0.8750
 8255SOL     OW36397   1.244   1.367  10.018 -0.3376  0.4326 -0.9118
 8255SOL    HW136398   1.287   1.452  10.021  1.2021 -0.3410 -1.1817
 8255SOL    HW236399   1.161   1.412  10.033 -1.2662 -1.6457  0.2283
 8256SOL     OW36400   0.208   1.541  14.004  0.2563 -0.6174  0.6057
 8256SOL    HW136401   0.154   1.463  13.988 -2.1125  1.2495 -0.4843
 8256SOL    HW236402   0.159   1.588  14.072  0.5966 -0.6312  0.8634
 8257SOL     OW36403   2.264   4.366  10.728  0.2863  0.0688  0.4536
 8257SOL    HW136404   2.185   4.409  10.761 -1.0919 -1.3196 -1.0897
 8257SOL    HW236405   2.325   4.441  10.721  0.8318 -0.4316 -0.1969
 8258SOL     OW36406   3.363   3.259   7.946 -0.2052  0.5778 -0.1020
 8258SOL    HW136407   3.383   3.208   7.868  1.8657  1.4766 -0.1449
 8258SOL    HW236408   3.443   3.254   7.997  0.4825 -0.8670 -1.3258
 8259SOL     OW36409   3.906   4.542   0.902 -0.5972 -0.0148 -0.3717
 8259SOL    HW136410   3.848   4.618   0.913  0.6188  0.9800 -0.8606
 8259SOL    HW236411   3.847   4.495   0.843 -0.3949  1.0209 -1.4040
 8260SOL     OW36412   2.139   0.853   3.373  0.0717 -0.5733  0.0925
 8260SOL    HW136413   2.083   0.869   3.297 -2.2576  1.4560  2.2323
 8260SOL    HW236414   2.227   0.837   3.338 -0.2712 -0.0580 -1.0084
 8261SOL     OW36415   1.411   3.093   6.878  0.8481  0.7640  0.3937
 8261SOL    HW136416   1.469   3.075   6.953 -0.8078 -2.8696  0.8180
 8261SOL    HW236417   1.416   3.188   6.879 -0.3898  0.8448 -3.1390
 8262SOL     OW36418   2.348   1.453   2.166  0.0219 -0.2822 -0.3788
 8262SOL    HW136419   2.388   1.504   2.237  0.1425  2.1465 -2.2317
 8262SOL    HW236420   2.256   1.466   2.191 -0.6489  0.6402 -3.4177
 8263SOL     OW36421   0.393   2.194   5.861  0.1523  0.8366  0.0308
 8263SOL    HW136422   0.331   2.161   5.926 -0.5761 -0.2545 -1.2225
 8263SOL    HW236423   0.434   2.111   5.836 -1.7143  0.1394 -0.6539
 8264SOL     OW36424   0.378   2.499   3.204  0.1964  0.4266 -0.4489
 8264SOL    HW136425   0.334   2.457   3.130 -1.0634  1.1768 -0.1431
 8264SOL    HW236426   0.415   2.571   3.152  0.3364  0.0498 -0.8674
 8265SOL     OW36427   2.588   3.462  10.439 -0.4347  0.1174 -0.1682
 8265SOL    HW136428   2.536   3.543  10.438 -1.3259 -0.4477  0.4422
 8265SOL    HW236429   2.647   3.483  10.511 -0.4192  0.1985 -0.2044
 8266SOL     OW36430   0.920   2.516  11.234  0.4780 -0.2276 -0.4730
 8266SOL    HW136431   0.961   2.450  11.179  0.3516  0.0857 -0.9502
 8266SOL    HW236432   0.966   2.490  11.313  0.4204  0.7085 -0.1244
 8267SOL     OW36433   3.592   1.911  12.672 -0.3159 -0.3567  0.1815
 8267SOL    HW136434   3.612   1.941  12.583  1.4472  0.2130  0.7806
 8267SOL    HW236435   3.548   1.826  12.667  1.9771 -1.5085 -0.5382
 8268SOL     OW36436   3.858   4.268   1.991  0.4877  0.9052  0.4878
 8268SOL    HW136437   3.847   4.218   2.072  0.3023 -0.3194 -0.2973
 8268SOL    HW236438   3.931   4.313   2.032 -0.3654  1.6377  1.2131
 8269SOL     OW36439   4.613   1.704   8.452  0.5043  0.1622 -0.7658
 8269SOL    HW136440   4.566   1.778   8.414 -0.0227 -0.9578 -2.3210
 8269SOL    HW236441   4.547   1.637   8.432  1.4077 -0.8598 -0.2776
 8270SOL     OW36442   1.038   2.860   0.513 -0.0264  0.2386 -0.0196
 8270SOL    HW136443   1.032   2.948   0.478 -0.5012  0.9205  1.7447
 8270SOL    HW236444   1.071   2.878   0.602  0.2613 -1.3337  0.1962
 8271SOL     OW36445   4.160   2.711   5.626 -0.4844 -0.3907  0.2284
 8271SOL    HW136446   4.130   2.754   5.706  1.2833 -2.1624  1.8746
 8271SOL    HW236447   4.099   2.742   5.560 -0.1600 -2.6761 -1.1382
 8272SOL     OW36448   0.037   3.038   1.302  0.5251 -0.2422 -0.5757
 8272SOL    HW136449   0.009   3.071   1.387  0.2885  3.5205 -2.1325
 8272SOL    HW236450   0.128   3.062   1.288  0.1753  1.0729 -0.6439
 8273SOL     OW36451   3.603   2.888   3.661  0.0817 -0.7283 -0.1846
 8273SOL    HW136452   3.526   2.870   3.716 -0.1440 -0.3876 -0.3868
 8273SOL    HW236453   3.575   2.865   3.572 -1.4492 -2.4324  0.7520
 8274SOL     OW36454   0.627   0.475   7.106  0.3509  0.2285  0.1774
 8274SOL    HW136455   0.666   0.476   7.019  1.4279  3.2960  0.6891
 8274SOL    HW236456   0.650   0.565   7.131  1.1145 -0.0898  0.6273
 8275SOL     OW36457   2.050   2.934  16.402  0.1366 -0.0732 -0.1402
 8275SOL    HW136458   2.016   3.017  16.370 -0.5195 -0.6956 -1.0429
 8275SOL    HW236459   2.013   2.871  16.341  1.2546 -0.1865 -0.7172
 8276SOL     OW36460   3.926   1.144   3.144 -0.1522  0.0017 -0.3489
 8276SOL    HW136461   3.913   1.172   3.235 -0.4281  0.3280 -0.4896
 8276SOL    HW236462   3.908   1.219   3.087  0.5985  1.7341  1.6663
 8277SOL     OW36463   2.722   4.448   8.092 -0.7122 -0.3528 -0.1739
 8277SOL    HW136464   2.688   4.488   8.012 -0.8201 -0.2207 -0.0611
 8277SOL    HW236465   2.659   4.381   8.121  0.6632 -1.3807  0.4758
 8278SOL     OW36466   0.896   2.823   9.847  0.3133 -0.0957 -0.5780
 8278SOL    HW136467   0.881   2.749   9.907  0.6308 -1.1222 -1.7510
 8278SOL    HW236468   0.888   2.896   9.908  1.0605 -0.8114  0.3907
 8279SOL     OW36469   3.663   2.693   3.916  0.4091 -0.4570 -0.3108
 8279SOL    HW136470   3.677   2.637   3.839 -1.0824  0.3366 -1.1667
 8279SOL    HW236471   3.629   2.622   3.971  0.1733  0.1406  0.3088
 8280SOL     OW36472   0.679   3.796   6.104 -0.3937  0.1556  0.6220
 8280SOL    HW136473   0.597   3.803   6.154 -0.6160 -0.8426  0.3963
 8280SOL    HW236474   0.658   3.836   6.020  0.2293  1.0743  0.9056
 8281SOL     OW36475   4.390   3.134  16.354 -0.3866  0.0961  0.1571
 8281SOL    HW136476   4.418   3.051  16.392 -0.2766 -0.7518 -1.7813
 8281SOL    HW236477   4.339   3.107  16.278  1.0847 -1.4717 -0.2726
 8282SOL     OW36478   4.542   4.697   5.349 -0.8554 -0.0983  0.3776
 8282SOL    HW136479   4.545   0.055   5.364  2.2965  0.1240 -1.7171
 8282SOL    HW236480   4.453   4.696   5.314 -1.3626 -1.6178  1.6957
 8283SOL     OW36481   1.533   2.394   5.514  0.0664 -0.2783  0.2251
 8283SOL    HW136482   1.603   2.452   5.484  0.3317 -0.8658 -0.2913
 8283SOL    HW236483   1.473   2.449   5.564  1.2467  2.4391 -1.3840
 8284SOL     OW36484   2.384   2.149   4.296 -0.3589 -0.0580 -0.3318
 8284SOL    HW136485   2.444   2.083   4.332  0.5534  0.7405 -0.3742
 8284SOL    HW236486   2.425   2.173   4.213  0.4396  1.7045  0.5883
 8285SOL     OW36487   4.015   0.339   9.407  0.4095 -0.3131 -0.4118
 8285SOL    HW136488   3.938   0.392   9.390  1.0149  0.3959 -0.9118
 8285SOL    HW236489   4.039   0.313   9.318  2.6006 -2.3690  0.7694
 8286SOL     OW36490   0.882   2.259   7.123  0.9286 -0.0080 -0.1353
 8286SOL    HW136491   0.964   2.300   7.148  1.5641 -0.4294 -1.4823
 8286SOL    HW236492   0.877   2.291   7.033 -0.8371  4.1707  1.4656
 8287SOL     OW36493   2.890   4.304   3.615 -0.1854 -0.3994  0.2131
 8287SOL    HW136494   2.898   4.397   3.591  1.2508 -0.7924 -0.8056
 8287SOL    HW236495   2.799   4.288   3.594 -0.3980 -1.2938  1.8364
 8288SOL     OW36496   4.220   4.292   2.064 -0.2343  0.1467 -1.2162
 8288SOL    HW136497   4.175   4.211   2.040 -0.5227 -0.3401  1.0068
 8288SOL    HW236498   4.154   4.358   2.044  0.3008  1.0441 -0.0133
 8289SOL     OW36499   2.738   0.204   1.859  0.1511 -0.3594  0.2150
 8289SOL    HW136500   2.667   0.239   1.913 -0.1385  2.6129 -2.0669
 8289SOL    HW236501   2.792   0.283   1.850 -2.1190  1.3325  1.5368
 8290SOL     OW36502   1.964   2.249   2.494 -0.0005  0.0067  0.3720
 8290SOL    HW136503   1.877   2.234   2.457  0.1078  1.5763 -0.4823
 8290SOL    HW236504   1.944   2.274   2.584  1.5969  0.9047  0.4779
 8291SOL     OW36505   3.745   4.378   0.385  0.1213 -0.1331 -0.0764
 8291SOL    HW136506   3.659   4.384   0.428 -0.2703 -0.7508 -0.7916
 8291SOL    HW236507   3.756   4.284   0.372  0.7209 -0.1468  0.4792
 8292SOL     OW36508   3.104   3.409   6.835 -0.3265  0.0582  0.1976
 8292SOL    HW136509   3.015   3.418   6.868 -0.4875 -1.7607  0.2343
 8292SOL    HW236510   3.096   3.328   6.784 -1.2964  0.4051 -0.2081
 8293SOL     OW36511   1.195   4.445   8.703 -0.1890 -0.1815 -0.0193
 8293SOL    HW136512   1.272   4.474   8.752 -0.4798 -0.8168  0.8072
 8293SOL    HW236513   1.233   4.371   8.656 -0.6760 -0.6208  0.2881
 8294SOL     OW36514   3.600   0.583   4.814 -0.6175 -0.0753  0.1677
 8294SOL    HW136515   3.560   0.609   4.731 -0.4920  1.5347  0.5954
 8294SOL    HW236516   3.586   0.655   4.875 -0.5452 -0.5504  0.7364
 8295SOL     OW36517   0.446   1.318  12.264 -0.5982  0.7109 -0.5170
 8295SOL    HW136518   0.396   1.366  12.197 -0.7758  1.9712  0.5040
 8295SOL    HW236519   0.414   1.364  12.342  0.7336 -0.5248  0.7446
 8296SOL     OW36520   3.584   1.234  16.882  0.1846 -0.0617  0.1429
 8296SOL    HW136521   3.604   1.324  16.906 -1.5618  1.2426 -3.2840
 8296SOL    HW236522   3.564   1.202  16.969  3.5827 -2.7246 -0.0803
 8297SOL     OW36523   0.867   3.968  13.768 -0.7621  0.6055 -0.6384
 8297SOL    HW136524   0.866   3.928  13.854  1.2581  1.3623 -0.2555
 8297SOL    HW236525   0.873   4.061  13.792  0.2540  0.2904  0.3133
 8298SOL     OW36526   3.637   1.646   7.431  0.4448  0.3153 -0.5595
 8298SOL    HW136527   3.672   1.593   7.360  0.3655 -0.0982 -0.2936
 8298SOL    HW236528   3.656   1.596   7.510  0.5779  0.3705 -0.5556
 8299SOL     OW36529   0.277   4.644  15.900  0.0518  0.0568  0.9427
 8299SOL    HW136530   0.303   4.669  15.811 -2.2283  1.5780  0.7203
 8299SOL    HW236531   0.258   4.736  15.916  0.6823  0.4556 -0.5443
 8300SOL     OW36532   0.776   3.481   9.265  0.8617  0.2373  0.0886
 8300SOL    HW136533   0.860   3.491   9.220  0.9920  0.1305  0.3066
 8300SOL    HW236534   0.754   3.413   9.201  1.5936 -0.7870  0.9254
 8301SOL     OW36535   2.571   1.112   9.282  0.4883  0.5592  0.1573
 8301SOL    HW136536   2.563   1.195   9.234  0.9980  0.5306  0.0265
 8301SOL    HW236537   2.598   1.134   9.371 -0.3357  1.0546  0.2884
 8302SOL     OW36538   4.280   1.375   4.516  0.1372  0.6395  0.0385
 8302SOL    HW136539   4.346   1.444   4.515 -1.8196  2.5388 -0.7746
 8302SOL    HW236540   4.331   1.296   4.500  0.3113  0.6490  0.5677
 8303SOL     OW36541   0.499   2.517  15.412 -0.4914  0.0037 -0.0932
 8303SOL    HW136542   0.500   2.491  15.504 -1.1476  1.9929  0.4771
 8303SOL    HW236543   0.426   2.469  15.373 -1.2282  1.8614 -0.9667
 8304SOL     OW36544   1.185   2.766   6.039 -0.3286 -0.5129  0.1690
 8304SOL    HW136545   1.261   2.744   6.092 -0.0825 -1.9294 -0.7497
 8304SOL    HW236546   1.187   2.681   5.993  4.3765 -1.1092  1.4780
 8305SOL     OW36547   2.204   1.141  16.315 -0.1949 -0.1480 -0.1062
 8305SOL    HW136548   2.143   1.190  16.260 -1.8099 -1.6272  0.3582
 8305SOL    HW236549   2.269   1.210  16.327 -0.9942  0.7579 -0.9999
 8306SOL     OW36550   0.184   2.119   2.736  0.0021  0.0798 -0.0878
 8306SOL    HW136551   0.229   2.169   2.667  1.6329 -2.1843 -0.6619
 8306SOL    HW236552   0.184   2.036   2.689 -0.7870  0.3851 -0.6357
 8307SOL     OW36553   1.004   1.010  17.745 -0.0175 -0.1366 -0.3272
 8307SOL    HW136554   1.080   0.979  17.696  1.2330  1.7337  0.4296
 8307SOL    HW236555   0.955   0.929   0.009  1.0166 -0.7735 -0.3965
 8308SOL     OW36556   1.979   4.630   9.838 -0.5252 -0.0438 -0.3195
 8308SOL    HW136557   1.939   4.562   9.784  0.1526 -1.0586  0.4567
 8308SOL    HW236558   1.916   4.634   9.909 -0.7661 -0.9582 -0.4858
 8309SOL     OW36559   4.363   4.415  15.864  0.2191 -0.4084 -0.5632
 8309SOL    HW136560   4.276   4.422  15.824 -0.2749  1.6705  0.9253
 8309SOL    HW236561   4.353   4.351  15.935 -0.2347 -2.7157 -2.6835
 8310SOL     OW36562   2.867   1.493  16.268 -0.0258 -0.3548 -0.1003
 8310SOL    HW136563   2.854   1.578  16.309 -0.4421  0.2013 -1.3973
 8310SOL    HW236564   2.777   1.461  16.258  0.1036 -1.3666  1.9807
 8311SOL     OW36565   3.302   0.559   5.027 -0.2184  0.4567 -0.1635
 8311SOL    HW136566   3.312   0.540   4.934 -1.4416  0.8500 -0.3644
 8311SOL    HW236567   3.243   0.485   5.038 -0.1087  0.4463  0.3345
 8312SOL     OW36568   2.449   2.611   7.617  0.1380 -0.5215  0.0351
 8312SOL    HW136569   2.374   2.633   7.672  0.1726  2.2532 -1.0400
 8312SOL    HW236570   2.523   2.651   7.662 -0.0790  1.5510 -1.4439
 8313SOL     OW36571   0.938   2.643  10.070  0.2076 -0.0958  0.1958
 8313SOL    HW136572   0.971   2.590  10.142 -1.1693  0.3774  1.1740
 8313SOL    HW236573   0.993   2.722  10.073 -0.8415  0.7468 -3.5763
 8314SOL     OW36574   2.269   2.628   5.048 -0.9223  0.0034  0.1703
 8314SOL    HW136575   2.194   2.571   5.035  0.6920 -1.9870 -0.4349
 8314SOL    HW236576   2.342   2.567   5.035  0.6092  1.2965  2.5402
 8315SOL     OW36577   1.140   4.492   6.856  0.1480 -0.4606  0.6564
 8315SOL    HW136578   1.213   4.435   6.878  1.2643  1.0955  0.9958
 8315SOL    HW236579   1.181   4.576   6.837 -1.2675  0.2225  0.5709
 8316SOL     OW36580   1.612   0.815   5.490 -0.2855  0.1946  0.1000
 8316SOL    HW136581   1.571   0.799   5.405  2.1605  2.7223 -1.5582
 8316SOL    HW236582   1.637   0.728   5.522 -0.2950  0.7596  1.6384
 8317SOL     OW36583   1.871   0.769  10.601  0.1040  0.1883 -0.0684
 8317SOL    HW136584   1.922   0.836  10.556  0.8744 -1.1500 -1.1625
 8317SOL    HW236585   1.786   0.772  10.557 -0.0938 -2.8321  0.1589
 8318SOL     OW36586   1.193   4.308  13.636 -0.1001 -0.0016 -0.0236
 8318SOL    HW136587   1.098   4.311  13.635 -0.1373 -0.9581  0.7378
 8318SOL    HW236588   1.218   4.394  13.671  0.5481 -0.4992  0.7598
 8319SOL     OW36589   0.550   2.950  17.030  0.3614 -0.1526 -0.1791
 8319SOL    HW136590   0.634   2.906  17.018  0.4219 -0.5274  1.6920
 8319SOL    HW236591   0.582   3.040  17.036  0.8103 -0.4544  1.7581
 8320SOL     OW36592   2.561   0.056   1.460  0.6133  0.1687  0.1275
 8320SOL    HW136593   2.583   0.107   1.382 -1.5570  3.4078  1.6252
 8320SOL    HW236594   2.509   0.114   1.517 -0.2970 -1.0324  0.5262
 8321SOL     OW36595   3.183   3.584   7.249  0.0160  0.5409 -0.4143
 8321SOL    HW136596   3.134   3.663   7.225 -2.0202  0.2032  2.4687
 8321SOL    HW236597   3.261   3.600   7.197  1.6945 -1.1114  1.6026
 8322SOL     OW36598   2.721   0.403  17.668  0.0786 -0.7901 -0.3754
 8322SOL    HW136599   2.647   0.432  17.720 -0.4447 -2.2361 -0.3193
 8322SOL    HW236600   2.686   0.329  17.618 -0.7327  1.0737 -2.5392
 8323SOL     OW36601   1.776   0.036   8.266  0.5277  0.3098  0.7255
 8323SOL    HW136602   1.759   0.127   8.290  1.4341  0.6401  0.1043
 8323SOL    HW236603   1.770   4.727   8.350  2.0065 -1.1451  0.0182
 8324SOL     OW36604   2.725   4.042   2.227  0.2991  0.3832 -0.3621
 8324SOL    HW136605   2.812   4.038   2.188  0.8914 -2.8658  1.2773
 8324SOL    HW236606   2.738   4.128   2.267 -2.9265  1.2651 -1.1856
 8325SOL     OW36607   0.969   2.298   8.594 -0.0182  0.0298 -0.1665
 8325SOL    HW136608   0.887   2.336   8.562  0.7570  1.5666 -0.3329
 8325SOL    HW236609   0.991   2.227   8.534 -0.6514  0.9298 -1.4670
 8326SOL     OW36610   0.293   1.023  15.407 -0.6174 -0.7146  0.1822
 8326SOL    HW136611   0.378   0.979  15.404 -0.3167 -0.1152  0.0770
 8326SOL    HW236612   0.318   1.115  15.410 -2.0366 -0.3389  0.5586
 8327SOL     OW36613   2.978   3.722  12.372 -0.0482  0.5628  0.4463
 8327SOL    HW136614   2.907   3.759  12.320  1.1563  0.6631 -1.1290
 8327SOL    HW236615   2.933   3.697  12.452 -2.0912 -1.5954 -1.3669
 8328SOL     OW36616   4.016   2.627  11.678  0.1483  0.7933 -0.5785
 8328SOL    HW136617   4.095   2.626  11.731  0.8574 -0.1755 -1.6504
 8328SOL    HW236618   3.977   2.539  11.684  1.0641  0.3685 -0.8249
 8329SOL     OW36619   1.967   0.784   6.005 -0.1227  0.3831 -0.2418
 8329SOL    HW136620   2.000   0.797   5.916 -0.7343 -1.8311 -0.7851
 8329SOL    HW236621   1.968   0.873   6.039  0.9205 -0.0383  0.8494
 8330SOL     OW36622   2.293   4.312   7.167 -0.4083 -0.5378 -0.2587
 8330SOL    HW136623   2.284   4.407   7.171  0.3603 -0.4404 -0.8277
 8330SOL    HW236624   2.319   4.302   7.075 -0.1250  2.0900 -0.4725
 8331SOL     OW36625   2.116   3.493   5.080  0.2077 -0.3533  0.4161
 8331SOL    HW136626   2.023   3.508   5.098  0.2036  1.0770 -0.7971
 8331SOL    HW236627   2.158   3.485   5.165  0.2964 -1.6314  0.2436
 8332SOL     OW36628   0.912   2.728   2.142 -0.2535 -0.9467 -0.3069
 8332SOL    HW136629   0.987   2.767   2.186 -0.8140 -0.4016  0.1791
 8332SOL    HW236630   0.951   2.641   2.135 -0.4501 -1.2310  2.3473
 8333SOL     OW36631   3.811   2.410   4.723  0.1177 -0.5295  0.8022
 8333SOL    HW136632   3.851   2.331   4.760 -1.1542 -1.6993 -0.2915
 8333SOL    HW236633   3.804   2.385   4.631 -1.5221  0.5895  0.6220
 8334SOL     OW36634   2.772   0.654  15.443 -0.6557 -0.4207  0.2920
 8334SOL    HW136635   2.698   0.638  15.501 -1.1943  0.4711 -0.1350
 8334SOL    HW236636   2.819   0.571  15.450  0.0682 -0.0345  0.0403
 8335SOL     OW36637   0.435   1.588  13.858  0.2681  0.0790 -0.7779
 8335SOL    HW136638   0.388   1.669  13.881 -0.6330 -0.5018 -0.5762
 8335SOL    HW236639   0.365   1.534  13.895  1.7896 -0.9677  0.5955
 8336SOL     OW36640   3.919   1.605   5.332 -0.5947 -0.9135  0.3664
 8336SOL    HW136641   3.843   1.607   5.390  0.7861 -0.2099  2.1650
 8336SOL    HW236642   3.904   1.530   5.274  1.4456 -0.4248 -0.7899
 8337SOL     OW36643   2.108   0.283   7.612  0.2334  0.3706  0.0052
 8337SOL    HW136644   2.150   0.347   7.669  0.6981  1.6740 -1.7787
 8337SOL    HW236645   2.053   0.236   7.675  2.4349 -0.4966  1.3028
 8338SOL     OW36646   2.824   3.387  17.318  0.3503 -0.4327 -0.3789
 8338SOL    HW136647   2.807   3.478  17.343  0.5074 -0.3512 -0.5716
 8338SOL    HW236648   2.755   3.330  17.353  1.0416 -0.9203  0.2007
 8339SOL     OW36649   4.059   0.682   2.320 -0.4206  0.6936  0.1735
 8339SOL    HW136650   4.149   0.660   2.295 -0.6920  1.9676 -1.8559
 8339SOL    HW236651   4.052   0.645   2.409  1.5700  0.8805  0.4192
 8340SOL     OW36652   2.650   4.413   6.460 -0.6867 -0.2332  0.1479
 8340SOL    HW136653   2.698   4.330   6.465  1.0936  0.8169  0.6477
 8340SOL    HW236654   2.617   4.415   6.550  0.3230  0.3479  0.5167
 8341SOL     OW36655   4.589   1.657   1.596  0.4798  0.1851 -0.5634
 8341SOL    HW136656   4.628   1.744   1.601  1.3475 -0.1888 -0.9184
 8341SOL    HW236657   4.670   1.606   1.597 -0.0095 -0.5893  0.1996
 8342SOL     OW36658   0.945   3.759   5.624 -0.1619 -0.5446  0.1450
 8342SOL    HW136659   0.859   3.721   5.644 -0.1904 -0.6154 -0.1012
 8342SOL    HW236660   0.984   3.769   5.710 -0.3505  0.0377  0.1660
 8343SOL     OW36661   2.527   0.409   7.299  0.0580 -0.1317 -0.5954
 8343SOL    HW136662   2.462   0.477   7.317 -0.1898 -0.5150 -0.0315
 8343SOL    HW236663   2.606   0.452   7.268 -0.2480  0.6704 -0.2937
 8344SOL     OW36664   3.582   2.570  15.671 -0.0796 -0.5220  0.1166
 8344SOL    HW136665   3.662   2.601  15.714 -1.0191 -0.8653  2.0956
 8344SOL    HW236666   3.507   2.614  15.710  0.8428  1.0855  0.0612
 8345SOL     OW36667   1.279   3.307   8.904 -0.1879  0.6251  0.2213
 8345SOL    HW136668   1.281   3.364   8.982  2.7121 -0.6104  1.0776
 8345SOL    HW236669   1.329   3.230   8.930 -2.1468 -0.7163 -0.0486
 8346SOL     OW36670   1.948   1.748   5.521 -0.1289  0.4193 -0.1728
 8346SOL    HW136671   1.862   1.787   5.505  0.8180  1.0369 -3.7865
 8346SOL    HW236672   1.931   1.664   5.479 -1.2919 -0.4124  1.9810
 8347SOL     OW36673   3.469   1.497   6.139 -0.1008  0.3761 -0.2244
 8347SOL    HW136674   3.535   1.432   6.165 -0.6646 -0.2791 -0.4338
 8347SOL    HW236675   3.477   1.487   6.044  0.1979  0.7686 -0.2414
 8348SOL     OW36676   2.460   1.692   6.976  0.0574 -0.0481 -0.0184
 8348SOL    HW136677   2.406   1.741   6.914  0.0649  0.5400  0.4444
 8348SOL    HW236678   2.516   1.646   6.913 -0.9131  0.2879 -1.1241
 8349SOL     OW36679   1.778   0.235  13.073 -0.1750  0.0308  0.0609
 8349SOL    HW136680   1.862   0.240  13.119  0.8999 -1.6198 -1.6905
 8349SOL    HW236681   1.794   0.194  12.988  0.4167 -1.8224  1.0657
 8350SOL     OW36682   2.027   1.489  12.442 -0.2004 -0.8618 -0.1847
 8350SOL    HW136683   2.089   1.454  12.505 -1.5932  0.9986  2.2473
 8350SOL    HW236684   2.031   1.582  12.465 -0.5558 -1.0558  0.6728
 8351SOL     OW36685   0.017   0.644   7.601  0.1949  0.3431  0.5614
 8351SOL    HW136686   4.709   0.648   7.517 -0.3326  0.7921  0.8679
 8351SOL    HW236687   4.685   0.659   7.666  0.8463 -0.3126  1.4044
 8352SOL     OW36688   0.680   3.159   8.286  0.8839  0.0193  0.2482
 8352SOL    HW136689   0.621   3.165   8.361  0.3403 -3.2225  0.0836
 8352SOL    HW236690   0.753   3.113   8.326  1.6769 -0.1029 -1.3309
 8353SOL     OW36691   1.164   4.575   5.445 -0.1531  0.1216  0.8988
 8353SOL    HW136692   1.177   4.486   5.413 -1.0317 -0.0822  1.0844
 8353SOL    HW236693   1.072   4.589   5.422  0.0257  0.5605  0.4470
 8354SOL     OW36694   0.500   4.478   8.209  0.1647 -0.1784  0.5172
 8354SOL    HW136695   0.458   4.521   8.285 -2.1663 -1.0674 -0.2701
 8354SOL    HW236696   0.439   4.496   8.138 -0.4835 -0.9577  0.8731
 8355SOL     OW36697   3.056   0.002   2.391 -0.5001  0.1601 -0.0109
 8355SOL    HW136698   2.992   4.680   2.432 -0.0970  0.1718  0.6374
 8355SOL    HW236699   3.038   0.075   2.450  1.6387 -0.4563  1.3790
 8356SOL     OW36700   2.082   3.266   5.390 -0.3960 -0.5563 -0.5190
 8356SOL    HW136701   2.126   3.351   5.389  0.4372 -1.0024 -3.8805
 8356SOL    HW236702   2.152   3.201   5.388  1.0262  1.0298 -2.3719
 8357SOL     OW36703   4.303   0.609   4.794  0.1753  0.2477  0.5460
 8357SOL    HW136704   4.386   0.609   4.747 -0.3704 -0.9832 -0.4439
 8357SOL    HW236705   4.275   0.690   4.753 -1.8123 -0.8466 -0.2451
 8358SOL     OW36706   2.031   3.213   7.065 -0.0293  0.0899  0.4960
 8358SOL    HW136707   2.061   3.152   7.133  2.2430  0.2965 -0.3234
 8358SOL    HW236708   1.960   3.258   7.110  0.9652  1.6126  0.5232
 8359SOL     OW36709   2.006   3.211  10.124  0.4092  0.2949 -0.2532
 8359SOL    HW136710   2.056   3.136  10.090 -1.1226 -1.5268  1.5298
 8359SOL    HW236711   1.976   3.251  10.042  0.1126 -2.0359 -1.3005
 8360SOL     OW36712   2.284   0.440  11.181  0.0710  0.2741  0.5084
 8360SOL    HW136713   2.329   0.430  11.097  0.7014 -0.4115  0.9306
 8360SOL    HW236714   2.206   0.389  11.158  0.2641  1.1387 -2.0810
 8361SOL     OW36715   0.278   1.105   8.394  0.4509  0.2670 -0.3778
 8361SOL    HW136716   0.346   1.170   8.409  1.0549 -0.0794 -1.6060
 8361SOL    HW236717   0.213   1.167   8.359  1.4693  1.0091 -0.9339
 8362SOL     OW36718   4.609   1.080   1.099  0.3220 -0.3944 -0.3598
 8362SOL    HW136719   4.537   1.057   1.040  0.4059 -1.3361 -0.1107
 8362SOL    HW236720   4.565   1.062   1.182 -0.2096  0.6485 -0.4175
 8363SOL     OW36721   2.408   2.861   3.269 -0.1355  0.4622 -0.1800
 8363SOL    HW136722   2.413   2.767   3.282 -1.2220  0.4201 -0.0975
 8363SOL    HW236723   2.334   2.892   3.321 -2.5407 -0.3746 -3.1553
 8364SOL     OW36724   0.416   0.332   5.847 -0.5820 -0.2112  0.2545
 8364SOL    HW136725   0.329   0.307   5.878 -0.8884 -0.9247 -1.1951
 8364SOL    HW236726   0.393   0.403   5.788 -0.0018 -0.5766 -0.4135
 8365SOL     OW36727   1.476   2.932  10.778  0.0599  0.2097  0.0097
 8365SOL    HW136728   1.391   2.917  10.820 -0.6578 -3.0193 -2.6062
 8365SOL    HW236729   1.484   3.024  10.806  0.5781 -0.4897  2.1719
 8366SOL     OW36730   3.215   1.058  16.687 -0.3970 -0.3671 -0.4953
 8366SOL    HW136731   3.172   1.086  16.606 -0.8709 -0.2303 -0.1923
 8366SOL    HW236732   3.148   0.998  16.720  0.0076  0.4346  1.7631
 8367SOL     OW36733   1.454   0.455   2.515 -0.0829  0.0388  0.1838
 8367SOL    HW136734   1.428   0.376   2.563 -3.7449  1.8494  1.1941
 8367SOL    HW236735   1.543   0.429   2.491 -0.0266  1.5675 -1.2406
 8368SOL     OW36736   3.602   1.199  13.427 -0.5760 -0.1606 -0.4434
 8368SOL    HW136737   3.537   1.270  13.425 -0.3890  0.0961  2.4383
 8368SOL    HW236738   3.675   1.230  13.372 -0.3907  4.2835  2.2621
 8369SOL     OW36739   0.456   3.728  11.477 -0.0298  0.5254  0.3633
 8369SOL    HW136740   0.405   3.788  11.531 -1.0934  1.8229 -2.0868
 8369SOL    HW236741   0.537   3.713  11.526  1.4443 -1.9321 -2.8239
 8370SOL     OW36742   0.420   0.526   5.136  0.1459  0.3738  0.0170
 8370SOL    HW136743   0.509   0.499   5.114 -0.1485 -0.7483  0.2317
 8370SOL    HW236744   0.385   0.528   5.047  0.4244  0.5170 -0.0892
 8371SOL     OW36745   2.616   0.838   8.273  0.1418 -0.0748  0.1687
 8371SOL    HW136746   2.702   0.805   8.296  0.4181 -0.7269 -1.7599
 8371SOL    HW236747   2.629   0.930   8.297 -1.4504  0.1507  0.2076
 8372SOL     OW36748   2.998   0.430   0.723 -0.1233 -0.7746  0.5251
 8372SOL    HW136749   3.058   0.449   0.795  0.1997 -1.3429  0.4051
 8372SOL    HW236750   2.910   0.451   0.757 -0.8125 -1.3315 -0.9408
 8373SOL     OW36751   4.553   2.947   6.177  0.3553  0.2308  0.4071
 8373SOL    HW136752   4.489   2.889   6.136  0.3778 -0.3511  1.2011
 8373SOL    HW236753   4.575   2.996   6.097  3.0853 -0.7642  0.5510
 8374SOL     OW36754   2.729   0.719  17.628  0.7050 -0.2997 -0.0666
 8374SOL    HW136755   2.802   0.777  17.652  1.0761 -0.8955  0.2422
 8374SOL    HW236756   2.781   0.676  17.560  2.7651  1.0402  0.6851
 8375SOL     OW36757   3.120   4.305  17.624  0.1678  0.0385  0.1878
 8375SOL    HW136758   3.153   4.319  17.536  0.7126 -0.6330  0.2844
 8375SOL    HW236759   3.098   4.212  17.618  1.4405 -0.1738 -1.0248
 8376SOL     OW36760   3.726   0.707   1.408 -0.0153  0.1961 -0.0211
 8376SOL    HW136761   3.667   0.722   1.335  0.6730  2.5975 -0.0757
 8376SOL    HW236762   3.675   0.645   1.460 -2.1356  0.1149 -2.2470
 8377SOL     OW36763   2.052   4.097  14.180  0.0630  0.0327 -0.3786
 8377SOL    HW136764   2.132   4.049  14.197  0.8580  0.9708 -1.4372
 8377SOL    HW236765   2.069   4.162  14.248  0.0470 -0.6243  0.2537
 8378SOL     OW36766   3.895   2.941   5.043 -0.0581  0.0462  0.9466
 8378SOL    HW136767   3.938   2.980   5.119  0.0638  1.0180  0.3767
 8378SOL    HW236768   3.882   2.858   5.089  3.3875 -0.3767  1.1758
 8379SOL     OW36769   4.210   3.078  14.350 -0.7698 -0.3287 -0.3832
 8379SOL    HW136770   4.199   3.059  14.443  1.3852 -0.0094 -0.0680
 8379SOL    HW236771   4.189   2.994  14.310  1.0156 -0.6775 -0.5930
 8380SOL     OW36772   3.608   3.657   5.346 -0.3261 -0.3449  0.3349
 8380SOL    HW136773   3.599   3.739   5.298 -0.0191 -2.0448 -2.6015
 8380SOL    HW236774   3.633   3.701   5.428 -0.1208 -1.0783  0.6615
 8381SOL     OW36775   2.960   0.305   0.370  0.0061 -0.1043 -0.3280
 8381SOL    HW136776   2.869   0.334   0.366 -0.0037 -0.0870 -0.0025
 8381SOL    HW236777   2.963   0.240   0.441  1.2504  0.2387 -0.0623
 8382SOL     OW36778   4.269   2.056  17.647  0.4106 -0.4080  0.5232
 8382SOL    HW136779   4.276   1.975  17.597  0.3486  0.3602 -0.7456
 8382SOL    HW236780   4.322   2.030  17.721 -0.8557  0.5558  1.7677
 8383SOL     OW36781   3.246   0.990   3.232 -0.1519 -0.1479  0.4944
 8383SOL    HW136782   3.303   0.975   3.307 -1.3078 -2.0456  0.9976
 8383SOL    HW236783   3.215   0.901   3.211 -0.0486 -0.4710  1.7631
 8384SOL     OW36784   2.388   0.452  11.726  0.6298  0.0017 -0.6174
 8384SOL    HW136785   2.393   0.490  11.638 -1.6972 -1.5181 -1.3987
 8384SOL    HW236786   2.377   0.531  11.779 -0.5564 -0.4610 -0.1789
 8385SOL     OW36787   1.196   3.428   5.732  0.2688 -0.0339  0.3138
 8385SOL    HW136788   1.200   3.445   5.638 -0.4914 -0.5905  0.1809
 8385SOL    HW236789   1.283   3.439   5.769  1.2226 -0.7810 -1.6977
 8386SOL     OW36790   3.830   3.731  16.144 -0.7656 -0.1618 -0.0664
 8386SOL    HW136791   3.868   3.643  16.149  0.1541  0.2719  0.5397
 8386SOL    HW236792   3.887   3.766  16.075 -0.3717 -0.8013 -0.0567
 8387SOL     OW36793   0.155   3.944   1.092  0.2467  0.4879 -0.3398
 8387SOL    HW136794   0.220   4.009   1.120  0.7519  0.3248 -1.1457
 8387SOL    HW236795   0.091   3.953   1.163 -1.2478 -0.6549 -1.5482
 8388SOL     OW36796   0.466   2.234   8.251  0.2748 -0.4159  0.0021
 8388SOL    HW136797   0.406   2.298   8.214  2.0906  1.1622 -0.2272
 8388SOL    HW236798   0.505   2.189   8.176 -0.9088 -1.8277  0.2336
 8389SOL     OW36799   0.240   2.123   5.568 -0.0982 -0.4653 -0.1355
 8389SOL    HW136800   0.237   2.052   5.633 -0.4605  1.6791  2.1785
 8389SOL    HW236801   0.332   2.149   5.563 -0.4560  0.3461 -2.7049
 8390SOL     OW36802   0.375   2.753  16.075  0.7652  0.6824  0.0673
 8390SOL    HW136803   0.289   2.713  16.081  1.2088 -0.0695  1.5602
 8390SOL    HW236804   0.394   2.763  16.169  0.0941  1.8498  0.0682
 8391SOL     OW36805   0.795   1.676  15.145  0.0168 -0.4256 -0.3284
 8391SOL    HW136806   0.816   1.690  15.053 -1.4820  1.0499 -0.4409
 8391SOL    HW236807   0.717   1.732  15.140  1.8323  2.2118  1.1528
 8392SOL     OW36808   4.460   4.528   4.864  0.0122 -0.3652 -0.4293
 8392SOL    HW136809   4.410   4.606   4.889  1.0329  0.2924 -0.4344
 8392SOL    HW236810   4.512   4.544   4.785 -1.1781 -0.6317 -1.2539
 8393SOL     OW36811   0.626   2.871   1.309 -0.3064  0.2918  0.5747
 8393SOL    HW136812   0.624   2.870   1.404  2.3151 -0.9827  0.6301
 8393SOL    HW236813   0.539   2.898   1.279  1.2898  2.3914 -2.2469
 8394SOL     OW36814   1.267   1.541  14.485 -0.0139  0.2874  0.1220
 8394SOL    HW136815   1.205   1.595  14.533 -0.1880  0.7247 -0.6070
 8394SOL    HW236816   1.280   1.464  14.541 -0.0296 -1.1082 -1.8065
 8395SOL     OW36817   3.986   1.272   5.476  0.3858 -0.3080 -0.3488
 8395SOL    HW136818   3.970   1.287   5.569  3.6297  0.8785  0.0186
 8395SOL    HW236819   3.919   1.206   5.456 -0.3374  0.4961 -0.6042
 8396SOL     OW36820   3.621   1.812   3.212 -0.0353 -0.5096 -0.0192
 8396SOL    HW136821   3.652   1.738   3.264  3.0359  0.6394 -0.2288
 8396SOL    HW236822   3.549   1.769   3.166  0.1304 -0.9361  0.1254
 8397SOL     OW36823   2.952   3.086   5.873  0.1811 -0.3705 -0.0125
 8397SOL    HW136824   2.908   3.127   5.799 -1.0411 -0.4068  0.6870
 8397SOL    HW236825   2.893   3.013   5.892  1.1129 -1.7497 -2.5001
 8398SOL     OW36826   2.242   3.200   8.024 -0.1369 -0.3634 -0.0168
 8398SOL    HW136827   2.319   3.195   7.968 -0.5996 -1.4557 -0.5589
 8398SOL    HW236828   2.239   3.106   8.044  1.8165 -0.4248  0.0165
 8399SOL     OW36829   1.573   2.942  16.510  0.4084 -0.4644  0.2376
 8399SOL    HW136830   1.562   3.034  16.531 -0.1919 -1.4724  4.4043
 8399SOL    HW236831   1.613   2.938  16.423 -2.4399 -1.4057 -1.0181
 8400SOL     OW36832   4.129   1.341   4.909 -0.5325  0.0984 -0.3213
 8400SOL    HW136833   4.182   1.413   4.874  0.0943  0.4204  1.3002
 8400SOL    HW236834   4.080   1.314   4.831 -3.3481  0.3211  1.4104
 8401SOL     OW36835   4.289   0.040   8.588  0.8686 -0.1154  0.3013
 8401SOL    HW136836   4.245   0.034   8.504  2.7985  0.8870 -0.7811
 8401SOL    HW236837   4.372   0.083   8.567  0.3654  0.7219  0.0383
 8402SOL     OW36838   0.954   4.312   9.250 -0.4763  0.6800 -0.0830
 8402SOL    HW136839   1.037   4.352   9.224  0.6268 -0.5638  1.5558
 8402SOL    HW236840   0.970   4.223   9.220  2.0159  1.1519 -0.1016
 8403SOL     OW36841   0.758   1.167   8.986 -0.2870  0.1716  0.3722
 8403SOL    HW136842   0.720   1.080   8.973 -1.5481  0.4389  2.2146
 8403SOL    HW236843   0.690   1.219   8.944 -1.7526 -1.5654  0.6022
 8404SOL     OW36844   2.556   2.103  10.282 -0.1626 -0.1353 -0.6563
 8404SOL    HW136845   2.591   2.157  10.352  0.9657  0.8965 -2.0338
 8404SOL    HW236846   2.626   2.041  10.262  0.3469 -0.0509  0.8638
 8405SOL     OW36847   4.338   2.063   2.411  0.7041 -0.0147  0.3083
 8405SOL    HW136848   4.341   1.969   2.433  3.3694  0.0641  0.2725
 8405SOL    HW236849   4.370   2.102   2.492  2.0789  1.3942 -0.9165
 8406SOL     OW36850   1.866   3.575   5.043 -0.5861  0.2737 -0.0914
 8406SOL    HW136851   1.803   3.544   5.108 -1.0839  1.0547 -0.2037
 8406SOL    HW236852   1.868   3.664   5.076  0.0759  0.3050 -0.2316
 8407SOL     OW36853   4.437   0.110   5.663  0.4504  0.0286 -0.0801
 8407SOL    HW136854   4.375   0.043   5.694  1.5053  0.2544  2.5348
 8407SOL    HW236855   4.396   0.142   5.583 -1.0692  1.5241  1.2899
 8408SOL     OW36856   2.255   1.540   2.515 -0.1755 -0.4218 -0.1359
 8408SOL    HW136857   2.202   1.511   2.442  0.2778  1.6422 -1.2748
 8408SOL    HW236858   2.213   1.623   2.537  2.1829  1.3944 -2.5092
 8409SOL     OW36859   3.122   2.502   3.868  0.1474 -0.4853  0.2164
 8409SOL    HW136860   3.043   2.501   3.922 -0.3751 -1.0624 -0.5582
 8409SOL    HW236861   3.147   2.593   3.883  0.4039 -0.5914  0.4327
 8410SOL     OW36862   1.075   1.024   4.458  0.0273 -0.2908  0.7160
 8410SOL    HW136863   1.003   1.014   4.396 -0.8743  1.3034  1.5298
 8410SOL    HW236864   1.146   0.969   4.424  1.4341  1.6605  0.5016
 8411SOL     OW36865   1.704   3.411   8.615  0.1711  0.0965  0.5162
 8411SOL    HW136866   1.629   3.385   8.669 -0.1836  0.0510  0.0053
 8411SOL    HW236867   1.751   3.328   8.615  1.3304  0.7621 -2.3747
 8412SOL     OW36868   4.588   1.702   3.734 -0.5359 -0.0632  0.1631
 8412SOL    HW136869   4.552   1.614   3.736  0.3394 -0.4302 -0.0095
 8412SOL    HW236870   4.515   1.752   3.771  1.8269  1.3141  3.0528
 8413SOL     OW36871   4.209   0.308   6.488  0.1790  0.0082  0.4789
 8413SOL    HW136872   4.279   0.256   6.528  1.3680  1.3443  0.1505
 8413SOL    HW236873   4.133   0.274   6.534 -0.6935 -0.1506 -1.1006
 8414SOL     OW36874   2.634   1.344   9.459  0.7793 -0.0595  0.3296
 8414SOL    HW136875   2.613   1.427   9.503  0.4813 -0.2283  0.5006
 8414SOL    HW236876   2.627   1.280   9.530 -0.1460 -1.1075 -0.7052
 8415SOL     OW36877   1.345   0.675   4.664  0.1191 -0.0135  0.1243
 8415SOL    HW136878   1.288   0.751   4.658 -0.0051 -0.0252  1.1034
 8415SOL    HW236879   1.410   0.705   4.728  1.2830  1.2879 -1.6839
 8416SOL     OW36880   1.300   3.494   1.914  0.5557  0.4556 -0.3538
 8416SOL    HW136881   1.260   3.548   1.846 -2.0413  0.8462  1.4680
 8416SOL    HW236882   1.325   3.414   1.868  0.5716 -0.1797  0.7638
 8417SOL     OW36883   3.399   0.354   9.014  0.6354  0.0319  0.0588
 8417SOL    HW136884   3.371   0.321   9.099 -1.2559  1.6504  0.0669
 8417SOL    HW236885   3.456   0.425   9.042  0.3264  0.0110  0.7331
 8418SOL     OW36886   0.787   3.561   3.050 -0.4154  0.2491  0.5408
 8418SOL    HW136887   0.745   3.546   2.965  1.7960 -1.7454 -0.2226
 8418SOL    HW236888   0.864   3.611   3.020 -0.0798  0.1614  1.2650
 8419SOL     OW36889   0.533   1.822   8.593  0.1070 -0.1452  0.4819
 8419SOL    HW136890   0.569   1.751   8.541 -0.0229  0.8199 -0.9391
 8419SOL    HW236891   0.538   1.779   8.678  2.7631 -1.1447 -0.1748
 8420SOL     OW36892   0.735   2.381  14.019 -0.5496 -0.5274  0.1220
 8420SOL    HW136893   0.777   2.393  13.934 -1.6269 -3.6780 -0.8400
 8420SOL    HW236894   0.709   2.472  14.034  2.8563  0.6216 -1.0750
 8421SOL     OW36895   2.399   2.421   4.309  0.1424 -0.3484  0.4495
 8421SOL    HW136896   2.310   2.452   4.297 -0.0494 -0.2444  2.1367
 8421SOL    HW236897   2.381   2.327   4.313  1.5410 -0.6761 -0.9282
 8422SOL     OW36898   4.150   4.625  10.551  0.5370  0.1930 -0.1079
 8422SOL    HW136899   4.121   4.705  10.596  0.4658 -0.8297  1.6959
 8422SOL    HW236900   4.181   4.654  10.466 -0.3596 -0.6792 -0.7327
 8423SOL     OW36901   4.486   0.373  17.264 -0.3660 -0.1513  0.2559
 8423SOL    HW136902   4.562   0.405  17.312 -0.7348  1.7154 -0.4228
 8423SOL    HW236903   4.430   0.450  17.256 -1.6410 -0.9580  1.5179
 8424SOL     OW36904   1.724   2.736   1.554 -0.5470  0.0993  0.4137
 8424SOL    HW136905   1.632   2.711   1.549 -0.9309  1.2901  1.4476
 8424SOL    HW236906   1.758   2.651   1.527 -1.3851 -0.4984  1.2183
 8425SOL     OW36907   1.562   3.759   7.659  0.1781  1.0207 -0.0925
 8425SOL    HW136908   1.470   3.760   7.634 -0.0167  1.9545  0.7107
 8425SOL    HW236909   1.559   3.760   7.754  1.2504 -1.4696 -0.0270
 8426SOL     OW36910   2.273   2.408   1.992  0.0209 -0.5157  0.1669
 8426SOL    HW136911   2.305   2.322   2.020 -1.3523 -0.4681  1.8736
 8426SOL    HW236912   2.355   2.449   1.964 -0.5159 -0.7825 -1.8307
 8427SOL     OW36913   3.643   0.544   0.054  0.4963 -0.5344 -0.2848
 8427SOL    HW136914   3.645   0.471   0.116 -0.6252 -0.9102 -0.6796
 8427SOL    HW236915   3.628   0.509  17.712  2.2800 -0.0613 -0.7738
 8428SOL     OW36916   1.436   3.666   4.646 -0.0764 -0.2146  0.2575
 8428SOL    HW136917   1.456   3.673   4.739  1.4524  1.9675 -0.2485
 8428SOL    HW236918   1.341   3.669   4.647 -0.1024 -1.8517  2.2191
 8429SOL     OW36919   2.428   1.669   5.398 -0.4040 -0.3979  0.2460
 8429SOL    HW136920   2.361   1.620   5.352 -2.1833 -0.0243  2.4632
 8429SOL    HW236921   2.394   1.757   5.413 -2.4818 -1.5149  2.0467
 8430SOL     OW36922   1.423   4.233  17.241  0.8142 -0.0263  0.1731
 8430SOL    HW136923   1.393   4.304  17.298 -2.0363  0.1708 -1.5797
 8430SOL    HW236924   1.504   4.205  17.282  1.5611  2.6240  0.5240
 8431SOL     OW36925   1.925   0.687   5.015  0.0022 -0.0580  0.6457
 8431SOL    HW136926   1.871   0.713   4.939 -1.6022 -0.1234  1.7705
 8431SOL    HW236927   1.952   0.774   5.043  0.5437 -0.2691  0.7714
 8432SOL     OW36928   2.718   2.935   5.929  0.2709 -0.3146 -0.7078
 8432SOL    HW136929   2.717   2.846   5.966  2.3491 -0.4704 -1.0324
 8432SOL    HW236930   2.643   2.977   5.972  1.0880  0.2357  0.1782
 8433SOL     OW36931   1.991   2.658   1.624  0.1208 -0.1491 -0.0866
 8433SOL    HW136932   1.976   2.749   1.651 -2.1310 -0.5347 -0.0899
 8433SOL    HW236933   2.051   2.633   1.695 -0.0021  0.6077  0.2881
 8434SOL     OW36934   2.742   4.177   1.548  0.1416  0.0955  0.1478
 8434SOL    HW136935   2.805   4.113   1.582  0.0686 -0.1356 -0.1434
 8434SOL    HW236936   2.696   4.201   1.628 -0.2062 -1.3174  0.3795
 8435SOL     OW36937   4.733   4.216  13.367  0.2844  0.5029 -0.5553
 8435SOL    HW136938   0.010   4.214  13.462 -3.4348  2.0319  0.0113
 8435SOL    HW236939   4.686   4.132  13.365 -0.2801  0.7805  0.8434
 8436SOL     OW36940   3.766   2.878   4.736  0.0567 -0.5841  0.1348
 8436SOL    HW136941   3.759   2.966   4.774  0.1965 -0.6034  0.2038
 8436SOL    HW236942   3.857   2.850   4.741  0.5976  1.0279 -0.5915
 8437SOL     OW36943   2.076   0.264  14.539  0.0592 -0.6236  0.1254
 8437SOL    HW136944   2.053   0.334  14.601  0.7842  0.8369 -1.2389
 8437SOL    HW236945   2.158   0.292  14.500 -0.7127 -1.3423 -2.0039
 8438SOL     OW36946   4.631   3.513  16.903  0.4151  0.4893  0.3472
 8438SOL    HW136947   4.681   3.441  16.863 -0.2144 -1.2853  2.7592
 8438SOL    HW236948   4.594   3.468  16.979  1.2324 -0.2315  0.3213
 8439SOL     OW36949   1.304   2.571  16.025 -0.1142 -0.0955  0.2314
 8439SOL    HW136950   1.234   2.508  16.042  0.3305 -0.7693 -0.4352
 8439SOL    HW236951   1.255   2.633  15.970 -0.9497 -2.0444 -1.2346
 8440SOL     OW36952   3.795   3.767  13.763 -0.2075  0.7718 -0.3838
 8440SOL    HW136953   3.711   3.753  13.807 -1.7192  0.0973 -3.4282
 8440SOL    HW236954   3.789   3.704  13.691 -1.6221 -2.1365  2.2655
 8441SOL     OW36955   3.248   1.317  17.449  0.6929  0.5793  0.3633
 8441SOL    HW136956   3.227   1.359  17.365  2.1597  0.1537 -0.2199
 8441SOL    HW236957   3.298   1.243  17.415  1.0504  1.0678 -0.1901
 8442SOL     OW36958   3.689   2.901   7.633 -0.0637 -0.1973  0.3754
 8442SOL    HW136959   3.759   2.940   7.685  0.3695  0.0354 -0.3833
 8442SOL    HW236960   3.709   2.941   7.548  3.5927 -0.7869  0.9796
 8443SOL     OW36961   1.489   3.543   7.996  0.1609 -0.0296  0.3035
 8443SOL    HW136962   1.568   3.547   8.050  0.9024  0.1646 -0.8035
 8443SOL    HW236963   1.494   3.629   7.955 -1.8005 -0.3422 -0.5774
 8444SOL     OW36964   3.115   1.799   6.393  0.6272  0.1993 -0.3311
 8444SOL    HW136965   3.199   1.832   6.426  0.4811 -0.4898  0.7112
 8444SOL    HW236966   3.132   1.706   6.382  1.5203  0.1864  1.2063
 8445SOL     OW36967   3.797   4.519   6.516 -0.2952 -0.2007 -0.2348
 8445SOL    HW136968   3.889   4.531   6.540 -0.3699 -1.0353  0.4507
 8445SOL    HW236969   3.781   4.425   6.521  2.1230 -0.7360 -2.3278
 8446SOL     OW36970   3.653   4.342  12.100 -0.1526 -0.2165  0.3411
 8446SOL    HW136971   3.709   4.323  12.024 -0.8994  0.2702 -0.3250
 8446SOL    HW236972   3.599   4.416  12.072 -2.8524 -2.4268 -0.3697
 8447SOL     OW36973   3.804   2.928   9.715  0.4992 -0.1391  0.1211
 8447SOL    HW136974   3.793   3.014   9.756 -1.8420 -0.1791 -0.4134
 8447SOL    HW236975   3.724   2.911   9.664  1.0307 -1.5569 -0.2261
 8448SOL     OW36976   0.743   3.953   7.087 -0.2381  0.0426 -0.7394
 8448SOL    HW136977   0.664   3.982   7.132  1.0793  0.0707  1.5185
 8448SOL    HW236978   0.723   3.861   7.069 -0.3110  0.1927 -1.4502
 8449SOL     OW36979   4.616   0.012   0.160 -0.8996 -0.2919  0.0728
 8449SOL    HW136980   4.665   4.672   0.128  0.7966  0.8225  0.0278
 8449SOL    HW236981   4.690   0.060   0.198 -0.2492 -0.2129 -1.2792
 8450SOL     OW36982   3.587   0.557   7.733  0.4857  0.2860 -0.0792
 8450SOL    HW136983   3.640   0.526   7.659  1.3355 -0.4972  0.8669
 8450SOL    HW236984   3.558   0.642   7.698 -0.0520  0.1198 -0.0372
 8451SOL     OW36985   1.927   1.027   8.600  0.1091  0.0202  0.9884
 8451SOL    HW136986   1.890   1.069   8.522  1.6652 -0.2919  0.0693
 8451SOL    HW236987   1.884   0.942   8.592  0.9051 -0.2860 -0.0194
 8452SOL     OW36988   0.368   4.210   1.198 -0.3249  0.1636 -0.4215
 8452SOL    HW136989   0.345   4.211   1.105 -0.1403  1.9961 -0.4509
 8452SOL    HW236990   0.309   4.279   1.227 -0.4523  0.4082 -1.2533
 8453SOL     OW36991   4.039   3.896   6.209  0.5372 -0.0756  0.0399
 8453SOL    HW136992   4.121   3.907   6.161  1.4950  1.4964  2.0240
 8453SOL    HW236993   4.007   3.813   6.173  0.1211  0.6776 -1.2945
 8454SOL     OW36994   4.290   4.341   6.741 -0.4143 -0.0264  0.4015
 8454SOL    HW136995   4.348   4.317   6.669 -1.4049 -1.8474  0.2034
 8454SOL    HW236996   4.336   4.417   6.777  0.7491 -0.7329  0.3829
 8455SOL     OW36997   2.518   4.468   0.259 -0.6877  0.1343 -0.3704
 8455SOL    HW136998   2.494   4.375   0.261 -2.2194  0.5441  0.5890
 8455SOL    HW236999   2.463   4.502   0.188  0.7859  0.0889 -1.5283
 8456SOL     OW37000   0.771   0.237   5.679  0.4958  0.0581 -0.0276
 8456SOL    HW137001   0.773   0.265   5.770 -0.0748 -0.7525  0.2292
 8456SOL    HW237002   0.834   0.167   5.664  0.8484  0.7688 -1.9306
 8457SOL     OW37003   2.622   4.272   5.446 -0.4305 -0.2685 -0.5475
 8457SOL    HW137004   2.633   4.183   5.480 -1.7230 -0.1977  0.0875
 8457SOL    HW237005   2.549   4.308   5.496 -0.1950  0.9301 -1.0764
 8458SOL     OW37006   2.167   0.380   9.381  0.0220  0.4472  0.1425
 8458SOL    HW137007   2.105   0.452   9.369 -1.6709 -1.4289 -2.3016
 8458SOL    HW237008   2.250   0.426   9.391 -0.1962  0.6161  1.2781
 8459SOL     OW37009   0.043   4.000   0.167  0.0141  0.0199 -0.1770
 8459SOL    HW137010   0.058   4.092   0.187  2.0893 -1.1691  3.6239
 8459SOL    HW237011   4.715   3.996   0.096 -0.6157  0.6894  0.3667
 8460SOL     OW37012   2.889   3.277   6.276  0.0316  0.3286  0.0828
 8460SOL    HW137013   2.808   3.252   6.231  0.0609 -1.8869  1.2797
 8460SOL    HW237014   2.926   3.330   6.205 -0.9678  2.2667  0.9945
 8461SOL     OW37015   0.087   1.068  14.227 -0.2988  0.0371  0.3331
 8461SOL    HW137016   0.165   1.020  14.200 -2.5105 -2.5269 -1.5912
 8461SOL    HW237017   0.119   1.150  14.264 -1.7340  0.7339  0.0371
 8462SOL     OW37018   1.354   3.212   7.571  0.0910  0.5915  0.2529
 8462SOL    HW137019   1.379   3.225   7.479 -0.6156 -1.9529 -0.3174
 8462SOL    HW237020   1.287   3.144   7.562 -0.1259  0.5412  2.4134
 8463SOL     OW37021   3.614   0.837   9.163  0.3812  0.2777  0.4195
 8463SOL    HW137022   3.541   0.899   9.168  1.2188  1.2255  0.9449
 8463SOL    HW237023   3.657   0.863   9.082 -2.1134 -1.5625 -1.5174
 8464SOL     OW37024   3.866   3.819  14.022 -0.3436 -0.0933  0.1560
 8464SOL    HW137025   3.877   3.914  14.030 -1.7826  0.0472  0.4977
 8464SOL    HW237026   3.840   3.811  13.930  0.7784  1.7180 -0.3070
 8465SOL     OW37027   3.923   2.586   3.964 -0.5551 -0.1843 -0.4120
 8465SOL    HW137028   3.882   2.534   4.034 -1.5729  0.4758 -0.5259
 8465SOL    HW237029   3.866   2.662   3.955  0.8474  1.2322  2.6180
 8466SOL     OW37030   1.634   0.490   6.370 -0.3294  0.5992  0.1235
 8466SOL    HW137031   1.704   0.517   6.310  1.1511 -0.1499  1.5225
 8466SOL    HW237032   1.557   0.479   6.314  0.1193 -0.2043 -0.3347
 8467SOL     OW37033   2.225   0.797   8.745  0.2643 -0.3204 -0.2209
 8467SOL    HW137034   2.135   0.791   8.775 -0.3937  1.2789 -1.8224
 8467SOL    HW237035   2.262   0.845   8.819  1.9981  1.2948 -2.0988
 8468SOL     OW37036   3.707   4.657   4.694 -0.0446  0.1010 -0.7008
 8468SOL    HW137037   3.781   4.715   4.713  0.1524 -0.6471  0.7572
 8468SOL    HW237038   3.648   4.679   4.766 -1.5508 -3.1530 -0.9587
 8469SOL     OW37039   4.204   3.885   8.463 -0.8889 -0.5733  0.3544
 8469SOL    HW137040   4.256   3.821   8.415 -1.4855  0.5154 -1.7527
 8469SOL    HW237041   4.120   3.839   8.454 -0.8352 -0.3124 -1.5607
 8470SOL     OW37042   3.845   4.185  14.365 -0.2571 -0.5446 -0.1345
 8470SOL    HW137043   3.808   4.111  14.316 -0.7455  0.0600 -0.6772
 8470SOL    HW237044   3.901   4.233  14.303 -0.2856 -0.8540 -0.3987
 8471SOL     OW37045   3.973   0.065   7.143  0.1783  0.0233  0.0778
 8471SOL    HW137046   4.009   0.050   7.230  1.4124 -0.1337 -0.4565
 8471SOL    HW237047   3.880   0.075   7.160  0.4197  1.0939  0.7066
 8472SOL     OW37048   4.692   1.706   1.300 -0.3731  0.0306  0.4457
 8472SOL    HW137049   0.024   1.735   1.240 -2.3613  3.5476 -0.0990
 8472SOL    HW237050   4.670   1.786   1.347  0.7564  0.3723  0.3900
 8473SOL     OW37051   2.082   2.357   2.985  0.3599  0.3665  0.0794
 8473SOL    HW137052   2.174   2.333   2.994  0.1485  0.0369  1.3864
 8473SOL    HW237053   2.084   2.445   3.024 -1.1611 -0.1509  1.3247
 8474SOL     OW37054   4.234   2.933   2.419 -0.0496 -0.7117 -0.0257
 8474SOL    HW137055   4.298   2.907   2.485  2.0877  2.0094 -1.0610
 8474SOL    HW237056   4.192   3.011   2.456 -0.6050 -1.5521  1.1409
 8475SOL     OW37057   1.181   0.305  15.928 -0.6071 -0.4114 -0.2700
 8475SOL    HW137058   1.198   0.302  16.022  1.4719  1.1173 -0.6080
 8475SOL    HW237059   1.243   0.240  15.897  0.9915 -0.0728  2.2135
 8476SOL     OW37060   2.488   3.033   8.246  0.0544 -0.0947  0.3501
 8476SOL    HW137061   2.459   3.003   8.160  1.8595 -3.1009  0.7634
 8476SOL    HW237062   2.399   3.035   8.281  0.6938 -0.0074  1.9831
 8477SOL     OW37063   1.189   3.489   8.714 -0.4490  0.0644  0.5010
 8477SOL    HW137064   1.097   3.477   8.738 -0.8383  1.0624 -0.4918
 8477SOL    HW237065   1.225   3.409   8.752 -1.6126  0.0075  1.4888
 8478SOL     OW37066   3.972   0.081   4.250  0.5545  0.1807 -0.3612
 8478SOL    HW137067   3.884   0.096   4.285  0.3766 -0.2313 -0.6303
 8478SOL    HW237068   4.027   0.120   4.318 -0.2209  1.5923 -0.5529
 8479SOL     OW37069   1.577   0.761  15.766  0.3544 -0.1779  0.8998
 8479SOL    HW137070   1.523   0.770  15.845  0.6045  1.0137  0.9339
 8479SOL    HW237071   1.663   0.781  15.804  0.9298 -2.2923  0.7060
 8480SOL     OW37072   3.183   4.666   8.067  0.1692 -0.1099 -0.0486
 8480SOL    HW137073   3.116   4.697   8.128  0.2465  0.3600 -0.2089
 8480SOL    HW237074   3.228   0.011   8.048  0.6192  0.0945  1.8466
 8481SOL     OW37075   2.151   3.606   3.701 -0.4634 -0.0929 -0.1471
 8481SOL    HW137076   2.105   3.689   3.714 -0.6704  0.1770 -2.5140
 8481SOL    HW237077   2.150   3.600   3.605  0.1371 -0.5644 -0.1219
 8482SOL     OW37078   4.160   0.522   7.621  0.0548 -0.5562 -0.1556
 8482SOL    HW137079   4.158   0.481   7.708  1.2960  0.2830  0.2644
 8482SOL    HW237080   4.083   0.577   7.631  1.2487  1.3593 -1.4066
 8483SOL     OW37081   2.509   3.391   7.131 -0.8186 -0.3448 -0.0966
 8483SOL    HW137082   2.419   3.425   7.136 -1.1016 -1.0907 -0.1685
 8483SOL    HW237083   2.490   3.317   7.073 -1.4444 -0.3481  0.1068
 8484SOL     OW37084   1.051   2.508   2.113 -0.8187  0.1012 -0.2014
 8484SOL    HW137085   1.111   2.458   2.169 -1.0698 -0.3491 -0.3266
 8484SOL    HW237086   1.073   2.477   2.025 -1.4665 -1.3534  0.1409
 8485SOL     OW37087   1.019   1.084   0.266  0.0889  0.1215 -0.0577
 8485SOL    HW137088   1.028   1.077   0.171 -0.4837  0.4048 -0.1397
 8485SOL    HW237089   0.925   1.070   0.279 -0.0637  0.3203 -0.8974
 8486SOL     OW37090   0.059   4.509  14.539 -0.3098  0.3035  0.0100
 8486SOL    HW137091   0.033   4.420  14.516 -0.0232  0.0351  0.7275
 8486SOL    HW237092   0.137   4.527  14.486 -0.6691  0.1880 -0.5559
 8487SOL     OW37093   1.651   3.850   3.050  0.2389  0.2316 -0.9539
 8487SOL    HW137094   1.735   3.807   3.064  0.1175 -0.3213 -1.9794
 8487SOL    HW237095   1.630   3.880   3.139 -0.7198 -1.8858 -0.4561
 8488SOL     OW37096   4.528   3.702   8.033  0.2888  0.5541 -0.8010
 8488SOL    HW137097   4.453   3.673   7.981  0.2256 -0.1129 -0.3341
 8488SOL    HW237098   4.557   3.627   8.084 -0.4612 -0.0457 -1.2538
 8489SOL     OW37099   3.155   2.592  10.905  0.3251  0.2278  0.5358
 8489SOL    HW137100   3.084   2.589  10.969 -0.3686  0.4671 -0.2119
 8489SOL    HW237101   3.193   2.675  10.934 -0.7975  1.2266 -0.8192
 8490SOL     OW37102   3.022   4.654   7.527 -0.0054 -0.0357  0.0067
 8490SOL    HW137103   3.050   0.005   7.554 -0.6482  0.7042 -1.7084
 8490SOL    HW237104   3.103   4.605   7.516  1.9465  2.9169  1.3344
 8491SOL     OW37105   0.400   1.728  11.052 -0.3931  0.0391  0.0094
 8491SOL    HW137106   0.322   1.723  11.107 -0.3904  1.3048  0.1224
 8491SOL    HW237107   0.430   1.819  11.060  0.7702 -0.3671  0.3522
 8492SOL     OW37108   2.626   0.244   8.073  0.1937  0.2698 -0.4849
 8492SOL    HW137109   2.716   0.230   8.102 -0.4961 -2.5125  0.3073
 8492SOL    HW237110   2.645   0.294   7.994  0.5129  0.9541  0.0189
 8493SOL     OW37111   0.365   4.001   6.906 -0.4573 -0.6864 -0.0396
 8493SOL    HW137112   0.318   4.061   6.964  1.9043  2.5335 -1.4975
 8493SOL    HW237113   0.302   3.990   6.835 -0.6900  1.2175 -0.1096
 8494SOL     OW37114   4.495   4.303   2.044 -0.4714  0.2860  0.2406
 8494SOL    HW137115   4.401   4.312   2.028 -0.4772  0.2589  0.2602
 8494SOL    HW237116   4.511   4.380   2.100  2.1994  0.0441 -0.1536
 8495SOL     OW37117   3.613   2.459  16.226 -0.2007  0.2050  0.2109
 8495SOL    HW137118   3.542   2.521  16.240  0.4531  0.8132  0.8017
 8495SOL    HW237119   3.609   2.433  16.134 -2.8019  0.4501  0.2586
 8496SOL     OW37120   1.555   4.539   7.088  0.1340  0.0795  0.3954
 8496SOL    HW137121   1.482   4.527   7.148  0.0396 -0.0879  0.2489
 8496SOL    HW237122   1.622   4.486   7.130  0.1056  0.9505  1.5445
 8497SOL     OW37123   1.124   2.912   6.269  0.4392 -0.0729 -0.5323
 8497SOL    HW137124   1.037   2.949   6.259 -0.2260 -1.4109  0.3045
 8497SOL    HW237125   1.119   2.848   6.198 -1.2403 -0.5439  0.0003
 8498SOL     OW37126   2.935   4.493   2.007 -0.4506 -0.3040  0.7984
 8498SOL    HW137127   2.936   4.570   2.064 -0.4034 -0.9759  1.7060
 8498SOL    HW237128   2.971   4.531   1.927 -0.0129 -0.0575  1.1153
 8499SOL     OW37129   0.313   3.506  11.805  0.2868  0.2614 -0.3989
 8499SOL    HW137130   0.339   3.581  11.751 -0.1010  1.2031  0.7302
 8499SOL    HW237131   0.286   3.437  11.744  2.0015 -0.1738 -0.6779
 8500SOL     OW37132   0.440   0.121  11.919 -0.7308 -0.6054 -0.6012
 8500SOL    HW137133   0.357   0.074  11.925 -0.3770 -0.8791  1.8227
 8500SOL    HW237134   0.412   0.211  11.904  1.7437  0.1491 -0.7577
 8501SOL     OW37135   3.353   4.661  11.228  0.3292  0.5661  0.1118
 8501SOL    HW137136   3.341   4.567  11.243 -3.5573  1.3250  1.8858
 8501SOL    HW237137   3.396   4.657  11.143 -0.3480 -0.4771 -0.1829
 8502SOL     OW37138   2.589   2.986   6.834 -0.4199  0.6988  0.8433
 8502SOL    HW137139   2.564   3.073   6.802 -1.1294  0.7798  1.6136
 8502SOL    HW237140   2.570   2.985   6.927 -1.4313  0.9490  0.6353
 8503SOL     OW37141   2.597   1.850   5.629  0.0832 -0.1890 -0.3874
 8503SOL    HW137142   2.584   1.760   5.656 -1.4798 -0.1809 -1.1140
 8503SOL    HW237143   2.672   1.855   5.570 -0.0308 -0.1079 -0.5267
 8504SOL     OW37144   1.140   4.651  14.418 -0.3731 -0.1063  0.9840
 8504SOL    HW137145   1.128   4.560  14.391 -1.6665 -0.3274  2.3294
 8504SOL    HW237146   1.086   4.695  14.352  1.5951 -0.6320 -0.9624
 8505SOL     OW37147   2.878   3.657   4.091 -0.2414 -0.1209 -0.4919
 8505SOL    HW137148   2.803   3.610   4.128 -1.4232  1.1258 -1.3184
 8505SOL    HW237149   2.839   3.741   4.068 -0.2598  0.3247  1.1126
 8506SOL     OW37150   1.788   0.140   9.567  0.7631  0.6587  0.0509
 8506SOL    HW137151   1.748   0.213   9.519 -0.2700  0.0322 -0.0440
 8506SOL    HW237152   1.791   0.069   9.503 -1.1460  0.0194  0.6859
 8507SOL     OW37153   2.119   2.021   8.049 -0.0511  0.0323 -0.1953
 8507SOL    HW137154   2.202   2.038   8.094 -0.2020  0.4862 -0.0908
 8507SOL    HW237155   2.139   2.070   7.970  1.7142 -1.8416 -0.8928
 8508SOL     OW37156   3.837   2.662   9.227  0.2099 -0.2597  0.2980
 8508SOL    HW137157   3.841   2.658   9.131 -1.4034 -1.7058  0.2899
 8508SOL    HW237158   3.745   2.676   9.249 -0.3529 -2.5115 -0.6527
 8509SOL     OW37159   0.387   3.682   4.850  0.1807  0.1859  0.2421
 8509SOL    HW137160   0.446   3.729   4.908  1.1637 -0.1025 -0.5386
 8509SOL    HW237161   0.436   3.600   4.860  0.2132  0.1550 -0.1772
 8510SOL     OW37162   4.234   1.066  10.342 -0.1377 -0.1970 -0.0151
 8510SOL    HW137163   4.311   1.047  10.396  0.4256 -0.3073 -0.8624
 8510SOL    HW237164   4.267   1.113  10.265 -0.4240  0.5340  0.3057
 8511SOL     OW37165   1.505   3.167   4.864  0.3335 -0.7461 -0.3601
 8511SOL    HW137166   1.542   3.116   4.792  0.2610  0.6328 -1.3684
 8511SOL    HW237167   1.580   3.201   4.914 -0.8144  0.7256  0.3855
 8512SOL     OW37168   0.406   3.558   2.558 -0.1391  0.1450  0.2075
 8512SOL    HW137169   0.339   3.492   2.539 -0.1303  0.4255 -0.8102
 8512SOL    HW237170   0.414   3.599   2.472 -0.1955 -0.9785 -0.3254
 8513SOL     OW37171   2.516   4.710   5.079  0.4002  0.0484 -0.3133
 8513SOL    HW137172   2.460   4.735   5.006 -0.6752 -0.6144  0.2906
 8513SOL    HW237173   2.470   0.028   5.142 -1.3859 -0.9499 -0.7440
 8514SOL     OW37174   3.050   4.034  11.873  0.1623 -0.2011 -0.3929
 8514SOL    HW137175   3.124   4.096  11.874 -0.2326  0.2866 -1.3640
 8514SOL    HW237176   3.001   4.052  11.953  0.7284 -1.6937  0.2893
 8515SOL     OW37177   3.548   2.860   9.660  0.0423  0.0247 -0.4290
 8515SOL    HW137178   3.502   2.843   9.742  0.2797 -2.4369 -0.8039
 8515SOL    HW237179   3.614   2.791   9.661 -1.0789 -1.0252  1.2454
 8516SOL     OW37180   0.555   2.614   0.253  0.2665  0.3958 -0.0590
 8516SOL    HW137181   0.617   2.687   0.259  0.6745  0.2950 -2.8499
 8516SOL    HW237182   0.591   2.554   0.318 -0.7308 -1.1427 -0.9456
 8517SOL     OW37183   4.602   3.482  12.579 -0.2626  0.0542 -0.3556
 8517SOL    HW137184   4.522   3.469  12.526 -1.1852 -2.0772  1.5466
 8517SOL    HW237185   4.562   3.505  12.663 -1.4885  1.1109 -1.2193
 8518SOL     OW37186   4.046   2.263   5.259  0.5019 -0.2533  0.6529
 8518SOL    HW137187   4.094   2.181   5.250 -0.3375 -0.7568  0.7657
 8518SOL    HW237188   4.007   2.257   5.346 -0.5570  0.5969  0.2313
 8519SOL     OW37189   4.643   4.052   8.157 -0.5404 -0.3759  0.2744
 8519SOL    HW137190   4.567   4.110   8.159 -1.2260 -1.2657 -0.0481
 8519SOL    HW237191   4.714   4.112   8.134 -2.2989  1.0798 -1.3599
 8520SOL     OW37192   1.636   3.831   8.747  0.3784  0.4922 -0.0630
 8520SOL    HW137193   1.625   3.776   8.669  1.7960  3.9131 -2.6478
 8520SOL    HW237194   1.677   3.767   8.805 -3.3244 -0.1751  1.8707
 8521SOL     OW37195   1.470   0.003   2.299  0.3279  0.0392 -0.0474
 8521SOL    HW137196   1.462   4.656   2.253  0.7923 -1.0951  1.9599
 8521SOL    HW237197   1.420   4.715   2.376  2.3930  2.0279  1.9041
 8522SOL     OW37198   3.800   3.101   8.699  0.5930  0.1083 -0.2194
 8522SOL    HW137199   3.821   3.183   8.655  2.7979 -0.3266  0.0471
 8522SOL    HW237200   3.798   3.127   8.791  0.6373  0.6314 -0.3637
 8523SOL     OW37201   0.750   0.330  13.093  0.2522 -0.2142 -0.3963
 8523SOL    HW137202   0.737   0.330  13.187 -1.6831 -0.6461 -0.6610
 8523SOL    HW237203   0.845   0.336  13.085  0.5326 -1.5340  2.0160
 8524SOL     OW37204   1.543   4.554  13.874  0.4252 -0.0614 -0.2989
 8524SOL    HW137205   1.516   4.481  13.930  0.6691 -0.0204 -0.1310
 8524SOL    HW237206   1.458   4.597  13.862  0.2349 -0.0854  0.9183
 8525SOL     OW37207   0.127   2.119   6.869 -0.7766 -0.1032 -0.1613
 8525SOL    HW137208   0.041   2.129   6.828 -0.9055  0.4290  0.2313
 8525SOL    HW237209   0.153   2.057   6.802  1.5506 -1.2473  1.7803
 8526SOL     OW37210   2.492   1.844  14.528 -0.4867  0.0928  0.4339
 8526SOL    HW137211   2.445   1.918  14.566  0.3701  0.6880  0.3297
 8526SOL    HW237212   2.474   1.863  14.436 -0.3759  0.0980  0.4129
 8527SOL     OW37213   3.327   3.899   5.446 -0.1301  0.0077  0.1834
 8527SOL    HW137214   3.296   3.858   5.365  3.7267 -0.0410 -1.2430
 8527SOL    HW237215   3.289   3.986   5.433 -1.5332 -0.6804 -0.3295
 8528SOL     OW37216   2.393   2.543  11.370 -0.1420  0.3670 -0.6922
 8528SOL    HW137217   2.384   2.525  11.463 -0.7408 -1.6763 -1.1603
 8528SOL    HW237218   2.298   2.545  11.356 -0.5195 -2.2215  1.7077
 8529SOL     OW37219   4.141   4.669   2.226  0.4304  0.0020  0.2911
 8529SOL    HW137220   4.195   4.679   2.148  1.7433  0.6805  1.2882
 8529SOL    HW237221   4.089   0.012   2.224 -1.2871 -1.0457  2.4162
 8530SOL     OW37222   2.200   3.095  15.985 -0.5712 -0.3137  0.0033
 8530SOL    HW137223   2.273   3.157  15.986 -0.6619 -0.1842 -3.9260
 8530SOL    HW237224   2.130   3.160  15.992  0.8949  1.3316 -0.7327
 8531SOL     OW37225   3.387   1.675  17.734 -0.3121 -0.0043 -0.2385
 8531SOL    HW137226   3.425   1.710   0.069  0.1609  0.1903 -0.5497
 8531SOL    HW237227   3.398   1.583   0.011  1.1706  0.0908 -0.6023
 8532SOL     OW37228   2.263   0.825   6.636 -0.2985 -0.2311  0.0037
 8532SOL    HW137229   2.175   0.861   6.643 -0.2493 -0.4280  1.7569
 8532SOL    HW237230   2.247   0.731   6.628 -1.5020 -0.0206  0.0166
 8533SOL     OW37231   4.289   1.373   8.800  0.6463 -0.5483 -0.3304
 8533SOL    HW137232   4.280   1.278   8.793 -2.0356 -0.4722  2.0742
 8533SOL    HW237233   4.379   1.377   8.766  0.4763  0.7984 -0.6228
 8534SOL     OW37234   1.364   4.239   6.556 -0.5095  0.4190  0.2115
 8534SOL    HW137235   1.362   4.269   6.647 -1.0826 -0.4494  0.4809
 8534SOL    HW237236   1.455   4.257   6.531  0.0487 -0.7187  1.4014
 8535SOL     OW37237   3.495   0.338   8.473  0.4952  0.6538  0.2654
 8535SOL    HW137238   3.526   0.422   8.507 -0.4316  2.3940 -3.2419
 8535SOL    HW237239   3.490   0.291   8.556 -1.2548 -0.7150 -0.6235
 8536SOL     OW37240   3.746   0.694   3.320 -0.4355 -0.1617  0.1775
 8536SOL    HW137241   3.747   0.780   3.280 -0.7075  0.0235  0.5672
 8536SOL    HW237242   3.837   0.684   3.351 -0.0294 -0.0547 -0.9915
 8537SOL     OW37243   3.991   0.234   1.737  0.0390 -0.1018  0.1912
 8537SOL    HW137244   3.931   0.243   1.662  0.7206 -2.1074 -0.5666
 8537SOL    HW237245   4.077   0.253   1.701 -0.7790 -1.8259 -2.6763
 8538SOL     OW37246   2.255   3.210   1.982 -0.1785  0.0370 -0.4546
 8538SOL    HW137247   2.186   3.183   2.043  1.4152 -0.4810  1.1081
 8538SOL    HW237248   2.282   3.124   1.950 -0.2475  0.0502 -0.5485
 8539SOL     OW37249   1.979   1.030   6.137 -0.1121  0.1492 -0.0239
 8539SOL    HW137250   1.912   1.062   6.197 -0.6175 -0.2013 -0.4043
 8539SOL    HW237251   2.061   1.071   6.166 -0.9564  2.0081 -0.3143
 8540SOL     OW37252   0.107   0.917  15.230 -0.3181  0.1111 -0.3639
 8540SOL    HW137253   0.026   0.914  15.282 -0.1602  1.9179  0.0057
 8540SOL    HW237254   0.178   0.937  15.291 -1.7581  0.0385  1.3446
 8541SOL     OW37255   1.200   2.372   2.773 -0.8938 -0.2519  0.0208
 8541SOL    HW137256   1.159   2.287   2.754 -2.5153  0.5321  0.0354
 8541SOL    HW237257   1.207   2.412   2.687  3.9392  2.6975  1.7976
 8542SOL     OW37258   1.084   2.942   5.384 -0.0323  0.0647  0.3169
 8542SOL    HW137259   1.093   3.037   5.391 -2.6751  0.3796 -0.3443
 8542SOL    HW237260   1.084   2.899   5.469 -0.2370 -3.6787 -1.5873
 8543SOL     OW37261   1.302   2.157  12.162 -0.4406  0.1849 -0.2679
 8543SOL    HW137262   1.331   2.069  12.184 -1.5113 -0.1818 -0.2941
 8543SOL    HW237263   1.332   2.161  12.071  2.4150  0.0052  0.6792
 8544SOL     OW37264   0.579   1.805   6.299  0.2911 -0.0092  0.0048
 8544SOL    HW137265   0.536   1.833   6.218  1.4362 -0.6086 -0.8012
 8544SOL    HW237266   0.653   1.866   6.300 -1.2186  1.7931  1.6169
 8545SOL     OW37267   0.971   3.262   8.149  0.3182  0.3343 -0.2398
 8545SOL    HW137268   0.896   3.286   8.094 -2.6171 -0.7961  3.2577
 8545SOL    HW237269   0.948   3.321   8.221 -0.2890  0.8669 -0.8694
 8546SOL     OW37270   3.111   2.774   3.925 -0.5889 -0.6409  0.3972
 8546SOL    HW137271   3.164   2.764   4.005 -0.5590  0.7869  0.5605
 8546SOL    HW237272   3.054   2.849   3.942  0.9552  0.2456  1.7901
 8547SOL     OW37273   3.685   3.271  16.339  0.5591 -0.4423  0.3199
 8547SOL    HW137274   3.662   3.191  16.387  1.3201 -2.5096 -2.7688
 8547SOL    HW237275   3.666   3.332  16.410  1.5063 -2.1045  2.0301
 8548SOL     OW37276   0.800   4.193   6.046  0.2645  0.2178 -0.2221
 8548SOL    HW137277   0.852   4.203   5.966  0.7402 -0.6859 -0.0217
 8548SOL    HW237278   0.837   4.267   6.094  1.5630 -0.5656 -0.0326
 8549SOL     OW37279   2.603   3.081  17.520 -0.2108  0.6472  0.0410
 8549SOL    HW137280   2.678   3.138  17.530  0.1931  0.0193  0.5887
 8549SOL    HW237281   2.584   3.092  17.427  1.0096 -0.1221 -0.2996
 8550SOL     OW37282   0.419   0.094   8.273 -0.0812  0.0813 -0.3543
 8550SOL    HW137283   0.402   0.131   8.360  1.0738 -2.2807  0.8730
 8550SOL    HW237284   0.463   0.166   8.228  0.5206  0.7004  1.2100
 8551SOL     OW37285   4.679   4.711  12.121  0.3624 -0.6639  0.5567
 8551SOL    HW137286   4.595   4.699  12.077 -0.0792  2.4392  0.5423
 8551SOL    HW237287   4.675   4.637  12.182 -1.4235  0.7021  2.1265
 8552SOL     OW37288   0.039   3.985   7.602 -0.6712  0.7634 -0.3426
 8552SOL    HW137289   0.027   4.001   7.509 -1.1980  1.1301 -0.2078
 8552SOL    HW237290   0.075   4.062   7.646 -1.2324  0.8194  0.0216
 8553SOL     OW37291   1.398   2.159   4.963 -0.2560 -0.1447  0.4410
 8553SOL    HW137292   1.406   2.228   5.029 -0.9110  1.4577 -1.1292
 8553SOL    HW237293   1.415   2.212   4.885  0.9252  0.3772  1.0427
 8554SOL     OW37294   4.678   2.168   3.846 -0.7305 -0.0720 -0.0597
 8554SOL    HW137295   4.682   2.095   3.784 -2.0625 -0.6067  0.4874
 8554SOL    HW237296   4.634   2.125   3.919  1.4575  2.5692  2.7944
 8555SOL     OW37297   4.563   2.864   6.436 -0.2057 -0.4562 -0.0513
 8555SOL    HW137298   4.512   2.932   6.481 -0.5638 -0.2546 -0.7547
 8555SOL    HW237299   4.569   2.911   6.352  0.2419  0.1053  0.2890
 8556SOL     OW37300   3.273   3.366  16.306 -0.2421  0.5735 -0.1273
 8556SOL    HW137301   3.314   3.427  16.366 -0.4405  1.2204 -0.6493
 8556SOL    HW237302   3.317   3.404  16.230 -0.3589  1.0140  0.0285
 8557SOL     OW37303   0.100   3.065   8.363 -0.1384 -0.1528 -0.6426
 8557SOL    HW137304   0.090   3.084   8.456  1.6117  1.8426 -0.8557
 8557SOL    HW237305   0.060   2.980   8.346  0.0990 -0.9496  2.7650
 8558SOL     OW37306   1.939   2.189   1.823  0.4902  0.1368 -0.3794
 8558SOL    HW137307   1.900   2.124   1.765 -1.9998  1.5494 -0.2552
 8558SOL    HW237308   1.974   2.126   1.886  2.3735  0.5175 -1.0325
 8559SOL     OW37309   0.279   0.166   4.349 -0.0108  0.7229  0.0605
 8559SOL    HW137310   0.340   0.193   4.418  1.1354 -1.2037 -0.1983
 8559SOL    HW237311   0.271   0.246   4.297  3.9132  1.3711  0.5035
 8560SOL     OW37312   4.045   3.493   2.097 -0.0526 -0.4032  0.0271
 8560SOL    HW137313   4.099   3.418   2.121  1.1156  0.5477  0.3724
 8560SOL    HW237314   4.114   3.559   2.101 -3.7629  3.7035 -2.8797
 8561SOL     OW37315   0.234   0.865  17.041 -0.3820  1.8795  0.2837
 8561SOL    HW137316   0.226   0.954  17.075  0.9258  1.3876  1.8914
 8561SOL    HW237317   0.272   0.868  16.953  4.2091  0.9496  2.1977
 8562SOL     OW37318   0.879   2.035   8.355  0.1188 -0.1527 -0.2946
 8562SOL    HW137319   0.840   2.123   8.359  0.5969  0.1438 -2.1425
 8562SOL    HW237320   0.887   2.016   8.262 -1.5782  0.2694 -0.5105
 8563SOL     OW37321   3.838   4.618   5.377 -0.1267  0.2662  0.2993
 8563SOL    HW137322   3.858   4.551   5.312 -0.3682 -0.0530  0.5598
 8563SOL    HW237323   3.912   4.677   5.360  1.8182 -1.9780  0.9936
 8564SOL     OW37324   4.095   4.450   5.059  0.9477  0.5464 -0.2408
 8564SOL    HW137325   4.152   4.463   5.134  0.0780  1.3513  0.2885
 8564SOL    HW237326   4.014   4.428   5.105  0.6586 -2.3105 -2.1264
 8565SOL     OW37327   4.656   3.352  10.576  0.1692  0.2706 -0.4013
 8565SOL    HW137328   4.691   3.423  10.522 -0.1171 -1.2867 -2.6535
 8565SOL    HW237329   0.004   3.319  10.606  0.3468  1.2511  0.1679
 8566SOL     OW37330   1.119   3.066   7.629  0.2525  0.2569 -0.1482
 8566SOL    HW137331   1.108   3.107   7.715  1.0784 -0.0999  0.1319
 8566SOL    HW237332   1.027   3.070   7.603  0.3392 -0.2752 -0.5266
 8567SOL     OW37333   4.635   3.615   4.186 -0.1315  0.7347 -0.0626
 8567SOL    HW137334   4.623   3.524   4.159  1.4898  0.0165  1.5684
 8567SOL    HW237335   4.597   3.600   4.273 -1.5123 -1.0747 -0.9862
 8568SOL     OW37336   2.367   1.131   1.800 -0.2345 -0.0054 -0.2300
 8568SOL    HW137337   2.427   1.179   1.857  0.0145 -0.5119 -0.0614
 8568SOL    HW237338   2.362   1.051   1.853  0.0636  0.0730 -0.0846
 8569SOL     OW37339   3.640   2.066   0.860  0.0631 -0.5510 -0.0483
 8569SOL    HW137340   3.651   2.158   0.836 -2.4922 -0.1766  0.2043
 8569SOL    HW237341   3.550   2.067   0.892  0.9872 -0.7469  2.5388
 8570SOL     OW37342   1.846   1.831   5.929  0.5084  0.3996  0.0439
 8570SOL    HW137343   1.917   1.790   5.880  0.9908 -1.0481  1.9300
 8570SOL    HW237344   1.780   1.851   5.862  0.4268  1.7699  0.5293
 8571SOL     OW37345   3.498   2.805   8.318  0.4218 -0.2285 -0.0590
 8571SOL    HW137346   3.442   2.836   8.389  0.8795 -0.7983  0.5531
 8571SOL    HW237347   3.571   2.866   8.317  0.5710 -0.4085 -0.1148
 8572SOL     OW37348   0.368   0.780  15.589  0.1727 -0.1460  0.0452
 8572SOL    HW137349   0.363   0.756  15.496 -0.4010 -2.7517  0.7473
 8572SOL    HW237350   0.274   0.783  15.606  0.2755 -1.7787  0.9310
 8573SOL     OW37351   4.165   4.726   2.827 -1.0260  0.0301  0.1834
 8573SOL    HW137352   4.198   0.001   2.738  0.5047  1.7204  0.9623
 8573SOL    HW237353   4.199   0.062   2.879  0.2447  0.1829 -0.8685
 8574SOL     OW37354   1.969   4.661   1.977  0.7142 -0.3142  0.1321
 8574SOL    HW137355   2.061   4.655   1.954  0.9928  4.6545 -0.0860
 8574SOL    HW237356   1.927   4.656   1.891 -1.4232  0.0276  1.1570
 8575SOL     OW37357   4.601   1.955   8.270  0.0770  0.5426  0.2869
 8575SOL    HW137358   4.673   2.019   8.268  1.1530 -0.7093 -1.3920
 8575SOL    HW237359   4.648   1.877   8.240 -0.8903 -0.2871  0.9360
 8576SOL     OW37360   2.341   0.583   5.330 -0.1519  0.3806  0.3773
 8576SOL    HW137361   2.299   0.576   5.244  2.1671 -0.5178 -0.6796
 8576SOL    HW237362   2.268   0.543   5.378  1.2210 -1.5053  0.9104
 8577SOL     OW37363   3.114   0.261   1.789 -0.0917  0.0797  0.7435
 8577SOL    HW137364   3.036   0.298   1.832  0.3690  0.8414  0.9321
 8577SOL    HW237365   3.173   0.240   1.861 -0.0968  1.8947  1.2890
 8578SOL     OW37366   0.048   2.454   3.989 -0.0348 -0.0495 -0.0125
 8578SOL    HW137367   0.017   2.397   3.919  0.4816 -2.1151  1.4341
 8578SOL    HW237368   4.706   2.464   4.042 -0.9474 -1.8871 -1.0456
 8579SOL     OW37369   3.656   3.916  16.073 -0.6989  0.0115 -0.0496
 8579SOL    HW137370   3.715   3.845  16.101  0.3198  0.7925 -0.2182
 8579SOL    HW237371   3.712   3.993  16.081 -0.0140 -0.3595 -1.3019
 8580SOL     OW37372   2.113   2.964  17.645 -0.5269  0.3304 -0.2500
 8580SOL    HW137373   2.193   2.918  17.672 -1.4284  0.0158  1.8536
 8580SOL    HW237374   2.107   2.934  17.554  0.6222 -1.4011  0.2424
 8581SOL     OW37375   3.586   2.703   3.381 -0.2928 -0.8581 -0.4155
 8581SOL    HW137376   3.569   2.625   3.329 -0.2541 -1.6042  0.6733
 8581SOL    HW237377   3.665   2.734   3.337 -0.4853 -0.7895 -0.7072
 8582SOL     OW37378   4.231   2.576   3.243 -0.3186 -0.4535 -0.2032
 8582SOL    HW137379   4.215   2.601   3.334 -0.1217  0.9200 -0.5523
 8582SOL    HW237380   4.142   2.545   3.232 -0.4316  0.5541 -2.1496
 8583SOL     OW37381   2.054   1.726  12.560 -0.2119 -0.2178  0.2342
 8583SOL    HW137382   2.139   1.752  12.596 -1.2203  2.2948  0.7410
 8583SOL    HW237383   1.981   1.735  12.621 -2.0248  2.4743 -2.3432
 8584SOL     OW37384   3.735   3.867  10.949 -0.1376 -0.3820  0.1570
 8584SOL    HW137385   3.801   3.799  10.962 -0.1939 -0.2806  0.9853
 8584SOL    HW237386   3.750   3.896  10.859 -1.9912  2.2184  0.6819
 8585SOL     OW37387   3.617   2.521  10.404 -0.7333  0.4036  0.0098
 8585SOL    HW137388   3.664   2.562  10.332  0.4890 -3.6141 -1.4131
 8585SOL    HW237389   3.637   2.578  10.479 -2.0668  0.6060  0.2214
 8586SOL     OW37390   0.428   1.097   8.890  0.1679 -0.1793  0.5922
 8586SOL    HW137391   0.497   1.030   8.892 -1.4238 -1.8243  0.3840
 8586SOL    HW237392   0.370   1.054   8.828  0.4664  1.3227 -0.7102
 8587SOL     OW37393   2.672   2.941  13.356 -0.1050  0.0530  0.0703
 8587SOL    HW137394   2.704   3.030  13.372 -0.1579 -0.2552  1.8415
 8587SOL    HW237395   2.631   2.951  13.270  0.6190  2.2755 -0.0194
 8588SOL     OW37396   1.030   4.238  14.801  0.0088  0.0109 -0.0580
 8588SOL    HW137397   1.069   4.324  14.815 -0.4116 -0.0086  1.1833
 8588SOL    HW237398   1.108   4.191  14.771  0.5869 -0.4189  2.1477
 8589SOL     OW37399   0.153   2.380   5.515  0.1051  0.5503 -0.0362
 8589SOL    HW137400   0.154   2.348   5.424 -0.6538 -2.1623  0.9219
 8589SOL    HW237401   0.202   2.303   5.544 -0.4744 -0.1921 -1.0130
 8590SOL     OW37402   3.735   0.041  12.777 -0.5384 -0.4303  0.1669
 8590SOL    HW137403   3.739   0.075  12.867  1.5306  0.9306 -0.4178
 8590SOL    HW237404   3.745   0.126  12.732 -0.2902 -1.6501 -2.0690
 8591SOL     OW37405   0.230   1.262  11.906  0.4659 -0.1967  0.2507
 8591SOL    HW137406   0.236   1.309  11.823 -0.9055  0.2447  0.4049
 8591SOL    HW237407   0.307   1.206  11.899 -2.3644 -4.2293  1.6670
 8592SOL     OW37408   4.477   3.768  13.764  0.0684 -0.4011 -0.2782
 8592SOL    HW137409   4.563   3.765  13.807  0.3869 -2.6643 -1.0688
 8592SOL    HW237410   4.498   3.705  13.695 -2.1610  0.3376 -1.6341
 8593SOL     OW37411   0.098   0.176   0.235  0.4206 -0.4416  0.0065
 8593SOL    HW137412   0.101   0.224   0.318  0.7360 -1.3184  0.5020
 8593SOL    HW237413   0.100   0.243   0.166  1.7216  0.5944  1.0350
 8594SOL     OW37414   0.121   1.471   2.900 -0.1489  0.1742  0.5894
 8594SOL    HW137415   0.149   1.451   2.810 -1.8528  1.9655 -0.3633
 8594SOL    HW237416   0.202   1.453   2.947  0.0463  2.6165  1.1817
 8595SOL     OW37417   3.848   1.685   7.159 -0.3419  0.4257  0.2635
 8595SOL    HW137418   3.822   1.594   7.148 -0.3265  0.5393 -0.7173
 8595SOL    HW237419   3.941   1.668   7.175  0.0955  2.3663 -0.2186
 8596SOL     OW37420   2.800   0.538   5.801 -0.4267  0.2345  0.7534
 8596SOL    HW137421   2.794   0.607   5.735 -0.1406  0.1092  0.6002
 8596SOL    HW237422   2.720   0.491   5.778  0.9453 -1.9539  0.5097
 8597SOL     OW37423   0.172   1.794  13.404 -0.1736 -0.2919  0.0192
 8597SOL    HW137424   0.184   1.700  13.411  0.5896 -0.2465 -0.7538
 8597SOL    HW237425   0.110   1.814  13.474 -1.5484 -0.6733 -1.0879
 8598SOL     OW37426   0.137   3.944   7.137 -0.2869 -0.0719 -0.3554
 8598SOL    HW137427   0.129   3.861   7.091 -0.7784  0.1232 -0.6166
 8598SOL    HW237428   0.187   3.910   7.212 -1.8089  1.0515  1.1705
 8599SOL     OW37429   3.145   3.391   4.470 -0.3229 -0.0106 -0.3244
 8599SOL    HW137430   3.125   3.391   4.564 -0.6226  1.4468 -0.3823
 8599SOL    HW237431   3.071   3.337   4.443 -1.2706  1.0367  0.1498
 8600SOL     OW37432   4.430   1.204   6.064 -0.1166  0.1477 -0.8407
 8600SOL    HW137433   4.399   1.231   5.978  1.4427  1.5271 -0.9902
 8600SOL    HW237434   4.523   1.180   6.057 -0.0637  0.3150 -0.7219
 8601SOL     OW37435   0.091   2.654  16.398  0.2154 -0.2614  0.1252
 8601SOL    HW137436   0.046   2.726  16.355 -2.8572 -1.5878  1.0669
 8601SOL    HW237437   0.130   2.700  16.472  1.5237  0.4034 -0.9821
 8602SOL     OW37438   1.242   2.718   5.300  0.0292  0.0054  0.0885
 8602SOL    HW137439   1.241   2.744   5.207  0.5480  0.5010  0.2207
 8602SOL    HW237440   1.215   2.802   5.337  1.6317  0.4355  0.2979
 8603SOL     OW37441   1.338   0.858   5.067  0.2182  0.6583 -0.1300
 8603SOL    HW137442   1.298   0.942   5.042 -0.5313  0.1913 -0.5118
 8603SOL    HW237443   1.302   0.843   5.154 -0.4386 -3.0944 -1.0695
 8604SOL     OW37444   2.130   4.129   3.174  0.3104 -0.1310  0.4526
 8604SOL    HW137445   2.221   4.106   3.192  0.3698  1.1492  1.8317
 8604SOL    HW237446   2.097   4.171   3.254 -2.8189 -1.7840  0.0276
 8605SOL     OW37447   4.175   0.266  11.432  0.3088 -0.1041  0.3268
 8605SOL    HW137448   4.221   0.310  11.504  0.0571 -0.7574  0.8866
 8605SOL    HW237449   4.185   0.174  11.455  1.5373  0.0925  0.5842
 8606SOL     OW37450   0.681   1.102   4.500  0.1339 -0.2811  0.4872
 8606SOL    HW137451   0.646   1.188   4.475  0.9275  0.2532  1.2027
 8606SOL    HW237452   0.608   1.048   4.472 -0.4903  0.6112  0.3691
 8607SOL     OW37453   1.141   2.125  11.307 -0.0590  0.4143  0.3508
 8607SOL    HW137454   1.220   2.159  11.265  0.2057 -1.2494 -0.5029
 8607SOL    HW237455   1.130   2.044  11.258 -0.2887  0.0832  0.9438
 8608SOL     OW37456   4.637   3.607   4.825  0.5837 -0.2092 -0.2973
 8608SOL    HW137457   4.728   3.590   4.798  0.2397 -1.6209 -0.5515
 8608SOL    HW237458   4.607   3.654   4.747  0.2030 -2.4085 -1.4562
 8609SOL     OW37459   3.401   0.170   6.193  0.0144  0.3575  0.1408
 8609SOL    HW137460   3.468   0.185   6.126 -0.0558 -1.5765 -0.3590
 8609SOL    HW237461   3.417   0.238   6.258  2.4103  1.3020 -1.4021
 8610SOL     OW37462   3.048   3.815   4.851 -0.7036  0.5491  0.0633
 8610SOL    HW137463   3.074   3.757   4.922 -0.8751  0.1957 -0.1615
 8610SOL    HW237464   3.023   3.894   4.899 -0.1681  1.0835 -0.5528
 8611SOL     OW37465   3.364   1.851   5.788 -0.2535 -0.0384  0.1412
 8611SOL    HW137466   3.356   1.793   5.712  0.0935 -1.3705  1.1074
 8611SOL    HW237467   3.275   1.852   5.824  0.2627 -4.0343  1.6040
 8612SOL     OW37468   4.290   2.920   0.694 -0.2985  0.0997 -0.3506
 8612SOL    HW137469   4.219   2.984   0.703 -1.4180 -1.1814 -0.1657
 8612SOL    HW237470   4.331   2.938   0.778  1.1463  0.9116 -1.2141
 8613SOL     OW37471   1.365   4.030  17.048 -0.4355  0.7358 -0.4395
 8613SOL    HW137472   1.384   4.093  17.118  0.4014 -0.1474  0.1328
 8613SOL    HW237473   1.297   4.077  17.001 -0.7753 -0.1560 -0.8389
 8614SOL     OW37474   2.458   3.075   7.117  0.2068  0.7440  0.5366
 8614SOL    HW137475   2.415   3.139   7.059 -0.0394  0.9422  0.9366
 8614SOL    HW237476   2.404   2.996   7.118  3.0406 -1.1383  1.6803
 8615SOL     OW37477   2.785   2.374   9.055 -0.0797  0.5878 -0.2864
 8615SOL    HW137478   2.840   2.448   9.079 -0.3157  0.1273  1.6708
 8615SOL    HW237479   2.852   2.306   9.051 -1.4785 -0.9094  1.7148
 8616SOL     OW37480   4.123   0.564  16.249  0.6714 -0.2282  0.1685
 8616SOL    HW137481   4.190   0.631  16.230  1.0276 -0.7987 -0.5857
 8616SOL    HW237482   4.053   0.619  16.284 -0.6667 -1.1884 -0.9937
 8617SOL     OW37483   1.510   0.448   0.132 -0.3084  0.1669  0.5473
 8617SOL    HW137484   1.572   0.495   0.187  0.3340  0.3232 -0.3077
 8617SOL    HW237485   1.566   0.429   0.056 -1.7483  1.4621 -0.8517
 8618SOL     OW37486   3.829   0.817  11.955  0.2043 -0.3588  0.1486
 8618SOL    HW137487   3.880   0.795  12.033 -0.4950 -0.2931  0.6178
 8618SOL    HW237488   3.878   0.888  11.912  0.0789 -1.2464 -1.4477
 8619SOL     OW37489   3.110   1.336  14.297  0.0611 -0.4246  0.7554
 8619SOL    HW137490   3.021   1.334  14.334  0.8999  2.4447  2.9505
 8619SOL    HW237491   3.089   1.382  14.216  0.8425 -1.7434 -0.2071
 8620SOL     OW37492   0.677   4.016   0.069  0.2577  0.0735  0.3244
 8620SOL    HW137493   0.626   4.086   0.109 -1.4104 -0.1185 -1.4245
 8620SOL    HW237494   0.691   3.972   0.152 -0.0559 -2.1756 -0.8249
 8621SOL     OW37495   0.162   0.577   9.430 -0.6754  0.1260 -0.5451
 8621SOL    HW137496   0.193   0.641   9.495  0.2680  0.2727 -1.1465
 8621SOL    HW237497   0.106   0.515   9.477  0.5965  0.3581  1.2951
 8622SOL     OW37498   0.594   1.392   4.722 -0.1985  0.2732 -0.0203
 8622SOL    HW137499   0.546   1.380   4.639  0.1684 -3.6036  0.3116
 8622SOL    HW237500   0.525   1.411   4.786 -0.9811 -0.8963 -0.4937
 8623SOL     OW37501   1.175   2.554  13.078  0.1140  0.3027 -0.1093
 8623SOL    HW137502   1.100   2.504  13.109  0.9256 -1.4049 -0.8546
 8623SOL    HW237503   1.247   2.509  13.123 -0.6791  0.7285  1.5641
 8624SOL     OW37504   0.875   0.522   7.770 -0.0697 -0.3998 -0.0622
 8624SOL    HW137505   0.951   0.478   7.733 -0.5311  0.3158 -1.8247
 8624SOL    HW237506   0.801   0.478   7.728  0.2540 -1.6080  0.6034
 8625SOL     OW37507   0.109   0.496   6.959 -0.0746 -0.2727  0.0884
 8625SOL    HW137508   0.162   0.533   6.889  1.0093 -0.7003  0.6729
 8625SOL    HW237509   0.175   0.476   7.026  1.5453  2.9927 -0.5517
 8626SOL     OW37510   2.070   4.011   2.229  0.1510  0.0895 -0.5768
 8626SOL    HW137511   2.053   4.053   2.145  0.0743  2.1639  0.4644
 8626SOL    HW237512   1.987   3.971   2.255  0.9179 -0.2823  1.3085
 8627SOL     OW37513   0.938   3.460  11.783  0.2415 -0.0795  0.4666
 8627SOL    HW137514   0.944   3.438  11.876 -3.2153 -1.9512  0.2147
 8627SOL    HW237515   1.022   3.496  11.753 -0.9890  1.4278 -1.1196
 8628SOL     OW37516   1.179   0.435   9.002  0.5107 -0.2656  0.1277
 8628SOL    HW137517   1.233   0.427   8.924 -1.9532 -0.6444 -1.5179
 8628SOL    HW237518   1.141   0.523   8.996  1.8778  0.3258  0.0945
 8629SOL     OW37519   0.967   4.655   4.854 -0.3299  0.5595  0.1548
 8629SOL    HW137520   0.918   4.735   4.837 -0.4176  0.1353 -1.5607
 8629SOL    HW237521   0.886   4.605   4.866 -2.4890  3.4122 -2.6566
 8630SOL     OW37522   3.862   3.565   4.620 -0.0662 -0.0124 -0.1398
 8630SOL    HW137523   3.860   3.503   4.692 -1.5246 -0.1199 -0.2815
 8630SOL    HW237524   3.955   3.551   4.598  0.1080  0.3658  0.3501
 8631SOL     OW37525   2.266   1.990   5.567  0.4064 -0.7356  0.7207
 8631SOL    HW137526   2.231   2.005   5.479  0.2508  2.4162  1.3029
 8631SOL    HW237527   2.192   2.015   5.622  0.0301  1.0892 -0.5945
 8632SOL     OW37528   3.307   0.261   2.946 -0.2816  0.3616  0.0912
 8632SOL    HW137529   3.362   0.216   2.881 -1.8516 -0.3438 -0.7519
 8632SOL    HW237530   3.221   0.220   2.938  0.8621 -2.6944  3.1542
 8633SOL     OW37531   3.334   1.414   2.684 -0.2128  0.1542 -0.4917
 8633SOL    HW137532   3.250   1.433   2.642  0.3822  0.0575 -1.7398
 8633SOL    HW237533   3.371   1.374   2.605 -0.6117  0.6119 -0.9069
 8634SOL     OW37534   2.810   0.961  11.464  0.2833 -0.3065 -0.0060
 8634SOL    HW137535   2.833   0.988  11.553  1.6337 -0.8510 -0.1984
 8634SOL    HW237536   2.849   1.028  11.408 -0.1140  0.1698  0.2854
 8635SOL     OW37537   4.331   2.737   0.318 -0.1344 -0.2867  0.4416
 8635SOL    HW137538   4.350   2.727   0.225 -1.8581  0.7341 -0.0225
 8635SOL    HW237539   4.235   2.737   0.308  0.2352  0.7935 -3.0669
 8636SOL     OW37540   1.534   3.038  10.330  0.3031  0.3970  0.5195
 8636SOL    HW137541   1.561   2.977  10.398  0.9520 -0.8089 -0.8261
 8636SOL    HW237542   1.619   3.062  10.292  0.0238  0.1193 -0.2881
 8637SOL     OW37543   3.069   3.070  13.506 -0.4078 -0.3849 -0.1742
 8637SOL    HW137544   3.099   3.128  13.436 -0.7649 -0.5106 -0.4276
 8637SOL    HW237545   3.003   3.123  13.552 -1.4422  0.6804 -2.9082
 8638SOL     OW37546   2.375   2.882   4.792 -0.1201 -0.0552 -0.4785
 8638SOL    HW137547   2.289   2.877   4.833  0.0978  1.0236  0.0932
 8638SOL    HW237548   2.342   2.881   4.702  0.9833 -0.7901 -0.8788
 8639SOL     OW37549   2.816   2.999   4.254  1.2186  0.9934  0.3830
 8639SOL    HW137550   2.725   2.998   4.282  0.1265  1.9718 -3.0887
 8639SOL    HW237551   2.806   3.026   4.162 -0.3187 -0.8474  0.0108
 8640SOL     OW37552   1.232   4.148   9.441 -0.6470  0.1990  0.2631
 8640SOL    HW137553   1.263   4.238   9.451  1.5074 -0.5732  0.3578
 8640SOL    HW237554   1.137   4.163   9.434 -0.1773  2.6063 -0.8592
 8641SOL     OW37555   3.001   4.216   7.417  0.1003  0.5304 -0.5614
 8641SOL    HW137556   3.005   4.127   7.454  0.3456  1.2228  1.0963
 8641SOL    HW237557   3.000   4.268   7.497  0.5329  0.4911 -0.5299
 8642SOL     OW37558   1.270   3.056  16.433 -0.5521  0.5224 -0.0600
 8642SOL    HW137559   1.235   3.043  16.521 -2.2227 -0.1619 -0.8368
 8642SOL    HW237560   1.327   3.129  16.457  0.0451 -0.1882  0.6864
 8643SOL     OW37561   1.623   2.585  11.469  0.4657 -0.0054  0.2372
 8643SOL    HW137562   1.705   2.601  11.516 -0.2050  0.5042  1.2327
 8643SOL    HW237563   1.626   2.492  11.445  2.7328  0.1604 -0.1788
 8644SOL     OW37564   4.185   2.930   3.355 -0.6519 -0.2112  0.1245
 8644SOL    HW137565   4.133   2.980   3.417  1.0265  1.0664  0.5022
 8644SOL    HW237566   4.273   2.968   3.356 -0.2591 -1.1443  1.1138
 8645SOL     OW37567   1.946   2.549  14.043  0.3957 -0.1857 -0.3320
 8645SOL    HW137568   1.867   2.588  14.005  1.3650  3.3432  1.3279
 8645SOL    HW237569   1.938   2.575  14.135 -0.4941 -0.4192 -0.3441
 8646SOL     OW37570   4.157   0.566   9.472  0.0086  0.1013 -0.2113
 8646SOL    HW137571   4.238   0.545   9.425  1.7209  1.2172  2.2714
 8646SOL    HW237572   4.113   0.484   9.451  0.4329 -0.5981  1.6506
 8647SOL     OW37573   2.473   3.167  10.967 -0.5468  0.2559  0.4178
 8647SOL    HW137574   2.463   3.233  10.898  1.1162  0.2306  0.1538
 8647SOL    HW237575   2.517   3.215  11.037  0.1116 -1.3976  1.1415
 8648SOL     OW37576   4.329   0.983   7.930 -0.5095 -0.2493  0.7905
 8648SOL    HW137577   4.276   0.957   7.855  1.1025 -0.9422 -0.1206
 8648SOL    HW237578   4.272   0.975   8.007 -1.0279  1.1339  0.5478
 8649SOL     OW37579   3.871   0.322   5.487  0.0768  0.3033  0.6832
 8649SOL    HW137580   3.936   0.336   5.556 -1.2620 -1.2479  2.2643
 8649SOL    HW237581   3.896   0.372   5.409  0.3610 -1.6888 -0.5138
 8650SOL     OW37582   4.640   1.453   5.787 -0.2440  0.1753  0.2785
 8650SOL    HW137583   4.569   1.510   5.815  1.0886  1.4263  1.1478
 8650SOL    HW237584   4.606   1.397   5.718  1.5646 -0.0147 -0.4613
 8651SOL     OW37585   0.960   1.751  14.933  0.2243 -0.0307  0.0292
 8651SOL    HW137586   1.015   1.795  14.997  0.5451 -0.8348  0.2989
 8651SOL    HW237587   1.030   1.701  14.892  1.0404 -1.6088  3.4026
 8652SOL     OW37588   1.190   3.871   5.251  0.6311  0.1724  0.2701
 8652SOL    HW137589   1.111   3.827   5.283  0.5395  1.1203  1.3509
 8652SOL    HW237590   1.189   3.862   5.156 -1.7189  0.1136  0.2953
 8653SOL     OW37591   1.382   1.965   8.331  0.2106  0.3787 -0.3555
 8653SOL    HW137592   1.402   1.980   8.238  2.6910 -0.5690  0.0133
 8653SOL    HW237593   1.472   1.957   8.363  0.0470 -0.4472 -0.0896
 8654SOL     OW37594   4.479   1.631  16.359  0.0689  0.3752  0.0944
 8654SOL    HW137595   4.433   1.671  16.286 -0.3098  0.0303  0.1426
 8654SOL    HW237596   4.558   1.685  16.351  0.0560  0.3249 -0.3766
 8655SOL     OW37597   2.780   2.038   9.722  0.3159 -0.6900  0.0827
 8655SOL    HW137598   2.854   2.075   9.770  1.2449 -0.9118 -1.1814
 8655SOL    HW237599   2.772   1.956   9.771 -0.1030 -0.2495  0.7663
 8656SOL     OW37600   3.034   4.384  15.187  0.0325 -0.0981 -0.2994
 8656SOL    HW137601   3.091   4.326  15.136 -2.4265 -0.8658 -2.1776
 8656SOL    HW237602   3.041   4.331  15.267  0.2044 -0.7050 -0.7204
 8657SOL     OW37603   2.945   0.901  16.908  0.2886  0.0665  0.1251
 8657SOL    HW137604   3.034   0.871  16.890 -0.0139 -2.0337  2.1303
 8657SOL    HW237605   2.891   0.830  16.873 -1.0793  0.1070  2.1521
 8658SOL     OW37606   0.704   3.614   9.466 -0.2339 -0.3648  0.6364
 8658SOL    HW137607   0.683   3.705   9.447  0.2857  0.2461  2.9563
 8658SOL    HW237608   0.729   3.575   9.382 -6.6686 -0.2051 -1.3733
 8659SOL     OW37609   0.410   3.603   3.834 -0.2975  0.4378 -0.4933
 8659SOL    HW137610   0.337   3.620   3.893  0.5203  0.6476  0.4476
 8659SOL    HW237611   0.427   3.509   3.829 -0.4516  0.3575  0.5621
 8660SOL     OW37612   3.564   3.175   6.793  0.1411 -0.1554 -0.4453
 8660SOL    HW137613   3.494   3.182   6.728 -0.1397 -0.8401 -0.2253
 8660SOL    HW237614   3.571   3.269   6.808 -1.4982 -0.3510  1.6389
 8661SOL     OW37615   3.882   2.101  12.892  1.0878 -0.2199  0.6585
 8661SOL    HW137616   3.798   2.063  12.917 -0.2838  2.5083  0.1765
 8661SOL    HW237617   3.930   2.018  12.887  0.2670 -0.5157 -2.2078
 8662SOL     OW37618   1.698   1.002   7.446  0.0491  0.2311  0.7666
 8662SOL    HW137619   1.623   1.049   7.409  0.2674 -0.3775 -0.4888
 8662SOL    HW237620   1.651   0.938   7.499  1.6825 -1.6830 -0.0940
 8663SOL     OW37621   1.126   1.267   4.606  0.0246  0.9570 -0.2316
 8663SOL    HW137622   1.142   1.332   4.538  1.9610 -1.7657 -2.3789
 8663SOL    HW237623   1.081   1.190   4.570 -0.2644  0.9732  0.0901
 8664SOL     OW37624   0.633   0.056   6.671 -0.4445 -0.1418  0.5658
 8664SOL    HW137625   0.703   0.063   6.607  1.5680  0.7924  2.8331
 8664SOL    HW237626   0.652   4.705   6.704 -0.8359  0.6932  3.0223
 8665SOL     OW37627   0.865   4.242  12.897  0.1655 -0.2739 -0.1389
 8665SOL    HW137628   0.938   4.285  12.940  0.2782 -0.9315  0.3356
 8665SOL    HW237629   0.804   4.315  12.889  1.9847  1.4600  2.1532
 8666SOL     OW37630   3.903   3.532  14.042 -0.1634  0.0718  0.0206
 8666SOL    HW137631   3.885   3.626  14.040  0.5379  0.2364  1.2753
 8666SOL    HW237632   3.997   3.541  14.058  0.5433 -2.8898 -2.5447
 8667SOL     OW37633   1.716   2.728   4.968  0.1764 -0.0336  0.0995
 8667SOL    HW137634   1.652   2.777   5.018  0.4968  1.2402 -0.7171
 8667SOL    HW237635   1.667   2.649   4.945 -1.1560  1.3096 -1.7300
 8668SOL     OW37636   3.020   2.266   5.122 -0.0660  0.2638 -0.1232
 8668SOL    HW137637   3.104   2.309   5.141 -0.5842  1.0333  0.4301
 8668SOL    HW237638   2.966   2.304   5.192  0.5045 -1.7868  1.4326
 8669SOL     OW37639   3.108   4.730   9.950  0.2082 -0.2588 -0.1824
 8669SOL    HW137640   3.035   4.736  10.011 -0.7468 -1.2945 -1.2141
 8669SOL    HW237641   3.133   4.641   9.975  1.4672 -0.3522 -1.7136
 8670SOL     OW37642   4.733   0.929   8.164  0.1833  0.2491 -0.3331
 8670SOL    HW137643   4.671   0.892   8.100 -1.4671 -1.7869  2.4654
 8670SOL    HW237644   4.668   0.991   8.197  0.1929  0.8511 -1.4269
 8671SOL     OW37645   0.382   3.795   6.202  0.1352 -0.4516 -0.1501
 8671SOL    HW137646   0.372   3.889   6.216  1.3236 -0.3464 -0.0109
 8671SOL    HW237647   0.333   3.770   6.124  0.3663 -0.5719 -0.2573
 8672SOL     OW37648   1.069   1.018   7.519 -0.0651  0.0599 -0.5476
 8672SOL    HW137649   0.976   1.039   7.510  0.4898  1.9565 -1.6453
 8672SOL    HW237650   1.061   0.964   7.598 -2.1444  1.0771 -0.0555
 8673SOL     OW37651   1.993   1.616   9.113  0.9937  0.5456 -0.5934
 8673SOL    HW137652   2.070   1.629   9.058  0.5170 -1.3180 -1.6881
 8673SOL    HW237653   1.995   1.703   9.153  0.8185 -0.4620  1.6191
 8674SOL     OW37654   1.852   3.285  16.487  0.2540 -0.2955 -0.0241
 8674SOL    HW137655   1.757   3.283  16.473 -0.1646  0.7510  2.7030
 8674SOL    HW237656   1.867   3.233  16.566 -0.3918  1.9189  1.5468
 8675SOL     OW37657   0.626   2.058   7.511  0.2332 -0.0868  0.2247
 8675SOL    HW137658   0.696   2.014   7.558  0.7083  2.2425  1.6709
 8675SOL    HW237659   0.658   2.079   7.423 -0.6117  3.2769  0.7224
 8676SOL     OW37660   3.464   0.878   4.007 -0.1836 -0.4596 -0.0077
 8676SOL    HW137661   3.557   0.899   4.011  0.4522 -2.7492 -2.0683
 8676SOL    HW237662   3.458   0.784   4.026  0.1692 -0.2267  1.2265
 8677SOL     OW37663   1.217   4.608   4.231  0.0665  0.0155  0.0102
 8677SOL    HW137664   1.276   4.546   4.273  0.1034  1.1303  1.6087
 8677SOL    HW237665   1.258   4.692   4.252  0.3172 -0.7437  2.5290
 8678SOL     OW37666   4.511   3.403   9.574  0.3996 -0.2475  0.0800
 8678SOL    HW137667   4.598   3.387   9.610 -0.8231  0.4341  3.3020
 8678SOL    HW237668   4.492   3.316   9.539 -1.3072 -0.4249  1.4654
 8679SOL     OW37669   3.748   1.885   7.555  0.0238 -0.0892 -0.0909
 8679SOL    HW137670   3.702   1.912   7.634  0.0025 -2.7893  0.8094
 8679SOL    HW237671   3.699   1.813   7.514  2.2753 -1.7557  0.1571
 8680SOL     OW37672   3.405   3.855   6.805  0.2062 -0.4493 -0.7242
 8680SOL    HW137673   3.346   3.780   6.813  0.3373 -0.4987 -0.2453
 8680SOL    HW237674   3.343   3.915   6.846  0.8830 -0.7134  0.6672
 8681SOL     OW37675   1.038   1.346   3.260  0.2621  0.0882 -0.0748
 8681SOL    HW137676   1.074   1.355   3.172 -1.2974  0.3683 -0.6908
 8681SOL    HW237677   1.005   1.436   3.266 -1.0181 -0.2401 -2.0519
 8682SOL     OW37678   0.016   1.959  17.516  0.1509 -0.6270  0.4590
 8682SOL    HW137679   4.734   1.924  17.429  1.8574  0.2202 -0.2493
 8682SOL    HW237680   4.669   2.005  17.526  0.1635  0.0743 -2.7660
 8683SOL     OW37681   2.613   1.734   7.538  0.4716  1.0007 -0.2564
 8683SOL    HW137682   2.535   1.763   7.490 -0.2218 -0.4238 -0.0015
 8683SOL    HW237683   2.614   1.810   7.596  0.5899 -1.2916  2.7350
 8684SOL     OW37684   4.125   3.740   4.422  0.5656 -0.5036  0.4485
 8684SOL    HW137685   4.059   3.807   4.435 -0.5849 -1.8248  1.4052
 8684SOL    HW237686   4.144   3.755   4.329  3.5652  0.1357  1.1663
 8685SOL     OW37687   1.499   2.594   7.226 -0.0579  0.3180  0.1028
 8685SOL    HW137688   1.580   2.544   7.238 -0.3440 -0.7473 -2.5008
 8685SOL    HW237689   1.479   2.628   7.314 -3.8358  2.5097 -1.5923
 8686SOL     OW37690   0.762   2.276  15.746 -0.1521  0.0690  0.2671
 8686SOL    HW137691   0.847   2.316  15.727  0.7510 -2.3539 -0.7667
 8686SOL    HW237692   0.779   2.252  15.837  1.0181 -0.8048 -0.1805
 8687SOL     OW37693   0.404   4.060  17.528  0.4324 -0.5266  0.5014
 8687SOL    HW137694   0.349   4.127  17.489 -0.5647 -1.9552 -0.5333
 8687SOL    HW237695   0.366   4.050  17.615  2.0156 -0.7533  1.1781
 8688SOL     OW37696   1.903   2.393   3.270 -0.0899  0.2174 -0.3222
 8688SOL    HW137697   1.971   2.387   3.337  1.4244  1.8037 -1.7134
 8688SOL    HW237698   1.942   2.462   3.217 -0.3999 -0.5077 -1.5058
 8689SOL     OW37699   0.813   1.718   5.960  0.5508  0.1942 -0.4761
 8689SOL    HW137700   0.853   1.771   6.029  1.6834 -2.3107  0.7961
 8689SOL    HW237701   0.754   1.664   6.013  0.7305  1.4292  0.9949
 8690SOL     OW37702   3.828   3.777   4.195 -0.2086  0.1928 -0.1309
 8690SOL    HW137703   3.803   3.863   4.230  1.0440  0.4923  0.0568
 8690SOL    HW237704   3.795   3.716   4.261  0.8645  0.6985  0.8864
 8691SOL     OW37705   2.624   3.197   6.271  0.0454  0.0620  0.8498
 8691SOL    HW137706   2.628   3.288   6.299  0.4778  0.0950  0.6780
 8691SOL    HW237707   2.637   3.160   6.358 -0.5745 -1.1062  0.4611
 8692SOL     OW37708   4.175   4.235  11.090  0.1009 -0.7329 -0.0378
 8692SOL    HW137709   4.127   4.161  11.126 -1.5615  0.2994 -0.1674
 8692SOL    HW237710   4.125   4.256  11.011  0.3600 -0.7155 -0.1985
 8693SOL     OW37711   4.286   3.979   9.014 -0.2301 -0.3205  0.5053
 8693SOL    HW137712   4.254   3.920   8.945  1.8441  1.7851 -2.2705
 8693SOL    HW237713   4.270   3.930   9.095  3.1954 -0.9595  0.7648
 8694SOL     OW37714   1.754   0.807   2.905 -0.1102  0.0165  0.2338
 8694SOL    HW137715   1.680   0.765   2.950 -1.3344  0.5435 -1.2601
 8694SOL    HW237716   1.829   0.794   2.962 -0.2079  0.0606  0.3732
 8695SOL     OW37717   1.407   1.933   3.331  0.0609 -0.4322  0.1736
 8695SOL    HW137718   1.423   1.947   3.237 -1.1651  3.7808  0.5483
 8695SOL    HW237719   1.321   1.975   3.339  0.3270 -0.1370  1.5086
 8696SOL     OW37720   2.842   0.099  17.694  0.2381  0.2179  0.5140
 8696SOL    HW137721   2.893   0.110   0.029 -0.5723  0.9664  0.9178
 8696SOL    HW237722   2.751   0.110  17.721 -0.5821  1.5058 -2.7559
 8697SOL     OW37723   2.346   1.790  12.971  1.0190  0.0213  0.2988
 8697SOL    HW137724   2.299   1.873  12.968  0.0399 -0.5260  0.6515
 8697SOL    HW237725   2.368   1.778  12.878  1.3088 -2.6627  0.7148
 8698SOL     OW37726   2.053   4.676   5.247  0.4574 -0.6014  0.3199
 8698SOL    HW137727   2.019   0.024   5.274  1.3355  0.5277 -2.0837
 8698SOL    HW237728   1.975   4.620   5.245 -0.2380  0.3937 -0.6785
 8699SOL     OW37729   3.368   1.115  17.277  0.9984 -0.3845  0.3653
 8699SOL    HW137730   3.436   1.174  17.244 -0.5224  1.4023  0.4314
 8699SOL    HW237731   3.354   1.063  17.198 -0.0848  0.0539  0.2697
 8700SOL     OW37732   1.450   3.783   5.319  0.1921  0.7644 -0.1278
 8700SOL    HW137733   1.368   3.825   5.292  1.5945  1.6300 -3.0379
 8700SOL    HW237734   1.461   3.722   5.246  0.9298  0.4957  0.2117
 8701SOL     OW37735   2.084   0.385   2.872  0.0495  0.3603 -0.6474
 8701SOL    HW137736   2.123   0.396   2.959 -2.8565 -2.9389  1.0382
 8701SOL    HW237737   2.037   0.468   2.862  0.2817  0.3063 -2.1073
 8702SOL     OW37738   4.587   4.343   7.262  0.3602 -0.2585 -0.6310
 8702SOL    HW137739   4.507   4.395   7.275  0.2723 -0.2153 -1.3454
 8702SOL    HW237740   4.574   4.278   7.193 -1.0506 -0.6093 -0.0432
 8703SOL     OW37741   3.750   0.869   1.103  0.1334 -0.5451  0.8529
 8703SOL    HW137742   3.733   0.785   1.061 -1.0165 -0.9778  2.1861
 8703SOL    HW237743   3.663   0.896   1.133  0.4602  1.6740 -0.1914
 8704SOL     OW37744   1.733   0.592  14.519  0.3001 -0.4894  0.3884
 8704SOL    HW137745   1.759   0.650  14.448  1.2148 -1.4935 -0.0902
 8704SOL    HW237746   1.646   0.569  14.487  0.7828 -1.8948  0.1181
 8705SOL     OW37747   4.397   2.902  11.878 -0.3364  0.0006 -0.0846
 8705SOL    HW137748   4.445   2.937  11.953  2.6241 -3.0000 -0.5842
 8705SOL    HW237749   4.450   2.943  11.809  0.9914  2.7383  2.5926
 8706SOL     OW37750   4.278   3.962   6.044  0.5356 -0.2236  0.3392
 8706SOL    HW137751   4.342   4.010   6.097  0.1036  0.5888  0.1310
 8706SOL    HW237752   4.251   4.030   5.982 -0.8995 -0.0280  1.1725
 8707SOL     OW37753   2.296   1.473  10.195 -0.3602  0.4525  0.1005
 8707SOL    HW137754   2.261   1.440  10.278  0.0945  0.5862  0.3458
 8707SOL    HW237755   2.381   1.514  10.210 -0.1398  0.4444 -1.1338
 8708SOL     OW37756   3.760   0.541  17.118 -0.4652  0.8199  0.1534
 8708SOL    HW137757   3.758   0.622  17.067  1.7181  1.3390  0.9185
 8708SOL    HW237758   3.670   0.507  17.117  0.3226 -1.1447 -3.2202
 8709SOL     OW37759   4.513   1.267   5.611 -0.1610  0.6533  0.3912
 8709SOL    HW137760   4.446   1.212   5.651 -0.7223 -0.0641 -1.4955
 8709SOL    HW237761   4.453   1.313   5.551 -0.3722  1.2097  1.0229
 8710SOL     OW37762   0.175   1.910   7.567  0.2560 -0.2055  0.0577
 8710SOL    HW137763   0.269   1.901   7.581  0.1306 -1.5001  0.0779
 8710SOL    HW237764   0.174   1.992   7.517 -0.5591 -0.5068 -0.4074
 8711SOL     OW37765   2.720   4.197  17.150  0.7525  0.2307  0.0973
 8711SOL    HW137766   2.662   4.203  17.226  0.9621 -0.1227  0.2781
 8711SOL    HW237767   2.729   4.291  17.132 -0.1741 -0.0294 -1.7528
 8712SOL     OW37768   0.010   3.306   5.758  0.3844  0.3221 -0.2703
 8712SOL    HW137769   4.719   3.219   5.788  0.7418 -0.5052 -2.3073
 8712SOL    HW237770   4.691   3.323   5.682  0.3749 -0.7630 -0.5075
 8713SOL     OW37771   4.139   3.329   3.489 -0.0114  0.0882  0.4342
 8713SOL    HW137772   4.231   3.354   3.496  0.2412 -1.1821  1.6801
 8713SOL    HW237773   4.088   3.366   3.562  1.2157 -2.6900  2.7199
 8714SOL     OW37774   2.301   2.256  17.332  0.5546 -0.0555 -0.6258
 8714SOL    HW137775   2.238   2.328  17.331 -1.1889 -1.5498  1.2545
 8714SOL    HW237776   2.350   2.280  17.410  1.4125 -0.6040 -0.9890
 8715SOL     OW37777   0.693   3.656  11.578  0.2214  0.7286  0.4503
 8715SOL    HW137778   0.751   3.729  11.600  1.1658  0.2767 -0.5327
 8715SOL    HW237779   0.761   3.590  11.563  0.5086  1.7944 -3.0507
 8716SOL     OW37780   3.204   2.918   2.990 -0.2248  0.4713 -0.0096
 8716SOL    HW137781   3.178   2.974   3.063 -3.1222 -0.3151 -0.4543
 8716SOL    HW237782   3.123   2.927   2.940  1.1713  0.9106 -2.1864
 8717SOL     OW37783   1.930   4.422   1.559 -0.2124  0.0380 -0.0960
 8717SOL    HW137784   1.873   4.364   1.509 -1.7323  0.5125  1.0824
 8717SOL    HW237785   1.993   4.445   1.490 -0.9956 -0.1170 -0.8609
 8718SOL     OW37786   3.214   1.820  17.602  0.0422 -0.3597 -0.2857
 8718SOL    HW137787   3.147   1.754  17.586 -1.9873  1.9884 -1.5289
 8718SOL    HW237788   3.285   1.769  17.641  2.0637  0.6837 -2.6334
 8719SOL     OW37789   4.705   4.647   0.952 -0.6642 -0.2414  0.8665
 8719SOL    HW137790   4.618   4.610   0.943 -0.0826 -1.0613 -1.2894
 8719SOL    HW237791   4.682   0.002   0.941 -1.2997 -0.6515 -1.1288
 8720SOL     OW37792   1.539   0.296   4.133 -0.2429  0.0770  0.1256
 8720SOL    HW137793   1.500   0.360   4.073 -1.4004 -1.1039 -0.3813
 8720SOL    HW237794   1.567   0.351   4.206  0.6745 -2.4385  1.6614
 8721SOL     OW37795   0.981   1.564   7.732 -0.2664 -0.2843 -0.1842
 8721SOL    HW137796   0.951   1.474   7.725  1.9343 -0.9682 -0.6265
 8721SOL    HW237797   1.071   1.556   7.700  0.6088  0.6740  2.0349
 8722SOL     OW37798   3.325   3.297  11.005  0.7795  0.3088 -0.5793
 8722SOL    HW137799   3.247   3.327  11.053  1.1780 -1.8346  1.3873
 8722SOL    HW237800   3.370   3.379  10.984 -0.8458  0.7314 -2.4133
 8723SOL     OW37801   2.876   1.356   4.349  0.3497  0.5035  0.4709
 8723SOL    HW137802   2.884   1.411   4.271 -0.7788  0.6984  0.4917
 8723SOL    HW237803   2.965   1.356   4.384  0.0916 -0.6944  1.1470
 8724SOL     OW37804   4.079   4.198   3.764  0.0078  0.1103  0.9361
 8724SOL    HW137805   4.171   4.223   3.764 -0.4188  1.6943 -0.1571
 8724SOL    HW237806   4.077   4.135   3.692 -1.3100  0.9900  0.1904
 8725SOL     OW37807   1.341   0.073  14.270 -0.3913 -0.4939  0.1699
 8725SOL    HW137808   1.262   0.073  14.324 -2.0270 -1.6837 -2.2061
 8725SOL    HW237809   1.362   4.717  14.259  1.9337  0.1111 -0.5258
 8726SOL     OW37810   4.090   2.852   3.104 -0.7384 -0.0622 -0.7675
 8726SOL    HW137811   4.122   2.865   3.194  0.0318 -1.6243 -0.8140
 8726SOL    HW237812   4.168   2.863   3.050 -2.1500  1.1405 -2.5496
 8727SOL     OW37813   4.070   1.627   0.365  0.1489 -0.1216  0.2918
 8727SOL    HW137814   4.065   1.571   0.443 -0.8690 -2.5139 -1.4840
 8727SOL    HW237815   4.068   1.711   0.410 -1.6629  1.0706 -2.0420
 8728SOL     OW37816   2.709   4.199   3.263 -0.8277 -0.3146 -0.2193
 8728SOL    HW137817   2.780   4.153   3.309  0.5520  0.4732 -1.5452
 8728SOL    HW237818   2.701   4.280   3.313  1.3027  1.0603 -2.0887
 8729SOL     OW37819   2.687   2.070   6.969 -0.4211 -0.1695 -0.1885
 8729SOL    HW137820   2.661   1.985   7.004 -1.3094  0.0216 -0.3719
 8729SOL    HW237821   2.720   2.111   7.049  0.4913 -2.9111  0.8470
 8730SOL     OW37822   3.488   0.402  17.264  0.3462 -0.3739  0.1255
 8730SOL    HW137823   3.418   0.382  17.201  0.0078  1.4712 -0.0884
 8730SOL    HW237824   3.483   0.498  17.262 -0.6913 -0.4227 -0.0457
 8731SOL     OW37825   0.858   2.381   0.937  0.2183  0.9204  0.3135
 8731SOL    HW137826   0.838   2.352   0.848  0.3836  0.5642  0.3938
 8731SOL    HW237827   0.794   2.452   0.939  1.2937  1.8368  1.7981
 8732SOL     OW37828   4.208   1.757  16.550 -0.1377 -0.6331  0.3690
 8732SOL    HW137829   4.232   1.835  16.500 -1.7027 -0.8962 -0.7834
 8732SOL    HW237830   4.278   1.761  16.616  0.9164 -0.0587 -0.7791
 8733SOL     OW37831   2.411   3.198   3.146  0.4535  0.5376  0.2773
 8733SOL    HW137832   2.386   3.290   3.151  1.2899  0.7299  1.0880
 8733SOL    HW237833   2.419   3.173   3.054  0.0796  1.4416 -0.0012
 8734SOL     OW37834   3.497   1.597   3.895  0.0139 -0.4497  0.1789
 8734SOL    HW137835   3.511   1.655   3.970 -0.5395 -0.7014  0.4848
 8734SOL    HW237836   3.587   1.565   3.892 -0.0129 -0.4132 -0.7563
 8735SOL     OW37837   2.436   3.522   6.733 -0.2020  0.0960  0.2678
 8735SOL    HW137838   2.354   3.524   6.781 -0.2972  0.7315  0.0790
 8735SOL    HW237839   2.494   3.560   6.800 -0.4702  0.7238  0.1444
 8736SOL     OW37840   4.244   0.445   7.993  0.3696  0.4271 -0.1305
 8736SOL    HW137841   4.174   0.509   8.007 -1.3279 -1.1072 -1.6131
 8736SOL    HW237842   4.211   0.364   8.032  1.3300  0.0818 -0.0294
 8737SOL     OW37843   3.379   4.297   3.331 -0.2284 -0.3084  0.0277
 8737SOL    HW137844   3.313   4.236   3.362 -1.3156  0.4779 -0.7594
 8737SOL    HW237845   3.336   4.370   3.374  0.9902 -0.4161  1.4443
 8738SOL     OW37846   3.309   0.962  17.506  0.3224 -0.0985  0.0097
 8738SOL    HW137847   3.374   1.003  17.563  0.6204 -0.4311 -0.0956
 8738SOL    HW237848   3.319   1.018  17.429 -1.8404  0.1175 -0.1155
 8739SOL     OW37849   4.550   1.458   8.738  0.0676 -0.3141 -0.1105
 8739SOL    HW137850   4.631   1.410   8.757 -0.7871 -0.5929  2.9211
 8739SOL    HW237851   4.529   1.449   8.645  0.1862 -0.4464 -0.1242
 8740SOL     OW37852   3.573   4.236   7.735  0.2761 -0.1786 -0.0217
 8740SOL    HW137853   3.546   4.167   7.674 -1.7761  2.6084 -2.2714
 8740SOL    HW237854   3.519   4.212   7.811  2.3680 -0.7753  1.2729
 8741SOL     OW37855   2.025   1.981  10.546  0.1230  0.0541  0.7362
 8741SOL    HW137856   2.110   1.958  10.582  0.6210 -1.1933 -1.2193
 8741SOL    HW237857   2.032   1.985  10.450  1.8244 -1.1977  0.8190
 8742SOL     OW37858   0.743   2.779   5.796 -0.1694  0.8475 -0.6303
 8742SOL    HW137859   0.751   2.794   5.890 -0.1798  2.9732 -0.9718
 8742SOL    HW237860   0.808   2.844   5.770  1.5693 -1.6413 -2.5213
 8743SOL     OW37861   2.080   4.205  16.104  0.5003  0.0711  0.2959
 8743SOL    HW137862   2.172   4.205  16.077  0.6980  2.2625  0.9626
 8743SOL    HW237863   2.064   4.297  16.125  0.0126 -0.0368  0.3987
 8744SOL     OW37864   1.244   3.946   9.028  0.1915  0.5987  0.0407
 8744SOL    HW137865   1.245   4.012   8.959 -0.4431 -0.8576 -1.3653
 8744SOL    HW237866   1.306   3.884   8.989 -2.6599 -3.1233  1.3671
 8745SOL     OW37867   3.042   4.284   2.695 -0.2264  0.7558  0.4630
 8745SOL    HW137868   3.077   4.229   2.624 -1.4547 -1.5994  1.6814
 8745SOL    HW237869   3.049   4.219   2.765  0.3330  0.3353  0.0294
 8746SOL     OW37870   2.335   2.702   2.136 -0.1627 -0.7690  0.3289
 8746SOL    HW137871   2.295   2.660   2.212 -0.0973 -0.3638  0.5905
 8746SOL    HW237872   2.423   2.721   2.168 -0.5174  0.7364  0.4031
 8747SOL     OW37873   3.234   3.484   3.567 -0.0850  0.7155  0.1640
 8747SOL    HW137874   3.326   3.480   3.595 -0.6702 -0.0084  2.0360
 8747SOL    HW237875   3.221   3.405   3.514  1.0242 -0.3330  1.4562
 8748SOL     OW37876   3.400   3.024   5.429  0.0360  0.2584  0.4100
 8748SOL    HW137877   3.483   3.007   5.473  0.1052 -1.2694 -0.3430
 8748SOL    HW237878   3.435   3.078   5.358 -0.3477  0.9102  0.7122
 8749SOL     OW37879   1.090   2.743  15.202  0.6463 -0.5680  0.0845
 8749SOL    HW137880   1.055   2.744  15.113  3.4596  0.8828 -1.0125
 8749SOL    HW237881   1.130   2.830  15.201  0.2934 -0.4123 -0.2588
 8750SOL     OW37882   1.360   1.061  10.939 -0.6272 -0.3665  0.3030
 8750SOL    HW137883   1.317   1.128  10.886  0.8505  0.4695  0.1600
 8750SOL    HW237884   1.277   1.022  10.966 -2.5503  3.0796 -0.6146
 8751SOL     OW37885   0.853   2.751   4.963 -0.2212 -0.3983  0.3016
 8751SOL    HW137886   0.818   2.662   4.969 -0.2883 -0.3383  0.8267
 8751SOL    HW237887   0.854   2.771   5.057  2.3855  0.7003  0.0370
 8752SOL     OW37888   3.031   0.615   6.206 -0.5659  0.0670 -0.8138
 8752SOL    HW137889   3.047   0.534   6.255 -0.3988  0.2368 -0.5910
 8752SOL    HW237890   3.062   0.586   6.120  0.1932  0.3545 -0.6269
 8753SOL     OW37891   2.142   2.332   3.440 -0.0947  0.2566 -0.0989
 8753SOL    HW137892   2.231   2.298   3.441  1.4181  4.2403 -1.1449
 8753SOL    HW237893   2.165   2.416   3.401  0.4104  2.1693  4.3989
 8754SOL     OW37894   3.134   3.627   6.260  1.5691  0.4032  0.1428
 8754SOL    HW137895   3.227   3.612   6.278  1.1703 -3.0360 -0.7632
 8754SOL    HW237896   3.129   3.722   6.254  1.2437  0.4056  0.4541
 8755SOL     OW37897   2.858   0.199   4.311 -0.4895  0.5500  0.4251
 8755SOL    HW137898   2.793   0.270   4.315 -0.2687  0.8833 -1.5985
 8755SOL    HW237899   2.798   0.133   4.346  0.6843 -1.7880 -1.9542
 8756SOL     OW37900   3.813   2.972   2.877  0.1291 -0.3861  0.3585
 8756SOL    HW137901   3.776   2.953   2.963 -2.7728  0.4592 -0.7109
 8756SOL    HW237902   3.775   3.054   2.847  1.3341  0.1740  0.3612
 8757SOL     OW37903   1.764   1.162   9.554 -0.4248  0.0877 -0.3350
 8757SOL    HW137904   1.717   1.189   9.633  1.7575 -0.7558  1.2442
 8757SOL    HW237905   1.752   1.067   9.550 -0.4442  0.1069 -0.7796
 8758SOL     OW37906   1.406   3.506   5.215 -0.0544 -0.1343 -0.6285
 8758SOL    HW137907   1.311   3.501   5.228 -0.1337  2.4661 -0.1300
 8758SOL    HW237908   1.409   3.464   5.129  2.0456 -1.2297 -0.0108
 8759SOL     OW37909   2.980   1.435  11.475  0.7177 -0.6216 -0.3031
 8759SOL    HW137910   3.009   1.526  11.483  0.9729 -0.7190 -0.1239
 8759SOL    HW237911   2.909   1.438  11.411  1.4104 -0.8996 -1.0774
 8760SOL     OW37912   1.009   4.682   2.258 -0.2712  0.0731  0.2765
 8760SOL    HW137913   0.921   4.722   2.252 -0.4531 -0.5373 -1.2276
 8760SOL    HW237914   1.023   4.660   2.350  0.5832  0.5400  0.2517
 8761SOL     OW37915   0.189   2.267   8.953  0.1578  0.4788  0.2336
 8761SOL    HW137916   0.208   2.199   8.889 -0.4577  1.9081 -1.4787
 8761SOL    HW237917   0.122   2.230   9.011 -1.2724  0.6556 -1.3190
 8762SOL     OW37918   4.150   2.299   4.418  0.0286 -0.2144 -0.4125
 8762SOL    HW137919   4.059   2.296   4.389  0.3959 -1.5143 -1.4709
 8762SOL    HW237920   4.189   2.368   4.364 -0.5987 -0.5388 -1.2809
 8763SOL     OW37921   4.265   3.429   3.953  0.0441 -0.7134  0.6803
 8763SOL    HW137922   4.262   3.470   4.039  0.6100 -0.4475  0.5778
 8763SOL    HW237923   4.315   3.350   3.973  2.5883  1.0955  1.4045
 8764SOL     OW37924   0.311   2.230   6.224  0.2073  0.6395  0.8723
 8764SOL    HW137925   0.306   2.321   6.193  0.6611 -0.6200 -2.9519
 8764SOL    HW237926   0.254   2.234   6.300 -0.4026  0.4916  0.4226
 8765SOL     OW37927   2.820   1.844  17.037 -0.1076 -0.9419  0.4766
 8765SOL    HW137928   2.847   1.924  16.993  0.7036 -1.4705  0.0206
 8765SOL    HW237929   2.836   1.881  17.124  3.2467 -1.0125 -0.1455
 8766SOL     OW37930   4.193   1.270  10.150 -0.3879 -0.6457  0.2487
 8766SOL    HW137931   4.261   1.334  10.170 -2.0510  0.7620  1.4490
 8766SOL    HW237932   4.149   1.307  10.073 -0.5347 -0.8203  0.2485
 8767SOL     OW37933   2.065   3.019   3.748  0.5486 -0.5716  0.1160
 8767SOL    HW137934   2.015   3.073   3.808 -1.0800 -1.2558 -0.6200
 8767SOL    HW237935   2.053   2.932   3.786  0.4474 -0.5484  0.1361
 8768SOL     OW37936   1.526   4.344   4.167 -0.2301 -0.1359  0.1089
 8768SOL    HW137937   1.539   4.439   4.167 -0.4925 -0.0991  0.6445
 8768SOL    HW237938   1.575   4.310   4.093 -0.8219  0.2163 -0.4391
 8769SOL     OW37939   4.671   3.882  15.640 -0.5046  0.1968 -0.1107
 8769SOL    HW137940   4.711   3.969  15.643 -1.5999  0.6106  2.0047
 8769SOL    HW237941   4.588   3.899  15.595  0.3961  0.7198 -1.5699
 8770SOL     OW37942   1.101   3.017   4.048  0.2695 -0.6033 -0.9237
 8770SOL    HW137943   1.036   3.025   3.978 -0.2636 -3.2092 -0.7143
 8770SOL    HW237944   1.128   2.925   4.043 -0.2383 -0.6262 -3.4832
 8771SOL     OW37945   2.448   4.499   8.561 -0.2082 -0.3276  0.0839
 8771SOL    HW137946   2.446   4.505   8.466  1.8978  0.4918  0.0857
 8771SOL    HW237947   2.543   4.498   8.575 -0.5025  1.7038  2.1898
 8772SOL     OW37948   4.255   4.407  10.639  0.6076  0.0054  0.3440
 8772SOL    HW137949   4.241   4.499  10.619  1.9348 -0.2058 -1.5588
 8772SOL    HW237950   4.350   4.398  10.633  0.7750  0.9630  1.7124
 8773SOL     OW37951   1.379   4.177   1.891 -0.2455  0.0271  0.0438
 8773SOL    HW137952   1.331   4.247   1.936  0.9890 -0.6061  2.3766
 8773SOL    HW237953   1.434   4.234   1.838  0.0082 -1.8021 -1.6536
 8774SOL     OW37954   2.491   1.780   8.897  0.5926 -0.3991  0.0622
 8774SOL    HW137955   2.518   1.705   8.951  1.5222 -0.7916 -0.9501
 8774SOL    HW237956   2.406   1.745   8.870 -1.3474  4.3780 -0.0497
 8775SOL     OW37957   3.742   3.202   9.025  0.0217  0.0631 -0.2062
 8775SOL    HW137958   3.663   3.155   8.997 -0.6832 -0.0954  1.9871
 8775SOL    HW237959   3.705   3.247   9.101 -0.8905 -1.2426  0.1252
 8776SOL     OW37960   1.636   4.222   1.751 -0.4352  0.1445  0.1839
 8776SOL    HW137961   1.728   4.249   1.751 -0.0569 -1.1421  0.1288
 8776SOL    HW237962   1.627   4.139   1.704  1.1005 -0.6167  1.2245
 8777SOL     OW37963   2.969   1.738   2.705  0.1767 -0.8796  0.1118
 8777SOL    HW137964   2.979   1.810   2.767 -0.2891  0.4342 -1.3391
 8777SOL    HW237965   2.948   1.795   2.631  1.1855 -0.4940  0.1168
 8778SOL     OW37966   3.722   1.598   6.694  0.2357 -0.4438  0.5219
 8778SOL    HW137967   3.700   1.546   6.617 -0.8812  2.6356 -1.2418
 8778SOL    HW237968   3.749   1.678   6.649 -1.8374 -0.7963 -1.3310
 8779SOL     OW37969   4.305   2.953   5.468  0.6893  0.3616  0.3705
 8779SOL    HW137970   4.273   2.912   5.548 -1.5276  1.3604  0.0098
 8779SOL    HW237971   4.299   2.883   5.404 -0.0960 -0.0366  0.8744
 8780SOL     OW37972   1.629   1.406   6.118 -0.6480  0.1597 -0.5798
 8780SOL    HW137973   1.537   1.409   6.091 -0.6022 -1.5535 -0.9719
 8780SOL    HW237974   1.667   1.412   6.031 -1.9426  1.9739 -1.0229
 8781SOL     OW37975   1.109   1.594   6.807  0.1339 -0.5958 -0.1838
 8781SOL    HW137976   1.166   1.588   6.884  0.0691  2.0886  0.0734
 8781SOL    HW237977   1.121   1.686   6.782 -1.1811  0.0425  1.5284
 8782SOL     OW37978   0.562   0.144   4.778  0.5087  0.7075  0.0951
 8782SOL    HW137979   0.517   0.107   4.854  0.0915  0.7532 -0.1317
 8782SOL    HW237980   0.653   0.115   4.776  0.5780  0.9028  0.4035
 8783SOL     OW37981   3.658   3.787   8.588  0.1233  0.5313  0.0261
 8783SOL    HW137982   3.653   3.864   8.531 -3.3375 -0.4115 -0.9729
 8783SOL    HW237983   3.602   3.816   8.661  0.8377 -2.2921  1.6880
 8784SOL     OW37984   3.192   0.801  16.817 -1.2081 -0.2810  0.1817
 8784SOL    HW137985   3.240   0.783  16.735 -2.6688 -1.7996 -0.3380
 8784SOL    HW237986   3.229   0.736  16.876 -0.6621  0.2629  0.4433
 8785SOL     OW37987   0.821   4.425   4.645  0.4562 -0.3987  0.1521
 8785SOL    HW137988   0.835   4.458   4.557 -2.7616  1.6020  0.3964
 8785SOL    HW237989   0.909   4.438   4.680  0.1728 -0.1870  0.7868
 8786SOL     OW37990   1.835   0.111  12.840 -0.1556  0.0283  0.6824
 8786SOL    HW137991   1.797   0.164  12.770  0.7373 -1.9490 -1.3000
 8786SOL    HW237992   1.926   0.087  12.820 -0.8129  0.2366 -2.5757
 8787SOL     OW37993   4.613   3.233  13.969  0.0961 -0.3377 -0.5835
 8787SOL    HW137994   4.518   3.241  13.968  0.2426  2.0000  3.6329
 8787SOL    HW237995   4.639   3.294  13.900  1.8266  1.9259  2.1135
 8788SOL     OW37996   3.889   2.041   4.464  0.2587 -0.1396 -0.2024
 8788SOL    HW137997   3.932   1.960   4.437  1.0444  0.6789 -1.4769
 8788SOL    HW237998   3.916   2.097   4.390  1.6356  1.5978  1.6091
 8789SOL     OW37999   2.166   1.180   5.636  0.2378 -0.0819 -0.4115
 8789SOL    HW138000   2.122   1.096   5.622  0.1501  0.0736 -1.0459
 8789SOL    HW238001   2.110   1.218   5.703  1.1013  0.8217 -0.1967
 8790SOL     OW38002   4.593   1.477   6.951  0.9497  0.0527 -0.5137
 8790SOL    HW138003   4.639   1.394   6.938 -0.0850 -0.5035 -0.5957
 8790SOL    HW238004   4.600   1.514   6.863 -1.1089  0.6639 -0.4177
 8791SOL     OW38005   3.402   1.166   1.506  0.0307 -0.0006  0.2794
 8791SOL    HW138006   3.444   1.214   1.435  0.2141  1.4192  1.3630
 8791SOL    HW238007   3.419   1.224   1.579  0.5625  0.6222 -0.3406
 8792SOL     OW38008   1.790   0.324   4.274 -0.2649 -0.1952  0.2938
 8792SOL    HW138009   1.818   0.252   4.331  2.1185  0.2451 -0.3437
 8792SOL    HW238010   1.737   0.374   4.337 -2.2900 -0.4737 -1.1653
 8793SOL     OW38011   3.653   3.381  13.741 -0.1134  0.3873  0.3844
 8793SOL    HW138012   3.662   3.476  13.732 -0.4427  0.3183 -0.6347
 8793SOL    HW238013   3.609   3.378  13.826  1.2253 -1.6841  1.0243
 8794SOL     OW38014   4.622   4.026   8.812  0.6325 -0.1367  0.2477
 8794SOL    HW138015   4.549   4.087   8.823  2.0311  1.0146  3.0974
 8794SOL    HW238016   4.674   4.049   8.889  1.0775  1.1670 -0.4388
 8795SOL     OW38017   3.996   2.812   5.399 -0.4697 -0.1842 -0.2583
 8795SOL    HW138018   4.004   2.900   5.361 -0.7434  0.2333  0.6549
 8795SOL    HW238019   3.926   2.778   5.344 -1.7435  0.5190  0.9375
 8796SOL     OW38020   0.516   3.125   9.935  0.3105 -0.0054  0.7702
 8796SOL    HW138021   0.571   3.172   9.997  0.6810  1.5921 -0.7941
 8796SOL    HW238022   0.471   3.198   9.893 -0.7856 -0.6674  0.7730
 8797SOL     OW38023   0.042   1.910   3.702 -0.1068  0.2294 -0.3269
 8797SOL    HW138024   4.724   1.835   3.679  0.3643  0.5189 -2.3774
 8797SOL    HW238025   0.027   1.968   3.628  3.1489 -0.2858 -1.3651
 8798SOL     OW38026   1.843   4.620   8.873  0.2620 -0.1486  0.0454
 8798SOL    HW138027   1.904   4.571   8.927 -0.5683 -2.1741 -0.8503
 8798SOL    HW238028   1.808   4.687   8.932 -0.0565  0.0611 -0.3778
 8799SOL     OW38029   0.131   1.343   7.081 -0.6254 -0.1859  0.6364
 8799SOL    HW138030   0.212   1.299   7.056 -0.4966  0.4357 -0.0607
 8799SOL    HW238031   0.129   1.403   7.006 -0.9659 -0.6918  0.2338
 8800SOL     OW38032   2.174   1.014   4.598 -0.3548  0.2735 -0.5065
 8800SOL    HW138033   2.116   0.946   4.563  1.1275 -1.5499  0.6106
 8800SOL    HW238034   2.161   1.010   4.692 -0.1028  1.5710 -0.4131
 8801SOL     OW38035   4.425   3.342   3.424  0.1373  0.0546  0.1414
 8801SOL    HW138036   4.467   3.371   3.505 -1.2685 -2.2154  1.6981
 8801SOL    HW238037   4.503   3.352   3.370 -0.4294  3.8448  0.0618
 8802SOL     OW38038   2.866   0.016   2.809  0.9949 -0.4768 -0.0681
 8802SOL    HW138039   2.856   4.661   2.833  1.8335 -0.9188 -1.4114
 8802SOL    HW238040   2.960   0.033   2.803  0.5862  1.8009 -0.0249
 8803SOL     OW38041   3.868   0.203   8.484  0.1556  0.0216 -0.3976
 8803SOL    HW138042   3.857   0.282   8.432  2.3432  1.5369  1.4654
 8803SOL    HW238043   3.816   0.230   8.560  1.1315 -0.0159  0.2773
 8804SOL     OW38044   3.338   1.365  13.128  0.6409 -0.0186  0.5071
 8804SOL    HW138045   3.244   1.375  13.140  0.5212  1.7373 -1.9044
 8804SOL    HW238046   3.339   1.300  13.057 -1.0320 -1.4345  1.7788
 8805SOL     OW38047   1.258   1.617   3.218  0.2433 -0.0477  0.0825
 8805SOL    HW138048   1.339   1.581   3.255  1.5768  2.2401 -0.6363
 8805SOL    HW238049   1.231   1.551   3.155  1.8692  0.6770 -1.3851
 8806SOL     OW38050   4.049   1.832  13.343 -0.5140  0.0315  0.4912
 8806SOL    HW138051   4.123   1.814  13.285 -0.2678 -0.3069  0.9094
 8806SOL    HW238052   4.080   1.889  13.413 -0.5638 -0.4464  0.9046
 8807SOL     OW38053   4.450   1.360   8.510  0.1562  0.0904 -0.3692
 8807SOL    HW138054   4.398   1.281   8.499  0.2285 -0.0998  0.6562
 8807SOL    HW238055   4.425   1.410   8.433  2.5060  0.3387 -0.9800
 8808SOL     OW38056   1.677   1.262   4.398  0.3728 -0.8409 -0.0337
 8808SOL    HW138057   1.753   1.276   4.454 -0.7490  0.2240  1.2235
 8808SOL    HW238058   1.669   1.167   4.406 -2.1272 -0.3908  2.8071
 8809SOL     OW38059   0.287   1.147   3.052  0.2779 -0.0148 -0.2594
 8809SOL    HW138060   0.215   1.210   3.054 -0.1381 -0.3752 -3.6778
 8809SOL    HW238061   0.242   1.062   3.055 -0.5577  0.4070 -0.9124
 8810SOL     OW38062   3.801   0.056   3.786 -0.1367  0.2020  0.0442
 8810SOL    HW138063   3.847   4.709   3.781 -1.4792 -0.4491 -1.6515
 8810SOL    HW238064   3.712   0.023   3.774 -0.0621 -0.0269  0.1217
 8811SOL     OW38065   0.537   3.296   1.887  0.1071  0.0339 -0.5168
 8811SOL    HW138066   0.537   3.362   1.957 -1.0598 -0.5690  0.0408
 8811SOL    HW238067   0.450   3.313   1.852  0.7844  0.7521 -1.8839
 8812SOL     OW38068   1.683   4.454   2.900 -0.2246  0.3771 -0.2094
 8812SOL    HW138069   1.730   4.375   2.874  0.8880 -0.2199  3.5828
 8812SOL    HW238070   1.600   4.418   2.931 -0.7371  0.7119 -1.1998
 8813SOL     OW38071   3.601   3.793   6.241 -0.6364 -0.0773  0.3862
 8813SOL    HW138072   3.557   3.867   6.199  0.6711 -0.5470 -1.8001
 8813SOL    HW238073   3.665   3.838   6.295 -0.1137  0.4589 -0.6918
 8814SOL     OW38074   0.185   2.652   2.513  0.0990 -0.0706  0.8238
 8814SOL    HW138075   0.130   2.666   2.436  1.0580  0.4128  0.2263
 8814SOL    HW238076   0.255   2.716   2.501 -0.4413  0.4381  0.4110
 8815SOL     OW38077   4.179   4.026   3.083  0.0866 -0.0177  0.2421
 8815SOL    HW138078   4.089   3.995   3.071 -0.8191  3.1286 -1.0084
 8815SOL    HW238079   4.189   4.069   2.998  2.8063 -0.2695  0.4521
 8816SOL     OW38080   2.782   1.819   5.416 -0.0172  0.1775  0.3316
 8816SOL    HW138081   2.794   1.913   5.408 -4.1787  0.5586 -1.0639
 8816SOL    HW238082   2.868   1.799   5.453 -0.3662  0.9888  1.5661
 8817SOL     OW38083   2.171   1.608   8.701 -0.3685  0.3202 -0.2213
 8817SOL    HW138084   2.117   1.674   8.658  1.5498  2.1758  0.2132
 8817SOL    HW238085   2.174   1.646   8.789  2.4752  0.4365 -0.3725
 8818SOL     OW38086   3.692   0.310  15.643 -0.2485  0.3153 -0.5732
 8818SOL    HW138087   3.651   0.232  15.681  2.3163 -0.8393 -0.1554
 8818SOL    HW238088   3.619   0.360  15.606 -2.8733 -2.5912  0.6934
 8819SOL     OW38089   1.895   1.526   0.491  0.1678 -0.5061  0.6495
 8819SOL    HW138090   1.925   1.503   0.579 -0.8165 -0.2208  1.0595
 8819SOL    HW238091   1.972   1.573   0.461  0.3066 -1.6658 -0.7813
 8820SOL     OW38092   0.708   1.724   3.810 -0.4318 -0.3504  0.0089
 8820SOL    HW138093   0.656   1.643   3.807  0.5938 -1.0068  0.2103
 8820SOL    HW238094   0.646   1.784   3.851 -0.7051  0.2359 -1.2589
 8821SOL     OW38095   0.734   3.010   9.494 -0.2414  0.1548 -0.1188
 8821SOL    HW138096   0.661   3.048   9.544 -1.9434 -0.6013 -2.0436
 8821SOL    HW238097   0.689   2.975   9.418  0.4186 -1.1587  0.1037
 8822SOL     OW38098   0.385   0.088   1.664 -0.1486 -0.1736  0.3675
 8822SOL    HW138099   0.425   0.162   1.618  0.0399 -1.5681 -1.7281
 8822SOL    HW238100   0.311   0.126   1.711  0.0728 -1.3603  1.6977
 8823SOL     OW38101   3.096   1.187  11.547 -0.8104 -0.5094 -0.4799
 8823SOL    HW138102   3.091   1.282  11.540 -1.9454 -0.5720 -0.5609
 8823SOL    HW238103   3.069   1.172  11.638  0.7049 -0.2787  0.0035
 8824SOL     OW38104   0.622   3.714  14.502 -0.6359 -0.0397  0.1795
 8824SOL    HW138105   0.560   3.781  14.472 -0.2110 -0.0183 -0.6737
 8824SOL    HW238106   0.709   3.754  14.510  0.0008 -1.0578 -1.6462
 8825SOL     OW38107   2.356   2.789   3.947 -0.0179 -0.2419  0.2372
 8825SOL    HW138108   2.329   2.786   4.039 -0.5727  1.6538  0.1205
 8825SOL    HW238109   2.379   2.881   3.942 -0.0157 -0.2140  0.7346
 8826SOL     OW38110   0.367   2.189   4.825  0.1691 -0.0705 -0.3484
 8826SOL    HW138111   0.386   2.158   4.736  0.9480 -3.3025  0.9700
 8826SOL    HW238112   0.282   2.152   4.849  1.2458 -0.9938  2.0452
 8827SOL     OW38113   4.373   3.440   8.640 -0.6941 -0.1023 -0.1905
 8827SOL    HW138114   4.335   3.366   8.593  2.8394 -1.2900 -1.1765
 8827SOL    HW238115   4.374   3.404   8.729 -0.2297 -0.2938 -0.2730
 8828SOL     OW38116   0.563   1.926  11.380  0.0922  0.1708  0.3250
 8828SOL    HW138117   0.509   1.970  11.314 -0.3446  0.0609  0.6072
 8828SOL    HW238118   0.526   1.839  11.368  1.4013 -0.0886 -1.7948
 8829SOL     OW38119   0.883   2.752   2.774 -0.3523  0.5352  0.4657
 8829SOL    HW138120   0.956   2.781   2.719 -1.3778  1.8532 -0.2079
 8829SOL    HW238121   0.851   2.835   2.810 -1.0246  0.1566  0.7407
 8830SOL     OW38122   4.544   3.947   8.419  0.8334  0.5365  0.1025
 8830SOL    HW138123   4.579   3.920   8.334  0.1735 -1.3703  0.4353
 8830SOL    HW238124   4.508   3.862   8.446  1.3947  0.5966  1.0828
 8831SOL     OW38125   4.688   0.245  12.008 -0.0185  0.3080 -0.2761
 8831SOL    HW138126   4.612   0.274  12.058  1.1322 -0.2956  1.8445
 8831SOL    HW238127   4.699   0.153  12.032  1.3603  0.7297  0.7190
 8832SOL     OW38128   0.981   4.216   8.238  0.0860 -0.4499  0.5500
 8832SOL    HW138129   0.900   4.238   8.193 -0.5484 -0.6786  1.5669
 8832SOL    HW238130   0.991   4.299   8.284 -0.2303 -0.2580  0.2745
 8833SOL     OW38131   0.223   4.280   6.027  0.7499 -0.4726 -0.3564
 8833SOL    HW138132   0.242   4.344   6.096  0.0986 -1.0281  0.3286
 8833SOL    HW238133   0.279   4.304   5.954  0.9821 -0.7430 -0.2674
 8834SOL     OW38134   0.636   4.146   8.222  0.1126  0.0336  0.1902
 8834SOL    HW138135   0.636   4.204   8.297  0.0268  1.6894 -1.1002
 8834SOL    HW238136   0.551   4.104   8.234 -0.2471  0.5438 -0.5996
 8835SOL     OW38137   3.668   1.532   3.269  0.6532  0.7800 -0.6111
 8835SOL    HW138138   3.638   1.497   3.353  0.7401  5.4650  1.3556
 8835SOL    HW238139   3.756   1.565   3.288  1.2518 -1.1907  0.0860
 8836SOL     OW38140   0.262   0.819  16.743  0.7041  0.8029  0.3628
 8836SOL    HW138141   0.269   0.865  16.659  3.3898  1.2123  0.8251
 8836SOL    HW238142   0.172   0.787  16.730  1.4554 -0.7382 -1.0611
 8837SOL     OW38143   3.540   3.813   0.130 -0.2081  0.1121  0.1160
 8837SOL    HW138144   3.609   3.770   0.180  0.5440  0.3825 -0.6815
 8837SOL    HW238145   3.462   3.801   0.183  0.3400  1.9667  1.3586
 8838SOL     OW38146   4.199   2.765  14.445  0.5693 -0.2308 -0.0506
 8838SOL    HW138147   4.187   2.785  14.352 -1.5198  0.4563  0.3823
 8838SOL    HW238148   4.257   2.689  14.441 -0.4010 -0.9175 -1.2863
 8839SOL     OW38149   0.822   2.404   3.708 -0.4859  0.5475  0.0552
 8839SOL    HW138150   0.907   2.374   3.675 -0.4795  1.5599 -0.8601
 8839SOL    HW238151   0.764   2.376   3.637  2.8393 -2.9619 -1.2744
 8840SOL     OW38152   0.157   2.373  16.031 -0.4113  0.3928 -0.1436
 8840SOL    HW138153   0.080   2.326  16.064  1.2514 -2.4916 -0.4574
 8840SOL    HW238154   0.129   2.384  15.940  2.1289  2.3741 -0.6609
 8841SOL     OW38155   2.052   4.241   1.236 -0.3584 -0.9733  0.5051
 8841SOL    HW138156   2.109   4.177   1.278 -0.1756  2.4852  5.5010
 8841SOL    HW238157   2.061   4.215   1.144 -0.0622 -0.4211  0.3792
 8842SOL     OW38158   1.372   3.082   3.329  0.0413  0.0099  0.2801
 8842SOL    HW138159   1.315   3.156   3.305  0.9320  1.4012  2.4602
 8842SOL    HW238160   1.455   3.124   3.353  0.2405 -0.6357  0.7247
 8843SOL     OW38161   3.753   0.916   3.563 -0.0478 -0.2764 -0.0499
 8843SOL    HW138162   3.828   0.856   3.563  1.0101  1.0563 -2.0539
 8843SOL    HW238163   3.708   0.877   3.638  0.3206  1.9411  1.3273
 8844SOL     OW38164   2.034   3.981   6.168 -0.3861 -0.0239 -0.5132
 8844SOL    HW138165   2.016   4.064   6.211  0.7064 -0.1028  0.1125
 8844SOL    HW238166   2.047   3.913   6.235  0.6768  0.9498  0.2683
 8845SOL     OW38167   0.375   2.889   3.087 -0.0462  0.6754  0.0472
 8845SOL    HW138168   0.375   2.904   2.993  0.3037  1.0435  0.1091
 8845SOL    HW238169   0.465   2.861   3.104  0.0035  0.9679  0.2581
 8846SOL     OW38170   0.164   2.392   2.046 -0.6667 -0.8079  0.0068
 8846SOL    HW138171   0.090   2.452   2.031 -0.2281  0.1546  1.7401
 8846SOL    HW238172   0.157   2.379   2.140  1.4996 -0.6656  0.1817
 8847SOL     OW38173   4.099   4.171   9.052 -0.0870  0.4890 -0.0302
 8847SOL    HW138174   4.105   4.157   8.957 -0.8855 -2.1642  0.3001
 8847SOL    HW238175   4.191   4.152   9.072 -0.1986  0.4406  0.4282
 8848SOL     OW38176   0.835   0.027   6.421 -0.4415 -0.0226 -0.4532
 8848SOL    HW138177   0.906   0.058   6.476 -1.9085  1.9104  0.3608
 8848SOL    HW238178   0.835   0.097   6.356 -1.0115  1.1401  0.8136
 8849SOL     OW38179   0.182   2.640   5.431  0.5457 -0.5983  0.6135
 8849SOL    HW138180   0.175   2.552   5.467 -0.8431 -1.0004 -0.6398
 8849SOL    HW238181   0.195   2.683   5.516  1.8317  1.0830 -0.4340
 8850SOL     OW38182   0.920   4.547  15.282 -0.2539 -0.5658  0.1552
 8850SOL    HW138183   0.969   4.628  15.296 -1.0209 -0.5097  2.4076
 8850SOL    HW238184   0.834   4.588  15.277  0.4031  1.0703  2.4057
 8851SOL     OW38185   4.063   4.649  12.353 -0.3779 -0.1684 -0.6109
 8851SOL    HW138186   4.006   4.572  12.354 -1.2799  0.5181  0.0801
 8851SOL    HW238187   4.054   4.683  12.441 -0.2475 -0.7748 -0.3628
 8852SOL     OW38188   3.399   2.460   3.661  0.0687 -0.1112  0.0179
 8852SOL    HW138189   3.367   2.381   3.617  1.4383 -0.0928 -1.0074
 8852SOL    HW238190   3.327   2.520   3.639 -1.6293 -2.2736 -0.3837
 8853SOL     OW38191   3.161   1.919  10.804  0.4278  0.2672 -0.5962
 8853SOL    HW138192   3.092   1.911  10.738  0.2268 -1.4893 -0.1500
 8853SOL    HW238193   3.168   2.015  10.810  0.9301  0.1211  0.9372
 8854SOL     OW38194   2.763   2.112  17.739  0.5569  0.4399  0.0296
 8854SOL    HW138195   2.829   2.148  17.680  1.4287  0.5384  1.0734
 8854SOL    HW238196   2.813   2.057   0.054 -0.2132  0.1854  0.4329
 8855SOL     OW38197   2.592   4.416   1.703 -0.1361  0.1269 -0.8937
 8855SOL    HW138198   2.560   4.503   1.725  1.2216  0.7092 -1.2269
 8855SOL    HW238199   2.599   4.430   1.608 -1.0746 -0.4000 -1.0395
 8856SOL     OW38200   1.324   2.888   5.833 -0.2994 -0.0419 -0.1410
 8856SOL    HW138201   1.349   2.965   5.884 -2.7784  0.3528  0.5166
 8856SOL    HW238202   1.266   2.843   5.895 -0.2871 -0.6844 -0.5913
 8857SOL     OW38203   3.112   3.689   8.726 -1.1110  0.3909 -0.5782
 8857SOL    HW138204   3.117   3.758   8.792  0.6157  0.1702 -0.4886
 8857SOL    HW238205   3.200   3.651   8.720 -0.9767  1.0036 -2.5039
 8858SOL     OW38206   0.122   1.844   0.443  0.3535  0.1505 -0.0961
 8858SOL    HW138207   0.127   1.752   0.417 -0.8575  0.0822 -0.0783
 8858SOL    HW238208   0.206   1.852   0.489  0.0958 -0.4492  0.4696
 8859SOL     OW38209   2.670   4.636   0.399  0.4339  0.7579 -0.6097
 8859SOL    HW138210   2.600   4.594   0.349 -1.8453  3.5189  0.2272
 8859SOL    HW238211   2.742   4.574   0.399 -1.4392 -1.4017 -2.2419
 8860SOL     OW38212   4.267   2.118   9.209  0.3358 -0.2125 -0.2002
 8860SOL    HW138213   4.333   2.078   9.266  0.7702  0.1613 -0.4355
 8860SOL    HW238214   4.310   2.204   9.203  0.7036 -0.3929 -0.1807
 8861SOL     OW38215   3.495   3.854   6.555  0.0559 -0.1063 -0.2965
 8861SOL    HW138216   3.460   3.857   6.644 -0.2978 -3.8595 -0.2902
 8861SOL    HW238217   3.585   3.860   6.588 -0.2685  1.9595  0.1713
 8862SOL     OW38218   1.231   4.101  15.345 -0.0020  0.4622  0.0462
 8862SOL    HW138219   1.185   4.080  15.264 -0.9693  0.4890  0.5758
 8862SOL    HW238220   1.245   4.193  15.325  1.8979  0.0150 -0.6055
 8863SOL     OW38221   2.656   0.349   5.214  0.4725  0.4116  0.0697
 8863SOL    HW138222   2.710   0.427   5.212 -0.3394  1.0126  1.2056
 8863SOL    HW238223   2.647   0.337   5.309 -0.1115 -0.4013 -0.0872
 8864SOL     OW38224   4.248   3.693   2.047  0.2319  0.5065 -0.1411
 8864SOL    HW138225   4.188   3.722   1.979 -1.1973 -0.6598  0.6196
 8864SOL    HW238226   4.303   3.630   2.001  0.8812  1.1852 -0.3008
 8865SOL     OW38227   2.371   1.333   3.805 -0.8469  0.2797 -0.1260
 8865SOL    HW138228   2.434   1.352   3.875 -1.4729  0.5580  0.3584
 8865SOL    HW238229   2.339   1.247   3.833  0.6317  0.3969  1.9668
 8866SOL     OW38230   2.638   4.047   5.630  0.3721 -0.5074 -0.4255
 8866SOL    HW138231   2.618   3.965   5.585  0.0407 -0.0165 -1.1727
 8866SOL    HW238232   2.569   4.041   5.695  0.0225  1.4201 -0.6106
 8867SOL     OW38233   3.181   2.688  16.538  0.2076  0.2348 -0.8413
 8867SOL    HW138234   3.154   2.756  16.476  0.3768  0.7441 -0.3546
 8867SOL    HW238235   3.128   2.612  16.516  0.6768 -0.7545  1.4995
 8868SOL     OW38236   1.214   1.389   3.489 -0.3272 -0.7434 -0.2289
 8868SOL    HW138237   1.287   1.363   3.432  1.7734  2.7349  0.9080
 8868SOL    HW238238   1.139   1.387   3.430  0.7305 -1.5499 -1.5624
 8869SOL     OW38239   2.200   4.494   9.713 -0.0251  0.3090  0.0387
 8869SOL    HW138240   2.143   4.550   9.766 -0.2852 -1.9276  2.1148
 8869SOL    HW238241   2.251   4.560   9.667  0.3091  0.5583  0.7799
 8870SOL     OW38242   2.459   0.366  12.869  0.3760  0.5269  0.1325
 8870SOL    HW138243   2.467   0.340  12.777 -0.6915 -1.5613  0.6185
 8870SOL    HW238244   2.511   0.297  12.911 -3.2493 -1.7650  0.8999
 8871SOL     OW38245   2.455   1.563  11.116 -0.3369  0.2735  0.0266
 8871SOL    HW138246   2.393   1.623  11.157  0.7570  1.3506  0.0888
 8871SOL    HW238247   2.403   1.486  11.092  0.5336  0.6870 -3.2525
 8872SOL     OW38248   3.825   2.258   6.278  0.1482 -0.4913  0.0021
 8872SOL    HW138249   3.902   2.315   6.268  0.4154 -0.3955  2.4987
 8872SOL    HW238250   3.760   2.326   6.295  0.9337  0.2949 -0.1169
 8873SOL     OW38251   1.500   3.390  14.913 -0.6396  0.0261  0.3809
 8873SOL    HW138252   1.590   3.368  14.890 -1.0356  0.3460 -1.4565
 8873SOL    HW238253   1.523   3.460  14.975 -0.5950  0.5494 -0.2322
 8874SOL     OW38254   1.626   4.288   6.507  0.0881 -0.0203 -0.1105
 8874SOL    HW138255   1.683   4.347   6.556  0.2872 -1.3161  1.2121
 8874SOL    HW238256   1.669   4.203   6.511 -1.8475 -1.0252 -0.5216
 8875SOL     OW38257   2.512   0.531   7.595  0.4958 -0.6573  0.0844
 8875SOL    HW138258   2.444   0.537   7.528 -2.1020  1.2863  2.9248
 8875SOL    HW238259   2.554   0.616   7.585  0.7281 -0.6903  0.7970
 8876SOL     OW38260   1.350   2.594  11.517  0.1142 -0.4333  0.0097
 8876SOL    HW138261   1.443   2.587  11.496  0.2155 -1.4420  0.7873
 8876SOL    HW238262   1.359   2.615  11.610 -0.1164 -1.5648  0.2894
 8877SOL     OW38263   3.690   0.789  16.999  0.5429 -0.3221  0.2578
 8877SOL    HW138264   3.774   0.800  17.043  0.4445 -0.6146  0.5189
 8877SOL    HW238265   3.694   0.851  16.926 -0.5075  1.0800  1.3758
 8878SOL     OW38266   4.013   2.832   2.315 -0.4914  0.2722 -0.0322
 8878SOL    HW138267   4.089   2.868   2.360  1.0095  0.2899 -2.5982
 8878SOL    HW238268   4.054   2.774   2.251  1.6566 -0.6272  2.2006
 8879SOL     OW38269   2.023   0.795   4.539 -0.0930 -0.0470  0.4250
 8879SOL    HW138270   2.092   0.731   4.554  0.7507  0.6929 -0.3461
 8879SOL    HW238271   1.956   0.729   4.521  0.7318 -0.7198 -0.1654
 8880SOL     OW38272   2.171   0.234   5.971  0.3313 -0.4408  0.4091
 8880SOL    HW138273   2.106   0.168   5.996  0.2662 -0.5711 -0.1044
 8880SOL    HW238274   2.207   0.254   6.058 -0.7649  1.2593  0.4746
 8881SOL     OW38275   2.483   2.218   6.049  0.3134  1.1521  0.6076
 8881SOL    HW138276   2.428   2.282   6.004 -0.3018  1.2299  1.4663
 8881SOL    HW238277   2.517   2.269   6.123 -0.5677  0.9427  1.1597
 8882SOL     OW38278   0.713   3.988  10.267 -0.1091 -0.6569  0.3487
 8882SOL    HW138279   0.685   4.079  10.251 -0.4493 -1.2523 -2.5426
 8882SOL    HW238280   0.785   4.005  10.327  0.1514  1.9867 -0.7018
 8883SOL     OW38281   2.465   4.154   6.486 -0.3571  0.0820  0.2171
 8883SOL    HW138282   2.429   4.147   6.575  0.4336 -0.8802  0.4665
 8883SOL    HW238283   2.559   4.149   6.502 -0.9951 -0.5933  3.9557
 8884SOL     OW38284   1.556   4.609  17.155  0.3068  0.7050 -0.0860
 8884SOL    HW138285   1.640   4.642  17.186  0.2268  0.8328 -0.0073
 8884SOL    HW238286   1.573   4.605  17.061 -1.5429 -1.7037 -0.3170
 8885SOL     OW38287   2.730   0.398  14.525  0.4209  0.0190  0.1120
 8885SOL    HW138288   2.799   0.450  14.484  1.0092  0.7310  2.0070
 8885SOL    HW238289   2.684   0.466  14.573  0.2531  0.7565 -1.1237
 8886SOL     OW38290   4.694   4.302  14.405 -0.1189 -0.4296  0.0620
 8886SOL    HW138291   4.693   4.345  14.320  0.1386 -2.7210 -1.0911
 8886SOL    HW238292   4.627   4.235  14.397  0.1989 -1.1326  3.2615
 8887SOL     OW38293   1.330   3.440   5.496 -0.5164  0.1629  0.1575
 8887SOL    HW138294   1.300   3.504   5.432 -0.7231  0.8797  0.9695
 8887SOL    HW238295   1.385   3.394   5.433  0.4498  0.3515  0.8630
 8888SOL     OW38296   3.106   0.246   2.096 -0.0140  0.5287  0.2009
 8888SOL    HW138297   3.163   0.309   2.140 -0.4875  1.0643  0.0525
 8888SOL    HW238298   3.040   0.226   2.162 -0.8090  2.6578  0.0538
 8889SOL     OW38299   1.912   2.559  14.294 -0.1201  0.4850  0.2215
 8889SOL    HW138300   1.918   2.464  14.287  0.0790  0.6237 -1.5600
 8889SOL    HW238301   1.847   2.565  14.364  2.0239 -0.7368  2.2905
 8890SOL     OW38302   4.639   0.204   5.444  0.2047 -0.5091  0.2044
 8890SOL    HW138303   4.717   0.176   5.491 -0.2121  0.6075  1.5510
 8890SOL    HW238304   4.590   0.248   5.513 -1.6675 -2.6835  0.2772
 8891SOL     OW38305   3.749   0.513   8.806 -0.5400  0.2740  0.0445
 8891SOL    HW138306   3.746   0.604   8.835 -5.5694  0.3907 -0.8725
 8891SOL    HW238307   3.775   0.466   8.886  2.5650  0.7733 -0.6593
 8892SOL     OW38308   0.064   2.384  10.180  0.1327  0.2671  0.5696
 8892SOL    HW138309   4.728   2.355  10.125 -0.7468 -1.6316  2.7502
 8892SOL    HW238310   0.149   2.385  10.135 -1.1730  0.1963 -1.9242
 8893SOL     OW38311   2.648   4.520   7.818 -0.1498  0.3263 -0.0957
 8893SOL    HW138312   2.635   4.565   7.735 -0.9940  0.1978 -0.0300
 8893SOL    HW238313   2.585   4.450   7.802 -2.5983  2.9809 -2.0258
 8894SOL     OW38314   3.732   2.933   8.270 -0.2836  0.0688 -0.4235
 8894SOL    HW138315   3.776   2.967   8.192  2.1995  0.8170  1.3449
 8894SOL    HW238316   3.783   2.969   8.342  0.7719 -1.7299 -0.2902
 8895SOL     OW38317   3.647   4.350   6.174  0.5344  0.0924  0.4752
 8895SOL    HW138318   3.689   4.385   6.253 -0.0996 -1.2699  1.4062
 8895SOL    HW238319   3.564   4.396   6.177 -0.0787 -0.8570 -1.9340
 8896SOL     OW38320   0.211   2.525   8.434  0.2257  0.1581  0.3502
 8896SOL    HW138321   0.275   2.455   8.446 -0.5208 -0.3902  1.1438
 8896SOL    HW238322   0.185   2.547   8.524 -0.4935  1.3913 -0.1643
 8897SOL     OW38323   2.797   4.558   8.361 -0.2540  0.0859  0.2921
 8897SOL    HW138324   2.744   4.635   8.338 -1.2864 -0.1689  1.8177
 8897SOL    HW238325   2.780   4.499   8.288 -0.4694  2.1691 -1.3329
 8898SOL     OW38326   3.094   2.173   7.631  0.1644  0.1270 -0.1082
 8898SOL    HW138327   3.000   2.170   7.649  0.0838  1.7239 -0.2987
 8898SOL    HW238328   3.115   2.265   7.616  1.3798  0.0083  0.8670
 8899SOL     OW38329   3.468   1.642   2.833  0.2909  0.1188 -0.5298
 8899SOL    HW138330   3.399   1.669   2.772 -1.4086 -1.2736  0.8037
 8899SOL    HW238331   3.495   1.560   2.793  0.3161 -0.6824  1.1516
 8900SOL     OW38332   4.093   4.605   8.902  0.2513 -0.4744 -0.4146
 8900SOL    HW138333   4.055   4.693   8.905  0.5648 -0.3021 -1.3770
 8900SOL    HW238334   4.175   4.622   8.856 -1.4916  0.4238 -3.2015
 8901SOL     OW38335   3.315   3.235   4.347  0.4690  0.0467  0.1679
 8901SOL    HW138336   3.398   3.261   4.388  0.0467  0.4382  0.7911
 8901SOL    HW238337   3.256   3.288   4.401  1.0147 -0.3557  1.1658
 8902SOL     OW38338   2.131   2.987  13.507 -0.2902 -0.0210 -0.0438
 8902SOL    HW138339   2.071   3.000  13.580 -2.0261 -1.6083 -1.2196
 8902SOL    HW238340   2.202   2.950  13.560  1.4044  2.6582 -0.4192
 8903SOL     OW38341   3.908   1.843  15.424  0.4650  0.0881 -0.0176
 8903SOL    HW138342   3.925   1.754  15.392 -0.9827  0.5446 -2.0279
 8903SOL    HW238343   3.916   1.893  15.343 -0.2294  1.2212  0.6264
 8904SOL     OW38344   0.815   2.323   4.184  0.5334  0.3121 -0.0208
 8904SOL    HW138345   0.861   2.283   4.258 -0.8203 -2.4191 -0.6412
 8904SOL    HW238346   0.771   2.252   4.137  1.1877  0.0181 -0.1885
 8905SOL     OW38347   1.851   4.313  14.503  0.0228 -0.3502  0.4347
 8905SOL    HW138348   1.780   4.251  14.518  0.6610 -1.2897 -0.4771
 8905SOL    HW238349   1.855   4.315  14.408  0.7978  0.6289  0.4859
 8906SOL     OW38350   4.584   1.482   3.402  0.2412  0.1178 -0.5023
 8906SOL    HW138351   4.517   1.419   3.429  1.0595 -0.7577 -0.5435
 8906SOL    HW238352   4.527   1.549   3.362 -0.3240 -1.0899 -1.7030
 8907SOL     OW38353   3.312   2.117   8.617 -1.3351  0.4135 -0.2173
 8907SOL    HW138354   3.316   2.190   8.555  0.7004 -2.7976 -3.8596
 8907SOL    HW238355   3.312   2.041   8.560  1.8590 -1.2038  1.9413
 8908SOL     OW38356   1.294   0.891   7.805  0.8189 -0.0997  0.5560
 8908SOL    HW138357   1.272   0.851   7.889  0.6284  0.1368  0.6167
 8908SOL    HW238358   1.211   0.902   7.758 -0.4409 -2.1264  2.3127
 8909SOL     OW38359   0.782   0.095   2.050 -0.3312  0.2737 -0.8578
 8909SOL    HW138360   0.688   0.098   2.031 -0.5949 -0.4357  0.3788
 8909SOL    HW238361   0.798   0.144   2.131 -1.1434  2.2590 -1.9137
 8910SOL     OW38362   3.024   2.697   2.034  0.3169  0.1813  0.2873
 8910SOL    HW138363   3.015   2.792   2.036 -0.5850  0.0809  0.8162
 8910SOL    HW238364   3.087   2.704   1.962 -0.6207  0.4717 -0.5083
 8911SOL     OW38365   0.133   3.804   0.345  0.0120 -0.1323 -0.3035
 8911SOL    HW138366   0.114   3.867   0.276 -0.4232 -0.4580 -0.4806
 8911SOL    HW238367   0.182   3.867   0.399 -0.7928 -0.1775  0.4785
 8912SOL     OW38368   3.088   4.087   5.669  0.0411  0.1113 -0.3420
 8912SOL    HW138369   3.125   4.169   5.635  0.3819 -0.3885 -1.1646
 8912SOL    HW238370   3.009   4.114   5.715 -0.7811 -1.0110 -1.1103
 8913SOL     OW38371   0.543   1.511  10.970  0.4159 -0.0689  0.2691
 8913SOL    HW138372   0.511   1.589  11.016 -0.3876 -1.5883  2.2925
 8913SOL    HW238373   0.634   1.508  11.000  0.2748 -0.4355  0.6567
 8914SOL     OW38374   2.027   1.845   9.250 -0.2987  0.2535 -0.3719
 8914SOL    HW138375   1.993   1.861   9.338  0.5360  0.4598 -0.0880
 8914SOL    HW238376   2.035   1.934   9.217 -0.4509 -0.2813 -1.8410
 8915SOL     OW38377   0.935   3.231   4.849 -0.2098  0.4795  0.1762
 8915SOL    HW138378   0.870   3.162   4.834 -0.8755  1.3308 -0.8528
 8915SOL    HW238379   0.890   3.309   4.817 -0.2786 -0.6454 -2.5041
 8916SOL     OW38380   4.484   0.134   3.158 -0.3632  0.5531  0.2359
 8916SOL    HW138381   4.458   0.050   3.119 -0.3686  0.0933  1.2262
 8916SOL    HW238382   4.431   0.191   3.103  0.2227 -0.0624 -0.9663
 8917SOL     OW38383   3.058   3.087   7.203  0.4535 -0.1615 -0.1082
 8917SOL    HW138384   3.002   3.054   7.133 -0.6874  1.4513  0.0395
 8917SOL    HW238385   3.026   3.177   7.209 -0.3297 -0.4168 -0.4805
 8918SOL     OW38386   1.643   3.594   4.496 -0.1293  0.2040 -0.1558
 8918SOL    HW138387   1.572   3.608   4.559 -0.6369 -0.9588 -0.4592
 8918SOL    HW238388   1.589   3.590   4.418  0.0265 -0.0336 -0.2516
 8919SOL     OW38389   2.241   0.549  14.933  0.3698 -0.3655 -0.6355
 8919SOL    HW138390   2.258   0.457  14.910  1.1127 -0.3827 -0.0321
 8919SOL    HW238391   2.180   0.547  15.006  0.6298 -0.1491 -0.4139
 8920SOL     OW38392   0.105   4.591   4.592  0.0863 -0.3099  0.0458
 8920SOL    HW138393   0.159   4.513   4.599  0.7880  0.1152 -0.5870
 8920SOL    HW238394   0.138   4.628   4.510 -1.9457 -1.3890 -1.2389
 8921SOL     OW38395   2.493   0.928   3.987  0.0112  0.3373  0.2919
 8921SOL    HW138396   2.538   0.962   4.065 -0.9322 -1.5667  1.6502
 8921SOL    HW238397   2.559   0.867   3.952 -0.8943 -0.9872  0.9025
 8922SOL     OW38398   0.851   3.727   7.387 -0.0188 -0.6040  0.4861
 8922SOL    HW138399   0.836   3.688   7.301  0.2476 -1.3098  0.7575
 8922SOL    HW238400   0.763   3.721   7.424  0.7211  1.0856  2.5300
 8923SOL     OW38401   2.866   1.052  11.790  0.0199  0.1787 -0.3587
 8923SOL    HW138402   2.804   0.980  11.802  0.4392 -0.0194  0.5694
 8923SOL    HW238403   2.903   1.055  11.878 -1.6131  0.8063  0.2999
 8924SOL     OW38404   2.880   1.159  11.308  0.0377  0.5349  0.5476
 8924SOL    HW138405   2.871   1.250  11.281  2.2308  0.5278 -0.2133
 8924SOL    HW238406   2.973   1.154  11.285  0.1064  1.1164  0.7119
 8925SOL     OW38407   0.666   2.589   8.357 -0.0750  0.3433  0.3225
 8925SOL    HW138408   0.715   2.670   8.342 -1.4975  1.0494 -0.5413
 8925SOL    HW238409   0.580   2.606   8.319 -0.5285 -2.5687  0.0249
 8926SOL     OW38410   0.994   1.676   8.737 -0.7186  0.1802  0.6825
 8926SOL    HW138411   0.989   1.663   8.642 -0.0582  0.3481  0.6216
 8926SOL    HW238412   1.054   1.603   8.754 -1.1691 -0.5850 -0.9716
 8927SOL     OW38413   1.647   2.035   4.907 -0.0846 -0.0514 -0.3004
 8927SOL    HW138414   1.689   2.109   4.864  1.2080 -0.9919 -0.6606
 8927SOL    HW238415   1.561   2.075   4.917  0.2274  0.5354  0.0424
 8928SOL     OW38416   3.289   0.103   6.809 -0.1228 -0.1539  0.6145
 8928SOL    HW138417   3.368   0.051   6.827  0.3017  0.6589  1.1340
 8928SOL    HW238418   3.273   0.083   6.717 -0.6037  0.6829  0.5141
 8929SOL     OW38419   0.984   0.452   7.063  0.7545  0.7528  0.1153
 8929SOL    HW138420   0.982   0.430   7.156  1.7842 -0.3559 -0.1199
 8929SOL    HW238421   1.076   0.468   7.046  0.5138  0.5542 -1.3885
 8930SOL     OW38422   3.041   2.360   0.178  0.1738  0.8166  0.3601
 8930SOL    HW138423   2.947   2.381   0.177 -0.0181 -0.0596 -0.2998
 8930SOL    HW238424   3.036   2.265   0.195  0.6041  0.8212  0.5095
 8931SOL     OW38425   1.997   3.814   3.786  0.2581 -0.0846 -0.2946
 8931SOL    HW138426   2.037   3.837   3.870  1.0789 -1.5098 -0.2859
 8931SOL    HW238427   1.931   3.750   3.812 -1.0995  2.0132  1.3829
 8932SOL     OW38428   2.877   2.863   4.767 -0.0988 -0.2555  0.2416
 8932SOL    HW138429   2.965   2.853   4.731 -0.4270 -1.2169 -0.3188
 8932SOL    HW238430   2.903   2.916   4.842  0.3130 -0.1308  0.0113
 8933SOL     OW38431   1.581   3.269   9.272 -0.1758  0.2667 -0.1270
 8933SOL    HW138432   1.556   3.323   9.347 -5.0047 -0.3330 -1.2829
 8933SOL    HW238433   1.544   3.185   9.299  0.0416  0.6682  1.4041
 8934SOL     OW38434   2.253   1.912   6.515 -0.1298  0.2649 -0.0882
 8934SOL    HW138435   2.161   1.934   6.529 -0.6243 -1.5178 -0.5654
 8934SOL    HW238436   2.260   1.914   6.419  0.0740  0.8008 -0.0595
 8935SOL     OW38437   3.589   0.253   5.040 -0.5563 -0.1431 -0.2366
 8935SOL    HW138438   3.493   0.252   5.048 -0.6060  1.1041 -0.6818
 8935SOL    HW238439   3.608   0.267   5.133  1.4264  1.6854 -0.9174
 8936SOL     OW38440   2.404   2.327   5.726  0.1341  0.7114  0.7711
 8936SOL    HW138441   2.437   2.248   5.682  1.2150  1.2320  0.6584
 8936SOL    HW238442   2.337   2.292   5.786 -0.5700 -0.3265 -0.6176
 8937SOL     OW38443   4.561   3.345   4.108 -0.8727 -0.3886 -0.5282
 8937SOL    HW138444   4.549   3.310   4.019 -3.7889  1.6604 -0.9109
 8937SOL    HW238445   4.492   3.291   4.145 -1.0361  0.4114  0.3051
 8938SOL     OW38446   3.604   1.944   3.631 -0.3652 -0.0759 -0.1415
 8938SOL    HW138447   3.558   1.960   3.549 -1.7016  0.7729  0.7893
 8938SOL    HW238448   3.600   1.848   3.629 -0.0120 -0.1010  0.2720
 8939SOL     OW38449   1.001   1.617  17.129  0.6375 -0.2514 -0.7828
 8939SOL    HW138450   1.044   1.551  17.182 -0.7521  1.3892  2.3927
 8939SOL    HW238451   0.920   1.566  17.120  0.7839 -0.4953 -0.7125
 8940SOL     OW38452   3.598   3.607   0.332 -0.2771 -0.3684  0.2722
 8940SOL    HW138453   3.504   3.600   0.319 -0.1201 -1.2106 -0.4287
 8940SOL    HW238454   3.612   3.527   0.281 -0.4933 -1.4995  2.0137
 8941SOL     OW38455   1.800   3.292   5.424  0.2428  0.0851  0.0292
 8941SOL    HW138456   1.805   3.277   5.518 -1.6625 -3.1398 -0.4020
 8941SOL    HW238457   1.893   3.301   5.403  0.1175  2.2743  0.4002
 8942SOL     OW38458   4.375   2.133   1.302 -0.1010 -0.8943  0.0041
 8942SOL    HW138459   4.369   2.045   1.263 -0.8743  0.9372 -3.9870
 8942SOL    HW238460   4.415   2.172   1.225 -1.4118 -1.6137 -1.0418
 8943SOL     OW38461   0.023   2.915  16.318  0.1993  0.1322  0.5849
 8943SOL    HW138462   4.724   2.958  16.241 -0.3728 -0.5483  0.4723
 8943SOL    HW238463   0.118   2.906  16.304 -0.0155  0.3334 -0.9038
 8944SOL     OW38464   0.292   0.878   7.737 -0.4860  0.3755 -1.1201
 8944SOL    HW138465   0.337   0.911   7.814  1.0576 -1.5041 -1.2000
 8944SOL    HW238466   0.256   0.962   7.708  0.0448  0.8826 -0.2925
 8945SOL     OW38467   2.584   3.756   3.805  0.0683  0.1191  0.3363
 8945SOL    HW138468   2.589   3.665   3.833  0.0595 -0.2862 -0.9477
 8945SOL    HW238469   2.571   3.733   3.713  1.5438  1.4846 -0.2105
 8946SOL     OW38470   0.410   2.415   5.677 -0.3658  0.0965  0.3318
 8946SOL    HW138471   0.383   2.338   5.726 -0.5383 -1.3667 -2.0858
 8946SOL    HW238472   0.396   2.487   5.739 -0.3305  0.0814  0.3576
 8947SOL     OW38473   1.183   2.763   4.030 -1.1464  0.0398  0.2836
 8947SOL    HW138474   1.245   2.701   3.991 -1.1514  0.2089  0.0109
 8947SOL    HW238475   1.161   2.711   4.108 -1.0080  1.0958  1.0358
 8948SOL     OW38476   0.355   4.013   6.620  0.2407 -0.2833 -0.1062
 8948SOL    HW138477   0.341   3.954   6.547  0.3258 -0.3570 -0.0617
 8948SOL    HW238478   0.336   4.096   6.575 -2.2471 -0.7019  0.1644
 8949SOL     OW38479   1.154   3.628  10.965  0.0875 -0.6560 -0.4201
 8949SOL    HW138480   1.098   3.552  10.953 -1.8315  0.3907  1.9368
 8949SOL    HW238481   1.167   3.656  10.874 -1.6008  1.2402 -0.0666
 8950SOL     OW38482   1.295   2.963   2.174  0.5352 -0.1301 -0.1288
 8950SOL    HW138483   1.273   2.947   2.082 -1.3634 -2.6512  0.7481
 8950SOL    HW238484   1.344   3.044   2.169  0.0623  0.1173 -0.7750
 8951SOL     OW38485   2.189   1.437   3.193 -0.3034 -0.4104 -0.1913
 8951SOL    HW138486   2.280   1.444   3.222  0.9537 -1.0096 -3.9062
 8951SOL    HW238487   2.148   1.403   3.272  0.2843 -1.7420 -0.4469
 8952SOL     OW38488   1.110   1.177   9.365  0.3227  0.4760  0.4553
 8952SOL    HW138489   1.073   1.112   9.425  1.0863 -1.3899 -1.0752
 8952SOL    HW238490   1.031   1.221   9.332 -0.4108 -1.6953 -0.7177
 8953SOL     OW38491   3.402   4.645   8.863  0.5155 -0.5736  0.0199
 8953SOL    HW138492   3.426   4.631   8.955 -1.3085 -1.3550  0.3674
 8953SOL    HW238493   3.410   4.555   8.832  1.7739 -0.8935  1.2810
 8954SOL     OW38494   2.348   1.877   0.044  0.1888  0.0449  0.2719
 8954SOL    HW138495   2.312   1.902  17.704  1.6393 -2.1085 -0.9630
 8954SOL    HW238496   2.385   1.963   0.064  1.5611 -0.6691  0.8336
 8955SOL     OW38497   4.092   0.917  15.992  0.2804  0.0630 -0.2450
 8955SOL    HW138498   4.182   0.895  16.018  0.4210  2.0928  1.0730
 8955SOL    HW238499   4.091   1.013  15.984 -0.0786  0.1674  0.9868
 8956SOL     OW38500   4.531   1.338  12.880  0.3474  0.2230 -0.1882
 8956SOL    HW138501   4.590   1.263  12.885  0.1261  0.0325 -0.4231
 8956SOL    HW238502   4.564   1.383  12.802 -1.1797  0.0373 -0.9365
 8957SOL     OW38503   2.920   1.503   3.599  0.2934  0.9290 -0.3300
 8957SOL    HW138504   2.859   1.544   3.661 -0.1722 -1.0153  0.5092
 8957SOL    HW238505   2.955   1.438   3.660  0.4620  1.6330  0.3181
 8958SOL     OW38506   3.298   3.955  13.797 -0.4068  0.0200 -0.0650
 8958SOL    HW138507   3.301   3.995  13.884  0.9651 -2.0584  0.8434
 8958SOL    HW238508   3.292   4.031  13.740 -0.4133  0.6708  0.7943
 8959SOL     OW38509   2.140   0.758   0.010  0.5530  0.2711  0.1230
 8959SOL    HW138510   2.195   0.693   0.052  2.3839  1.4396 -0.4699
 8959SOL    HW238511   2.192   0.802  17.688 -0.4831  0.6499 -0.4399
 8960SOL     OW38512   3.929   3.387   9.320  0.1742 -0.5024 -0.1771
 8960SOL    HW138513   3.943   3.470   9.274 -0.0018 -1.8921 -2.7002
 8960SOL    HW238514   3.967   3.325   9.259 -0.2841  0.1351 -1.1008
 8961SOL     OW38515   0.132   3.277   4.067 -0.5872 -0.3119 -0.4376
 8961SOL    HW138516   0.190   3.249   4.138  0.5244 -0.3841 -1.3766
 8961SOL    HW238517   0.046   3.303   4.100  0.6460 -0.2591  2.6925
 8962SOL     OW38518   2.656   4.452   6.196 -0.0369 -0.0840 -0.1749
 8962SOL    HW138519   2.662   4.450   6.291  0.3574 -2.3788 -0.2428
 8962SOL    HW238520   2.747   4.449   6.168 -0.1662  1.7481 -0.7968
 8963SOL     OW38521   4.658   4.251  15.405 -0.4427  0.0366  0.0999
 8963SOL    HW138522   4.718   4.306  15.355 -0.6146 -0.3632 -0.5483
 8963SOL    HW238523   4.663   4.167  15.359 -1.5450 -0.4745  0.9322
 8964SOL     OW38524   4.434   3.076  14.227  0.2363 -0.1852  0.4858
 8964SOL    HW138525   4.413   3.144  14.163 -2.0312 -2.3074 -1.0425
 8964SOL    HW238526   4.364   3.089  14.290  0.7380 -1.2463  1.2664
 8965SOL     OW38527   0.018   1.920   4.661  0.7356  0.5268 -0.1597
 8965SOL    HW138528   0.001   1.982   4.591  1.4237  0.1633 -0.6492
 8965SOL    HW238529   0.097   1.872   4.637 -1.5168 -2.1635 -2.3174
 8966SOL     OW38530   3.105   0.275   9.413 -0.0075  0.1833  0.2962
 8966SOL    HW138531   3.174   0.246   9.353  0.5205  0.2649  0.8604
 8966SOL    HW238532   3.123   0.365   9.441 -1.1979 -0.8132  4.3571
 8967SOL     OW38533   0.160   0.971   4.799 -0.0171  0.4065 -0.0731
 8967SOL    HW138534   0.229   1.019   4.752 -1.2597  2.0382 -0.2551
 8967SOL    HW238535   0.144   1.035   4.868  1.7074  1.2409 -0.4411
 8968SOL     OW38536   3.655   0.462  14.359 -0.0778  0.1272 -0.0795
 8968SOL    HW138537   3.724   0.507  14.408  0.7913  0.2918 -1.4465
 8968SOL    HW238538   3.588   0.458  14.428 -0.6790 -0.6905 -0.7057
 8969SOL     OW38539   4.596   4.136  15.094  0.5462 -0.5011 -0.0198
 8969SOL    HW138540   4.521   4.166  15.145  0.8858 -1.2842  0.9534
 8969SOL    HW238541   4.623   4.065  15.154  2.0499 -0.0954 -0.2189
 8970SOL     OW38542   3.312   0.143  10.213 -0.1454 -0.4443 -0.6322
 8970SOL    HW138543   3.401   0.153  10.180  0.8811  0.3585  2.3808
 8970SOL    HW238544   3.319   0.101  10.298 -0.0101 -1.1413 -0.9871
 8971SOL     OW38545   0.637   4.081  11.467  0.6328  0.1064  0.8861
 8971SOL    HW138546   0.615   4.159  11.518 -1.6990  1.1020 -1.6146
 8971SOL    HW238547   0.566   4.027  11.503  1.2825 -0.4805  1.2787
 8972SOL     OW38548   0.181   4.384  15.844 -0.0298  0.0253 -0.6317
 8972SOL    HW138549   0.165   4.477  15.864  0.1449 -0.3764  1.4462
 8972SOL    HW238550   0.273   4.379  15.820  0.8422  1.8594  2.2872
 8973SOL     OW38551   0.200   0.624   5.927 -0.1881 -0.1410  0.3427
 8973SOL    HW138552   0.220   0.554   5.865  0.1425  0.6716 -0.4708
 8973SOL    HW238553   0.189   0.582   6.012 -1.7959  0.3658  0.4043
 8974SOL     OW38554   3.425   1.120   0.249  0.6481 -0.4818 -0.8000
 8974SOL    HW138555   3.454   1.042   0.295  0.9428  0.3565  0.4252
 8974SOL    HW238556   3.392   1.173   0.322 -0.6276 -0.6976 -1.2214
 8975SOL     OW38557   0.861   4.625   4.342 -0.8969 -0.0260 -0.0436
 8975SOL    HW138558   0.911   4.546   4.322 -1.2178  0.2881 -2.0278
 8975SOL    HW238559   0.774   4.588   4.326 -1.1691  1.4862 -2.0536
 8976SOL     OW38560   3.342   2.433   6.005  0.2092 -0.4314 -0.4139
 8976SOL    HW138561   3.356   2.356   6.060 -0.9707 -1.9570 -2.2743
 8976SOL    HW238562   3.340   2.500   6.074  1.6282  1.3976 -2.1892
 8977SOL     OW38563   0.037   2.085   0.476  0.0796  0.0956 -0.5595
 8977SOL    HW138564   0.064   1.994   0.468  0.6963  0.5165 -3.2643
 8977SOL    HW238565   0.122   2.124   0.494 -0.2963  0.1859  1.0723
 8978SOL     OW38566   0.399   4.274   2.143  0.1967  0.1005 -0.1445
 8978SOL    HW138567   0.388   4.187   2.106 -1.5826 -0.5492  1.9120
 8978SOL    HW238568   0.458   4.317   2.081  1.8825 -2.6194 -0.4166
 8979SOL     OW38569   0.273   4.706   0.219  0.6808  0.0679 -0.0323
 8979SOL    HW138570   0.237   0.057   0.208 -0.9678 -0.6059 -0.0401
 8979SOL    HW238571   0.367   4.724   0.222  0.7061  0.0392 -0.7462
 8980SOL     OW38572   3.577   1.167   5.057 -0.5005 -0.1674  0.2029
 8980SOL    HW138573   3.496   1.159   5.108 -1.4530  3.4440 -0.7161
 8980SOL    HW238574   3.600   1.078   5.032  4.0362  1.3345 -0.9103
 8981SOL     OW38575   4.424   1.138   7.124 -0.1194 -0.5756 -0.2030
 8981SOL    HW138576   4.398   1.155   7.215 -0.0788  0.7816 -0.4468
 8981SOL    HW238577   4.516   1.166   7.133 -0.4057  0.7893 -1.5612
 8982SOL     OW38578   2.781   2.572   3.285  0.0836 -0.2422  0.3891
 8982SOL    HW138579   2.839   2.578   3.209 -3.0885  0.6896 -1.9431
 8982SOL    HW238580   2.739   2.656   3.268  2.2800  0.7476 -0.2300
 8983SOL     OW38581   1.959   3.617   2.425 -0.3688  0.1025 -0.4294
 8983SOL    HW138582   1.872   3.614   2.465 -1.2895 -0.7935 -2.5613
 8983SOL    HW238583   1.989   3.689   2.481  2.6438 -1.0472 -0.5476
 8984SOL     OW38584   4.596   3.925  17.701 -0.3895  0.2554  0.2211
 8984SOL    HW138585   4.504   3.923  17.675 -0.7802  0.6034  1.6002
 8984SOL    HW238586   4.607   3.835  17.729  1.1719  0.5727  0.5921
 8985SOL     OW38587   4.654   4.689   7.771 -0.2800 -0.9089 -0.0820
 8985SOL    HW138588   4.734   4.655   7.812  0.5722 -0.2831 -1.2525
 8985SOL    HW238589   4.669   0.046   7.761 -1.6418 -0.6615  0.2492
 8986SOL     OW38590   2.753   2.726   4.081 -0.4754 -0.2622 -0.1543
 8986SOL    HW138591   2.714   2.685   4.159 -1.1068 -2.4018 -1.5906
 8986SOL    HW238592   2.822   2.662   4.066 -1.2270 -1.3810  1.1337
 8987SOL     OW38593   2.175   1.333   4.577  0.3285  0.0620 -0.6302
 8987SOL    HW138594   2.266   1.361   4.591  0.1591  1.1866 -1.6810
 8987SOL    HW238595   2.195   1.241   4.561 -2.7964 -0.9971  1.5962
 8988SOL     OW38596   1.837   1.765  10.222  0.1799 -0.5496  0.3073
 8988SOL    HW138597   1.854   1.675  10.251  2.1555 -0.2385  0.1006
 8988SOL    HW238598   1.915   1.787  10.172  0.9273 -1.7770  0.9184
 8989SOL     OW38599   0.871   1.161   3.524  0.3357 -0.3236 -0.5179
 8989SOL    HW138600   0.830   1.123   3.601  0.3379 -1.8677 -1.2689
 8989SOL    HW238601   0.792   1.189   3.478  0.1904  0.3624  0.1557
 8990SOL     OW38602   2.784   0.046   4.561  0.6299 -0.3607 -0.3243
 8990SOL    HW138603   2.714   0.011   4.506 -0.0648  1.3368 -0.5364
 8990SOL    HW238604   2.828   4.702   4.586 -2.3123 -1.4449  1.2802
 8991SOL     OW38605   0.644   4.705  11.791  0.3511  0.0946 -0.2643
 8991SOL    HW138606   0.651   4.637  11.859  0.9236 -0.0689 -0.4911
 8991SOL    HW238607   0.606   0.042  11.838  0.9145  0.6133 -0.6273
 8992SOL     OW38608   2.708   4.218   2.974 -0.1858 -0.4023 -0.5104
 8992SOL    HW138609   2.728   4.228   3.067  0.1001 -1.6967 -0.4324
 8992SOL    HW238610   2.788   4.170   2.955  0.6841  0.8965 -0.1531
 8993SOL     OW38611   4.184   2.955  14.650  0.1251  0.3111 -0.2683
 8993SOL    HW138612   4.173   2.889  14.581  1.3918  2.5613 -2.6135
 8993SOL    HW238613   4.239   2.916  14.718  1.6737 -0.4641 -1.9781
 8994SOL     OW38614   4.514   0.124   8.473  0.4562 -0.4872  0.1294
 8994SOL    HW138615   4.548   0.036   8.490 -0.7302 -1.3130 -1.7963
 8994SOL    HW238616   4.588   0.167   8.431  2.0224 -3.4962 -0.2228
 8995SOL     OW38617   1.017   4.332   3.404 -0.1951  0.3741  0.0261
 8995SOL    HW138618   0.998   4.295   3.318 -2.6621  1.2307  0.2057
 8995SOL    HW238619   0.936   4.375   3.431 -0.3074  1.2554 -1.7476
 8996SOL     OW38620   1.878   3.893  11.116 -0.8092  0.0344  0.1681
 8996SOL    HW138621   1.963   3.866  11.082 -0.3022  1.0492  0.6105
 8996SOL    HW238622   1.887   3.988  11.101  1.8769 -0.3866 -0.9211
 8997SOL     OW38623   0.624   4.358   5.065  0.4416  0.2837 -0.0146
 8997SOL    HW138624   0.566   4.321   4.998 -0.6921 -0.3106  1.3017
 8997SOL    HW238625   0.573   4.434   5.091  2.5992  0.6541  3.0740
 8998SOL     OW38626   4.220   0.598   1.682  0.4157 -0.3134  0.2974
 8998SOL    HW138627   4.230   0.620   1.590 -0.4241 -1.0039  0.0417
 8998SOL    HW238628   4.130   0.628   1.696  1.9190  3.6346  1.6685
 8999SOL     OW38629   2.789   1.899   0.803 -0.0717  0.1843  0.4401
 8999SOL    HW138630   2.883   1.915   0.807 -0.1439  0.9889 -0.9512
 8999SOL    HW238631   2.800   1.804   0.793 -4.8157 -0.3115 -0.2792
 9000SOL     OW38632   1.736   3.719   8.520 -0.3729 -0.2482 -0.2358
 9000SOL    HW138633   1.813   3.755   8.563  1.1831 -0.7834 -2.5603
 9000SOL    HW238634   1.767   3.630   8.500  1.8017  0.4377  0.0664
 9001SOL     OW38635   1.855   2.165  11.052 -0.0668  0.0537  0.2365
 9001SOL    HW138636   1.940   2.206  11.068  0.3600 -1.5394  2.1093
 9001SOL    HW238637   1.822   2.211  10.975 -0.2880  0.0854  0.3534
 9002SOL     OW38638   3.323   2.145   4.248 -0.8115  0.0217 -0.3602
 9002SOL    HW138639   3.238   2.113   4.216  0.8945 -3.3652 -1.4302
 9002SOL    HW238640   3.311   2.130   4.342 -1.3922  0.3702 -0.3786
 9003SOL     OW38641   4.063   3.451   2.566  0.3677  0.1288  0.1288
 9003SOL    HW138642   4.067   3.546   2.580  0.9021  0.1860 -0.4063
 9003SOL    HW238643   3.968   3.446   2.556  0.3123  1.5809 -0.1521
 9004SOL     OW38644   4.098   2.287  17.678  0.0868 -0.2376 -0.1608
 9004SOL    HW138645   4.036   2.269  17.607  0.8505  3.0908 -1.6773
 9004SOL    HW238646   4.129   2.199  17.703 -0.1904 -0.2214  0.2239
 9005SOL     OW38647   2.662   3.577   4.643 -0.2582  0.4039  0.1059
 9005SOL    HW138648   2.753   3.559   4.668 -0.1239  1.3887  0.3116
 9005SOL    HW238649   2.663   3.671   4.661 -0.3008  1.1392 -3.7932
 9006SOL     OW38650   0.196   1.656   5.266 -0.0795  0.0564 -0.1653
 9006SOL    HW138651   0.244   1.593   5.213  0.6348  0.3027  0.1955
 9006SOL    HW238652   0.263   1.724   5.272 -0.3656  0.4181 -1.0848
 9007SOL     OW38653   2.816   0.795   7.990  0.3046 -0.8332 -0.1878
 9007SOL    HW138654   2.882   0.730   7.969 -1.0400 -1.6870 -1.7830
 9007SOL    HW238655   2.806   0.766   8.081 -1.0614 -1.0257 -0.3977
 9008SOL     OW38656   0.185   4.124   3.809  0.1611  0.5373  0.0852
 9008SOL    HW138657   0.110   4.096   3.862  0.5077  0.9950  0.8212
 9008SOL    HW238658   0.168   4.219   3.805  0.5837  0.6073 -0.0387
 9009SOL     OW38659   3.747   1.018   8.123  0.8902 -0.6004 -0.5831
 9009SOL    HW138660   3.673   1.077   8.110  0.9245 -0.5654 -0.6232
 9009SOL    HW238661   3.789   1.007   8.037  1.7023  2.4731 -0.5644
 9010SOL     OW38662   2.847   1.327  14.113  0.3610 -0.1328  0.3683
 9010SOL    HW138663   2.848   1.273  14.034 -2.0688  0.2737  0.0503
 9010SOL    HW238664   2.807   1.268  14.176  3.4895 -0.6561  1.8875
 9011SOL     OW38665   1.383   2.074   2.302  0.2592  0.5214  0.1935
 9011SOL    HW138666   1.392   2.003   2.238  2.5788 -0.8785  2.0452
 9011SOL    HW238667   1.467   2.072   2.349  1.8758  3.3594 -2.5092
 9012SOL     OW38668   3.624   3.664   2.137  0.5202  0.5332 -0.4231
 9012SOL    HW138669   3.706   3.629   2.172 -1.0037 -0.8863  1.6954
 9012SOL    HW238670   3.570   3.588   2.116 -3.3445  3.2245 -0.1920
 9013SOL     OW38671   1.750   2.392   6.794  0.5756 -0.0943 -0.0113
 9013SOL    HW138672   1.832   2.407   6.746 -1.3352 -1.1172 -3.5173
 9013SOL    HW238673   1.736   2.298   6.794  1.5246 -0.2547  1.8540
 9014SOL     OW38674   3.316   2.442  10.704 -0.4387 -0.7106  0.0046
 9014SOL    HW138675   3.351   2.357  10.730 -0.4055 -1.6260 -2.9835
 9014SOL    HW238676   3.289   2.487  10.784  0.3127 -1.2607  0.5707
 9015SOL     OW38677   3.512   0.207   8.182  0.7791 -0.1376  0.2119
 9015SOL    HW138678   3.504   0.252   8.267 -1.7363 -1.2857  0.5867
 9015SOL    HW238679   3.590   0.155   8.201  1.9241  1.6826  0.4442
 9016SOL     OW38680   2.769   4.706   3.613  0.4381  0.3514  0.0570
 9016SOL    HW138681   2.862   4.703   3.636  0.9185  0.9134 -1.8502
 9016SOL    HW238682   2.759   4.707   3.518  0.5837 -0.0075  0.0372
 9017SOL     OW38683   0.204   1.817   5.804 -0.4347 -0.4360  0.2894
 9017SOL    HW138684   0.176   1.887   5.863 -2.2692  0.3839 -1.5297
 9017SOL    HW238685   0.185   1.739   5.856  0.0540 -1.1243 -0.5616
 9018SOL     OW38686   1.041   4.151   9.768  0.7881 -0.3222 -0.0251
 9018SOL    HW138687   1.105   4.217   9.741  0.3147  0.3317  0.4470
 9018SOL    HW238688   0.972   4.185   9.711  0.0279  0.9793  1.6882
 9019SOL     OW38689   1.334   4.455   5.132 -0.4342  0.2166 -0.1485
 9019SOL    HW138690   1.248   4.456   5.090  0.1082 -0.3909 -1.2683
 9019SOL    HW238691   1.347   4.360   5.127  0.4222  0.3456 -0.4371
 9020SOL     OW38692   1.007   4.361   8.919  0.3494 -0.4485  0.0361
 9020SOL    HW138693   1.045   4.397   8.998  0.4901  0.3872 -0.4150
 9020SOL    HW238694   1.051   4.409   8.849 -1.5858  1.3628  0.0637
 9021SOL     OW38695   0.250   0.662   6.803  0.2827  0.3805 -0.5741
 9021SOL    HW138696   0.313   0.722   6.843 -1.1342  1.6178 -0.2051
 9021SOL    HW238697   0.251   0.685   6.710  2.3647 -0.3005 -0.7354
 9022SOL     OW38698   0.066   1.293   3.124 -0.0534  0.2700 -0.0944
 9022SOL    HW138699   0.057   1.375   3.171 -1.0673  1.6531 -2.6741
 9022SOL    HW238700   4.736   1.247   3.174  0.8164 -0.9650 -0.0645
 9023SOL     OW38701   0.512   2.543   3.896  0.5803 -0.0955 -0.1216
 9023SOL    HW138702   0.604   2.558   3.875  0.2943 -0.0574 -1.3310
 9023SOL    HW238703   0.471   2.573   3.815  2.3976 -1.0866 -1.4133
 9024SOL     OW38704   4.163   4.172  11.397 -0.4452 -0.7302  0.1671
 9024SOL    HW138705   4.113   4.250  11.373  0.9096  0.3460  0.8083
 9024SOL    HW238706   4.147   4.174  11.491 -0.3390  0.8215  0.1602
 9025SOL     OW38707   0.820   1.066  14.472 -0.6525 -0.0716 -0.1363
 9025SOL    HW138708   0.757   1.028  14.533 -0.6615 -1.7243 -1.1645
 9025SOL    HW238709   0.871   0.988  14.450 -0.0336  0.4221 -0.4865
 9026SOL     OW38710   0.683   2.031   2.861 -0.1514 -0.2046  0.7337
 9026SOL    HW138711   0.682   2.124   2.883 -4.1140 -0.4471  1.5630
 9026SOL    HW238712   0.664   2.039   2.768  0.3595 -1.5610  0.5058
 9027SOL     OW38713   1.859   2.091   5.607 -0.3634 -0.4346 -0.1168
 9027SOL    HW138714   1.797   2.034   5.561  0.5880 -1.5160 -0.0694
 9027SOL    HW238715   1.818   2.100   5.694  0.1294  1.4744 -0.0850
 9028SOL     OW38716   2.337   0.393   2.670  0.0848 -0.4741 -0.5182
 9028SOL    HW138717   2.284   0.338   2.613 -1.0431 -1.1531  1.1895
 9028SOL    HW238718   2.399   0.432   2.608  1.7448 -1.3190  0.5967
 9029SOL     OW38719   0.025   0.919  10.371 -0.7495 -0.3470  0.3901
 9029SOL    HW138720   4.679   0.967  10.374  0.1048  1.0317  1.8911
 9029SOL    HW238721   0.083   0.976  10.320  0.5144 -1.7873  0.2034
 9030SOL     OW38722   3.848   4.558  12.879  0.2133 -0.4676  0.0233
 9030SOL    HW138723   3.779   4.615  12.845 -1.5112 -1.1852  2.3123
 9030SOL    HW238724   3.816   4.540  12.968  0.7297 -0.1425  0.2768
 9031SOL     OW38725   1.669   2.633   1.137  0.4976  0.3524 -0.0805
 9031SOL    HW138726   1.665   2.715   1.087 -1.0774  0.6244  0.4950
 9031SOL    HW238727   1.580   2.643   1.169  0.5757 -0.0518  0.2628
 9032SOL     OW38728   3.226   1.000   9.331  0.1418 -0.5104  0.0852
 9032SOL    HW138729   3.279   1.015   9.409  0.3085 -1.9023  0.2522
 9032SOL    HW238730   3.296   1.002   9.265  1.1246  2.5136  1.2565
 9033SOL     OW38731   1.677   2.900   5.431  0.4267  0.1518 -0.4583
 9033SOL    HW138732   1.612   2.897   5.501  0.3536 -1.6749 -0.5962
 9033SOL    HW238733   1.758   2.922   5.477 -1.0102  0.6068  1.8320
 9034SOL     OW38734   0.519   4.238   2.733 -0.3197  0.4983  0.1519
 9034SOL    HW138735   0.541   4.219   2.642  3.3949  2.1713  0.6617
 9034SOL    HW238736   0.553   4.328   2.742 -0.6855  0.8183 -1.7096
 9035SOL     OW38737   3.031   3.476  12.328 -0.5689 -0.1141  0.1715
 9035SOL    HW138738   3.020   3.570  12.345 -0.2609 -0.1529  0.5701
 9035SOL    HW238739   3.000   3.476  12.237 -0.8255 -0.5521  0.2586
 9036SOL     OW38740   3.455   1.088   2.233  0.2155  0.6204  0.5839
 9036SOL    HW138741   3.500   1.147   2.172  0.0844  0.1308  0.0171
 9036SOL    HW238742   3.493   1.003   2.213 -1.7605 -0.0504 -0.2819
 9037SOL     OW38743   4.349   3.813   9.275  0.4255  0.1167 -0.8638
 9037SOL    HW138744   4.332   3.854   9.359  0.5897 -0.0965 -0.7256
 9037SOL    HW238745   4.412   3.746   9.300 -1.5882 -0.6383  2.2237
 9038SOL     OW38746   4.677   1.298   3.709 -0.0197  0.3679 -0.2964
 9038SOL    HW138747   4.609   1.364   3.724 -2.8132 -1.8295 -3.3825
 9038SOL    HW238748   4.655   1.224   3.766  0.7429 -0.3882 -0.9771
 9039SOL     OW38749   1.876   1.827   9.542  0.0296 -0.4005 -0.4305
 9039SOL    HW138750   1.913   1.915   9.536  1.6688 -1.1155 -0.7358
 9039SOL    HW238751   1.796   1.853   9.588  0.7133 -1.1252  1.1495
 9040SOL     OW38752   2.323   4.478  12.795  0.5352  0.4992 -0.3106
 9040SOL    HW138753   2.385   4.405  12.804 -0.6986 -0.4824  0.3263
 9040SOL    HW238754   2.245   4.427  12.819  1.2938 -0.3139  0.4374
 9041SOL     OW38755   1.611   0.305   5.048 -0.4211 -0.1358  0.4218
 9041SOL    HW138756   1.602   0.299   5.143  1.3237 -3.3857  0.4039
 9041SOL    HW238757   1.640   0.396   5.047 -2.2469  0.3827 -2.1743
 9042SOL     OW38758   0.357   4.075   6.243 -0.2476 -0.6173  0.2011
 9042SOL    HW138759   0.381   4.099   6.332  1.5984 -1.5290 -0.0654
 9042SOL    HW238760   0.409   4.141   6.198 -1.8685  0.2455 -0.4157
 9043SOL     OW38761   1.298   1.990   0.446  0.1517  0.2389 -0.6705
 9043SOL    HW138762   1.226   2.047   0.469  0.8393  0.1234  1.7601
 9043SOL    HW238763   1.255   1.909   0.474  0.0644  0.9465  1.2499
 9044SOL     OW38764   3.003   0.756   5.452 -0.6057 -0.1115 -0.5640
 9044SOL    HW138765   3.093   0.740   5.425 -0.3183 -1.9481  1.5417
 9044SOL    HW238766   3.015   0.827   5.515 -0.1488 -1.2023  0.5699
 9045SOL     OW38767   3.319   0.158   7.993  0.7764 -0.0606 -0.8617
 9045SOL    HW138768   3.351   0.207   7.917 -0.6774  2.1092 -0.0648
 9045SOL    HW238769   3.392   0.161   8.055 -1.4185 -2.0053  1.8177
 9046SOL     OW38770   3.517   3.071   8.926  0.1536  0.1765  0.0572
 9046SOL    HW138771   3.444   3.109   8.876 -0.2292 -0.2247  0.3123
 9046SOL    HW238772   3.519   2.985   8.885 -4.2060  0.2443 -0.3150
 9047SOL     OW38773   2.897   0.760  12.114  0.5360  0.1428 -0.1166
 9047SOL    HW138774   2.877   0.847  12.149 -1.1636 -1.0787  1.9577
 9047SOL    HW238775   2.989   0.772  12.093  0.1973 -0.9437 -2.1587
 9048SOL     OW38776   3.181   2.989   4.304  0.6700 -0.0252 -0.6320
 9048SOL    HW138777   3.251   2.924   4.319 -0.5818 -0.9380  1.1766
 9048SOL    HW238778   3.219   3.074   4.325  1.0623 -0.2830 -0.2934
 9049SOL     OW38779   0.767   2.720   2.424  0.1219  0.6625  0.2036
 9049SOL    HW138780   0.818   2.750   2.348 -0.4474  0.0847 -0.4034
 9049SOL    HW238781   0.825   2.754   2.492  1.4600  1.0054 -1.0888
 9050SOL     OW38782   4.376   1.367   5.393 -0.1344  0.0259 -0.2564
 9050SOL    HW138783   4.301   1.428   5.393  0.0523  0.2568 -1.8082
 9050SOL    HW238784   4.352   1.304   5.325  0.3196  0.2237 -0.6036
 9051SOL     OW38785   2.492   1.013   2.623  0.1408  0.2823 -0.0129
 9051SOL    HW138786   2.403   0.998   2.590  0.5563  0.3195 -1.1589
 9051SOL    HW238787   2.468   1.069   2.697  0.1525  1.0012 -0.5465
 9052SOL     OW38788   2.773   3.805   8.059 -0.0751  0.4796 -0.1616
 9052SOL    HW138789   2.789   3.740   8.127 -2.1058  1.5617  1.3416
 9052SOL    HW238790   2.858   3.849   8.063 -0.2517  0.7837  0.2860
 9053SOL     OW38791   4.204   0.316   2.337 -0.3359 -0.4053 -0.2033
 9053SOL    HW138792   4.200   0.247   2.271  0.0969 -0.4363 -0.1997
 9053SOL    HW238793   4.112   0.336   2.352 -0.4195 -0.6844 -0.3430
 9054SOL     OW38794   4.130   0.676  13.139  0.0171  0.1859 -0.3297
 9054SOL    HW138795   4.149   0.636  13.224 -1.4596  3.4404  1.5466
 9054SOL    HW238796   4.063   0.738  13.167  0.3378  0.4380 -0.1240
 9055SOL     OW38797   3.318   3.729   0.269  0.2141  0.2236  0.4774
 9055SOL    HW138798   3.250   3.771   0.322 -0.0920  0.3692 -0.0287
 9055SOL    HW238799   3.265   3.681   0.206  0.0966  0.7205  0.1977
 9056SOL     OW38800   0.442   1.039   1.853 -0.2581  0.1826  0.0057
 9056SOL    HW138801   0.355   1.072   1.878  0.2126  0.7141  0.9298
 9056SOL    HW238802   0.467   1.115   1.800  4.1309 -1.6455 -0.5391
 9057SOL     OW38803   2.163   4.249  12.161  0.3376 -0.4041 -0.2385
 9057SOL    HW138804   2.091   4.198  12.200 -0.6434  0.6578 -0.6609
 9057SOL    HW238805   2.183   4.318  12.224 -0.0634 -0.3383 -0.1833
 9058SOL     OW38806   3.952   1.188   3.694 -0.2155  0.4231 -0.0449
 9058SOL    HW138807   3.919   1.221   3.611  1.8061  2.3065 -0.0866
 9058SOL    HW238808   3.891   1.118   3.717 -1.0961  1.0155 -0.5865
 9059SOL     OW38809   0.184   4.649   9.438 -0.4575  0.3548 -0.5046
 9059SOL    HW138810   0.110   4.669   9.380 -0.9362  2.0482  0.7024
 9059SOL    HW238811   0.237   4.721   9.403  0.1209  0.0737 -0.2153
 9060SOL     OW38812   1.708   2.994   8.767 -0.4774 -0.3732 -0.3741
 9060SOL    HW138813   1.657   2.913   8.774  0.6695 -0.9996  0.7073
 9060SOL    HW238814   1.768   2.992   8.841  1.5977  0.5796 -2.0411
 9061SOL     OW38815   1.493   2.832   6.413  0.0039  0.0723  0.0514
 9061SOL    HW138816   1.497   2.826   6.508 -0.3196 -0.5956  0.0227
 9061SOL    HW238817   1.441   2.912   6.402  0.7718  0.7564  1.4944
 9062SOL     OW38818   0.325   1.437   5.155  0.5014  0.2332 -0.4240
 9062SOL    HW138819   0.266   1.362   5.165 -0.8281  1.4665  1.1386
 9062SOL    HW238820   0.392   1.417   5.220  0.7930 -0.0826 -0.8253
 9063SOL     OW38821   4.230   2.141   2.166  0.3999 -0.1937  0.0350
 9063SOL    HW138822   4.257   2.131   2.257  0.7239 -2.4111 -0.2894
 9063SOL    HW238823   4.200   2.051   2.149  1.9761 -0.4676 -1.2904
 9064SOL     OW38824   0.480   1.769   9.844 -0.1619 -0.2791 -0.1905
 9064SOL    HW138825   0.561   1.808   9.811 -0.5537 -0.2469 -1.1035
 9064SOL    HW238826   0.510   1.679   9.854 -1.2003 -0.6219 -0.1555
 9065SOL     OW38827   2.681   2.006   7.374  0.0816  0.2594  0.0459
 9065SOL    HW138828   2.606   2.063   7.386  0.7997  0.6297  2.6155
 9065SOL    HW238829   2.677   1.975   7.283  2.0484 -2.3390  0.8203
 9066SOL     OW38830   1.992   3.845   5.934 -0.0516 -0.1822  0.2866
 9066SOL    HW138831   1.986   3.870   6.027 -2.2500  2.3290 -0.5455
 9066SOL    HW238832   1.917   3.883   5.890  0.7844  0.1717 -0.8089
 9067SOL     OW38833   4.658   2.164   2.429  0.2029 -0.2040  0.5021
 9067SOL    HW138834   4.614   2.193   2.349  0.4053 -0.6094  0.2432
 9067SOL    HW238835   4.585   2.181   2.488  1.8023 -0.5516  2.6119
 9068SOL     OW38836   3.981   0.765  16.368 -0.7801  0.5951 -0.1078
 9068SOL    HW138837   3.977   0.861  16.363  3.1152  0.7749  0.4084
 9068SOL    HW238838   4.030   0.764  16.450 -3.1455  2.8792  1.3262
 9069SOL     OW38839   2.898   4.168  14.959  0.0870 -0.3037 -0.0880
 9069SOL    HW138840   2.900   4.153  15.053 -1.0345  0.5293  0.0584
 9069SOL    HW238841   2.867   4.257  14.942  0.6984  0.2095  1.4812
 9070SOL     OW38842   3.542   2.884  17.356 -0.2679 -0.4150  0.3802
 9070SOL    HW138843   3.575   2.890  17.267 -1.5141  0.9085  0.0191
 9070SOL    HW238844   3.452   2.853  17.346 -0.2957  0.2284 -1.2391
 9071SOL     OW38845   1.338   2.510   1.344  0.5757 -0.8469  0.4759
 9071SOL    HW138846   1.314   2.496   1.253 -3.4019  0.8350  1.2836
 9071SOL    HW238847   1.250   2.510   1.381  0.8544 -4.1872  1.1783
 9072SOL     OW38848   1.256   3.197   1.345 -0.0291  0.0945 -0.0451
 9072SOL    HW138849   1.201   3.210   1.423 -0.7731  0.1178 -0.5692
 9072SOL    HW238850   1.319   3.134   1.379 -0.4936  1.0545  2.6759
 9073SOL     OW38851   2.297   1.740   9.292 -0.7538  0.4281  0.6232
 9073SOL    HW138852   2.261   1.652   9.300 -0.2994  0.2886  1.1261
 9073SOL    HW238853   2.213   1.787   9.295 -0.5550  0.8705 -0.8317
 9074SOL     OW38854   2.816   0.736   6.371 -0.1890 -0.2639 -0.3699
 9074SOL    HW138855   2.895   0.691   6.340 -0.1581 -0.6720  0.3054
 9074SOL    HW238856   2.787   0.778   6.290  0.7717 -0.2204 -0.6901
 9075SOL     OW38857   3.936   2.011   0.478  0.5426  0.5303 -0.4176
 9075SOL    HW138858   3.964   2.083   0.422  0.1250  1.2330  0.2604
 9075SOL    HW238859   4.011   1.951   0.480 -0.8556 -1.2805 -4.1184
 9076SOL     OW38860   1.058   1.144  11.714 -0.0430 -0.2310  0.2791
 9076SOL    HW138861   1.035   1.197  11.790 -2.9724 -0.1685 -0.6443
 9076SOL    HW238862   1.096   1.214  11.659  1.6954 -0.8724  0.6660
 9077SOL     OW38863   0.663   0.862  14.664 -0.5171 -0.1235  0.2602
 9077SOL    HW138864   0.663   0.869  14.759 -2.1569 -0.8595  0.3186
 9077SOL    HW238865   0.585   0.913  14.642 -0.9612  0.7643  3.9798
 9078SOL     OW38866   1.712   0.695  12.520 -0.4979 -0.2856  0.1874
 9078SOL    HW138867   1.754   0.612  12.546 -0.7855  0.0144  1.6311
 9078SOL    HW238868   1.660   0.722  12.596  0.8198 -0.6258  1.2134
 9079SOL     OW38869   0.473   3.915  14.410  0.2337  0.0546 -0.3933
 9079SOL    HW138870   0.379   3.923  14.423 -0.1720 -0.9862 -2.5885
 9079SOL    HW238871   0.493   3.947  14.321 -0.3237 -1.1311 -0.9433
 9080SOL     OW38872   3.770   1.241   0.904 -0.0612 -0.4990 -0.2526
 9080SOL    HW138873   3.849   1.293   0.886  1.0944 -2.4765 -0.8931
 9080SOL    HW238874   3.763   1.190   0.824  1.4876 -1.0828 -0.0141
 9081SOL     OW38875   4.525   0.728   6.306 -0.0728  0.7894 -0.4058
 9081SOL    HW138876   4.545   0.646   6.259  0.2886  0.0462  1.0414
 9081SOL    HW238877   4.453   0.695   6.360 -0.4737 -1.0499 -2.0376
 9082SOL     OW38878   2.192   2.337   5.906  0.0785  0.1927  0.0955
 9082SOL    HW138879   2.163   2.377   5.988 -1.7156 -0.7281 -0.0794
 9082SOL    HW238880   2.128   2.267   5.890 -1.4661  1.7795 -0.7486
 9083SOL     OW38881   3.906   4.323   8.301  0.3224 -0.2402 -0.3124
 9083SOL    HW138882   3.857   4.241   8.294  0.4223 -0.5473  2.5716
 9083SOL    HW238883   3.981   4.304   8.245  2.3502  0.7513  2.0588
 9084SOL     OW38884   0.905   0.243   8.606 -0.1079  0.5668 -1.1641
 9084SOL    HW138885   0.935   0.251   8.515 -2.0317  1.1404 -1.7433
 9084SOL    HW238886   0.813   0.223   8.588  0.1712  0.5683 -2.6291
 9085SOL     OW38887   4.096   3.074   8.249  0.1982  0.0143  0.7762
 9085SOL    HW138888   4.032   3.135   8.284  1.7407  1.1318  1.6437
 9085SOL    HW238889   4.130   3.037   8.330  0.9433  0.1828  0.5379
 9086SOL     OW38890   3.927   3.002  16.613  0.9252  0.2919 -0.3754
 9086SOL    HW138891   3.849   2.998  16.557  0.9580  1.6243 -0.4963
 9086SOL    HW238892   3.968   3.087  16.599  1.0091  0.4802  1.0112
 9087SOL     OW38893   0.799   0.513   6.863 -0.4217  0.1929 -0.3096
 9087SOL    HW138894   0.863   0.565   6.815 -0.1129  0.7033  0.6580
 9087SOL    HW238895   0.858   0.490   6.935 -1.8535 -1.4570  0.3321
 9088SOL     OW38896   1.422   1.914   4.141 -0.1075 -0.1550 -0.0149
 9088SOL    HW138897   1.479   1.990   4.146  0.1278 -0.3596  0.4523
 9088SOL    HW238898   1.420   1.896   4.047  0.8546  2.7281 -0.5867
 9089SOL     OW38899   4.212   0.328  11.743  0.0337  0.5632 -0.3362
 9089SOL    HW138900   4.274   0.361  11.677  1.2912 -0.9382  0.1023
 9089SOL    HW238901   4.204   0.405  11.800  1.6287  1.5947 -1.4919
 9090SOL     OW38902   3.499   1.608   4.381 -0.1576  0.3337  0.2890
 9090SOL    HW138903   3.538   1.573   4.461  0.3973 -1.9717 -0.9694
 9090SOL    HW238904   3.472   1.696   4.405 -3.0823  0.0725 -2.0778
 9091SOL     OW38905   2.920   2.165   3.258  0.1508 -0.5513  0.3187
 9091SOL    HW138906   2.907   2.130   3.347  0.7321  1.9270  1.3749
 9091SOL    HW238907   2.842   2.219   3.246  1.1933  0.6336 -1.1206
 9092SOL     OW38908   2.333   3.279  11.535 -0.2237  0.4058  0.2569
 9092SOL    HW138909   2.387   3.203  11.557  0.0992 -0.6037 -3.9849
 9092SOL    HW238910   2.245   3.243  11.552  0.2948 -1.6397 -1.3874
 9093SOL     OW38911   4.409   2.520   2.794 -0.3520 -0.5280 -0.0836
 9093SOL    HW138912   4.499   2.545   2.773 -1.0632 -0.4198 -3.0008
 9093SOL    HW238913   4.424   2.517   2.888 -2.3590 -3.6210  0.1555
 9094SOL     OW38914   1.642   4.236  13.826 -0.3156 -0.1089  0.5587
 9094SOL    HW138915   1.715   4.217  13.885 -0.3047 -1.2692  0.1700
 9094SOL    HW238916   1.671   4.189  13.748 -0.7573  0.6717 -0.0759
 9095SOL     OW38917   3.868   2.313   8.120 -0.0860 -0.1918  0.4976
 9095SOL    HW138918   3.961   2.328   8.105 -0.8865  3.1407 -1.2804
 9095SOL    HW238919   3.867   2.297   8.214  1.1294 -0.3917  0.4716
 9096SOL     OW38920   1.049   0.390   7.606 -0.4216 -0.5065 -0.6419
 9096SOL    HW138921   1.000   0.407   7.525  0.6236 -0.8477 -1.3416
 9096SOL    HW238922   1.124   0.440   7.574  1.2582 -1.1571  2.3123
 9097SOL     OW38923   4.208   2.473   5.750 -0.5583 -0.1251 -0.7326
 9097SOL    HW138924   4.140   2.410   5.726 -0.3045 -0.8237  0.3996
 9097SOL    HW238925   4.184   2.554   5.706  1.0513  0.4287 -0.5558
 9098SOL     OW38926   1.711   1.191   8.196 -0.0568 -0.5979 -0.6214
 9098SOL    HW138927   1.664   1.181   8.113 -1.8852 -4.1349  0.8258
 9098SOL    HW238928   1.791   1.234   8.164 -0.1380 -0.0734 -0.1331
 9099SOL     OW38929   1.032   0.794   7.355  0.3612  0.4475 -0.1927
 9099SOL    HW138930   1.031   0.819   7.262  2.6750 -1.9030 -0.8348
 9099SOL    HW238931   1.042   0.882   7.392 -0.2972  0.5673 -0.3023
 9100SOL     OW38932   0.082   1.290   2.397  0.9750 -0.1595 -0.4863
 9100SOL    HW138933   0.019   1.220   2.411  0.9906 -0.2021 -0.6277
 9100SOL    HW238934   0.038   1.365   2.356  1.6270  0.2422 -0.4608
 9101SOL     OW38935   0.214   2.304  16.621  0.2120  0.1801 -0.5786
 9101SOL    HW138936   0.202   2.220  16.577  4.0239 -0.2297 -0.7880
 9101SOL    HW238937   0.128   2.314  16.661 -1.0740  0.1089 -3.2647
 9102SOL     OW38938   1.406   4.524   3.871 -0.8312  0.4305 -0.0181
 9102SOL    HW138939   1.400   4.619   3.874  0.1495  0.4639  0.9221
 9102SOL    HW238940   1.408   4.504   3.965  1.5747 -0.3998 -0.2435
 9103SOL     OW38941   0.859   1.533  11.733 -0.2474 -0.1116 -0.5859
 9103SOL    HW138942   0.778   1.483  11.743  0.2796 -0.5637  1.2923
 9103SOL    HW238943   0.894   1.497  11.651  0.1397 -0.4611 -0.2680
 9104SOL     OW38944   2.797   0.414   6.682  0.5979  0.2697 -0.0629
 9104SOL    HW138945   2.760   0.502   6.676  0.0716  0.0349 -0.2331
 9104SOL    HW238946   2.718   0.366   6.708  0.1034  1.0674 -0.0917
 9105SOL     OW38947   0.195   2.239   8.141  0.1015  0.7505  0.0079
 9105SOL    HW138948   0.145   2.227   8.222  0.7318 -0.4407  0.2272
 9105SOL    HW238949   0.259   2.168   8.148 -1.0177 -0.3953 -1.3334
 9106SOL     OW38950   1.047   4.060   9.167 -0.4094  0.7053 -0.3790
 9106SOL    HW138951   0.971   4.019   9.126 -0.2493  0.3951 -0.3647
 9106SOL    HW238952   1.122   4.014   9.128 -0.3830  1.5139 -1.2787
 9107SOL     OW38953   3.395   1.932  15.297 -0.1026  0.2136 -0.2071
 9107SOL    HW138954   3.358   1.870  15.360  1.6462 -0.5353  0.0703
 9107SOL    HW238955   3.478   1.893  15.269  0.0536  0.0196  0.5175
 9108SOL     OW38956   2.630   2.405   7.868  0.0077 -0.3813 -0.4357
 9108SOL    HW138957   2.725   2.416   7.872 -0.4630  2.5752  2.3028
 9108SOL    HW238958   2.600   2.494   7.849  1.7590  0.0069 -1.4017
 9109SOL     OW38959   0.604   0.614   3.617  0.4760 -0.1479 -0.3171
 9109SOL    HW138960   0.629   0.522   3.607  0.2662 -0.2089 -0.2742
 9109SOL    HW238961   0.549   0.628   3.541  3.1521 -0.0310 -2.2232
 9110SOL     OW38962   2.990   4.362   3.093 -0.1544 -0.2900 -0.0554
 9110SOL    HW138963   3.054   4.310   3.044 -1.2071 -1.4574 -0.1829
 9110SOL    HW238964   3.054   4.413   3.143  0.8427 -0.8427 -0.7459
 9111SOL     OW38965   3.899   1.603  15.286 -0.3518  0.4707 -0.2293
 9111SOL    HW138966   3.938   1.517  15.275 -2.8165 -0.5983 -0.5031
 9111SOL    HW238967   3.893   1.626  15.193 -1.6442  0.5577 -0.1196
 9112SOL     OW38968   0.448   4.549   5.142 -0.3216 -0.5366  0.3159
 9112SOL    HW138969   0.400   4.518   5.065  0.0403  1.1084 -0.5816
 9112SOL    HW238970   0.396   4.513   5.213  0.2608 -0.4709  0.7801
 9113SOL     OW38971   4.528   2.507  10.341  0.1467 -0.3491  0.8448
 9113SOL    HW138972   4.474   2.443  10.294 -0.8050  0.9375  0.1944
 9113SOL    HW238973   4.544   2.465  10.426  0.6262 -1.0037  0.4356
 9114SOL     OW38974   4.302   3.173   7.342  0.0898  0.0464  0.1754
 9114SOL    HW138975   4.376   3.127   7.303 -1.3612  0.0910 -2.5858
 9114SOL    HW238976   4.234   3.168   7.275 -0.6924  0.1003  0.9675
 9115SOL     OW38977   3.690   1.495   4.198  0.5257  0.2250 -0.3165
 9115SOL    HW138978   3.645   1.412   4.209  1.3255 -0.1446  0.1111
 9115SOL    HW238979   3.638   1.552   4.254 -2.1538 -0.0450 -2.5470
 9116SOL     OW38980   3.802   0.550  15.407 -0.2837  0.4136 -0.6110
 9116SOL    HW138981   3.815   0.456  15.399 -0.6333  0.3793 -0.7423
 9116SOL    HW238982   3.707   0.549  15.398 -0.5399  0.0375  2.0544
 9117SOL     OW38983   4.448   1.601  10.620  0.0309  0.6358 -0.0604
 9117SOL    HW138984   4.374   1.589  10.561 -0.9842 -1.0611  1.5640
 9117SOL    HW238985   4.420   1.564  10.703 -0.7748  2.0068  0.2926
 9118SOL     OW38986   2.171   2.854   8.536 -0.7888 -0.3279  0.1083
 9118SOL    HW138987   2.228   2.779   8.522  0.0132  0.4582 -0.8734
 9118SOL    HW238988   2.162   2.849   8.632 -1.9193  2.0413  0.1340
 9119SOL     OW38989   1.665   0.960   1.990  0.0970 -0.3625 -0.3563
 9119SOL    HW138990   1.596   0.966   2.056 -1.2384 -0.6083 -1.7173
 9119SOL    HW238991   1.680   1.054   1.978 -0.0039 -0.4478 -1.1968
 9120SOL     OW38992   2.629   0.876   0.420  0.5116 -0.0253  0.2102
 9120SOL    HW138993   2.630   0.847   0.329  1.4499  0.5717  0.0366
 9120SOL    HW238994   2.534   0.890   0.426  0.2060 -1.6588 -0.7169
 9121SOL     OW38995   2.060   0.872   6.450  0.1174 -0.7457 -0.5587
 9121SOL    HW138996   2.051   0.967   6.438 -0.3940 -0.7967 -0.5795
 9121SOL    HW238997   2.147   0.842   6.425  1.2306  1.9779 -0.0407
 9122SOL     OW38998   3.653   0.835  16.137 -0.3378 -0.4308 -0.3593
 9122SOL    HW138999   3.713   0.870  16.072  0.2212 -0.9192 -0.1081
 9122SOL    HW239000   3.597   0.909  16.162  1.1668  1.0510 -1.3941
 9123SOL     OW39001   0.732   2.571   4.269  0.0051  0.2251 -0.0259
 9123SOL    HW139002   0.636   2.565   4.267 -0.0326  0.7687  0.0965
 9123SOL    HW239003   0.755   2.486   4.232 -3.5013 -1.5229  1.8021
 9124SOL     OW39004   4.469   2.191   2.636  0.0658  0.0475 -0.2671
 9124SOL    HW139005   4.465   2.130   2.710  0.7014 -1.7532 -1.7175
 9124SOL    HW239006   4.456   2.274   2.681 -0.5123  0.2486 -0.8035
 9125SOL     OW39007   0.165   3.510   4.776 -0.3250  0.3228  0.0279
 9125SOL    HW139008   0.232   3.575   4.797 -0.8431  1.5485 -2.1009
 9125SOL    HW239009   0.173   3.446   4.847 -1.3783  0.5802  0.3803
 9126SOL     OW39010   2.871   2.687   5.622 -0.6178  0.2529 -0.8451
 9126SOL    HW139011   2.803   2.626   5.651 -1.6492  1.0950 -1.4867
 9126SOL    HW239012   2.828   2.763   5.663  1.6129  0.6533  0.7027
 9127SOL     OW39013   1.013   2.292  11.136  0.0210 -0.7043 -0.0069
 9127SOL    HW139014   1.040   2.237  11.210  1.3255  0.6589  0.5448
 9127SOL    HW239015   1.087   2.274  11.079  2.2030  3.3879  1.5163
 9128SOL     OW39016   3.767   1.340  16.685  0.0836  0.2824 -0.4568
 9128SOL    HW139017   3.698   1.285  16.721  0.8575 -0.0015  0.6200
 9128SOL    HW239018   3.720   1.422  16.676  0.4340  0.5906  0.4998
 9129SOL     OW39019   1.405   3.598   3.909 -0.2338  0.0772 -0.2769
 9129SOL    HW139020   1.395   3.617   3.816  0.0408  0.4235 -0.2398
 9129SOL    HW239021   1.411   3.686   3.948 -0.2533 -0.7238  1.5567
 9130SOL     OW39022   3.849   4.315  17.578  0.4454  0.3020  0.0625
 9130SOL    HW139023   3.777   4.324  17.516 -0.5536  0.8557  1.3074
 9130SOL    HW239024   3.881   4.405  17.565 -0.2921  0.3650 -1.3327
 9131SOL     OW39025   4.189   4.423   0.266 -0.0836  0.1444  0.1096
 9131SOL    HW139026   4.233   4.339   0.253  0.5600  0.7868 -1.8955
 9131SOL    HW239027   4.138   4.405   0.345  2.6062 -0.1933  1.7683
 9132SOL     OW39028   3.703   0.858   2.609  0.5012  0.6293 -0.1635
 9132SOL    HW139029   3.755   0.935   2.587 -0.1737  1.2948  0.5638
 9132SOL    HW239030   3.693   0.874   2.703 -0.4534  0.1949 -0.1886
 9133SOL     OW39031   3.478   0.619   2.845  0.0146 -0.0283 -0.3960
 9133SOL    HW139032   3.556   0.640   2.896 -1.3136  2.2382  0.7170
 9133SOL    HW239033   3.505   0.567   2.769  0.6854 -1.7075  0.9860
 9134SOL     OW39034   4.125   3.947   6.458 -0.0765  0.6806  0.6685
 9134SOL    HW139035   4.101   4.037   6.476 -1.8269  0.5832 -1.2012
 9134SOL    HW239036   4.120   3.945   6.362  3.9106 -0.9563  0.4885
 9135SOL     OW39037   2.176   4.358   0.302  0.1060  0.5140  0.1642
 9135SOL    HW139038   2.196   4.382   0.211  2.1656  0.3800  0.5844
 9135SOL    HW239039   2.212   4.433   0.348 -0.6519  0.1006  1.4191
 9136SOL     OW39040   4.161   2.488   2.722 -0.3193  0.3827 -0.0207
 9136SOL    HW139041   4.246   2.518   2.755  0.5831 -1.4294 -0.7589
 9136SOL    HW239042   4.186   2.396   2.717 -0.5108  0.4315 -1.8019
 9137SOL     OW39043   3.424   2.661  14.244  0.5729 -0.6042 -0.0306
 9137SOL    HW139044   3.390   2.589  14.191  0.0613  0.1308 -0.6977
 9137SOL    HW239045   3.426   2.627  14.334  0.2864  0.0470  0.2253
 9138SOL     OW39046   2.046   0.742   1.272 -0.5980 -0.2053  0.7760
 9138SOL    HW139047   2.056   0.735   1.177  2.0597  4.6687  0.7446
 9138SOL    HW239048   2.060   0.836   1.277  1.1709 -0.3511 -1.6568
 9139SOL     OW39049   4.064   2.427   7.345  0.0256 -0.1626  0.2138
 9139SOL    HW139050   3.987   2.392   7.388  0.3366 -0.8126  0.2373
 9139SOL    HW239051   4.025   2.456   7.262  0.2382  1.3187  0.6358
 9140SOL     OW39052   2.915   2.227   2.624 -0.0266 -0.2467  0.3229
 9140SOL    HW139053   2.994   2.196   2.580 -0.8689  1.1509 -2.1471
 9140SOL    HW239054   2.865   2.280   2.563 -0.3774 -0.2764  0.5832
 9141SOL     OW39055   1.845   4.629   5.825  0.3350 -0.5327 -0.2265
 9141SOL    HW139056   1.854   4.663   5.736 -1.6533 -0.1661 -0.2862
 9141SOL    HW239057   1.922   4.573   5.826 -0.5206 -1.7010  0.2580
 9142SOL     OW39058   4.735   0.924   6.584  0.5073 -0.6107  0.5960
 9142SOL    HW139059   4.696   0.889   6.663  0.9005 -2.4067 -0.0007
 9142SOL    HW239060   4.656   0.927   6.530  0.7811  1.6135  0.3472
 9143SOL     OW39061   1.574   0.317   5.711  0.6440 -0.3576  0.1201
 9143SOL    HW139062   1.559   0.255   5.640 -0.4140  0.7756 -0.6241
 9143SOL    HW239063   1.507   0.296   5.776  0.1048 -0.3081 -0.4227
 9144SOL     OW39064   3.442   4.383   8.752 -0.5786 -0.4630 -0.2018
 9144SOL    HW139065   3.481   4.426   8.676  0.9261 -1.1210  0.1876
 9144SOL    HW239066   3.404   4.299   8.726 -2.6896  0.4014  0.1676
 9145SOL     OW39067   2.178   2.817  16.123  0.4991 -0.0464  0.1463
 9145SOL    HW139068   2.167   2.888  16.060 -2.1154 -0.8821 -0.3273
 9145SOL    HW239069   2.208   2.860  16.203  0.6189 -0.0807  0.1210
 9146SOL     OW39070   0.565   2.778   2.838  0.3109 -0.1790 -0.1855
 9146SOL    HW139071   0.575   2.761   2.931 -2.4425 -0.7887  0.0031
 9146SOL    HW239072   0.542   2.692   2.802  0.2321 -0.0234 -0.5042
 9147SOL     OW39073   1.394   3.638   6.858 -0.2645 -0.1808  0.2031
 9147SOL    HW139074   1.394   3.642   6.953 -0.5553  0.5196  0.1720
 9147SOL    HW239075   1.300   3.652   6.849  0.2599  3.0827 -0.1005
 9148SOL     OW39076   3.429   3.646  15.694  0.2898 -0.3292 -0.1849
 9148SOL    HW139077   3.474   3.661  15.777  0.9888 -0.6806 -0.5099
 9148SOL    HW239078   3.409   3.552  15.703 -0.5414 -0.0241  1.2467
 9149SOL     OW39079   0.683   0.184   9.501 -0.3022  0.1974  0.5417
 9149SOL    HW139080   0.756   0.150   9.553 -1.4391 -2.9504  0.0670
 9149SOL    HW239081   0.727   0.243   9.440 -2.0474  1.8407  0.8756
 9150SOL     OW39082   0.934   0.148  13.249  0.2567  0.4119 -0.0902
 9150SOL    HW139083   0.995   0.160  13.176  1.1602  2.9472  1.0818
 9150SOL    HW239084   0.978   0.073  13.290  0.4209  0.1693 -0.7147
 9151SOL     OW39085   4.547   4.503   7.966 -0.3647  0.6082 -0.0526
 9151SOL    HW139086   4.572   4.554   7.890  0.7254 -1.4922 -1.1105
 9151SOL    HW239087   4.556   4.409   7.947 -0.7606  0.2642  1.3925
 9152SOL     OW39088   2.865   3.604   2.646 -0.1057 -0.0933 -0.7999
 9152SOL    HW139089   2.786   3.552   2.631  2.1044 -2.6983 -3.3519
 9152SOL    HW239090   2.836   3.696   2.646 -0.7269 -0.2853 -1.5424
 9153SOL     OW39091   4.439   2.376   8.708  0.4694 -0.1695 -0.0767
 9153SOL    HW139092   4.442   2.286   8.741  0.6764  0.9009  2.8003
 9153SOL    HW239093   4.426   2.366   8.614  0.8336 -2.3443  0.0974
 9154SOL     OW39094   0.408   1.509   4.909  0.3225 -0.3851  0.5732
 9154SOL    HW139095   0.322   1.538   4.879  0.7389 -0.0792 -0.3289
 9154SOL    HW239096   0.382   1.467   4.991  2.3755  0.1623  1.5080
 9155SOL     OW39097   0.324   4.468   7.985  0.6260 -0.3497  0.6254
 9155SOL    HW139098   0.274   4.454   7.905  3.1498 -2.2609 -0.6145
 9155SOL    HW239099   0.382   4.392   7.978 -2.4782 -2.8278  1.2700
 9156SOL     OW39100   2.095   4.197   2.938 -0.0436 -0.4233  0.6839
 9156SOL    HW139101   2.106   4.168   3.029  0.3457 -0.5532  0.5967
 9156SOL    HW239102   2.105   4.290   2.958  2.3894 -0.1748 -1.6513
 9157SOL     OW39103   3.051   4.401  17.013  0.1279  0.7345 -0.0713
 9157SOL    HW139104   3.015   4.352  16.939  0.5354  0.2980  0.0169
 9157SOL    HW239105   2.972   4.413  17.066  1.4610 -0.3406  2.1759
 9158SOL     OW39106   2.836   2.578   1.792  0.1262  0.4101  0.0238
 9158SOL    HW139107   2.849   2.546   1.703 -0.0860 -1.1556  0.5436
 9158SOL    HW239108   2.884   2.513   1.844  3.7554  0.6383 -3.0648
 9159SOL     OW39109   2.257   2.906  12.297  0.0198  0.2043  0.3290
 9159SOL    HW139110   2.262   3.001  12.283  0.2381  0.6684  3.3523
 9159SOL    HW239111   2.303   2.871  12.221 -0.6430  0.0081  0.0229
 9160SOL     OW39112   3.200   0.487   0.170  0.0326  0.1028 -0.2445
 9160SOL    HW139113   3.115   0.511   0.135  0.4410  1.3448 -0.3926
 9160SOL    HW239114   3.226   0.418   0.109 -1.5423  0.7636 -1.6380
 9161SOL     OW39115   4.564   1.451   1.817  0.2039 -0.7042 -0.3666
 9161SOL    HW139116   4.478   1.409   1.817  0.3690 -1.0241  1.3300
 9161SOL    HW239117   4.550   1.518   1.750  1.1577 -1.1605 -1.0422
 9162SOL     OW39118   1.636   2.251   8.602  0.1719 -0.1790 -0.0848
 9162SOL    HW139119   1.683   2.175   8.637  1.2855  1.1572  1.3145
 9162SOL    HW239120   1.588   2.213   8.528 -0.4886  2.1178 -0.8339
 9163SOL     OW39121   2.822   2.168   6.360 -0.4755 -0.4299  0.1292
 9163SOL    HW139122   2.861   2.184   6.446  1.2790  1.0392 -0.9409
 9163SOL    HW239123   2.889   2.140   6.297 -0.6337 -0.7228  0.0942
 9164SOL     OW39124   4.455   4.354   0.742  0.4152 -0.6343  0.3026
 9164SOL    HW139125   4.387   4.398   0.692  0.5953 -0.7711 -0.0627
 9164SOL    HW239126   4.452   4.401   0.825  2.8692 -1.3580  0.8240
 9165SOL     OW39127   0.855   1.784   7.349 -0.8490  0.1617 -0.6457
 9165SOL    HW139128   0.901   1.707   7.316 -0.0313 -0.8805  2.8503
 9165SOL    HW239129   0.898   1.860   7.309 -0.3511 -0.4344 -1.2447
 9166SOL     OW39130   0.601   1.857   2.091 -0.4305  0.4287 -0.4060
 9166SOL    HW139131   0.648   1.791   2.141  0.6451  0.0886 -1.8638
 9166SOL    HW239132   0.548   1.888   2.164 -1.5701  0.0443 -1.0760
 9167SOL     OW39133   2.659   0.949  10.402  0.2003 -0.1675 -0.0862
 9167SOL    HW139134   2.620   1.017  10.347  0.1835 -1.4140 -1.5976
 9167SOL    HW239135   2.625   0.868  10.366 -1.7997  1.6056 -2.1616
 9168SOL     OW39136   2.816   3.114   3.991  0.2879  0.9931  0.7499
 9168SOL    HW139137   2.912   3.119   3.989  0.2547  1.0338 -0.3921
 9168SOL    HW239138   2.795   3.186   3.932 -0.6698  0.0677 -0.0243
 9169SOL     OW39139   3.336   2.809   4.415  0.3925  0.6755 -0.3401
 9169SOL    HW139140   3.394   2.811   4.492  0.0923 -1.3269 -0.0603
 9169SOL    HW239141   3.350   2.720   4.382 -3.2460 -0.5155  1.4027
 9170SOL     OW39142   3.816   4.396  16.740 -0.0600 -0.3681 -0.5111
 9170SOL    HW139143   3.739   4.349  16.710 -1.5344  1.0068  1.1526
 9170SOL    HW239144   3.789   4.416  16.830 -2.6337 -1.1097 -1.1236
 9171SOL     OW39145   1.303   3.315   8.466 -0.6517 -0.4050 -0.1417
 9171SOL    HW139146   1.268   3.373   8.534  1.0729  0.3721  0.0813
 9171SOL    HW239147   1.359   3.369   8.409 -0.0040 -0.5104  0.4069
 9172SOL     OW39148   0.360   0.367   8.940  0.3467  0.4811  0.0181
 9172SOL    HW139149   0.269   0.370   8.969  0.3192  0.0364 -0.0129
 9172SOL    HW239150   0.388   0.284   8.979 -0.9968  0.5572  1.1460
 9173SOL     OW39151   1.320   3.850   3.174  0.6786 -0.0643 -0.4449
 9173SOL    HW139152   1.244   3.805   3.211  1.1251 -1.0208 -0.6765
 9173SOL    HW239153   1.373   3.777   3.140 -1.0239 -1.0665 -0.9296
 9174SOL     OW39154   3.187   0.940  11.443  0.4711 -0.5203  0.2081
 9174SOL    HW139155   3.124   0.951  11.371 -0.5987 -0.9409  1.0802
 9174SOL    HW239156   3.172   1.029  11.474 -1.5756 -0.6896 -0.2775
 9175SOL     OW39157   0.313   0.493   4.861  0.4151  0.3222 -0.0494
 9175SOL    HW139158   0.272   0.448   4.787  1.1707 -0.8725  0.2576
 9175SOL    HW239159   0.244   0.560   4.863  2.1918  2.1457  0.0445
 9176SOL     OW39160   2.213   0.230  11.576 -0.2644 -0.3143 -0.3842
 9176SOL    HW139161   2.269   0.292  11.623 -0.8069  0.0228 -0.1868
 9176SOL    HW239162   2.150   0.209  11.645 -1.7731  1.1243 -1.3447
 9177SOL     OW39163   0.471   1.935  11.974 -0.4671  0.3272  0.6421
 9177SOL    HW139164   0.549   1.954  11.921 -1.2425  1.3633 -0.1219
 9177SOL    HW239165   0.512   1.878  12.039  0.9567  0.1278 -0.4071
 9178SOL     OW39166   3.152   3.088   2.288 -0.0270 -0.2773  0.1046
 9178SOL    HW139167   3.110   3.080   2.374 -1.3052  1.0004 -0.4029
 9178SOL    HW239168   3.092   3.064   2.217 -0.2725  1.1885 -0.1839
 9179SOL     OW39169   2.885   1.101   2.311 -0.4191 -0.0772  0.4075
 9179SOL    HW139170   2.866   1.155   2.388 -1.5821  1.3161 -0.8669
 9179SOL    HW239171   2.981   1.098   2.310 -0.3305  2.3503  1.1124
 9180SOL     OW39172   3.418   2.901   4.871  0.1126  0.0737  0.1065
 9180SOL    HW139173   3.480   2.856   4.815  0.4533  1.4731 -0.6558
 9180SOL    HW239174   3.473   2.922   4.946  0.4874 -3.9714  0.9204
 9181SOL     OW39175   0.041   0.289   2.057  0.1018  0.5557 -0.5602
 9181SOL    HW139176   0.101   0.326   1.992 -1.9094 -0.0482 -2.7529
 9181SOL    HW239177   4.694   0.277   2.012  0.6747  1.0389 -1.7582
 9182SOL     OW39178   4.224   3.172   7.605 -0.1256  0.8845  0.1468
 9182SOL    HW139179   4.232   3.267   7.612  0.1642  0.8685  0.0562
 9182SOL    HW239180   4.266   3.165   7.519  2.1615  1.9597  1.1497
 9183SOL     OW39181   2.884   0.743   1.108 -0.2658  0.3247 -0.1416
 9183SOL    HW139182   2.903   0.736   1.201  1.4711 -1.0640 -0.6190
 9183SOL    HW239183   2.911   0.833   1.088  2.9127 -0.0539  2.6472
 9184SOL     OW39184   1.364   1.642   7.256  0.3014 -0.4551 -0.1438
 9184SOL    HW139185   1.325   1.562   7.289  3.4273 -1.1338  1.9442
 9184SOL    HW239186   1.452   1.640   7.296 -0.7683 -0.7911  2.2045
 9185SOL     OW39187   1.638   2.815  13.223  0.1720  0.1041  0.3479
 9185SOL    HW139188   1.581   2.782  13.293 -1.6775 -1.3505 -1.8569
 9185SOL    HW239189   1.633   2.907  13.246 -0.9848 -0.0355  0.6629
 9186SOL     OW39190   1.578   3.738   5.575 -0.5231 -0.8010 -0.3499
 9186SOL    HW139191   1.516   3.721   5.504 -1.2387  1.2198 -0.2009
 9186SOL    HW239192   1.569   3.833   5.577  2.4030 -0.5039 -0.0299
 9187SOL     OW39193   4.456   0.433   1.718  0.2237  0.1516 -0.3303
 9187SOL    HW139194   4.457   0.482   1.636  0.4394 -1.9447 -1.5660
 9187SOL    HW239195   4.380   0.471   1.763 -0.0553 -1.4728  0.5800
 9188SOL     OW39196   0.912   0.267   2.285  0.2839 -0.2491  0.8950
 9188SOL    HW139197   0.901   0.340   2.224 -2.0977 -2.1258 -0.9208
 9188SOL    HW239198   0.986   0.294   2.340 -0.0877  1.3802  0.5712
 9189SOL     OW39199   2.674   2.167  17.359  0.4203  0.1710  0.6357
 9189SOL    HW139200   2.591   2.130  17.388  1.1895 -0.4436  2.0462
 9189SOL    HW239201   2.681   2.252  17.402  2.4769  0.7466 -0.7908
 9190SOL     OW39202   1.244   4.068   5.484 -0.3667  0.4596 -0.2977
 9190SOL    HW139203   1.324   4.044   5.530  0.2318  1.3218 -0.8805
 9190SOL    HW239204   1.245   3.999   5.418 -1.1683 -0.4057  0.6018
 9191SOL     OW39205   2.201   3.688   3.413  0.2863 -0.1891 -0.2547
 9191SOL    HW139206   2.186   3.609   3.362  1.2197  0.1975 -1.1097
 9191SOL    HW239207   2.112   3.723   3.408  0.2887 -0.1908 -0.3007
 9192SOL     OW39208   4.458   1.512   4.049 -0.1503  0.1159 -0.6361
 9192SOL    HW139209   4.544   1.528   4.088 -0.4724  3.0961 -1.0904
 9192SOL    HW239210   4.443   1.423   4.080  1.7614  0.5452  1.5336
 9193SOL     OW39211   1.336   4.385   7.638 -0.9395  0.3642  0.7859
 9193SOL    HW139212   1.294   4.466   7.611  1.7990  1.4053 -0.3297
 9193SOL    HW239213   1.317   4.389   7.732  3.3855  1.8620  1.6169
 9194SOL     OW39214   1.469   4.526   8.859 -0.2686 -0.4736 -0.0519
 9194SOL    HW139215   1.531   4.558   8.794  0.7260 -0.4651  0.9168
 9194SOL    HW239216   1.509   4.439   8.863 -1.4113 -1.0567 -1.2449
 9195SOL     OW39217   0.013   2.813  15.978  0.5575 -0.6744  0.6351
 9195SOL    HW139218   0.046   2.732  16.016  0.1850 -2.2324 -2.3130
 9195SOL    HW239219   0.092   2.868  15.980 -0.9585  1.5640 -0.6547
 9196SOL     OW39220   3.150   1.052   5.403 -0.1382  0.2201 -0.0896
 9196SOL    HW139221   3.154   0.964   5.364  1.2510  0.0108  0.5459
 9196SOL    HW239222   3.055   1.067   5.401  0.5345  4.7487  1.9878
 9197SOL     OW39223   2.635   2.659   8.538  0.0413 -0.4438 -0.2551
 9197SOL    HW139224   2.668   2.636   8.625  1.9571 -1.3050 -1.2256
 9197SOL    HW239225   2.679   2.589   8.491  3.7301  1.0074  0.9814
 9198SOL     OW39226   3.691   4.340   3.511  0.0926 -0.1615 -0.2536
 9198SOL    HW139227   3.776   4.384   3.508 -1.6135  3.1666  1.0391
 9198SOL    HW239228   3.629   4.402   3.473 -1.5576 -1.4557  0.3293
 9199SOL     OW39229   2.843   1.692   8.525  0.8612  0.0809 -0.5323
 9199SOL    HW139230   2.910   1.657   8.583 -0.3996 -0.5044  0.5711
 9199SOL    HW239231   2.798   1.608   8.512  1.8444 -1.0220  3.3713
 9200SOL     OW39232   3.927   3.810   6.867  0.1852 -0.5437 -0.0684
 9200SOL    HW139233   3.866   3.836   6.936  2.3777  5.0015 -0.1509
 9200SOL    HW239234   3.985   3.754   6.919 -0.6159 -0.0912  1.3293
 9201SOL     OW39235   3.500   4.456   7.358 -0.2579 -0.5294  0.2495
 9201SOL    HW139236   3.519   4.547   7.380  2.3097 -0.8290 -0.6567
 9201SOL    HW239237   3.501   4.459   7.262 -1.1198 -2.0915  0.1837
 9202SOL     OW39238   2.338   0.602   7.386  0.0510  0.1735  0.1281
 9202SOL    HW139239   2.255   0.558   7.402  0.1653  0.5112  1.6395
 9202SOL    HW239240   2.312   0.694   7.381  1.6697  0.7440  2.3365
 9203SOL     OW39241   2.012   3.902   4.812 -0.5780 -0.0925  0.3305
 9203SOL    HW139242   2.065   3.938   4.741  0.3922  0.2335  1.2315
 9203SOL    HW239243   1.955   3.843   4.762 -0.8239 -0.4235  1.0077
 9204SOL     OW39244   2.564   0.977  17.044  0.2317 -0.5857  0.1773
 9204SOL    HW139245   2.588   0.886  17.028  2.7464  0.5965 -2.8845
 9204SOL    HW239246   2.594   0.996  17.133  0.0197  0.2245  0.0713
 9205SOL     OW39247   2.976   0.751   7.453  0.2775 -0.3336 -0.1572
 9205SOL    HW139248   2.977   0.664   7.412  1.3379 -0.2166 -0.3692
 9205SOL    HW239249   3.062   0.776   7.420 -0.0353  1.6990  0.6042
 9206SOL     OW39250   0.630   3.479   5.800  0.2893 -0.0035 -0.5631
 9206SOL    HW139251   0.572   3.553   5.784  1.2838  0.7400 -0.7604
 9206SOL    HW239252   0.661   3.502   5.888  3.5872 -0.7723 -1.4941
 9207SOL     OW39253   3.103   3.616   5.027 -0.4609 -0.9012 -0.2723
 9207SOL    HW139254   3.142   3.531   5.047  0.4420 -0.3784  0.1880
 9207SOL    HW239255   3.028   3.626   5.086  1.0709 -1.5438  1.7671
 9208SOL     OW39256   0.806   2.529   8.790 -0.6237  0.2743 -0.2055
 9208SOL    HW139257   0.875   2.488   8.842 -1.9243 -1.4364  0.1468
 9208SOL    HW239258   0.858   2.592   8.740  1.6022  0.2302  2.0755
 9209SOL     OW39259   2.259   1.908   2.223 -0.1235  0.5300 -0.1803
 9209SOL    HW139260   2.336   1.864   2.259  0.2222  0.5412 -0.9008
 9209SOL    HW239261   2.190   1.843   2.229  1.0346 -0.5398  1.4336
 9210SOL     OW39262   0.239   2.439   4.969 -0.3938 -0.1668  0.5243
 9210SOL    HW139263   0.231   2.412   4.877 -0.3444  0.6072  0.2949
 9210SOL    HW239264   0.210   2.529   4.957  2.8790  0.3741 -3.1941
 9211SOL     OW39265   1.767   0.459   7.901 -0.4369 -0.0785 -0.5582
 9211SOL    HW139266   1.801   0.451   7.990 -0.2555  2.5692 -0.3828
 9211SOL    HW239267   1.812   0.394   7.847  2.1260  0.4524  0.9331
 9212SOL     OW39268   3.626   0.286   4.240 -0.0477 -0.8401  0.4703
 9212SOL    HW139269   3.651   0.246   4.157 -0.5681  1.0760 -0.6280
 9212SOL    HW239270   3.651   0.223   4.307  1.3270 -1.0118 -0.2033
 9213SOL     OW39271   1.289   3.815  13.876 -1.0965 -0.5085  0.2194
 9213SOL    HW139272   1.245   3.833  13.792 -1.3451  0.1491  0.4954
 9213SOL    HW239273   1.225   3.818  13.947  0.4252  0.5310  1.5559
 9214SOL     OW39274   0.974   1.366   9.899 -0.7208 -0.3387 -0.2377
 9214SOL    HW139275   1.044   1.379   9.834 -0.2784  2.1187  0.7612
 9214SOL    HW239276   0.900   1.388   9.843  0.4831  1.5505 -1.1100
 9215SOL     OW39277   4.031   4.644   0.211  0.4533 -0.2622  0.3664
 9215SOL    HW139278   4.053   4.721   0.262 -0.4032 -0.2060  0.6600
 9215SOL    HW239279   4.115   4.599   0.215  0.5743 -0.1677 -1.0967
 9216SOL     OW39280   1.845   4.572  14.248  0.5041 -0.2003  0.7366
 9216SOL    HW139281   1.778   4.613  14.302 -0.3605 -1.9729  0.9972
 9216SOL    HW239282   1.913   4.568  14.315  0.5977 -2.8424  0.4905
 9217SOL     OW39283   3.243   0.083  17.725  0.4087 -0.6806  0.1165
 9217SOL    HW139284   3.172   0.117   0.033  1.5896 -0.9993  1.8809
 9217SOL    HW239285   3.198   0.017  17.672  1.7768 -1.8713  0.4536
 9218SOL     OW39286   1.842   4.539   2.170 -0.2897  0.0706  0.1967
 9218SOL    HW139287   1.882   4.587   2.098 -0.0760  1.6166  1.3407
 9218SOL    HW239288   1.784   4.482   2.119  1.8217 -1.0779 -0.8878
 9219SOL     OW39289   3.701   1.449  17.249 -0.1680  0.3309  0.2293
 9219SOL    HW139290   3.650   1.526  17.274  0.8410  1.4229 -1.1517
 9219SOL    HW239291   3.776   1.475  17.301  1.1080 -1.5295 -0.6894
 9220SOL     OW39292   2.053   3.832  14.589 -0.1210 -0.1788 -0.1250
 9220SOL    HW139293   2.087   3.919  14.608 -1.0762  0.5019 -1.5236
 9220SOL    HW239294   2.129   3.784  14.555 -1.4442 -0.6767 -2.3644
 9221SOL     OW39295   1.801   2.536  10.122 -0.2874  0.7024  0.6458
 9221SOL    HW139296   1.754   2.598  10.066 -0.5010  1.0622  1.2194
 9221SOL    HW239297   1.785   2.562  10.213  0.5833  0.8895  0.7365
 9222SOL     OW39298   2.352   3.679   7.341 -0.5955  0.7245 -0.5122
 9222SOL    HW139299   2.409   3.608   7.369 -2.8141 -1.8319 -2.4963
 9222SOL    HW239300   2.324   3.646   7.256  2.6348 -2.4547 -0.3584
 9223SOL     OW39301   4.706   4.571  13.304  0.0272 -0.1830  0.5032
 9223SOL    HW139302   4.690   4.512  13.378  0.3855 -0.6130  0.2394
 9223SOL    HW239303   0.009   4.510  13.243  0.5335  0.7014 -0.0440
 9224SOL     OW39304   1.505   1.096   2.824 -0.5327 -0.1312 -0.2618
 9224SOL    HW139305   1.585   1.101   2.771 -1.3039  1.1210 -1.3170
 9224SOL    HW239306   1.465   1.015   2.793 -2.1129 -0.1760  1.8702
 9225SOL     OW39307   4.710   2.371   9.122  0.6126  0.0802 -0.0191
 9225SOL    HW139308   0.023   2.411   9.050 -1.3939  2.5554 -0.0405
 9225SOL    HW239309   4.701   2.448   9.179  1.9677  0.7040 -0.6361
 9226SOL     OW39310   3.159   1.345   4.739  0.2554  0.0927  0.0434
 9226SOL    HW139311   3.215   1.421   4.757  0.8134 -0.4010  0.4135
 9226SOL    HW239312   3.087   1.364   4.799  1.8002  1.3430  1.5259
 9227SOL     OW39313   3.787   0.291   9.013 -0.7193 -0.2558 -0.5757
 9227SOL    HW139314   3.795   0.319   9.104 -3.9375  2.2662 -1.0646
 9227SOL    HW239315   3.741   0.208   9.015 -0.3170 -0.4274  1.1038
 9228SOL     OW39316   2.283   2.809   9.594 -0.3981 -0.2650  0.8161
 9228SOL    HW139317   2.242   2.886   9.554 -1.8802 -0.2835  2.3117
 9228SOL    HW239318   2.214   2.779   9.652 -1.1116 -0.3345 -0.0608
 9229SOL     OW39319   3.528   0.566  15.305 -0.5518 -0.7464 -0.4372
 9229SOL    HW139320   3.472   0.489  15.311  0.3615 -1.4279 -0.6445
 9229SOL    HW239321   3.517   0.593  15.214 -1.7878 -0.8778 -0.3236
 9230SOL     OW39322   3.885   1.767   2.247  0.4015  0.2979 -0.0765
 9230SOL    HW139323   3.867   1.763   2.341 -0.3161  0.7462 -0.1931
 9230SOL    HW239324   3.803   1.733   2.211 -0.7088  1.7050  1.1355
 9231SOL     OW39325   1.362   1.137   3.685 -0.3868  0.2243  0.3071
 9231SOL    HW139326   1.382   1.219   3.640  2.0324 -0.6245 -0.1349
 9231SOL    HW239327   1.278   1.112   3.645  1.0737 -0.1034 -2.5634
 9232SOL     OW39328   3.774   3.340   4.772 -0.2664 -0.6399  0.2574
 9232SOL    HW139329   3.738   3.348   4.861 -0.3714 -0.7634  0.2264
 9232SOL    HW239330   3.850   3.284   4.787 -0.1222 -1.1698 -2.4823
 9233SOL     OW39331   1.963   2.318   7.981 -0.8530  0.0150  0.3373
 9233SOL    HW139332   1.900   2.297   8.050 -0.8920 -0.4113  0.1710
 9233SOL    HW239333   1.972   2.231   7.942  2.2916  0.0532  0.9583
 9234SOL     OW39334   4.689   3.893  14.321  0.2098  0.2646  0.1592
 9234SOL    HW139335   4.624   3.923  14.259  2.2628  1.1473 -1.5553
 9234SOL    HW239336   4.699   3.801  14.295 -0.0339 -0.0088  1.0253
 9235SOL     OW39337   4.696   2.668   7.559 -0.0440  0.2647 -0.0120
 9235SOL    HW139338   4.637   2.742   7.571  1.3347  1.5416 -1.0485
 9235SOL    HW239339   4.674   2.624   7.641 -1.1566 -0.2168 -0.5723
 9236SOL     OW39340   4.447   2.622   5.165 -0.0893  0.3877  0.0067
 9236SOL    HW139341   4.392   2.659   5.234 -0.9180 -1.5741  0.3725
 9236SOL    HW239342   4.531   2.623   5.212  0.0936 -0.8698 -0.3042
 9237SOL     OW39343   2.735   1.320   7.259  0.6961 -0.4316 -0.1121
 9237SOL    HW139344   2.675   1.285   7.193  0.3565  0.2445 -0.1661
 9237SOL    HW239345   2.673   1.367   7.314  0.9271 -0.2819  0.0200
 9238SOL     OW39346   2.660   3.150   0.801 -0.5398  0.1225  0.2468
 9238SOL    HW139347   2.588   3.091   0.776 -0.3155 -1.3045  2.8634
 9238SOL    HW239348   2.615   3.232   0.820  1.3697  0.9229  1.2936
 9239SOL     OW39349   2.141   3.276  12.871  0.1837 -0.3284  0.0542
 9239SOL    HW139350   2.202   3.208  12.898  1.3175 -0.2841 -2.3781
 9239SOL    HW239351   2.181   3.359  12.899 -0.8928  0.2531 -0.1229
 9240SOL     OW39352   1.056   2.682  13.349 -0.5314  0.0726 -0.3291
 9240SOL    HW139353   1.094   2.706  13.265 -1.1560  3.7450  0.4241
 9240SOL    HW239354   1.124   2.619  13.374 -1.3864 -0.6727  0.1098
 9241SOL     OW39355   1.470   2.590  10.757  0.6592  0.0078  0.7609
 9241SOL    HW139356   1.457   2.680  10.727 -2.5372 -0.9538 -0.7544
 9241SOL    HW239357   1.549   2.567  10.708 -0.1549 -0.2483 -0.4397
 9242SOL     OW39358   4.156   2.279   8.028 -0.0312  0.1014  0.0011
 9242SOL    HW139359   4.223   2.212   8.013 -0.0040  0.1799 -0.2368
 9242SOL    HW239360   4.181   2.342   7.960  0.3737  0.6284  0.6352
 9243SOL     OW39361   3.232   0.149   3.672 -0.0547  0.2288 -0.6254
 9243SOL    HW139362   3.236   0.186   3.760  2.1048 -2.3990  0.3835
 9243SOL    HW239363   3.177   0.076   3.701  0.3896 -0.4638 -1.5228
 9244SOL     OW39364   4.191   0.038   6.056  0.2929  0.0537  0.3655
 9244SOL    HW139365   4.279   0.052   6.021  0.3973  1.1206  1.0681
 9244SOL    HW239366   4.208   0.082   6.139  1.6889  0.1373  0.0310
 9245SOL     OW39367   1.469   2.263   3.842 -0.0001  0.4619  0.1360
 9245SOL    HW139368   1.466   2.179   3.796 -3.6650  1.7550 -2.0256
 9245SOL    HW239369   1.523   2.317   3.784  0.2748  2.7363  2.5020
 9246SOL     OW39370   2.945   4.513   9.006  0.3542  0.1956  0.1265
 9246SOL    HW139371   2.994   4.591   9.030  0.6590  0.3301 -0.9297
 9246SOL    HW239372   3.010   4.446   9.023  0.0035 -0.1262  0.2094
 9247SOL     OW39373   1.326   3.860   3.958 -0.8883  0.3009 -0.4670
 9247SOL    HW139374   1.237   3.888   3.979 -0.6323  0.0752  0.9771
 9247SOL    HW239375   1.374   3.936   3.990  0.3140  0.1400 -1.9109
 9248SOL     OW39376   1.733   2.941   1.347  0.4335  0.2467 -0.2638
 9248SOL    HW139377   1.731   2.876   1.418  2.6715 -1.7022 -1.9788
 9248SOL    HW239378   1.824   2.922   1.322  0.0854 -0.1306 -1.2236
 9249SOL     OW39379   0.749   3.185   4.196  0.1184  0.4918 -0.1148
 9249SOL    HW139380   0.783   3.104   4.156 -0.4921 -0.9610  2.2778
 9249SOL    HW239381   0.823   3.237   4.228 -0.3449  0.7772  0.4843
 9250SOL     OW39382   3.552   1.677   5.297 -0.5537  0.4685 -0.4413
 9250SOL    HW139383   3.618   1.617   5.333  0.0802  0.2578 -1.9545
 9250SOL    HW239384   3.601   1.758   5.308  0.8825 -0.4651  0.0918
 9251SOL     OW39385   1.711   4.042   2.063 -0.0492 -0.0423 -0.4799
 9251SOL    HW139386   1.709   4.099   2.140  0.6887  0.2905 -0.7074
 9251SOL    HW239387   1.742   3.960   2.099 -0.6229 -0.3743 -0.7296
 9252SOL     OW39388   2.292   2.820   7.374 -0.7621 -0.0678 -0.0274
 9252SOL    HW139389   2.304   2.827   7.279  0.3639 -5.0562 -0.2433
 9252SOL    HW239390   2.367   2.769   7.403 -1.3899 -1.2185 -0.4497
 9253SOL     OW39391   3.171   2.216  13.330 -0.1767  0.2533 -0.6845
 9253SOL    HW139392   3.180   2.124  13.306  2.8272  0.4175 -0.1361
 9253SOL    HW239393   3.245   2.254  13.282 -1.1123  3.1740  0.1514
 9254SOL     OW39394   4.524   3.008  12.098 -0.0219  0.2069 -0.1868
 9254SOL    HW139395   4.527   3.066  12.175  0.6342 -0.5602  0.3651
 9254SOL    HW239396   4.547   2.925  12.140  1.6884  0.7019 -0.1569
 9255SOL     OW39397   3.072   3.808   7.170  0.3430  0.0015  0.6147
 9255SOL    HW139398   3.122   3.890   7.179  3.0123 -1.4428 -0.8562
 9255SOL    HW239399   3.007   3.831   7.235 -0.7789  0.3548 -0.6323
 9256SOL     OW39400   3.809   3.403   5.488  0.1255 -0.0318  0.4625
 9256SOL    HW139401   3.873   3.462   5.527 -0.5308  0.4929  0.7307
 9256SOL    HW239402   3.853   3.318   5.496 -0.1001 -0.3088 -1.3198
 9257SOL     OW39403   3.961   1.322   8.541  0.0952  0.2126 -0.0423
 9257SOL    HW139404   3.956   1.232   8.508 -0.3633 -0.5961  2.2492
 9257SOL    HW239405   4.054   1.335   8.560 -0.1171 -0.2527  1.3379
 9258SOL     OW39406   0.547   0.206   5.470 -0.5835 -0.0519  0.2668
 9258SOL    HW139407   0.554   0.130   5.413  1.9160  0.1617  0.3205
 9258SOL    HW239408   0.619   0.185   5.529 -1.3038 -0.9942  0.8071
 9259SOL     OW39409   1.792   3.655   3.862  0.1687 -0.5220 -0.3595
 9259SOL    HW139410   1.756   3.730   3.910 -2.5558 -2.0653 -0.0162
 9259SOL    HW239411   1.748   3.580   3.902 -0.0449 -0.2853 -0.1444
 9260SOL     OW39412   3.077   4.391   5.979  0.1589 -0.4329  0.4367
 9260SOL    HW139413   3.013   4.448   6.021 -0.8581 -0.6827 -0.7415
 9260SOL    HW239414   3.096   4.437   5.897  0.6775 -1.1685  0.1464
 9261SOL     OW39415   3.593   0.296   5.362  0.3658 -0.4153  0.4625
 9261SOL    HW139416   3.611   0.376   5.412 -0.8052 -0.6419  1.2200
 9261SOL    HW239417   3.630   0.238   5.428  2.4414  1.0384  0.6151
 9262SOL     OW39418   3.380   4.663   5.997  0.5357 -0.5145  0.1222
 9262SOL    HW139419   3.354   4.731   6.059  1.9536 -1.0502  1.3094
 9262SOL    HW239420   3.381   4.584   6.051 -2.9019 -0.5614  0.1435
 9263SOL     OW39421   0.590   3.237  12.837  0.1737 -0.0320 -0.5224
 9263SOL    HW139422   0.568   3.331  12.836  0.9891  0.1818  1.2904
 9263SOL    HW239423   0.675   3.243  12.881  0.6047 -4.7801 -0.7879
 9264SOL     OW39424   1.828   2.309  10.824 -0.3181  0.0202 -0.2845
 9264SOL    HW139425   1.801   2.401  10.825 -2.5846 -0.6612  0.5455
 9264SOL    HW239426   1.836   2.300  10.729  1.0103  2.5442 -0.4292
 9265SOL     OW39427   2.732   4.015   7.025  0.1060 -0.1754  0.4069
 9265SOL    HW139428   2.689   3.930   7.033  0.3761 -0.5886 -2.6408
 9265SOL    HW239429   2.687   4.046   7.103  1.8053  0.1941  1.2440
 9266SOL     OW39430   1.666   4.110  17.336 -0.2044  0.2173 -0.3420
 9266SOL    HW139431   1.647   4.021  17.306  1.7692 -0.0203 -0.9200
 9266SOL    HW239432   1.666   4.093  17.430 -0.5006  0.0964 -0.3635
 9267SOL     OW39433   3.746   2.846   8.793  0.5988 -0.3220 -0.0666
 9267SOL    HW139434   3.730   2.935   8.763  2.1043  0.2712  0.9378
 9267SOL    HW239435   3.781   2.866   8.880  1.4050 -2.0379  0.0023
 9268SOL     OW39436   2.794   1.003   7.055 -0.0544 -0.4427 -0.5539
 9268SOL    HW139437   2.726   1.070   7.047  0.4995  0.4313  1.8140
 9268SOL    HW239438   2.730   0.933   7.072  0.3279 -1.0513 -1.6299
 9269SOL     OW39439   0.925   4.470   8.392  0.3191  0.6698 -0.0597
 9269SOL    HW139440   0.969   4.508   8.468  0.5817  2.1875 -0.9667
 9269SOL    HW239441   0.840   4.440   8.426  1.9175 -3.1768  0.5981
 9270SOL     OW39442   3.644   0.803   8.888  0.3820 -0.1096 -0.4696
 9270SOL    HW139443   3.552   0.779   8.896  0.0445  1.3870  0.1986
 9270SOL    HW239444   3.653   0.883   8.836  2.4972 -0.8193 -1.1787
 9271SOL     OW39445   0.953   2.805  15.630  0.0689  0.3743  0.2437
 9271SOL    HW139446   1.047   2.821  15.639  0.2641 -0.4021 -0.4191
 9271SOL    HW239447   0.961   2.740  15.560 -0.3112  0.6278 -0.0377
 9272SOL     OW39448   2.690   1.458   5.891 -0.0356  0.2074 -0.3171
 9272SOL    HW139449   2.616   1.493   5.941 -0.5019  1.0730 -1.6120
 9272SOL    HW239450   2.718   1.387   5.949  1.0577  0.2569 -0.8023
 9273SOL     OW39451   4.640   1.323   5.313 -0.3586  0.1622  0.4692
 9273SOL    HW139452   4.565   1.340   5.369  0.0510  1.5730  0.5808
 9273SOL    HW239453   4.601   1.338   5.227 -1.5594 -1.3516  0.7491
 9274SOL     OW39454   0.940   2.655   5.525 -0.3202 -0.1233 -0.0012
 9274SOL    HW139455   0.909   2.602   5.598  1.2717 -0.9853  0.0436
 9274SOL    HW239456   1.019   2.682   5.572 -0.4696  1.7480 -0.7950
 9275SOL     OW39457   2.495   3.603   6.390 -0.1678  0.0891 -0.5298
 9275SOL    HW139458   2.399   3.596   6.395  0.1329 -2.9132  1.0265
 9275SOL    HW239459   2.507   3.683   6.441 -0.1664 -0.6786  0.6690
 9276SOL     OW39460   4.656   0.431   5.623 -0.3027 -0.2127 -0.2024
 9276SOL    HW139461   4.709   0.459   5.549 -0.6501 -3.1600 -1.5465
 9276SOL    HW239462   4.578   0.487   5.622  0.0368  0.3121  3.5814
 9277SOL     OW39463   3.045   3.333  17.732  0.4145 -0.1393 -0.2438
 9277SOL    HW139464   3.025   3.255   0.039  4.1690 -0.4839  0.7095
 9277SOL    HW239465   2.965   3.381   0.008  2.1974  2.4570  0.6963
 9278SOL     OW39466   3.701   1.733  13.035 -0.5580  0.3170 -0.4808
 9278SOL    HW139467   3.734   1.680  12.962 -0.2507 -1.0180  0.6274
 9278SOL    HW239468   3.771   1.710  13.096 -1.7484  0.0495  0.7713
 9279SOL     OW39469   4.684   0.579   6.648  0.1365  0.5116 -0.3886
 9279SOL    HW139470   4.614   0.515   6.654  1.2070 -0.6900 -0.6072
 9279SOL    HW239471   4.654   0.650   6.704 -1.4526  0.3457 -1.0361
 9280SOL     OW39472   1.635   0.778  14.347 -0.3768  0.3391  0.0394
 9280SOL    HW139473   1.577   0.850  14.323 -1.6299 -0.5961  0.2392
 9280SOL    HW239474   1.680   0.750  14.268  1.4881  2.9689  0.1785
 9281SOL     OW39475   3.821   0.321   2.983  0.6496  0.5195 -0.1604
 9281SOL    HW139476   3.846   0.244   3.033 -0.7006 -0.8674 -1.6154
 9281SOL    HW239477   3.790   0.376   3.055 -2.2373 -1.0683 -0.1819
 9282SOL     OW39478   4.623   1.463   1.219  0.1741 -0.1862 -0.0703
 9282SOL    HW139479   4.632   1.553   1.252 -1.4673 -0.0532  0.0126
 9282SOL    HW239480   4.607   1.424   1.305  0.4207 -1.1537 -0.4692
 9283SOL     OW39481   4.727   4.114   8.515  0.3605 -0.7064  0.2474
 9283SOL    HW139482   0.066   4.095   8.458 -0.1351 -1.2842 -0.2177
 9283SOL    HW239483   4.655   4.052   8.509 -1.2713  1.1012  1.2992
 9284SOL     OW39484   0.415   4.664   3.517 -0.0209 -0.3316 -0.2914
 9284SOL    HW139485   0.442   0.009   3.474  1.7133 -1.2465 -0.9524
 9284SOL    HW239486   0.485   4.669   3.582 -0.1501  0.5584 -0.2204
 9285SOL     OW39487   1.134   0.609  12.372  0.1000  0.2895  0.0720
 9285SOL    HW139488   1.191   0.685  12.359 -1.6672  1.6883  0.3766
 9285SOL    HW239489   1.077   0.643  12.442 -1.8038 -1.4250 -0.6505
 9286SOL     OW39490   0.730   1.462   9.819 -0.0239 -0.0400 -0.4826
 9286SOL    HW139491   0.649   1.478   9.772 -0.8377 -1.0337  0.6047
 9286SOL    HW239492   0.697   1.485   9.905 -0.3503 -1.1335 -0.3189
 9287SOL     OW39493   3.430   4.386  14.980  0.0851 -0.2737  0.4066
 9287SOL    HW139494   3.349   4.335  14.973  0.1326 -0.8029  3.3776
 9287SOL    HW239495   3.496   4.321  14.955  0.4153 -0.3146  1.3849
 9288SOL     OW39496   0.062   1.528   6.675  0.2516 -0.3591 -0.1569
 9288SOL    HW139497   0.137   1.575   6.711 -0.6565  0.9622  0.0114
 9288SOL    HW239498   0.086   1.504   6.585  0.5312  1.2052 -0.5107
 9289SOL     OW39499   2.547   1.845   0.309  0.3324 -0.2284  0.4130
 9289SOL    HW139500   2.562   1.768   0.364  0.8647 -0.8081 -0.5332
 9289SOL    HW239501   2.548   1.798   0.225 -1.5276 -0.1529  0.3399
 9290SOL     OW39502   1.267   2.495  15.591  0.2152 -0.2868 -0.0413
 9290SOL    HW139503   1.286   2.419  15.536 -1.0247 -1.0773  0.6223
 9290SOL    HW239504   1.203   2.548  15.543 -0.2522 -1.1286 -0.3477
 9291SOL     OW39505   4.014   0.106   6.615 -0.5741 -0.6033 -0.2436
 9291SOL    HW139506   3.988   0.103   6.707  3.5018  1.6630  0.9815
 9291SOL    HW239507   4.011   0.013   6.592 -0.5937 -1.0364  1.5196
 9292SOL     OW39508   1.173   2.462   6.740  0.0100  0.4372 -0.1162
 9292SOL    HW139509   1.145   2.544   6.700  0.7409  1.8009  2.1470
 9292SOL    HW239510   1.135   2.395   6.683 -2.9936  1.5007  0.6144
 9293SOL     OW39511   4.647   2.872   9.060  0.0284 -0.3841 -0.3537
 9293SOL    HW139512   4.691   2.952   9.030 -1.1513 -0.6928 -2.9507
 9293SOL    HW239513   4.611   2.887   9.147 -0.7125  0.1040 -0.7463
 9294SOL     OW39514   2.371   0.556   3.520 -0.1846 -0.1376 -0.0817
 9294SOL    HW139515   2.406   0.603   3.596 -0.4415  0.9482 -0.6425
 9294SOL    HW239516   2.287   0.600   3.510 -0.0343  0.5507  1.6506
 9295SOL     OW39517   3.888   0.108   4.827  0.1637  0.0200 -0.2013
 9295SOL    HW139518   3.911   0.044   4.894 -1.0687  0.1416  0.3465
 9295SOL    HW239519   3.969   0.104   4.775  1.6699  0.5607  2.1035
 9296SOL     OW39520   1.220   1.281   7.773  0.5366 -0.1443  0.0931
 9296SOL    HW139521   1.267   1.359   7.803 -1.8820  0.5551  2.0998
 9296SOL    HW239522   1.243   1.219   7.842  0.0395  1.3987  1.6547
 9297SOL     OW39523   2.433   4.100   3.277  0.0949 -0.6084  0.3291
 9297SOL    HW139524   2.515   4.145   3.295  0.7105 -1.9090  0.7771
 9297SOL    HW239525   2.392   4.109   3.363  1.0847  1.3160  0.6020
 9298SOL     OW39526   4.588   4.111  12.112  0.4419  0.4348 -0.6021
 9298SOL    HW139527   4.606   4.045  12.045 -0.8452  0.9999 -1.5025
 9298SOL    HW239528   4.628   4.195  12.090  0.6931  0.7683  1.1417
 9299SOL     OW39529   4.393   3.136   4.517 -0.5162 -0.2082  0.1208
 9299SOL    HW139530   4.481   3.150   4.482  0.8592 -1.6086  3.0103
 9299SOL    HW239531   4.397   3.050   4.559  2.3534 -0.0557  0.2106
 9300SOL     OW39532   1.161   3.610  15.555 -0.0440  0.2014 -0.0350
 9300SOL    HW139533   1.193   3.695  15.527 -0.8122  0.1287 -1.1139
 9300SOL    HW239534   1.236   3.563  15.592 -0.7121  0.1023  1.2128
 9301SOL     OW39535   2.459   0.500   5.051  0.0885  0.4384 -0.2997
 9301SOL    HW139536   2.440   0.416   5.010 -0.6605  0.3751  0.1682
 9301SOL    HW239537   2.527   0.473   5.112  0.6910 -0.6110 -1.4504
 9302SOL     OW39538   2.642   3.876   9.904  0.3066 -0.4395 -0.5163
 9302SOL    HW139539   2.574   3.925   9.859 -0.9361  0.0689  1.9477
 9302SOL    HW239540   2.592   3.800   9.934  0.7087 -0.2951  0.5144
 9303SOL     OW39541   2.811   3.763   1.638  0.0689 -0.4138  0.4792
 9303SOL    HW139542   2.872   3.690   1.626  1.0217 -0.0559  3.0522
 9303SOL    HW239543   2.731   3.727   1.600 -1.2252  4.3362 -1.1984
 9304SOL     OW39544   0.232   1.135   3.370  0.8759 -0.2402 -0.4019
 9304SOL    HW139545   0.145   1.170   3.351  0.9114 -1.7531 -3.3330
 9304SOL    HW239546   0.247   1.098   3.284  1.6830  0.0681 -0.3955
 9305SOL     OW39547   1.834   1.521   2.387 -0.0290 -0.6596  0.0060
 9305SOL    HW139548   1.814   1.433   2.355 -2.0851 -0.2680  0.2168
 9305SOL    HW239549   1.824   1.513   2.482  1.9285 -0.2935  0.2342
 9306SOL     OW39550   1.640   3.416   1.844 -1.7275  0.6034  0.8305
 9306SOL    HW139551   1.587   3.492   1.820  0.5748  1.4752 -1.5268
 9306SOL    HW239552   1.690   3.460   1.913  1.3733 -2.1130  0.3395
 9307SOL     OW39553   3.900   1.985  10.442 -0.4235  0.2830  0.1503
 9307SOL    HW139554   3.857   2.057  10.489 -0.1433 -0.1600  1.1051
 9307SOL    HW239555   3.955   2.018  10.372 -0.8513  1.0846  0.1951
 9308SOL     OW39556   0.303   3.943   9.291  0.6662  0.1661 -0.1519
 9308SOL    HW139557   0.308   3.984   9.204  0.1273 -2.4226 -1.4021
 9308SOL    HW239558   0.244   4.008   9.328  2.0337  0.9362  0.6757
 9309SOL     OW39559   1.921   2.170   3.924 -0.4085 -0.5356  0.0663
 9309SOL    HW139560   1.961   2.236   3.979  1.8332 -0.3789 -1.7469
 9309SOL    HW239561   1.986   2.174   3.854 -1.7386  0.3727 -1.1113
 9310SOL     OW39562   0.235   0.464  16.347 -0.2252  0.1992 -0.2953
 9310SOL    HW139563   0.280   0.380  16.353 -1.5370 -0.5437 -0.7564
 9310SOL    HW239564   0.141   0.442  16.347 -0.1393 -0.1746 -0.1990
 9311SOL     OW39565   2.578   4.409   7.085  0.0740 -0.0568  0.7299
 9311SOL    HW139566   2.536   4.388   7.168  1.0681 -1.2136  0.9394
 9311SOL    HW239567   2.510   4.376   7.026 -0.0913 -1.7572  1.8852
 9312SOL     OW39568   1.633   0.335   1.001  0.1979  0.0381 -0.0485
 9312SOL    HW139569   1.554   0.314   0.951 -0.7325  1.4417  0.8217
 9312SOL    HW239570   1.596   0.323   1.088 -0.3267 -0.9182 -0.4049
 9313SOL     OW39571   0.683   4.156   3.659  0.0144  0.0386  0.4943
 9313SOL    HW139572   0.593   4.184   3.677 -1.6547 -2.8708 -3.3007
 9313SOL    HW239573   0.682   4.200   3.573  1.2644 -2.8901 -1.0102
 9314SOL     OW39574   4.126   0.040   4.706 -0.3771  0.1613  0.2484
 9314SOL    HW139575   4.119   4.683   4.727  0.2398 -0.3980 -1.9727
 9314SOL    HW239576   4.193   0.069   4.767 -0.4358 -0.9419  0.8465
 9315SOL     OW39577   4.095   3.434   3.169 -0.3660  0.0180 -0.0501
 9315SOL    HW139578   4.134   3.381   3.100  0.4343  1.5189 -0.7376
 9315SOL    HW239579   4.164   3.497   3.188  0.4916 -0.9421 -0.0224
 9316SOL     OW39580   1.885   2.839   3.892 -0.5398  0.2530  0.2871
 9316SOL    HW139581   1.856   2.762   3.940 -0.8805  0.6497  0.7080
 9316SOL    HW239582   1.885   2.908   3.958 -0.1271 -0.8148  1.3808
 9317SOL     OW39583   0.787   3.973  16.667 -0.5290  0.2251 -0.0205
 9317SOL    HW139584   0.735   3.895  16.686 -1.0106  0.3254 -0.8914
 9317SOL    HW239585   0.830   3.926  16.596 -0.1027  2.5047 -1.2848
 9318SOL     OW39586   0.075   4.329   7.404  0.0553 -0.6627  0.0752
 9318SOL    HW139587   0.070   4.411   7.454  4.2037 -0.9241  0.9194
 9318SOL    HW239588   4.731   4.325   7.352  0.4822 -1.4338 -0.5332
 9319SOL     OW39589   4.673   4.565   3.566 -0.1507  0.1665  0.3454
 9319SOL    HW139590   4.682   4.539   3.475 -2.1998  0.6478  0.0162
 9319SOL    HW239591   0.009   4.627   3.569 -0.7605  0.8318  1.6440
 9320SOL     OW39592   4.330   0.273   0.446  0.1528 -0.0773  0.4283
 9320SOL    HW139593   4.406   0.321   0.414 -0.5397 -0.8170 -2.3103
 9320SOL    HW239594   4.360   0.182   0.445 -2.2635 -0.8850  0.0663
 9321SOL     OW39595   2.312   3.352   3.680  0.2721  0.2555  0.5938
 9321SOL    HW139596   2.359   3.348   3.596  0.2351 -3.0199  0.7049
 9321SOL    HW239597   2.234   3.402   3.656  1.7548  2.2226 -0.1271
 9322SOL     OW39598   4.458   3.238  12.310 -0.4425 -0.4044 -0.3583
 9322SOL    HW139599   4.451   3.187  12.390 -0.2891  1.1859  0.6809
 9322SOL    HW239600   4.444   3.327  12.342 -2.4364 -1.1152  0.7179
 9323SOL     OW39601   0.439   2.693  17.166 -0.3363 -0.1145  0.0161
 9323SOL    HW139602   0.496   2.636  17.115 -0.6675  0.1362 -0.6330
 9323SOL    HW239603   0.375   2.743  17.115  0.5821  0.6638 -0.3638
 9324SOL     OW39604   2.359   4.233  16.005 -0.2010 -0.0653 -0.5945
 9324SOL    HW139605   2.397   4.311  15.965 -0.1086  0.4902  0.5632
 9324SOL    HW239606   2.432   4.172  16.011  0.0998  0.1461 -2.3395
 9325SOL     OW39607   1.336   2.159   9.087  0.4918 -0.6323  0.6312
 9325SOL    HW139608   1.288   2.241   9.099 -1.7912 -1.9936  0.9572
 9325SOL    HW239609   1.321   2.136   8.995 -0.0774  2.5696 -0.0957
 9326SOL     OW39610   0.794   1.125  10.160 -0.0303  0.2055 -0.3665
 9326SOL    HW139611   0.882   1.108  10.128 -0.8237 -1.2058 -1.7866
 9326SOL    HW239612   0.745   1.160  10.085 -0.8691 -0.5972 -0.1903
 9327SOL     OW39613   0.229   1.196   2.175 -0.6242 -0.0109 -0.0242
 9327SOL    HW139614   0.162   1.184   2.108 -0.3313 -0.1288 -0.2970
 9327SOL    HW239615   0.178   1.219   2.253 -0.7622 -1.1841  0.2462
 9328SOL     OW39616   1.311   4.361   6.117 -0.1880  0.0145  0.2051
 9328SOL    HW139617   1.383   4.298   6.111  1.1490  1.6532 -0.6646
 9328SOL    HW239618   1.251   4.328   6.051 -1.0790  0.4471  0.7968
 9329SOL     OW39619   1.285   4.209   4.136 -0.0530  0.4126  0.4479
 9329SOL    HW139620   1.300   4.213   4.041  1.6448 -0.9152  0.6753
 9329SOL    HW239621   1.351   4.269   4.170  1.6283 -1.0160 -0.3287
 9330SOL     OW39622   3.183   1.647  10.476 -0.4010 -0.7386 -0.3103
 9330SOL    HW139623   3.090   1.661  10.490  0.4488  0.6748  3.9321
 9330SOL    HW239624   3.206   1.739  10.466 -0.7188 -0.4451  1.6714
 9331SOL     OW39625   1.567   1.331  15.491  0.3495 -0.1037  0.1724
 9331SOL    HW139626   1.512   1.309  15.566  0.0836  0.6140  0.1881
 9331SOL    HW239627   1.602   1.246  15.463  1.3010  0.9568 -1.8585
 9332SOL     OW39628   4.374   0.204   7.314  0.1299  0.5918  0.3628
 9332SOL    HW139629   4.297   0.240   7.358  0.6824  0.0999  1.7581
 9332SOL    HW239630   4.428   0.213   7.393  0.8391 -1.5581  0.0985
 9333SOL     OW39631   2.199   0.141   2.896 -0.0857  0.5347 -0.2024
 9333SOL    HW139632   2.279   0.183   2.927 -1.7745  2.0800  2.0946
 9333SOL    HW239633   2.145   0.219   2.886  0.7348  1.0953 -0.2656
 9334SOL     OW39634   0.171   1.285   9.495  0.3682 -0.5733 -0.1805
 9334SOL    HW139635   0.166   1.279   9.400 -0.8693  1.0219 -0.2083
 9334SOL    HW239636   0.117   1.362   9.512  0.2764 -1.3737  3.0500
 9335SOL     OW39637   2.086   2.182  10.760 -0.5616 -0.1808 -0.2370
 9335SOL    HW139638   2.005   2.159  10.806 -0.7382  1.5378  0.3385
 9335SOL    HW239639   2.117   2.104  10.714  0.7814  0.0672  0.2509
 9336SOL     OW39640   2.126   2.733   9.968  0.1307 -0.3913 -0.0855
 9336SOL    HW139641   2.115   2.824   9.939 -2.0045 -0.8456 -0.7075
 9336SOL    HW239642   2.095   2.742  10.058  0.2011  0.5207 -0.1531
 9337SOL     OW39643   0.085   1.715   7.830  0.5895  0.3323  0.5709
 9337SOL    HW139644   0.109   1.773   7.903 -0.7549  1.3302  0.2346
 9337SOL    HW239645   0.162   1.660   7.818  0.7864  1.2589 -2.3572
 9338SOL     OW39646   2.820   2.018   5.931 -0.0797 -0.5464 -0.2318
 9338SOL    HW139647   2.836   1.926   5.911 -1.8045 -0.7684 -0.5572
 9338SOL    HW239648   2.746   2.016   5.991 -1.5141 -1.6259 -2.0556
 9339SOL     OW39649   0.030   3.824   8.281  0.1166 -0.2901 -0.0793
 9339SOL    HW139650   0.016   3.888   8.211  1.3322 -2.5529 -2.3956
 9339SOL    HW239651   0.096   3.865   8.337  0.4061 -0.0748 -0.5761
 9340SOL     OW39652   0.494   1.862   3.894  0.1998  0.0710 -0.3269
 9340SOL    HW139653   0.467   1.943   3.850 -0.8564 -0.4731 -0.6709
 9340SOL    HW239654   0.451   1.871   3.979  0.8160 -0.1797  0.0081
 9341SOL     OW39655   0.366   0.560   6.584 -0.4627 -0.4147 -0.0325
 9341SOL    HW139656   0.426   0.534   6.654  2.1855  2.9809 -0.9805
 9341SOL    HW239657   0.293   0.503   6.607 -1.8333  0.9759 -0.9661
 9342SOL     OW39658   3.838   1.149   8.930 -0.5996 -0.1407 -0.5957
 9342SOL    HW139659   3.830   1.238   8.894  1.2587  0.2253 -0.1503
 9342SOL    HW239660   3.769   1.111   8.877  0.2691  2.7756 -3.8663
 9343SOL     OW39661   4.055   4.607   6.357  0.1312 -0.3042  0.5095
 9343SOL    HW139662   4.076   4.520   6.324  1.5940  1.0767 -2.1392
 9343SOL    HW239663   4.146   4.638   6.365  0.7567 -2.6941  2.5521
 9344SOL     OW39664   0.959   2.564   9.687  0.8071 -0.6874 -0.4392
 9344SOL    HW139665   0.960   2.660   9.691 -0.4891 -0.7741  1.3407
 9344SOL    HW239666   0.888   2.543   9.747  0.7767 -1.9516 -0.9128
 9345SOL     OW39667   3.211   4.587  13.843 -0.2707  0.8914 -0.0332
 9345SOL    HW139668   3.253   4.673  13.848  0.7003  0.5101 -1.6307
 9345SOL    HW239669   3.245   4.554  13.760  0.4571  1.5847 -0.0036
 9346SOL     OW39670   1.223   1.112   6.443 -0.0377  0.1622  0.2147
 9346SOL    HW139671   1.243   1.054   6.370 -0.5402  0.2262  0.0280
 9346SOL    HW239672   1.138   1.073   6.465 -0.3121  1.3943  1.3663
 9347SOL     OW39673   3.431   3.893   1.996 -0.1598 -0.6870  0.1128
 9347SOL    HW139674   3.444   3.821   2.059 -0.0472  0.5792  1.5297
 9347SOL    HW239675   3.438   3.975   2.044 -1.3389  0.3780 -1.5752
 9348SOL     OW39676   1.052   1.757   2.157  0.4636 -0.4473 -0.6873
 9348SOL    HW139677   1.042   1.684   2.096 -0.2381 -3.3540  2.9085
 9348SOL    HW239678   1.089   1.831   2.110  3.0606 -0.6313  1.0652
 9349SOL     OW39679   1.039   1.621  16.294 -0.2496  0.1895  0.4787
 9349SOL    HW139680   1.036   1.712  16.326 -0.4012  1.0094 -1.8567
 9349SOL    HW239681   1.054   1.586  16.381  0.6338 -0.4895  0.0533
 9350SOL     OW39682   0.983   3.525   6.883  0.2177 -0.1716  0.1400
 9350SOL    HW139683   0.961   3.555   6.795  0.4757 -0.3239  0.0243
 9350SOL    HW239684   1.055   3.585   6.901  0.7141 -0.3554 -1.1962
 9351SOL     OW39685   0.514   2.189  15.083  0.5064  0.2836 -0.4612
 9351SOL    HW139686   0.551   2.212  14.997 -0.1497 -0.8531 -1.0458
 9351SOL    HW239687   0.585   2.188  15.147 -0.1495  0.6530  0.2716
 9352SOL     OW39688   4.669   0.753   1.616 -0.0708  0.0744  0.4471
 9352SOL    HW139689   4.633   0.681   1.564 -0.6783  0.8304 -0.1844
 9352SOL    HW239690   4.653   0.725   1.706 -0.8629  0.2231  0.3561
 9353SOL     OW39691   0.804   0.864   6.314  0.2014 -0.3761  0.3582
 9353SOL    HW139692   0.791   0.959   6.316 -0.3475 -0.3552 -4.4726
 9353SOL    HW239693   0.751   0.835   6.240 -1.3034  1.5556  0.6838
 9354SOL     OW39694   4.500   2.096   7.890  0.2549 -0.1271 -0.2220
 9354SOL    HW139695   4.479   2.123   7.801 -0.5544 -0.1500 -0.0328
 9354SOL    HW239696   4.595   2.101   7.882  0.4273 -0.6405  1.5134
 9355SOL     OW39697   0.692   0.334   2.571  0.7857 -0.0008 -0.0332
 9355SOL    HW139698   0.761   0.272   2.549  0.9636  0.2116 -0.0799
 9355SOL    HW239699   0.697   0.341   2.666 -1.2286 -0.5192  0.1210
 9356SOL     OW39700   3.426   2.022   9.689 -1.0311 -0.1636 -0.4763
 9356SOL    HW139701   3.366   2.016   9.764  0.2850  1.7552  0.7461
 9356SOL    HW239702   3.368   1.986   9.621 -1.0037  1.4767 -1.3526
 9357SOL     OW39703   3.053   2.333   7.035  0.3999 -0.1383  0.3629
 9357SOL    HW139704   3.046   2.402   6.969 -1.8173 -1.1767 -0.4927
 9357SOL    HW239705   3.089   2.266   6.977 -1.6701  0.1184 -1.2179
 9358SOL     OW39706   1.554   1.043   3.351 -0.3570 -0.2247  0.4822
 9358SOL    HW139707   1.591   1.041   3.262 -1.5574  1.9684 -0.0696
 9358SOL    HW239708   1.510   1.127   3.365 -1.6506 -1.2998  2.7376
 9359SOL     OW39709   4.672   4.111   3.055 -0.1582  0.1426  0.3442
 9359SOL    HW139710   4.710   4.051   2.992  0.8992 -0.2576  1.3614
 9359SOL    HW239711   4.607   4.160   3.005 -1.1072 -1.4788 -0.0163
 9360SOL     OW39712   0.612   0.361   3.525  0.0307  0.3152 -0.0123
 9360SOL    HW139713   0.612   0.284   3.468 -0.5598  0.1576  0.2011
 9360SOL    HW239714   0.548   0.331   3.589  2.5370 -2.6702  1.0409
 9361SOL     OW39715   2.924   0.946  17.440 -0.5264  0.0473  0.3244
 9361SOL    HW139716   2.926   0.964  17.346 -2.6672  0.1630  0.3139
 9361SOL    HW239717   2.987   1.013  17.466  1.7567 -1.5772 -0.9233
 9362SOL     OW39718   0.152   2.694   3.231  0.1822  0.3111 -0.1331
 9362SOL    HW139719   0.109   2.647   3.303 -0.8288  0.9434 -0.3321
 9362SOL    HW239720   0.191   2.618   3.187 -0.6563 -0.3335  0.2495
 9363SOL     OW39721   2.918   0.446   1.072 -0.0570  0.0785  0.2447
 9363SOL    HW139722   3.009   0.429   1.049  0.0531 -0.1625  0.8563
 9363SOL    HW239723   2.919   0.541   1.075  0.6947  0.1006 -0.7247
 9364SOL     OW39724   3.759   3.681   3.658  0.0846  0.2631 -0.0081
 9364SOL    HW139725   3.711   3.598   3.657  0.4430  0.0810 -2.2326
 9364SOL    HW239726   3.771   3.691   3.753 -2.1050  0.7629  0.2117
 9365SOL     OW39727   3.872   1.143   9.925 -0.4062  0.0529  0.0607
 9365SOL    HW139728   3.868   1.049   9.942 -1.5094  0.6102  2.9237
 9365SOL    HW239729   3.939   1.160   9.992 -0.7945  4.3807 -0.6705
 9366SOL     OW39730   0.372   2.827   0.174  0.0989  0.2196  0.0083
 9366SOL    HW139731   0.364   2.807   0.268 -2.0461  1.0333 -0.0105
 9366SOL    HW239732   0.430   2.764   0.131 -0.3609  0.6946 -1.2865
 9367SOL     OW39733   3.896   1.365   5.227  0.0325 -0.5873  0.5796
 9367SOL    HW139734   3.892   1.295   5.162  0.9305 -1.2114  1.1921
 9367SOL    HW239735   3.866   1.316   5.304  2.3951 -2.5619  0.2416
 9368SOL     OW39736   3.642   1.648   3.570  0.5878  0.0717 -0.0540
 9368SOL    HW139737   3.581   1.579   3.545  1.0726 -0.7411  1.0145
 9368SOL    HW239738   3.684   1.597   3.639 -0.0992  0.3488  0.5664
 9369SOL     OW39739   2.800   1.729   3.031  0.1099 -0.1525 -0.2135
 9369SOL    HW139740   2.854   1.758   3.105 -0.0586  2.2938 -1.0669
 9369SOL    HW239741   2.821   1.636   3.034  1.2682  0.1451  0.8464
 9370SOL     OW39742   1.172   3.192   5.280  0.4686 -0.0588 -0.0504
 9370SOL    HW139743   1.153   3.283   5.255 -2.1177 -0.6953 -0.3738
 9370SOL    HW239744   1.128   3.139   5.213  1.4031  2.5601 -2.7218
 9371SOL     OW39745   0.537   2.914   0.982  0.1826 -0.2210 -0.2245
 9371SOL    HW139746   0.609   2.859   1.013  0.5049 -0.1840 -0.9073
 9371SOL    HW239747   0.478   2.896   1.055 -1.3227  2.0292 -0.8966
 9372SOL     OW39748   0.038   0.141  13.216  0.6087 -0.1423  0.2543
 9372SOL    HW139749   0.045   0.065  13.159  3.4767 -0.6800  1.3652
 9372SOL    HW239750   0.116   0.140  13.271  2.3435 -0.7289 -2.2204
 9373SOL     OW39751   3.744   3.886   7.805  0.6436  0.6480 -0.5981
 9373SOL    HW139752   3.729   3.943   7.729 -0.3330  0.5542 -0.4746
 9373SOL    HW239753   3.817   3.838   7.767 -0.2708 -2.3981  1.4968
 9374SOL     OW39754   0.350   2.911  17.646 -0.3093 -0.8178  0.0053
 9374SOL    HW139755   0.431   2.860  17.653 -0.8899 -1.2081  3.7555
 9374SOL    HW239756   0.297   2.890  17.722  0.6450  0.3789  0.9937
 9375SOL     OW39757   1.365   2.051   4.568  0.0665  0.1688  0.2112
 9375SOL    HW139758   1.380   2.103   4.489  1.7205 -0.6341 -0.0090
 9375SOL    HW239759   1.372   1.966   4.525 -0.8614 -0.6699  1.6964
 9376SOL     OW39760   4.463   0.825  14.775 -0.2685 -0.6496 -0.1576
 9376SOL    HW139761   4.539   0.818  14.717  1.2720 -1.5987  1.9591
 9376SOL    HW239762   4.486   0.910  14.811 -1.4900 -1.3764  2.3151
 9377SOL     OW39763   0.359   1.811   4.106 -0.2431 -0.2483 -0.1627
 9377SOL    HW139764   0.298   1.756   4.056 -0.0911 -1.3003  0.8100
 9377SOL    HW239765   0.307   1.873   4.156  1.8166  1.0107  0.4045
 9378SOL     OW39766   0.216   2.601   8.707 -0.0726 -0.6293  0.0854
 9378SOL    HW139767   0.146   2.584   8.770 -1.9689  0.0775 -1.7981
 9378SOL    HW239768   0.250   2.686   8.736 -1.0714 -0.1560 -0.1430
 9379SOL     OW39769   4.274   2.544   7.528 -0.4668 -0.0747 -0.1138
 9379SOL    HW139770   4.253   2.486   7.602  0.4079  1.4258  1.3050
 9379SOL    HW239771   4.192   2.543   7.478 -0.3095  0.4254 -0.3739
 9380SOL     OW39772   3.962   0.888   3.770 -0.3376  0.0787  0.4459
 9380SOL    HW139773   4.028   0.832   3.811 -1.1087 -1.7114 -0.7339
 9380SOL    HW239774   3.886   0.862   3.822  0.3972 -0.6215  1.1735
 9381SOL     OW39775   0.885   4.044  14.906  0.2874 -0.2854  0.5959
 9381SOL    HW139776   0.807   4.053  14.851 -0.1304 -1.5471  0.9826
 9381SOL    HW239777   0.941   4.107  14.861 -2.0131  0.2519 -1.5666
 9382SOL     OW39778   1.281   2.163  10.195  0.0594 -0.2875  0.0815
 9382SOL    HW139779   1.349   2.143  10.260  0.5616  0.9632 -0.0733
 9382SOL    HW239780   1.336   2.183  10.119  0.5435  0.0212  0.5117
 9383SOL     OW39781   0.962   4.728   7.425 -0.0531  0.1180 -0.6640
 9383SOL    HW139782   0.901   0.045   7.476 -0.2846 -2.5849  1.9176
 9383SOL    HW239783   0.955   0.041   7.343 -1.4678 -1.0628 -1.2520
 9384SOL     OW39784   3.248   0.582  16.962 -0.5954  1.0857 -0.2329
 9384SOL    HW139785   3.202   0.573  17.046  0.3170 -2.6217 -0.1286
 9384SOL    HW239786   3.311   0.514  16.940 -1.7940 -0.7061  1.8201
 9385SOL     OW39787   4.229   1.173   3.173 -0.6212 -0.2638  0.5484
 9385SOL    HW139788   4.292   1.169   3.100 -1.3066  0.5947 -0.0849
 9385SOL    HW239789   4.144   1.161   3.130 -0.5473  1.8115 -0.1526
 9386SOL     OW39790   1.895   0.919   2.666  0.7351 -0.3807  0.2989
 9386SOL    HW139791   1.879   0.898   2.758  0.7105  3.0963  1.0562
 9386SOL    HW239792   1.985   0.885   2.660  1.0181  0.5485 -0.6147
 9387SOL     OW39793   0.304   4.305   7.273 -0.0861 -0.0320  0.4667
 9387SOL    HW139794   0.232   4.301   7.336  1.2401 -0.5788  1.9383
 9387SOL    HW239795   0.363   4.366   7.318  1.1668 -0.0337 -1.1734
 9388SOL     OW39796   4.262   3.699   3.481  0.3491  0.0185 -0.1865
 9388SOL    HW139797   4.182   3.667   3.522  0.6564 -1.8548 -1.0604
 9388SOL    HW239798   4.312   3.723   3.559  1.4776  0.9930 -1.2050
 9389SOL     OW39799   0.990   0.300   6.659  0.3851  0.1700  0.2645
 9389SOL    HW139800   0.941   0.371   6.618 -0.4543 -0.6776 -0.2138
 9389SOL    HW239801   1.031   0.348   6.731 -1.5253 -2.1512  2.9575
 9390SOL     OW39802   3.188   1.095   4.421  0.3006  0.0685  0.2459
 9390SOL    HW139803   3.274   1.131   4.445  0.5576  1.3094 -2.5833
 9390SOL    HW239804   3.192   1.021   4.361  4.0607  2.6998 -2.7024
 9391SOL     OW39805   2.966   2.942   2.436  0.2392  0.2643  0.4397
 9391SOL    HW139806   2.914   2.944   2.516 -0.0841  4.3134  0.1232
 9391SOL    HW239807   2.981   2.848   2.426  0.0785  0.3785 -0.8780
 9392SOL     OW39808   1.180   3.727   9.471 -0.4692  0.1776 -0.2388
 9392SOL    HW139809   1.113   3.781   9.431  0.1004  1.5542  0.6486
 9392SOL    HW239810   1.235   3.692   9.400 -0.0312  0.9354 -0.2685
 9393SOL     OW39811   0.012   4.502   8.801 -0.5622  0.6565  0.3237
 9393SOL    HW139812   4.704   4.498   8.886 -0.9847  0.5225  0.0930
 9393SOL    HW239813   4.675   4.504   8.740  1.2092 -0.6631 -1.8438
 9394SOL     OW39814   1.205   0.989   8.908  0.1992 -0.2119  1.1440
 9394SOL    HW139815   1.118   0.958   8.882  0.7385  0.5376 -1.5875
 9394SOL    HW239816   1.199   0.967   9.001 -3.3368  1.8122  1.4162
 9395SOL     OW39817   2.579   1.610   9.530  0.0017  0.3901  0.4473
 9395SOL    HW139818   2.584   1.691   9.479 -1.3836  1.0653  1.3648
 9395SOL    HW239819   2.541   1.648   9.610  0.5889  1.9514 -0.0081
 9396SOL     OW39820   2.130   0.969   6.962  0.0023 -0.8490 -0.2640
 9396SOL    HW139821   2.069   0.949   6.891 -2.2046  1.5322  0.9718
 9396SOL    HW239822   2.059   1.004   7.016  0.2354 -2.0669  0.8186
 9397SOL     OW39823   0.320   0.989   6.697  1.0098 -0.0200 -0.0842
 9397SOL    HW139824   0.288   1.075   6.671 -1.6795  0.0943  3.5650
 9397SOL    HW239825   0.276   0.986   6.782 -0.6863 -2.5488 -1.0452
 9398SOL     OW39826   1.203   2.527   4.703  0.0728  0.2097  0.0848
 9398SOL    HW139827   1.156   2.463   4.649  0.2885  1.1411 -1.2034
 9398SOL    HW239828   1.128   2.584   4.720  1.2946  1.8569 -0.0511
 9399SOL     OW39829   1.381   3.795   7.319 -0.0849 -0.0108  0.1175
 9399SOL    HW139830   1.391   3.787   7.414  0.0896 -2.3216 -0.1176
 9399SOL    HW239831   1.290   3.824   7.318 -0.6119 -1.6589  0.4291
 9400SOL     OW39832   0.957   3.992   6.937 -0.1510 -0.6826 -0.0474
 9400SOL    HW139833   0.933   4.039   6.858  1.2091  1.6654  0.9303
 9400SOL    HW239834   0.872   3.960   6.967  0.1029 -1.1451  0.1812
 9401SOL     OW39835   3.007   0.185   7.611  0.1246  0.4425 -0.9194
 9401SOL    HW139836   2.958   0.211   7.689  0.8690  1.4499 -0.7894
 9401SOL    HW239837   2.954   0.226   7.543  0.8482  0.0522 -1.7173
 9402SOL     OW39838   0.082   3.353  16.061  0.4315 -0.4500 -0.1936
 9402SOL    HW139839   0.143   3.426  16.073 -1.4097  1.4509 -2.2693
 9402SOL    HW239840   0.084   3.335  15.967  1.1911  1.6542 -0.5853
 9403SOL     OW39841   3.635   0.780  14.426  0.5831  0.0336  0.0942
 9403SOL    HW139842   3.622   0.716  14.495 -2.6908 -3.2785 -3.6064
 9403SOL    HW239843   3.706   0.830  14.468  0.3456  0.4105  0.0498
 9404SOL     OW39844   1.784   1.349  14.002  0.0829 -0.1082 -0.6710
 9404SOL    HW139845   1.845   1.415  14.034  0.8662 -1.1219 -0.0801
 9404SOL    HW239846   1.726   1.353  14.078 -0.2296 -2.3421 -0.7965
 9405SOL     OW39847   3.902   3.231   6.514  0.1506 -0.0853  0.3802
 9405SOL    HW139848   3.947   3.210   6.596 -0.9510 -0.4955  0.8885
 9405SOL    HW239849   3.828   3.279   6.550 -1.9141 -3.8140  1.0699
 9406SOL     OW39850   2.696   4.420   8.944  0.4325  0.6158  0.6244
 9406SOL    HW139851   2.782   4.446   8.978  1.3178  1.8412 -2.5773
 9406SOL    HW239852   2.667   4.364   9.016 -0.8456  0.0435 -0.3350
 9407SOL     OW39853   0.500   2.109   5.539 -0.2053  0.4094  0.2592
 9407SOL    HW139854   0.582   2.138   5.579 -0.0296  0.1491  0.0847
 9407SOL    HW239855   0.514   2.015   5.552 -2.0393  0.0419 -0.5100
 9408SOL     OW39856   1.627   0.409   9.316  0.3177 -1.2014  0.1578
 9408SOL    HW139857   1.661   0.495   9.341 -0.6404 -0.9983  0.7439
 9408SOL    HW239858   1.533   0.418   9.302  0.4802 -0.9701 -0.8250
 9409SOL     OW39859   3.333   2.287   0.744  0.1933 -0.2737  0.7059
 9409SOL    HW139860   3.340   2.236   0.825  0.0147 -0.8496  0.3543
 9409SOL    HW239861   3.243   2.317   0.734  0.0420 -1.1753 -0.5354
 9410SOL     OW39862   3.589   0.541  11.049 -0.5086  0.3324 -0.1212
 9410SOL    HW139863   3.647   0.526  11.123  0.3836 -1.6533 -1.2381
 9410SOL    HW239864   3.586   0.636  11.057  0.7190  0.2671  1.0560
 9411SOL     OW39865   0.273   4.190  17.094 -0.0923  0.1721 -0.6878
 9411SOL    HW139866   0.303   4.169  17.183  2.2807  0.3578 -1.4400
 9411SOL    HW239867   0.336   4.257  17.067  0.0679  0.9422  1.5428
 9412SOL     OW39868   4.028   0.686   9.089  0.2237 -0.0816  0.4640
 9412SOL    HW139869   4.068   0.613   9.043  2.2069  1.0015  0.4755
 9412SOL    HW239870   3.999   0.636   9.165  0.1418 -1.0687 -0.2144
 9413SOL     OW39871   3.276   4.300   1.432 -0.0607  0.1138 -0.5610
 9413SOL    HW139872   3.254   4.271   1.521  0.1517 -4.9518 -2.1597
 9413SOL    HW239873   3.204   4.258   1.385  0.1114 -0.3373 -0.4174
 9414SOL     OW39874   2.014   3.723   4.096  0.1196 -0.3447  0.2286
 9414SOL    HW139875   2.005   3.796   4.158 -2.6917 -0.2548 -0.2699
 9414SOL    HW239876   1.946   3.665   4.130  1.3780 -0.8077  1.9406
 9415SOL     OW39877   0.690   3.116   2.452  0.5683  0.2079  0.9351
 9415SOL    HW139878   0.635   3.057   2.502  1.3366  0.1687  1.7308
 9415SOL    HW239879   0.697   3.189   2.513  0.0806  2.4153 -1.6184
 9416SOL     OW39880   1.693   4.459   4.502 -0.1931  0.1681 -0.1551
 9416SOL    HW139881   1.772   4.431   4.457  0.2741  0.0705  0.7350
 9416SOL    HW239882   1.695   4.548   4.465  2.3499  1.0180  2.0398
 9417SOL     OW39883   2.186   3.383   4.577  0.1423  0.1830  0.5258
 9417SOL    HW139884   2.196   3.298   4.620  2.1759  1.1902  2.0664
 9417SOL    HW239885   2.116   3.428   4.623  0.2875  1.1659 -0.2307
 9418SOL     OW39886   1.869   2.115   2.905 -0.2153  0.2027 -0.7940
 9418SOL    HW139887   1.833   2.120   2.993  2.8518 -2.0555  0.5819
 9418SOL    HW239888   1.946   2.170   2.918 -1.0744  1.3929 -0.7159
 9419SOL     OW39889   1.080   3.384   4.104  0.8272  0.0258  0.8882
 9419SOL    HW139890   1.023   3.456   4.133 -3.1196 -1.8587 -2.0806
 9419SOL    HW239891   1.047   3.312   4.158  0.6816  0.3883  1.2815
 9420SOL     OW39892   0.625   3.360   7.069 -0.2100 -0.5070 -0.0086
 9420SOL    HW139893   0.702   3.365   7.125  0.7667 -0.6149 -1.3335
 9420SOL    HW239894   0.653   3.300   6.999  0.5604  0.6758 -0.7145
 9421SOL     OW39895   1.250   1.087  16.147 -0.5731 -0.1030 -0.8422
 9421SOL    HW139896   1.199   1.011  16.176 -0.1148 -0.7652 -1.7376
 9421SOL    HW239897   1.176   1.146  16.135  0.4134  1.4037  0.4946
 9422SOL     OW39898   0.878   1.447  16.871 -0.2502  0.1561  0.4534
 9422SOL    HW139899   0.818   1.403  16.931 -0.9546 -1.1796 -1.2386
 9422SOL    HW239900   0.857   1.421  16.781 -1.4363  1.0343  0.4773
 9423SOL     OW39901   4.551   0.213   5.187 -0.6914  0.0702  0.4914
 9423SOL    HW139902   4.632   0.192   5.141  0.7986  0.7164  2.8375
 9423SOL    HW239903   4.595   0.236   5.269  0.3490  0.9038 -0.3067
 9424SOL     OW39904   0.672   4.638   3.087 -0.5859  0.5368 -0.0692
 9424SOL    HW139905   0.668   4.722   3.040 -0.2983 -0.6858 -2.2572
 9424SOL    HW239906   0.587   4.601   3.065 -1.1758  1.6299  0.3973
 9425SOL     OW39907   1.033   0.757  16.910 -0.6111  0.1116  0.1886
 9425SOL    HW139908   0.944   0.774  16.880 -0.3254  0.4859 -0.4624
 9425SOL    HW239909   1.078   0.837  16.883  2.1843 -1.3575  0.4686
 9426SOL     OW39910   1.441   1.741   9.553  0.3809 -0.4733 -0.4916
 9426SOL    HW139911   1.445   1.645   9.553 -2.7376 -0.6035 -1.7879
 9426SOL    HW239912   1.411   1.759   9.464 -1.4755 -0.6541  0.0917
 9427SOL     OW39913   3.331   2.547  16.354  0.2151  0.6299 -0.4722
 9427SOL    HW139914   3.295   2.619  16.406 -1.0099  0.6968 -1.4099
 9427SOL    HW239915   3.374   2.500  16.426 -0.6348  1.3590  0.5063
 9428SOL     OW39916   0.126   3.819   4.524 -0.0106  0.4519 -0.0108
 9428SOL    HW139917   0.216   3.786   4.517 -0.5184 -1.0507  0.4061
 9428SOL    HW239918   0.077   3.740   4.549  1.1443 -0.3367 -0.2717
 9429SOL     OW39919   4.644   3.045   3.758 -0.1386 -0.1843 -0.3278
 9429SOL    HW139920   4.718   3.019   3.813 -0.1197  1.5424  0.4496
 9429SOL    HW239921   4.600   3.111   3.811 -0.8406 -0.5964 -0.4021
 9430SOL     OW39922   3.773   3.951   9.427  0.2484 -0.0699  0.5356
 9430SOL    HW139923   3.776   3.857   9.449  0.3207 -0.2652 -0.3062
 9430SOL    HW239924   3.678   3.956   9.442 -0.0746 -1.5925 -0.9962
 9431SOL     OW39925   1.596   1.991   7.642 -0.3500 -0.2145  0.0051
 9431SOL    HW139926   1.537   1.971   7.570 -0.1276 -1.9536  0.3031
 9431SOL    HW239927   1.529   2.001   7.710  1.4703 -2.1745  2.1168
 9432SOL     OW39928   2.508   0.474   4.027  0.0813 -0.2993  0.6445
 9432SOL    HW139929   2.555   0.468   3.944 -0.5514 -1.1672  0.3472
 9432SOL    HW239930   2.421   0.452   3.992 -0.8380  0.8349  2.2222
 9433SOL     OW39931   3.945   0.863   4.451  0.0438 -0.8591 -0.0967
 9433SOL    HW139932   3.963   0.941   4.398 -2.0241 -0.6829 -0.5543
 9433SOL    HW239933   3.880   0.893   4.516 -0.0825 -2.4629  0.5128
 9434SOL     OW39934   3.368   2.314   0.233  0.5120 -0.2886 -0.3096
 9434SOL    HW139935   3.430   2.258   0.186  0.6124 -1.8114  1.6566
 9434SOL    HW239936   3.376   2.405   0.202 -0.3534  0.2429  1.0409
 9435SOL     OW39937   4.682   4.373   8.559  0.8942 -0.0026  0.2319
 9435SOL    HW139938   4.667   4.280   8.547  3.0670 -0.3804  0.3776
 9435SOL    HW239939   0.011   4.375   8.629  0.6952  1.2291  0.3855
 9436SOL     OW39940   2.160   2.694   6.927 -0.2864 -0.0714  0.3356
 9436SOL    HW139941   2.121   2.664   6.844 -3.0669  1.8698  0.9604
 9436SOL    HW239942   2.246   2.714   6.890 -0.0479  0.2626  1.0941
 9437SOL     OW39943   1.087   2.643  11.052 -0.2721  0.4642 -0.7222
 9437SOL    HW139944   1.101   2.602  11.137 -0.2551 -1.2260 -1.5274
 9437SOL    HW239945   1.155   2.599  11.000 -1.5935 -1.2705 -0.9580
 9438SOL     OW39946   1.463   0.935   9.774  0.5763  0.7630 -0.4977
 9438SOL    HW139947   1.504   0.958   9.857 -1.3499 -0.7523  0.8741
 9438SOL    HW239948   1.535   0.894   9.727  2.1649  1.2166  1.5548
 9439SOL     OW39949   2.314   4.553   7.665  0.9009  0.6543  0.0414
 9439SOL    HW139950   2.309   4.582   7.574 -0.2313  0.3611 -0.0006
 9439SOL    HW239951   2.371   4.476   7.660  0.1881  0.2717 -2.1754
 9440SOL     OW39952   0.795   4.038   7.649  0.5041  0.1123  0.4700
 9440SOL    HW139953   0.858   4.072   7.713  2.2699 -0.7072 -0.8028
 9440SOL    HW239954   0.802   3.945   7.670 -0.2434 -0.2070 -0.6914
 9441SOL     OW39955   2.248   4.368   0.044 -0.2088 -0.4070 -0.6061
 9441SOL    HW139956   2.320   4.429   0.030 -0.3294 -0.1796 -0.2255
 9441SOL    HW239957   2.187   4.395  17.720 -0.8177  0.3170  0.2085
 9442SOL     OW39958   4.284   1.977   2.806 -0.2860 -0.1899 -1.1543
 9442SOL    HW139959   4.294   2.020   2.891 -0.5722 -0.2972 -1.0659
 9442SOL    HW239960   4.320   1.890   2.822  0.2661 -0.1793 -2.3409
 9443SOL     OW39961   1.110   2.826  13.043 -0.4676  0.7732  0.3447
 9443SOL    HW139962   1.181   2.861  13.097  1.5294  0.4431 -2.0802
 9443SOL    HW239963   1.129   2.733  13.032 -1.6474  0.6205 -0.4109
 9444SOL     OW39964   1.265   1.603  16.115 -1.1513  0.4153  0.1443
 9444SOL    HW139965   1.280   1.512  16.141 -2.5949  0.8315  2.4333
 9444SOL    HW239966   1.174   1.606  16.144 -0.6789 -0.9876  1.7974
 9445SOL     OW39967   3.538   3.399   6.270  0.2274  0.0812  0.0285
 9445SOL    HW139968   3.560   3.478   6.220 -2.4253  0.7962 -0.0012
 9445SOL    HW239969   3.458   3.367   6.227  0.7272  0.6738 -1.3497
 9446SOL     OW39970   3.349   1.418  16.973  0.0209 -0.2531  0.9920
 9446SOL    HW139971   3.339   1.469  16.892  0.3673 -0.2932  0.9255
 9446SOL    HW239972   3.437   1.442  17.002  0.0003 -0.4078  1.1847
 9447SOL     OW39973   2.226   3.048   8.354  0.1651  0.2210 -0.2405
 9447SOL    HW139974   2.149   3.104   8.365 -0.9042 -2.1566  4.2408
 9447SOL    HW239975   2.217   2.978   8.419 -0.9207  0.2275 -0.3943
 9448SOL     OW39976   1.630   1.276   8.822 -0.0263 -0.3617 -0.3116
 9448SOL    HW139977   1.606   1.258   8.913  0.3327  4.3483  0.7465
 9448SOL    HW239978   1.720   1.245   8.823  0.2771  0.5272  0.3761
 9449SOL     OW39979   2.226   0.583   4.147  0.1545  0.1435 -0.5718
 9449SOL    HW139980   2.279   0.562   4.070  0.5019  1.3527 -0.6654
 9449SOL    HW239981   2.180   0.501   4.165  1.2933  0.2314  2.5719
 9450SOL     OW39982   3.137   3.631   1.857 -0.7774 -0.2048 -0.2285
 9450SOL    HW139983   3.158   3.724   1.851  0.1346 -0.2304  2.6355
 9450SOL    HW239984   3.225   3.593   1.853 -0.4363  0.4845  0.5157
 9451SOL     OW39985   1.726   2.656  12.402 -0.0130 -0.2746 -0.7901
 9451SOL    HW139986   1.779   2.641  12.324 -0.3012 -2.2065 -0.6066
 9451SOL    HW239987   1.637   2.664  12.367 -0.0305 -1.9307 -1.1040
 9452SOL     OW39988   3.029   4.594   1.317 -0.1340  0.5168  0.1027
 9452SOL    HW139989   3.063   4.683   1.309 -0.4239  0.4275 -2.0034
 9452SOL    HW239990   3.108   4.547   1.290 -1.6837  0.0164 -3.5590
 9453SOL     OW39991   1.323   1.677   9.814  0.1960  0.0672 -0.6979
 9453SOL    HW139992   1.229   1.678   9.796  0.1640  1.9739 -0.4699
 9453SOL    HW239993   1.362   1.720   9.738  2.1105  1.4226  1.0433
 9454SOL     OW39994   2.951   3.474   8.647 -0.1172 -0.5944 -0.1494
 9454SOL    HW139995   2.871   3.517   8.616  1.3560 -0.0409 -3.1753
 9454SOL    HW239996   3.005   3.546   8.679 -0.2108 -0.4982 -0.2083
 9455SOL     OW39997   0.235   3.365   3.231 -0.2685  0.2870 -0.0441
 9455SOL    HW139998   0.224   3.441   3.173 -1.1141 -0.6068 -1.0568
 9455SOL    HW239999   0.223   3.289   3.174 -3.2831  1.8448 -1.4786
 9456SOL     OW40000   2.785   3.926  12.228  0.1479  0.0062  0.2500
 9456SOL    HW140001   2.851   3.994  12.243 -0.0825  0.4707 -0.9228
 9456SOL    HW240002   2.782   3.915  12.133  0.8129 -1.1098  0.3519
 9457SOL     OW40003   3.288   2.793  17.301 -0.2233  0.1649  0.4237
 9457SOL    HW140004   3.288   2.697  17.299  2.2741  0.1590  1.2023
 9457SOL    HW240005   3.201   2.811  17.266 -0.1873  1.5557  1.0502
 9458SOL     OW40006   2.568   1.028   3.725  0.0518  0.1575 -0.5208
 9458SOL    HW140007   2.518   0.994   3.799  2.5091  0.5955  1.3436
 9458SOL    HW240008   2.651   1.061   3.758 -0.4825  0.1913  0.7644
 9459SOL     OW40009   3.011   4.601   3.634 -0.3004 -0.2199  0.0331
 9459SOL    HW140010   3.085   4.551   3.601 -0.3486 -0.6547  0.5909
 9459SOL    HW240011   3.032   4.617   3.725  0.4945  0.2853 -0.2431
 9460SOL     OW40012   4.020   4.204   7.556 -0.4255  0.2952  0.8657
 9460SOL    HW140013   3.977   4.132   7.603 -3.0325  1.6919  0.6185
 9460SOL    HW240014   3.956   4.276   7.557  3.0926  3.3933  0.4565
 9461SOL     OW40015   3.969   1.368   6.504 -0.0561  0.2986 -0.7090
 9461SOL    HW140016   3.939   1.421   6.431  1.1964  1.0804 -0.6497
 9461SOL    HW240017   4.055   1.352   6.466  0.2778 -1.7515  0.9201
 9462SOL     OW40018   0.938   0.576   3.077 -0.5814 -0.0454 -0.2008
 9462SOL    HW140019   0.947   0.664   3.041  0.0617  0.1824  0.5067
 9462SOL    HW240020   0.962   0.521   3.002 -0.5281  0.1954 -0.3609
 9463SOL     OW40021   2.716   1.149   5.732 -0.1020  0.6563 -0.0477
 9463SOL    HW140022   2.779   1.204   5.685  1.1333  0.1948  1.1065
 9463SOL    HW240023   2.636   1.194   5.704 -0.5322  0.0526  0.2108
 9464SOL     OW40024   3.666   4.038   8.506 -0.2524  0.4315 -0.4403
 9464SOL    HW140025   3.598   4.099   8.476  0.9764  2.5101  1.0369
 9464SOL    HW240026   3.737   4.056   8.445 -0.7304  1.6419 -0.6487
 9465SOL     OW40027   2.672   2.069   2.426  0.0897  0.6434  0.2082
 9465SOL    HW140028   2.693   2.004   2.359 -0.8770 -0.7924  1.3094
 9465SOL    HW240029   2.650   2.154   2.388  0.3861  0.1544 -1.0610
 9466SOL     OW40030   0.817   2.644   6.889 -0.8270 -0.2750 -0.4416
 9466SOL    HW140031   0.723   2.660   6.889 -0.6419  0.8389 -0.0407
 9466SOL    HW240032   0.845   2.673   6.976 -0.0576 -2.0500 -0.1092
 9467SOL     OW40033   0.224   2.190   3.370 -0.3469  0.1521  0.1852
 9467SOL    HW140034   0.257   2.100   3.380  1.6002  0.8709  0.2764
 9467SOL    HW240035   0.231   2.189   3.274  0.3100 -0.3193  0.2370
 9468SOL     OW40036   3.657   4.639  17.411  0.3410  0.7524 -0.7029
 9468SOL    HW140037   3.628   4.709  17.352 -4.0645 -0.2188  0.3385
 9468SOL    HW240038   3.571   4.602  17.428  1.9872 -1.7792  2.1761
 9469SOL     OW40039   0.282   0.904   0.903 -0.3426 -0.2246  0.1435
 9469SOL    HW140040   0.228   0.980   0.879 -0.5742 -0.5166 -0.2726
 9469SOL    HW240041   0.372   0.935   0.909  0.7561 -3.3378 -0.2929
 9470SOL     OW40042   0.187   0.228  15.442  0.4839 -0.1708 -0.0039
 9470SOL    HW140043   0.131   0.299  15.411  0.6072 -0.4300 -0.8135
 9470SOL    HW240044   0.208   0.175  15.365 -1.4691 -1.4275  0.3147
 9471SOL     OW40045   3.545   2.880   5.134  0.7148 -0.2574 -0.4051
 9471SOL    HW140046   3.553   2.818   5.206 -0.3731 -1.1027 -1.0078
 9471SOL    HW240047   3.519   2.958   5.183  2.8080  1.3498 -1.8641
 9472SOL     OW40048   2.891   0.536   4.704  0.5246  0.1901 -0.3569
 9472SOL    HW140049   2.891   0.443   4.678  0.3087 -0.0620  0.5362
 9472SOL    HW240050   2.869   0.578   4.621 -0.1365 -0.7724 -0.6806
 9473SOL     OW40051   0.789   1.658   9.286 -1.0913 -0.1445 -0.2279
 9473SOL    HW140052   0.694   1.653   9.293 -0.7848 -2.7560  2.0480
 9473SOL    HW240053   0.799   1.681   9.194 -0.6143  1.1846  0.1462
 9474SOL     OW40054   4.346   2.999   3.851  0.3806  0.1802  0.6112
 9474SOL    HW140055   4.329   2.957   3.766 -0.4412  1.2706  0.2304
 9474SOL    HW240056   4.304   2.930   3.903 -3.0768  1.7735 -0.0222
 9475SOL     OW40057   2.611   0.806   7.146 -0.1838 -0.6835 -0.2343
 9475SOL    HW140058   2.600   0.799   7.241  0.3868  1.9410  0.0115
 9475SOL    HW240059   2.521   0.825   7.121  0.3036  0.4467 -1.0984
 9476SOL     OW40060   1.293   1.608   4.684  0.8757 -0.3493  0.3785
 9476SOL    HW140061   1.239   1.683   4.709 -0.3374 -0.3640 -2.2091
 9476SOL    HW240062   1.255   1.578   4.601  2.5799  2.3094 -1.3530
 9477SOL     OW40063   0.005   0.173   3.285  0.2223 -0.1517 -0.1512
 9477SOL    HW140064   4.650   0.170   3.258  0.6001 -2.7489 -1.1190
 9477SOL    HW240065   0.002   0.267   3.301  0.4182 -0.1711 -0.0019
 9478SOL     OW40066   4.672   3.697   3.286 -0.4030 -0.3878  0.0320
 9478SOL    HW140067   4.591   3.713   3.238 -0.4386 -0.6327  0.0115
 9478SOL    HW240068   4.674   3.602   3.299  0.3473 -0.5409 -1.2144
 9479SOL     OW40069   3.004   1.779   9.025  0.2496  0.2326  0.0464
 9479SOL    HW140070   2.951   1.729   8.963 -0.7068  0.3538  0.7684
 9479SOL    HW240071   3.064   1.708   9.043  0.1017 -0.3433 -1.7146
 9480SOL     OW40072   3.442   1.301   2.441  0.0812 -0.2372  0.6664
 9480SOL    HW140073   3.444   1.361   2.366  0.2293 -0.4005  0.5410
 9480SOL    HW240074   3.468   1.225   2.390  2.3918 -0.8067  2.7053
 9481SOL     OW40075   2.878   0.375   3.348  0.1578  0.6362 -0.0299
 9481SOL    HW140076   2.930   0.310   3.395 -1.3166 -0.5086  0.0098
 9481SOL    HW240077   2.855   0.441   3.414  0.9784 -0.1201  1.0308
 9482SOL     OW40078   4.437   3.310   2.327  0.4131  0.0916 -0.1653
 9482SOL    HW140079   4.404   3.399   2.326 -0.2935 -0.1820 -0.7945
 9482SOL    HW240080   4.431   3.292   2.421 -2.4025  1.9022  0.0030
 9483SOL     OW40081   1.667   2.724   2.759 -0.6283  0.0980  0.3009
 9483SOL    HW140082   1.681   2.735   2.665  2.7825  0.9459  0.9392
 9483SOL    HW240083   1.664   2.817   2.782 -0.3448  0.8057 -2.5256
 9484SOL     OW40084   4.475   4.269   2.925  0.3972  0.5951  0.3877
 9484SOL    HW140085   4.527   4.330   2.874  0.3143  0.9850  0.7618
 9484SOL    HW240086   4.393   4.318   2.918  0.9398  1.3747 -0.5378
 9485SOL     OW40087   1.828   4.399   8.036 -0.8842 -0.3413 -0.3094
 9485SOL    HW140088   1.900   4.379   8.097 -0.5824  1.7517  0.0141
 9485SOL    HW240089   1.765   4.449   8.088 -1.3830 -1.7622  0.4525
 9486SOL     OW40090   1.905   0.013   8.021 -0.0308  0.3589  0.2091
 9486SOL    HW140091   1.958   4.679   8.059  1.7223  1.6096  0.0802
 9486SOL    HW240092   1.828   0.009   8.078 -0.5131  0.2048 -0.4522
 9487SOL     OW40093   0.928   3.168   2.778 -0.4569  0.1105  0.2319
 9487SOL    HW140094   0.908   3.133   2.864 -0.1388  0.8486  0.6069
 9487SOL    HW240095   0.845   3.202   2.745 -0.9043 -0.3701  0.8625
 9488SOL     OW40096   1.445   1.559   9.003  0.6600  0.1024  0.0652
 9488SOL    HW140097   1.527   1.591   9.042 -0.1164  0.3448  1.5154
 9488SOL    HW240098   1.394   1.530   9.079 -1.2371 -0.7896 -1.5553
 9489SOL     OW40099   0.658   4.187   6.833  0.3767 -1.0105 -0.4763
 9489SOL    HW140100   0.665   4.119   6.900  0.3983 -0.6915 -0.1563
 9489SOL    HW240101   0.735   4.236   6.862  0.6330 -1.3869 -0.5275
 9490SOL     OW40102   0.922   1.695  13.836 -0.4531 -0.0973  0.0058
 9490SOL    HW140103   0.872   1.756  13.889  3.1951  1.2960  1.8090
 9490SOL    HW240104   0.978   1.649  13.897 -2.9886 -0.8022  1.8045
 9491SOL     OW40105   0.600   2.688  14.067  0.0611 -0.3395 -0.4530
 9491SOL    HW140106   0.541   2.635  14.013 -0.7449  0.2335 -0.1362
 9491SOL    HW240107   0.557   2.681  14.152  3.5972 -1.6491  1.2210
 9492SOL     OW40108   1.449   3.790  16.935  0.2575  0.1761  0.1026
 9492SOL    HW140109   1.464   3.883  16.954  0.7441  0.3885 -1.3409
 9492SOL    HW240110   1.390   3.768  17.007 -0.4315  2.3045  0.1894
 9493SOL     OW40111   4.498   0.230   7.559 -0.0142 -0.3100 -0.1631
 9493SOL    HW140112   4.466   0.146   7.590  2.3528 -1.5981 -1.1479
 9493SOL    HW240113   4.439   0.287   7.608  2.8034  2.0889  0.4675
 9494SOL     OW40114   1.092   2.695   6.550 -0.5057  0.1232 -0.2286
 9494SOL    HW140115   1.160   2.734   6.495 -0.6595 -0.8569 -1.1243
 9494SOL    HW240116   1.048   2.765   6.598 -1.7948 -0.2247 -0.9161
 9495SOL     OW40117   0.806   2.896   0.070 -0.0765 -0.6327  0.0805
 9495SOL    HW140118   0.801   2.989   0.048 -1.2938 -1.0070 -1.2734
 9495SOL    HW240119   0.867   2.869   0.000  0.4228 -1.4020  0.8205
 9496SOL     OW40120   0.016   4.066   9.361  0.3139  0.0765 -0.1298
 9496SOL    HW140121   4.685   4.004   9.334 -0.0772  0.0370  0.9407
 9496SOL    HW240122   0.036   4.036   9.450  1.0565 -0.4896 -0.4897
 9497SOL     OW40123   4.687   0.034   5.807  0.5973 -0.4052 -0.3666
 9497SOL    HW140124   4.675   4.679   5.783 -0.6160 -0.2182 -0.4433
 9497SOL    HW240125   4.603   0.073   5.782  0.1935 -1.0843 -0.0744
 9498SOL     OW40126   3.655   2.133   4.985 -0.5592  0.7842  0.3124
 9498SOL    HW140127   3.636   2.198   4.917  0.2461 -0.4454 -1.0808
 9498SOL    HW240128   3.709   2.188   5.042  0.2157  0.0562  0.2891
 9499SOL     OW40129   1.074   4.299  10.871 -0.0196 -0.1986 -0.1892
 9499SOL    HW140130   1.060   4.285  10.964 -0.5852 -0.0271 -0.2467
 9499SOL    HW240131   1.134   4.372  10.883 -1.1090  1.1840 -3.0483
 9500SOL     OW40132   4.596   0.678   7.822 -0.0096  0.4534 -0.6151
 9500SOL    HW140133   4.532   0.637   7.879  1.3174 -1.3523 -0.4238
 9500SOL    HW240134   4.610   0.761   7.868  0.0238 -0.3234  0.7463
 9501SOL     OW40135   4.368   1.285   1.655 -0.1925  0.1250 -0.2709
 9501SOL    HW140136   4.389   1.347   1.586  0.1029 -0.1848 -0.4599
 9501SOL    HW240137   4.292   1.248   1.610 -2.5213  1.2818  2.6461
 9502SOL     OW40138   1.580   1.220   6.522  0.3919 -0.4216 -0.8070
 9502SOL    HW140139   1.505   1.224   6.582  1.2024  0.3919  0.1419
 9502SOL    HW240140   1.562   1.286   6.455 -1.1872 -0.5253 -0.5032
 9503SOL     OW40141   4.484   4.244   4.536 -0.1640 -0.4657  0.3908
 9503SOL    HW140142   4.482   4.303   4.461  0.5449 -0.3427  0.4674
 9503SOL    HW240143   4.532   4.171   4.495 -0.2088  0.0423 -0.5704
 9504SOL     OW40144   0.755   2.521   2.691 -1.0102 -0.2027  0.3876
 9504SOL    HW140145   0.804   2.469   2.754 -0.1089  1.7602  1.3001
 9504SOL    HW240146   0.790   2.606   2.718 -0.4738  0.0825 -1.1678
 9505SOL     OW40147   1.651   1.257   5.120 -0.3518  0.0638  0.2879
 9505SOL    HW140148   1.612   1.266   5.033  1.1361 -1.2210 -0.5002
 9505SOL    HW240149   1.732   1.305   5.102  2.2745 -4.0507  1.2108
 9506SOL     OW40150   1.766   0.037   7.190  0.3333 -0.4321  0.0454
 9506SOL    HW140151   1.709   0.015   7.264  1.4171 -1.0736  0.6904
 9506SOL    HW240152   1.705   0.041   7.116  1.0333  4.0526 -0.2593
 9507SOL     OW40153   4.160   1.466   5.165 -0.6264  0.1671  0.5172
 9507SOL    HW140154   4.069   1.437   5.176 -0.6972  1.1603  2.4984
 9507SOL    HW240155   4.174   1.423   5.080 -0.0039  1.0892  0.1615
 9508SOL     OW40156   3.439   1.819  10.725  0.0636 -0.3296  0.5445
 9508SOL    HW140157   3.484   1.884  10.671  0.3771 -2.5069 -1.8410
 9508SOL    HW240158   3.350   1.855  10.726 -1.1045 -3.1783 -1.0018
 9509SOL     OW40159   2.522   1.873   8.151 -0.0970  0.4418  0.2857
 9509SOL    HW140160   2.532   1.814   8.076  0.1920  0.3445  0.4015
 9509SOL    HW240161   2.600   1.846   8.200 -1.6513  0.1668  2.6042
 9510SOL     OW40162   1.095   4.326   3.119 -0.7026 -0.5480  0.0011
 9510SOL    HW140163   1.027   4.259   3.125  0.0289 -1.2140  0.6960
 9510SOL    HW240164   1.143   4.294   3.043 -0.6179 -1.7229  0.5560
 9511SOL     OW40165   4.704   0.852   0.778  0.0572  0.4127  0.0414
 9511SOL    HW140166   4.686   0.807   0.860 -1.9389  2.7256  0.8751
 9511SOL    HW240167   0.013   0.932   0.803  1.4431 -0.9950  2.0653
 9512SOL     OW40168   4.045   3.271   6.016 -0.2522  0.6198 -0.1290
 9512SOL    HW140169   4.007   3.288   6.102 -3.4479 -0.1406 -1.3720
 9512SOL    HW240170   4.098   3.347   5.995 -0.1920  0.9103  1.0856
 9513SOL     OW40171   4.408   3.946  15.471  0.0146  0.2379 -0.0595
 9513SOL    HW140172   4.313   3.937  15.474  0.0816 -0.3867  0.3630
 9513SOL    HW240173   4.431   3.863  15.430 -0.2376  0.1507 -0.0262
 9514SOL     OW40174   2.240   3.529  12.993 -0.2597  0.4273 -0.3377
 9514SOL    HW140175   2.296   3.517  13.070 -1.1202 -1.4129  0.0231
 9514SOL    HW240176   2.287   3.597  12.946 -1.5627  1.7567  0.2545
 9515SOL     OW40177   1.521   4.197   6.115 -0.2458  0.1742 -0.7270
 9515SOL    HW140178   1.568   4.135   6.170  0.9453  0.5228 -1.3460
 9515SOL    HW240179   1.588   4.217   6.049  0.2077  0.8546 -0.0637
 9516SOL     OW40180   3.420   4.389   3.717 -0.0105 -0.4585  0.1026
 9516SOL    HW140181   3.394   4.298   3.710  0.9931 -0.9959  3.4703
 9516SOL    HW240182   3.498   4.391   3.772  0.4961  1.2487 -0.6492
 9517SOL     OW40183   1.247   3.247  12.562  0.0589  0.0490 -0.7487
 9517SOL    HW140184   1.293   3.297  12.495 -0.7169  1.0685 -0.5121
 9517SOL    HW240185   1.206   3.181  12.505 -1.3848  0.6821 -0.4345
 9518SOL     OW40186   1.870   4.232   5.508  0.0945 -0.5699 -0.6534
 9518SOL    HW140187   1.928   4.306   5.529  0.5238 -1.1844  0.3258
 9518SOL    HW240188   1.865   4.239   5.413 -0.8631 -2.5520 -0.7428
 9519SOL     OW40189   1.537   0.294   1.241 -0.3803  0.4199 -0.1004
 9519SOL    HW140190   1.520   0.209   1.282  0.2306  0.1400 -0.4437
 9519SOL    HW240191   1.514   0.352   1.315  3.2446 -0.0812  1.3842
 9520SOL     OW40192   4.215   2.919  15.887  0.0580  0.5724  0.1299
 9520SOL    HW140193   4.178   2.952  15.805  0.6053 -2.4503 -1.3175
 9520SOL    HW240194   4.307   2.918  15.860  0.4039 -0.6317  1.3999
 9521SOL     OW40195   3.615   1.477  15.253  0.3787 -0.0931 -0.2553
 9521SOL    HW140196   3.702   1.457  15.218  0.4143 -2.3173  1.1000
 9521SOL    HW240197   3.596   1.563  15.214 -0.9282  0.1296  0.8861
 9522SOL     OW40198   3.697   3.981   4.348  0.1734 -0.0398  0.0074
 9522SOL    HW140199   3.602   3.995   4.346 -0.0487 -1.4267  0.2913
 9522SOL    HW240200   3.720   4.069   4.320 -0.0660 -0.3563 -1.2111
 9523SOL     OW40201   1.442   1.537   4.966 -0.2517  0.2721  0.0335
 9523SOL    HW140202   1.368   1.492   5.007 -0.5550 -0.9894 -1.9180
 9523SOL    HW240203   1.411   1.601   4.902 -0.4498  0.0929 -0.0476
 9524SOL     OW40204   4.520   1.214  10.209  0.4762  0.2784 -0.0685
 9524SOL    HW140205   4.499   1.293  10.258  0.3340 -0.0389  0.3791
 9524SOL    HW240206   4.615   1.224  10.218  0.5723 -0.4457 -0.2809
 9525SOL     OW40207   2.746   4.686   7.607 -0.0548  0.5224 -0.1371
 9525SOL    HW140208   2.833   4.662   7.574  0.0923  0.7501  0.0858
 9525SOL    HW240209   2.725   4.737   7.529 -2.6928  0.8585  0.8053
 9526SOL     OW40210   3.247   1.802   4.474 -0.0133 -0.5093 -0.4911
 9526SOL    HW140211   3.158   1.832   4.493  0.2935 -1.0514  1.8165
 9526SOL    HW240212   3.286   1.828   4.558  0.9653 -0.6592 -0.8980
 9527SOL     OW40213   4.383   2.399   5.027 -0.4064  1.0652 -0.2768
 9527SOL    HW140214   4.288   2.389   5.032 -0.3669  0.8373  0.0097
 9527SOL    HW240215   4.397   2.480   5.076 -0.6038  1.2073 -0.4553
 9528SOL     OW40216   0.849   0.588   9.599 -0.3783 -0.3774  0.2252
 9528SOL    HW140217   0.928   0.549   9.637 -0.7621  0.3152  1.7152
 9528SOL    HW240218   0.871   0.681   9.591  1.3778 -0.5764  2.7454
 9529SOL     OW40219   3.680   0.175  17.539 -0.2000  0.3178  0.2280
 9529SOL    HW140220   3.770   0.185  17.509 -0.1301  1.1044  0.6958
 9529SOL    HW240221   3.687   0.123  17.619 -0.3813 -0.4381 -0.2382
 9530SOL     OW40222   1.343   2.592   5.585 -0.5963  0.0639  0.6384
 9530SOL    HW140223   1.282   2.657   5.550  0.7181  0.4252 -0.9621
 9530SOL    HW240224   1.321   2.592   5.678 -2.2329 -0.3941  0.2613
 9531SOL     OW40225   4.518   2.523   7.390 -0.4344  0.1265  0.0033
 9531SOL    HW140226   4.577   2.558   7.456  1.8334 -3.2578 -0.2127
 9531SOL    HW240227   4.428   2.530   7.424  0.0292  3.4193  0.4882
 9532SOL     OW40228   3.654   3.692  16.590 -0.0445 -0.0827  0.3461
 9532SOL    HW140229   3.710   3.759  16.551 -0.5858 -0.6058 -1.3662
 9532SOL    HW240230   3.621   3.730  16.671 -0.5923  0.1924 -0.0057
 9533SOL     OW40231   0.100   3.337   6.704 -0.3021 -0.5044 -0.1153
 9533SOL    HW140232   0.028   3.295   6.750 -2.5442  3.0434 -0.4064
 9533SOL    HW240233   0.072   3.428   6.698  0.9702 -0.2738 -2.2515
 9534SOL     OW40234   4.557   0.551  17.044 -0.2398  0.4092  0.0757
 9534SOL    HW140235   4.488   0.604  17.083  0.5410  0.7740  0.9720
 9534SOL    HW240236   4.514   0.484  16.992 -2.2621  0.9497  1.0731
 9535SOL     OW40237   0.619   0.242   8.545  0.0434  0.2895  0.4935
 9535SOL    HW140238   0.600   0.148   8.550 -1.1282  0.4611 -0.7310
 9535SOL    HW240239   0.533   0.282   8.557  0.6275  0.9902  2.4035
 9536SOL     OW40240   2.707   0.461  11.771  0.2680  0.0250  0.2896
 9536SOL    HW140241   2.689   0.505  11.854  1.3914  0.5416  0.2662
 9536SOL    HW240242   2.694   0.369  11.794  1.9639 -0.4054 -0.4436
 9537SOL     OW40243   0.089   4.694   4.349 -0.1604  0.2100 -0.3175
 9537SOL    HW140244   0.133   4.663   4.270 -0.0033 -2.6740  0.9245
 9537SOL    HW240245   0.142   0.035   4.364 -0.8207  0.6674 -0.3261
 9538SOL     OW40246   4.625   4.616   8.459  0.0768 -0.7052  0.4958
 9538SOL    HW140247   4.641   4.610   8.365  0.6366  0.9759  0.4741
 9538SOL    HW240248   4.661   4.535   8.495  1.1811 -0.5525 -0.2767
 9539SOL     OW40249   1.128   0.298   4.388  0.3560 -0.2620  0.3359
 9539SOL    HW140250   1.186   0.232   4.349 -0.3310 -1.4659  1.3368
 9539SOL    HW240251   1.184   0.374   4.375 -0.1883  0.2453  0.9186
 9540SOL     OW40252   2.145   0.130  12.108 -0.2403 -0.0667  0.6344
 9540SOL    HW140253   2.208   0.166  12.170 -0.2550 -1.7660  1.6504
 9540SOL    HW240254   2.067   0.162  12.155 -0.3075  0.9123 -0.1345
 9541SOL     OW40255   1.623   3.196   1.273 -0.6754 -0.5143  0.1744
 9541SOL    HW140256   1.590   3.198   1.183 -0.3019  2.8018  0.1224
 9541SOL    HW240257   1.648   3.104   1.285  1.2656 -0.2604 -1.9939
 9542SOL     OW40258   1.940   3.348   8.909  0.1797  0.6738  0.5577
 9542SOL    HW140259   1.920   3.397   8.988 -1.2870  0.6528  0.2017
 9542SOL    HW240260   1.927   3.259   8.942  0.1437  1.1240  1.7593
 9543SOL     OW40261   1.410   4.207  13.503 -0.0703 -0.2012 -0.0882
 9543SOL    HW140262   1.336   4.256  13.538 -0.7825 -0.9434 -0.5668
 9543SOL    HW240263   1.477   4.275  13.512 -1.2827  1.1867 -1.5717
 9544SOL     OW40264   0.042   3.861   5.056 -0.0822  0.5869  0.0102
 9544SOL    HW140265   0.104   3.795   5.088 -0.2985  1.3419  2.0009
 9544SOL    HW240266   4.693   3.819   5.063  0.7418 -0.7620  1.8413
 9545SOL     OW40267   1.673   2.533   6.083  0.1351  0.2763 -0.0324
 9545SOL    HW140268   1.724   2.602   6.041 -0.4626  0.2684 -0.7651
 9545SOL    HW240269   1.661   2.568   6.172 -1.4469  0.5921 -0.3773
 9546SOL     OW40270   1.435   3.032   9.290 -0.2208 -0.1182 -0.0127
 9546SOL    HW140271   1.364   3.094   9.273  0.3319 -0.0239 -2.0648
 9546SOL    HW240272   1.382   2.959   9.322 -0.9285 -0.1566 -1.2417
 9547SOL     OW40273   0.185   4.706   8.798  0.0515  0.5336 -0.4670
 9547SOL    HW140274   0.213   0.019   8.875 -2.0787 -1.0224  1.2759
 9547SOL    HW240275   0.116   4.649   8.830 -0.2006 -0.0971 -2.1174
 9548SOL     OW40276   3.713   0.048   7.180 -0.0300  0.9984  0.4764
 9548SOL    HW140277   3.665   4.702   7.183 -0.6405  1.3593  0.7925
 9548SOL    HW240278   3.678   0.086   7.261  1.4074  0.1559  1.4920
 9549SOL     OW40279   0.729   4.732  15.307  0.0358 -0.0144  0.3063
 9549SOL    HW140280   0.665   0.044  15.255 -0.2767 -0.6091  0.1311
 9549SOL    HW240281   0.797   0.057  15.333  0.0341  0.5702 -1.0827
 9550SOL     OW40282   2.411   4.124  10.710  0.1718  0.6473 -0.0328
 9550SOL    HW140283   2.491   4.138  10.659  0.4940  0.7249  0.4937
 9550SOL    HW240284   2.380   4.212  10.734  0.1064  1.4500 -3.0007
 9551SOL     OW40285   2.944   1.072   8.471  0.3766 -0.4089 -0.7518
 9551SOL    HW140286   2.990   1.155   8.465  0.0508 -0.2979 -1.7840
 9551SOL    HW240287   2.862   1.086   8.423  0.2201  0.1600 -0.3158
 9552SOL     OW40288   3.316   1.269   9.508 -0.5572  0.1116  0.3317
 9552SOL    HW140289   3.260   1.279   9.431  0.8244  0.2335 -0.6671
 9552SOL    HW240290   3.352   1.357   9.518  1.0535 -0.1891 -2.5388
 9553SOL     OW40291   4.618   2.693   5.575  0.0634  0.2034  0.3099
 9553SOL    HW140292   4.551   2.645   5.623 -0.1524  0.2771  0.0832
 9553SOL    HW240293   4.625   2.642   5.494  3.1682  0.5968  0.3274
 9554SOL     OW40294   0.272   2.808   9.138  0.3070 -0.6283  0.0848
 9554SOL    HW140295   0.294   2.715   9.133  2.6227 -0.0711  0.1975
 9554SOL    HW240296   0.240   2.812   9.228 -0.2555 -0.9720 -0.1001
 9555SOL     OW40297   4.221   3.965  14.693  0.5617 -0.4462 -0.1298
 9555SOL    HW140298   4.315   3.959  14.679  0.2642 -2.4563 -1.3130
 9555SOL    HW240299   4.201   4.027  14.623  2.9136  0.1347 -0.2821
 9556SOL     OW40300   2.114   3.367   2.696 -0.2582  0.1173  0.6872
 9556SOL    HW140301   2.026   3.374   2.735 -0.8854 -1.2496 -0.4770
 9556SOL    HW240302   2.131   3.459   2.674  1.3287 -0.6084 -1.0887
 9557SOL     OW40303   4.629   2.231   4.875  0.5805  0.0096  0.0614
 9557SOL    HW140304   4.633   2.325   4.859 -1.2638  0.2379  0.8472
 9557SOL    HW240305   4.550   2.218   4.822  0.6396  1.3936 -0.3508
 9558SOL     OW40306   2.889   0.562   4.403  0.5027  0.0775 -0.3913
 9558SOL    HW140307   2.971   0.607   4.423  0.5895 -1.1877  2.1103
 9558SOL    HW240308   2.904   0.529   4.314  1.3952 -0.5335 -0.0192
 9559SOL     OW40309   1.336   1.980   7.830  0.1432 -0.4375  0.1705
 9559SOL    HW140310   1.277   1.923   7.782  0.8273  0.5932 -1.9187
 9559SOL    HW240311   1.282   2.055   7.856  1.5742  0.8814 -0.6476
 9560SOL     OW40312   1.364   2.718   0.711  0.0911 -0.3703 -0.1603
 9560SOL    HW140313   1.442   2.670   0.738  0.1203  0.1318  0.6488
 9560SOL    HW240314   1.377   2.801   0.758 -2.4433  1.7102 -3.1176
 9561SOL     OW40315   0.997   1.906  17.221 -0.7189  0.3177 -0.5288
 9561SOL    HW140316   1.033   1.928  17.307 -0.0499 -0.7767 -0.5366
 9561SOL    HW240317   0.981   1.812  17.223 -2.1336  0.5937  0.4982
 9562SOL     OW40318   3.101   3.014   8.556  0.0713  0.3402  0.4002
 9562SOL    HW140319   3.081   2.961   8.479 -0.0596 -0.6717  1.1225
 9562SOL    HW240320   3.034   3.079   8.537 -0.4277 -0.0476  0.8235
 9563SOL     OW40321   3.692   4.502  14.507 -0.3029  0.1877 -0.1988
 9563SOL    HW140322   3.693   4.487  14.602 -0.3137 -0.1480 -0.2534
 9563SOL    HW240323   3.665   4.594  14.512 -0.4187  0.0524  1.7534
 9564SOL     OW40324   1.719   3.730   3.593  0.5362  0.5883  0.2216
 9564SOL    HW140325   1.716   3.822   3.620 -0.9171  1.2162 -2.1668
 9564SOL    HW240326   1.756   3.694   3.674  1.6933  0.2824 -0.4545
 9565SOL     OW40327   0.462   0.132  17.027  0.7136 -0.8586  0.5962
 9565SOL    HW140328   0.397   0.108  16.961 -1.8065  0.5335  2.5827
 9565SOL    HW240329   0.464   0.062  17.092 -0.8849 -0.3588  1.1819
 9566SOL     OW40330   0.231   2.963  16.004 -0.2068  0.1512 -0.3697
 9566SOL    HW140331   0.272   3.049  16.000  0.1962 -0.0171  0.2873
 9566SOL    HW240332   0.310   2.911  16.017 -1.3011 -1.5948 -0.6276
 9567SOL     OW40333   1.207   3.995   4.321  0.0794 -0.2334 -0.5950
 9567SOL    HW140334   1.266   3.958   4.255  0.8917 -0.6452  0.3533
 9567SOL    HW240335   1.227   4.088   4.313  0.5242 -0.1489  1.4673
 9568SOL     OW40336   2.530   1.906  10.539  0.0314  0.1800 -0.3807
 9568SOL    HW140337   2.462   1.840  10.551 -1.3231  1.3589 -1.4653
 9568SOL    HW240338   2.502   1.937  10.452  1.2286 -1.4576 -1.3508
 9569SOL     OW40339   2.357   2.236   7.440  0.1597  0.5231  0.4489
 9569SOL    HW140340   2.444   2.228   7.480  0.0288  0.3964  0.7089
 9569SOL    HW240341   2.388   2.234   7.349  2.5239  4.0525  1.1808
 9570SOL     OW40342   2.116   4.357   4.212 -0.0213 -0.7941  0.2266
 9570SOL    HW140343   2.154   4.325   4.131 -0.4095  0.6197 -0.5052
 9570SOL    HW240344   2.190   4.410   4.241  1.0637 -1.5830 -1.1221
 9571SOL     OW40345   1.786   3.071  10.244 -0.3350  0.0567  0.2170
 9571SOL    HW140346   1.816   3.149  10.198 -0.2370 -0.6269 -0.8969
 9571SOL    HW240347   1.866   3.041  10.289 -0.8513  1.0679  1.8108
   4.73677   4.73677  17.74548
